Membrane in water
40347
    1TMC1    C1    1   1.054   0.244  11.290 -0.2071 -0.0642 -0.0104
    1TMC1    C2    2   1.184   0.276  11.287  0.1090 -0.1323  0.0649
    1TMC1    C3    3   1.239   0.319  11.171 -0.2802 -0.4952  0.5983
    1TMC1    C4    4   0.974   0.251  11.177 -0.2491 -0.2711  0.2800
    1TMC1    C5    5   1.028   0.315  11.064  0.4461 -0.4464  0.1975
    1TMC1    C6    6   1.163   0.341  11.061 -1.4347 -0.6703 -0.4216
    1TMC1     C    7   0.988   0.218  11.411  0.0400  0.1795  0.0728
    1TMC1     O    8   0.869   0.241  11.425 -0.1556  0.0778  0.4035
    1TMC1     H    9   1.252   0.292  11.369 -1.4198 -0.2067  1.3491
    1TMC1    H1   10   0.867   0.235  11.174 -0.4776  1.5334 -0.8446
    1TMC1    H2   11   1.200   0.399  10.978  3.4253 -0.7249  1.6959
    1TMC1    C7   12   0.983   0.246  10.938  0.1184 -0.3940  0.5142
    1TMC1    C8   13   1.358   0.402  11.179  0.0465  0.4650  0.0909
    1TMC1    O1   14   0.961   0.129  10.937  0.3274 -0.3201 -0.1725
    1TMC1    O2   15   1.462   0.379  11.243  1.0681 -0.8946  0.2953
    1TMC1    O3   16   1.032   0.312  10.833  0.1474 -0.1884 -0.3137
    1TMC1    H3   17   1.054   0.399  10.873  1.8880 -1.4188  1.3844
    1TMC1    O5   18   1.291   0.518  11.184  0.7518 -0.3669 -0.4307
    1TMC1    H5   19   1.197   0.523  11.158  1.3286  0.9613 -2.3240
    2MPD2     C   20   1.005   4.734  11.862 -0.9477  0.3157  0.2683
    2MPD2    C1   21   0.898   0.039  11.785 -0.0509  0.2626 -0.8001
    2MPD2    C2   22   0.920   0.115  11.673 -0.0320 -0.1296 -0.5381
    2MPD2    C3   23   1.049   0.116  11.627 -0.5779 -0.4030  0.2777
    2MPD2    C4   24   1.162   0.074  11.701  0.1963  0.6027  0.3084
    2MPD2    C5   25   1.138   0.002  11.817 -0.9745 -0.3139 -0.8212
    2MPD2     H   26   0.835   0.165  11.627 -1.6137 -1.0961  1.3160
    2MPD2    H1   27   1.265   0.076  11.667 -0.3221 -0.7545 -1.3270
    2MPD2    H2   28   0.987   4.672  11.949  2.7688  0.3964  1.0949
    2MPD2    H3   29   1.216   4.701  11.879 -2.8989 -1.3363  0.9024
    2MPD2     N   30   1.080   0.166  11.498  0.0373  0.0442  0.0311
    2MPD2    H5   31   1.174   0.144  11.466  0.8616  0.6287  2.0106
    2MPD2    N1   32   0.761   0.024  11.820  0.2396 -0.1111  0.3145
    2MPD2    H7   33   0.697   0.060  11.751  2.4569 -0.2948 -1.8181
    3TMC1    C1   34   4.713   0.935  10.578  0.5411  0.6317 -0.1576
    3TMC1    C2   35   0.034   0.986  10.689  0.5355 -0.1375  0.3172
    3TMC1    C3   36   0.170   1.008  10.675  1.3803 -0.6116 -1.0419
    3TMC1    C4   37   0.040   0.907  10.464 -0.0889 -0.3904  0.4221
    3TMC1    C5   38   0.178   0.933  10.451 -0.3723 -0.3674  0.3528
    3TMC1    C6   39   0.242   0.994  10.557 -0.3447  0.1193  0.4911
    3TMC1     C   40   4.596   0.856  10.604 -1.0070  0.0106  0.4446
    3TMC1     O   41   4.560   0.781  10.511  0.5777 -0.0601 -0.0220
    3TMC1     H   42   4.736   0.980  10.790 -2.1878 -2.0463 -0.8574
    3TMC1    H1   43   4.724   0.865  10.382  0.3557 -0.6698  0.2532
    3TMC1    H2   44   0.339   1.035  10.531 -0.2657  0.2191  0.9493
    3TMC1    C7   45   0.251   0.882  10.334 -0.9461  0.4174  0.1877
    3TMC1    C8   46   0.217   1.109  10.764  0.2088  0.2917  0.0860
    3TMC1    O1   47   0.309   0.956  10.256 -0.2967 -0.3292 -0.1925
    3TMC1    O2   48   0.137   1.187  10.817  0.8333 -0.5964 -0.2961
    3TMC1    O3   49   0.304   0.774  10.396 -0.5791 -0.0221  0.0164
    3TMC1    H3   50   0.249   0.741  10.470 -1.1043 -0.8307 -0.7342
    3TMC1    O5   51   0.350   1.112  10.759  0.4192 -0.4219  0.1018
    3TMC1    H5   52   0.380   1.028  10.718 -0.6620 -1.3112  1.1837
    4MPD2     C   53   4.241   0.675  10.942  0.5741  0.0882  0.5925
    4MPD2    C1   54   4.260   0.813  10.961  0.2335 -0.3948  0.2220
    4MPD2    C2   55   4.353   0.881  10.888 -0.5940 -0.1933  0.0895
    4MPD2    C3   56   4.425   0.810  10.788  0.5255  0.5874  0.5048
    4MPD2    C4   57   4.395   0.686  10.756  0.9588  0.0950  0.7984
    4MPD2    C5   58   4.305   0.616  10.837 -0.0361  0.1292  0.0587
    4MPD2     H   59   4.388   0.983  10.905 -2.0740  1.1396 -4.8781
    4MPD2    H1   60   4.435   0.638  10.667  1.2129  0.2348  0.8377
    4MPD2    H2   61   4.166   0.620  10.998  1.9531 -0.9418  1.3940
    4MPD2    H3   62   4.284   0.513  10.809 -1.4817  0.8572 -1.5154
    4MPD2     N   63   4.535   0.882  10.726  0.1179 -0.1697 -0.2122
    4MPD2    H5   64   4.564   0.968  10.771  0.5679  0.2784 -1.3656
    4MPD2    N1   65   4.187   0.884  11.058 -0.1390  0.4612 -0.2752
    4MPD2    H7   66   4.213   0.982  11.066  1.3282  0.0204  0.3719
    5TCq1    O1   67   0.350   2.992  12.060  0.2627  0.2843 -1.1457
    5TCq1    C1   68   0.316   2.878  12.007  0.1348 -0.0425  0.2777
    5TCq1    O2   69   0.373   2.841  11.904  0.6538 -0.4243  0.0910
    5TCq1    C2   70   0.178   2.852  12.038  0.4707  0.4479  0.3010
    5TCq1    C3   71   0.121   2.886  12.156  0.1022  0.4234 -0.4030
    5TCq1    C4   72   4.729   2.866  12.168 -0.1876 -0.7646  0.0203
    5TCq1    C5   73   4.660   2.818  12.063  0.1114 -0.6335 -0.3615
    5TCq1    C6   74   4.720   2.787  11.950  0.3988 -0.0237  0.5806
    5TCq1    C7   75   0.109   2.806  11.930 -0.3360  0.1668 -0.1425
    5TCq1    C8   76   4.659   2.724  11.837 -0.0882  0.2629  0.0309
    5TCq1    O4   77   4.729   2.718  11.738  0.6213  0.4385 -0.2597
    5TCq1    C9   78   4.660   2.883  12.295  0.9704  0.1929  0.0722
    5TCq1    O5   79   4.536   2.842  12.299  0.1157 -0.0552 -0.2808
    5TCq1    O6   80   4.728   2.935  12.389  0.4302  0.0992  0.0787
    5TCq1    H1   81   0.295   3.014  12.138  0.6431  1.5464 -1.2389
    5TCq1    H2   82   0.189   2.901  12.239 -1.1261  0.1333  0.6652
    5TCq1    H3   83   4.557   2.792  12.085 -0.2560 -0.4018 -1.8074
    5TCq1    H4   84   0.171   2.783  11.844  1.0591  1.8340  0.4037
    6MPD2     C   85   4.302   2.707  11.774 -0.0322 -0.2783 -0.7075
    6MPD2    C1   86   4.432   2.669  11.752  0.0691 -0.3226 -0.4330
    6MPD2    C2   87   4.473   2.627  11.627 -0.5231 -0.0212  0.3565
    6MPD2    C3   88   4.384   2.607  11.522 -0.0577 -0.2854  0.3146
    6MPD2    C4   89   4.250   2.640  11.551 -0.5311 -0.7097 -0.1973
    6MPD2    C5   90   4.218   2.685  11.673  0.0299 -0.0859 -0.5784
    6MPD2     H   91   4.576   2.595  11.620 -0.4752  0.2936 -0.3599
    6MPD2    H1   92   4.168   2.623  11.482  0.2612 -1.9484 -0.8190
    6MPD2    H2   93   4.268   2.732  11.874  1.0374 -3.1088  0.3828
    6MPD2    H3   94   4.114   2.706  11.694  0.2970  0.2252  0.4491
    6MPD2     N   95   4.434   2.564  11.396  0.1098  0.6882  0.7593
    6MPD2    H5   96   4.535   2.566  11.387 -0.0276 -0.5742 -1.1730
    6MPD2    N1   97   4.517   2.709  11.853  0.5659  0.2191  0.3058
    6MPD2    H7   98   4.464   2.743  11.932  0.8919 -1.4899  1.2499
    7TCq1    O1   99   1.413   3.003  14.097  0.4897 -0.5400  0.6962
    7TCq1    C1  100   1.469   2.894  14.148  0.3060  0.6649  0.0837
    7TCq1    O2  101   1.464   2.869  14.270 -0.5677  0.0747 -0.0602
    7TCq1    C2  102   1.496   2.798  14.044 -0.1778 -0.2178  0.1716
    7TCq1    C3  103   1.432   2.809  13.921  0.6645  0.3797  0.3261
    7TCq1    C4  104   1.436   2.702  13.840 -0.0789 -0.0427 -0.0926
    7TCq1    C5  105   1.481   2.581  13.877  0.1374  0.2655 -0.3796
    7TCq1    C6  106   1.557   2.576  13.990  0.5262 -1.0520 -0.3722
    7TCq1    C7  107   1.557   2.684  14.078  0.3939 -0.3172 -0.4537
    7TCq1    C8  108   1.664   2.479  14.000  0.0988 -0.4316  0.1900
    7TCq1    O4  109   1.652   2.383  13.924 -0.2325 -0.4169 -0.2232
    7TCq1    C9  110   1.364   2.710  13.714  0.1433 -0.3690  0.2626
    7TCq1    O5  111   1.365   2.605  13.643 -0.1479 -0.0574  0.0328
    7TCq1    O6  112   1.295   2.819  13.692  0.6625  0.5506 -0.4791
    7TCq1    H1  113   1.440   3.015  14.004  2.1689  0.4385  1.3208
    7TCq1    H2  114   1.382   2.899  13.888 -1.0816 -0.4572  0.6648
    7TCq1    H3  115   1.479   2.494  13.812  0.8416 -0.3630  0.4436
    7TCq1    H4  116   1.605   2.673  14.175 -1.7757 -0.4089  0.6112
    8MPD2     C  117   2.181   2.429  14.047  0.3579  0.4787  0.0305
    8MPD2    C1  118   2.083   2.340  13.999  0.4495  0.6624 -0.1269
    8MPD2    C2  119   1.950   2.374  13.997 -0.0450 -0.6251 -0.3759
    8MPD2    C3  120   1.909   2.497  14.047 -0.0939 -0.2021 -0.3191
    8MPD2    C4  121   1.998   2.580  14.097 -0.4780  0.0952 -0.3027
    8MPD2    C5  122   2.135   2.544  14.100 -0.3557  0.6228  1.0090
    8MPD2     H  123   1.869   2.308  13.968 -1.0344  0.4230  0.0096
    8MPD2    H1  124   1.969   2.669  14.152 -0.6090  0.3213 -0.7397
    8MPD2    H2  125   2.286   2.406  14.059  0.5021  1.0131 -0.2160
    8MPD2    H3  126   2.206   2.607  14.152  0.5763 -0.3464  0.9063
    8MPD2     N  127   1.778   2.544  14.037 -0.1183 -0.1432  0.1332
    8MPD2    H5  128   1.767   2.644  14.052 -1.5740  0.0365 -2.2103
    8MPD2    N1  129   2.129   2.219  13.937  0.3400  0.0649  0.2119
    8MPD2    H7  130   2.226   2.193  13.952  0.0102 -2.0026 -1.1146
    9TMC1    C1  131   0.033   1.821  11.301 -0.6611 -0.0970 -0.6678
    9TMC1    C2  132   0.027   1.741  11.193 -0.6930  0.2661 -0.0242
    9TMC1    C3  133   4.683   1.781  11.094  0.0641 -0.5185  0.4550
    9TMC1    C4  134   4.712   1.946  11.300  0.4337 -0.1003 -0.5426
    9TMC1    C5  135   4.618   1.975  11.203  0.3129  0.2104 -0.3167
    9TMC1    C6  136   4.601   1.892  11.098 -0.1658  0.0298  0.1592
    9TMC1     C  137   0.127   1.791  11.411  0.5493 -0.5130  0.5188
    9TMC1     O  138   0.172   1.885  11.470  0.1158 -0.2329  0.7940
    9TMC1     H  139   0.079   1.647  11.177  0.1622  0.6100  0.7327
    9TMC1    H1  140   4.715   2.012  11.386 -1.8290 -0.3484 -0.2544
    9TMC1    H2  141   4.530   1.907  11.018  1.8444  0.7454 -1.5113
    9TMC1    C7  142   4.531   2.093  11.215  0.6020  0.4824 -0.2811
    9TMC1    C8  143   4.618   1.670  11.026 -0.7371  0.2356  0.2640
    9TMC1    O1  144   4.564   2.191  11.281  0.3315 -0.1173 -0.1702
    9TMC1    O2  145   4.500   1.676  10.996  0.6040  0.3972  0.1679
    9TMC1    O3  146   4.403   2.061  11.182  0.0554  0.1049  0.5091
    9TMC1    H3  147   4.386   1.966  11.167  2.3760 -0.2312  0.1073
    9TMC1    O5  148   4.709   1.584  10.977 -0.6998  0.2331  0.6325
    9TMC1    H5  149   0.060   1.615  10.980 -0.2710 -0.9719 -0.3558
   10MPD2     C  150   0.322   1.656  11.605 -0.0784  0.1518  0.3021
   10MPD2    C1  151   0.212   1.597  11.543  0.0106 -0.1024 -0.3034
   10MPD2    C2  152   0.187   1.464  11.578 -0.6749 -0.5313 -0.1877
   10MPD2    C3  153   0.271   1.400  11.667  0.1383  0.3101 -0.8649
   10MPD2    C4  154   0.378   1.463  11.718  0.4030 -0.1329  0.0010
   10MPD2    C5  155   0.412   1.595  11.689  1.0067 -0.2061 -0.8086
   10MPD2     H  156   0.104   1.418  11.526 -0.7140  1.7249 -2.1298
   10MPD2    H1  157   0.443   1.408  11.786 -0.4763 -1.2350 -0.0440
   10MPD2    H2  158   0.342   1.761  11.587 -0.1378  0.0173 -0.5240
   10MPD2    H3  159   0.494   1.644  11.740  0.9354 -1.0007  0.0692
   10MPD2     N  160   0.249   1.273  11.720 -0.3960  0.2562  0.1600
   10MPD2    H5  161   0.326   1.249  11.782  2.9755  1.7583 -3.4254
   10MPD2    N1  162   0.133   1.659  11.443 -0.2652  0.0839 -0.0964
   10MPD2    H7  163   0.068   1.600  11.391 -0.1155  1.4721 -1.8506
   11TCq1    O1  164   0.233   0.879  14.898  0.2107 -0.2637  0.0214
   11TCq1    C1  165   0.166   0.839  14.787 -0.4847  0.4264 -0.2917
   11TCq1    O2  166   0.053   0.800  14.777  0.3647 -0.5823 -0.0009
   11TCq1    C2  167   0.268   0.808  14.686  0.1246 -0.0679  0.3125
   11TCq1    C3  168   0.401   0.836  14.692  0.2722  0.0179 -0.0102
   11TCq1    C4  169   0.481   0.789  14.587 -0.2146  0.0076  0.3425
   11TCq1    C5  170   0.435   0.722  14.478 -0.8207  0.0970 -0.8176
   11TCq1    C6  171   0.301   0.696  14.477 -0.4806  0.2541  0.4123
   11TCq1    C7  172   0.222   0.734  14.584 -0.2398 -0.0669  0.6038
   11TCq1    C8  173   0.241   0.587  14.401  0.0922  0.2939 -0.4642
   11TCq1    O4  174   0.122   0.571  14.407  0.1410 -0.0697  0.1471
   11TCq1    C9  175   0.622   0.829  14.588  0.1640 -0.8081 -1.1203
   11TCq1    O5  176   0.654   0.928  14.656  0.2128  0.7410 -0.7486
   11TCq1    O6  177   0.697   0.773  14.506 -0.0951 -0.0705  0.0841
   11TCq1    H1  178   0.330   0.890  14.893  0.4794 -1.9903  1.2498
   11TCq1    H2  179   0.453   0.891  14.770  0.4008 -2.8777  1.9474
   11TCq1    H3  180   0.507   0.702  14.400  1.7649  1.0718  1.3155
   11TCq1    H4  181   0.116   0.713  14.582  0.0352 -1.3566 -0.3046
   12MPD2     C  182   0.203   0.364  14.208  0.2393  0.0103 -0.1761
   12MPD2    C1  183   0.326   0.404  14.246  0.0792 -0.8040 -0.0200
   12MPD2    C2  184   0.437   0.333  14.201 -0.1766  0.3350 -0.7109
   12MPD2    C3  185   0.427   0.225  14.120 -0.0501 -0.5079 -0.0939
   12MPD2    C4  186   0.301   0.182  14.087 -0.1529  0.3572  0.6749
   12MPD2    C5  187   0.190   0.252  14.131  0.3067  0.9688 -0.1208
   12MPD2     H  188   0.532   0.380  14.224 -0.1024 -0.0508 -0.2403
   12MPD2    H1  189   0.290   0.091  14.030  0.9754  1.8897 -2.0319
   12MPD2    H2  190   0.113   0.417  14.237  0.4248  0.1437  0.1678
   12MPD2    H3  191   0.089   0.223  14.104  0.8499 -2.7565  1.8435
   12MPD2     N  192   0.545   0.149  14.083 -0.3076  0.1304 -0.6539
   12MPD2    H5  193   0.527   0.076  14.015 -0.2499 -0.2867 -0.2210
   12MPD2    N1  194   0.344   0.522  14.328  0.3440  1.0076 -0.3111
   12MPD2    H7  195   0.440   0.539  14.358  0.1080  0.7769  0.5527
   13TCq1    O1  196   0.676   1.776  11.344  0.6100  0.0618  0.0834
   13TCq1    C1  197   0.707   1.649  11.321 -0.4363  0.1162  0.1463
   13TCq1    O2  198   0.774   1.584  11.396 -0.2387  1.0326 -0.4871
   13TCq1    C2  199   0.579   1.593  11.270 -0.0441  0.0258  0.2854
   13TCq1    C3  200   0.521   1.650  11.156  0.1041 -0.0785  1.0543
   13TCq1    C4  201   0.389   1.612  11.117  0.1701  0.8091  0.9887
   13TCq1    C5  202   0.326   1.513  11.186  0.1161  0.6269  0.3443
   13TCq1    C6  203   0.396   1.452  11.294 -0.0154  0.4959 -0.4591
   13TCq1    C7  204   0.523   1.489  11.339 -0.1247  0.8866  0.2056
   13TCq1    C8  205   0.345   1.314  11.324  0.1207  0.5111 -0.2091
   13TCq1    O4  206   0.258   1.274  11.245 -0.2138  0.0737 -0.3986
   13TCq1    C9  207   0.326   1.673  11.000  0.3295 -0.7094  0.0898
   13TCq1    O5  208   0.208   1.637  10.974  0.0130  0.3781  0.3442
   13TCq1    O6  209   0.403   1.714  10.911 -0.7506 -0.0055  0.7133
   13TCq1    H1  210   0.611   1.817  11.283  1.3987  1.5209  0.2162
   13TCq1    H2  211   0.571   1.726  11.097  0.2542  0.4373  1.8514
   13TCq1    H3  212   0.236   1.465  11.148  0.7502 -0.2258 -0.1042
   13TCq1    H4  213   0.576   1.451  11.426  1.2343 -2.1555 -1.9627
   14MPD2     C  214   0.494   1.052  11.540  1.0590 -0.1796  0.6326
   14MPD2    C1  215   0.409   1.112  11.454  0.3854  1.0639 -0.7399
   14MPD2    C2  216   0.285   1.055  11.445 -0.1702 -0.3035  0.5585
   14MPD2    C3  217   0.261   0.924  11.485  0.3125  0.6970 -0.8702
   14MPD2    C4  218   0.356   0.851  11.551 -0.2524 -0.1419  0.4170
   14MPD2    C5  219   0.469   0.924  11.589  1.0291  0.3178 -0.2896
   14MPD2     H  220   0.214   1.095  11.373  0.6814  1.3915  0.6546
   14MPD2    H1  221   0.344   0.752  11.593  0.0362 -0.2012  0.3566
   14MPD2    H2  222   0.586   1.099  11.571  1.5403 -1.2804  0.8356
   14MPD2    H3  223   0.543   0.886  11.658 -0.2085  1.6695  1.7822
   14MPD2     N  224   0.128   0.879  11.461  0.6802  0.1939  0.1613
   14MPD2    H5  225   0.054   0.947  11.441 -0.1225 -0.3407  1.3287
   14MPD2    N1  226   0.433   1.238  11.399 -0.2858  0.1884 -0.1576
   14MPD2    H7  227   0.518   1.286  11.430  0.5923  0.0851 -2.4470
   15TCq1    O1  228   3.996   0.322   1.284 -0.1071  0.5555 -0.3433
   15TCq1    C1  229   4.023   0.414   1.377 -0.2240 -0.2685 -0.1414
   15TCq1    O2  230   4.125   0.479   1.380  0.5231 -0.9205 -0.2903
   15TCq1    C2  231   3.890   0.469   1.419 -0.2784 -0.0004  0.2948
   15TCq1    C3  232   3.877   0.598   1.383 -0.8063 -0.1632 -1.4568
   15TCq1    C4  233   3.748   0.656   1.381  0.1982 -0.4366  0.3526
   15TCq1    C5  234   3.645   0.583   1.428 -0.6709 -0.7739  0.1904
   15TCq1    C6  235   3.662   0.452   1.466  0.3898 -0.3393  1.0130
   15TCq1    C7  236   3.783   0.392   1.451  0.6913 -0.3092 -0.2071
   15TCq1    C8  237   3.555   0.360   1.500  1.1212  0.0628 -0.1380
   15TCq1    O4  238   3.601   0.244   1.513  0.1459  0.1887  0.2859
   15TCq1    C9  239   3.726   0.791   1.331  0.0073 -0.2029 -0.8369
   15TCq1    O5  240   3.834   0.852   1.306  0.1337 -0.2413 -0.0690
   15TCq1    O6  241   3.623   0.797   1.260 -0.0191 -0.5433  0.2981
   15TCq1    H1  242   3.904   0.290   1.293 -0.1123  0.8981  0.9497
   15TCq1    H2  243   3.955   0.649   1.328 -0.3383  0.1906 -0.4612
   15TCq1    H3  244   3.546   0.626   1.417  0.7517  2.2933 -0.4947
   15TCq1    H4  245   3.809   0.288   1.466 -0.5226 -0.5953 -0.0941
   16MPD2     C  246   3.204   0.430   1.588  0.4571  0.0083  0.3790
   16MPD2    C1  247   3.315   0.351   1.555  0.0636  0.2103  0.2990
   16MPD2    C2  248   3.308   0.214   1.563  0.0384  0.2210  0.1038
   16MPD2    C3  249   3.191   0.158   1.598 -0.4965 -0.1571  0.2915
   16MPD2    C4  250   3.082   0.226   1.630 -0.1642  0.3906 -0.0619
   16MPD2    C5  251   3.085   0.362   1.620 -0.8766 -0.0149 -0.3316
   16MPD2     H  252   3.391   0.148   1.540  1.5405  1.5165  1.7467
   16MPD2    H1  253   2.998   0.176   1.678 -0.1301  1.2791  0.9300
   16MPD2    H2  254   3.193   0.537   1.577  1.6052  0.2489  1.5868
   16MPD2    H3  255   2.990   0.409   1.641 -0.0222 -0.6507  4.7770
   16MPD2     N  256   3.195   0.018   1.605 -0.1047 -0.9127  0.6294
   16MPD2    H5  257   3.287   4.719   1.593 -0.0736 -0.2735 -1.4027
   16MPD2    N1  258   3.428   0.418   1.515 -0.0191  0.2278 -0.0485
   16MPD2    H7  259   3.413   0.518   1.507 -0.3712  0.2002  0.2743
   17TMC1    C1  260   4.504   4.064  10.909  0.1106 -0.4306  0.3138
   17TMC1    C2  261   4.535   4.164  10.817  0.5584  0.1371  0.3370
   17TMC1    C3  262   4.497   4.134  10.687  0.1632 -0.2121 -0.0586
   17TMC1    C4  263   4.437   3.946  10.874 -0.6271 -0.3509 -0.2976
   17TMC1    C5  264   4.405   3.930  10.743 -0.2203  0.2461  0.0477
   17TMC1    C6  265   4.426   4.022  10.651  0.7594 -0.3292  0.3563
   17TMC1     C  266   4.569   4.068  11.041 -0.7419 -0.0095 -0.0175
   17TMC1     O  267   4.539   3.983  11.122 -0.0636 -0.3578 -0.2721
   17TMC1     H  268   4.591   4.254  10.841  2.0044 -1.0118  1.2241
   17TMC1    H1  269   4.432   3.858  10.938 -3.6679  0.6512  0.8265
   17TMC1    H2  270   4.391   4.011  10.549 -1.0755  0.1079  0.9498
   17TMC1    C7  271   4.311   3.825  10.715 -0.7044 -0.0029 -0.1336
   17TMC1    C8  272   4.539   4.222  10.576  0.3210  0.5507 -0.4908
   17TMC1    O1  273   4.317   3.774  10.607 -0.0186  0.5429  0.3451
   17TMC1    O2  274   4.490   4.220  10.462 -0.5832  0.0278  0.5364
   17TMC1    O3  275   4.256   3.771  10.829  0.2036 -0.1799  0.6778
   17TMC1    H3  276   4.229   3.841  10.892  1.1823 -0.2164  1.1373
   17TMC1    O5  277   4.655   4.288  10.603 -0.1760 -0.1264 -0.0438
   17TMC1    H5  278   4.693   4.302  10.692  0.2346 -0.9678 -0.0879
   18MPD2     C  279   4.733   4.144  11.279  0.1361  0.4460  0.1340
   18MPD2    C1  280   4.741   4.198  11.152 -0.2710 -0.2587  0.0222
   18MPD2    C2  281   0.086   4.302  11.135  0.6149  0.6985 -0.0655
   18MPD2    C3  282   0.159   4.353  11.244 -0.3585 -0.5867  0.3849
   18MPD2    C4  283   0.146   4.296  11.366 -0.5269  0.2394  0.4477
   18MPD2    C5  284   0.066   4.191  11.388 -0.0559  0.1990  0.3619
   18MPD2     H  285   0.096   4.348  11.037 -0.9403  1.0508 -0.0676
   18MPD2    H1  286   0.219   4.332  11.438  0.0320 -3.2652  1.6239
   18MPD2    H2  287   4.666   4.061  11.303 -0.6529  1.2919  0.8996
   18MPD2    H3  288   0.057   4.159  11.491  0.5427 -0.3728  0.2299
   18MPD2     N  289   0.262   4.449  11.235  0.1605 -0.4730  0.1292
   18MPD2    H5  290   0.307   4.467  11.324 -2.0840  1.6025  0.8524
   18MPD2    N1  291   4.662   4.170  11.046 -0.6653 -0.3847 -0.3138
   18MPD2    H7  292   4.669   4.227  10.962 -0.0787  0.3910  0.2728
   19TMC2    C1  293   2.270   0.450  13.780 -0.9507  0.7762  0.1110
   19TMC2    C2  294   2.200   0.525  13.689  0.4264 -0.8123 -0.0866
   19TMC2    C3  295   2.079   0.586  13.724  0.2774  0.8087 -0.4903
   19TMC2    C4  296   2.223   0.437  13.907 -0.7902  0.2071 -0.4452
   19TMC2    C5  297   2.104   0.496  13.940 -0.1459 -0.4802  0.2192
   19TMC2    C6  298   2.032   0.575  13.855 -0.7863  0.0282 -0.3068
   19TMC2     C  299   2.397   0.390  13.737 -0.3571  0.7710 -0.2709
   19TMC2     O  300   2.457   0.447  13.645 -0.3071 -0.5305  0.5255
   19TMC2     H  301   2.238   0.534  13.588  1.5046 -0.6162  0.3363
   19TMC2    H1  302   2.290   0.385  13.974  1.4511  0.6863 -2.3163
   19TMC2    H2  303   1.947   0.635  13.885  0.9435  2.7712 -0.9843
   19TMC2    C7  304   2.029   0.438  14.057 -0.0917 -0.0100 -0.7983
   19TMC2    C8  305   1.985   0.627  13.619 -0.2319 -0.3189  0.1265
   19TMC2    O1  306   2.090   0.343  14.102 -0.1713 -0.1190  0.1941
   19TMC2    O2  307   1.873   0.669  13.648 -0.1916  0.4340 -0.3034
   19TMC2    O5  308   2.000   0.540  13.518  0.4744  0.1600  0.5873
   19TMC2    H5  309   2.086   0.538  13.472  0.1332  0.9596 -0.0851
   20MPD2     C  310   2.662   0.236  13.721 -0.4558 -0.8089 -0.2056
   20MPD2    C1  311   2.569   0.235  13.822  0.5552 -0.2214 -0.9121
   20MPD2    C2  312   2.602   0.173  13.940  0.1513  0.2640  0.1250
   20MPD2    C3  313   2.731   0.124  13.959  0.0279 -0.2139 -0.0044
   20MPD2    C4  314   2.817   0.131  13.855 -0.3767  0.3176  0.5239
   20MPD2    C5  315   2.789   0.188  13.737  0.9108 -0.3402 -0.4879
   20MPD2     H  316   2.533   0.175  14.023  0.7989  1.9014  0.6238
   20MPD2    H1  317   2.921   0.101  13.861 -0.3105  0.3853 -0.3686
   20MPD2    H2  318   2.640   0.290  13.630  2.4628 -1.0977 -1.0819
   20MPD2    H3  319   2.860   0.200  13.656 -0.5673  3.6550 -1.2084
   20MPD2     N  320   2.780   0.073  14.077  0.3738 -0.1538 -0.0811
   20MPD2    H5  321   2.880   0.056  14.075  0.6380  1.4743 -1.0502
   20MPD2    N1  322   2.444   0.289  13.818  0.0478  0.4471  0.5203
   20MPD2    H7  323   2.377   0.254  13.886 -2.0974  0.4673 -1.5814
   21TMC2    C1  324   4.717   1.117  14.377 -0.4366 -0.1280 -0.4657
   21TMC2    C2  325   0.054   1.015  14.340 -0.1621  0.3150 -0.3185
   21TMC2    C3  326   4.735   0.917  14.260  0.4115  0.2428 -0.2738
   21TMC2    C4  327   4.592   1.141  14.320  0.1885  0.2811 -0.1025
   21TMC2    C5  328   4.536   1.037  14.253 -0.2258 -0.6350 -0.2612
   21TMC2    C6  329   4.610   0.925  14.216  0.0863  0.3144 -0.4024
   21TMC2     C  330   4.722   1.153  14.518  0.5277  0.1384  0.2316
   21TMC2     O  331   0.067   1.088  14.580  0.3251  0.9020  0.3550
   21TMC2     H  332   0.151   0.999  14.386 -0.8084  1.1814  1.3608
   21TMC2    H1  333   4.534   1.227  14.350  0.9327  1.2120 -1.3596
   21TMC2    H2  334   4.562   0.848  14.157  1.7492 -1.3618  0.4306
   21TMC2    C7  335   4.402   1.002  14.297  0.2090  0.4039 -0.1890
   21TMC2    C8  336   0.078   0.811  14.200  0.0409  0.3382  0.6472
   21TMC2    O1  337   4.394   0.897  14.357  0.6710 -0.3746  0.0323
   21TMC2    O2  338   0.031   0.720  14.140  0.4617 -0.2530 -0.1294
   21TMC2    O5  339   0.209   0.835  14.203 -0.4742  0.0714 -0.3613
   21TMC2    H5  340   0.243   0.913  14.252 -1.1096 -0.8037  1.4965
   22MPD2     C  341   4.409   1.099  14.922 -0.6355  0.5435  0.5024
   22MPD2    C1  342   4.516   1.024  14.883 -0.5119 -0.7717 -0.0157
   22MPD2    C2  343   4.582   1.068  14.771 -0.6349 -0.3703 -0.1708
   22MPD2    C3  344   4.550   1.179  14.697 -0.2235  0.6735 -0.4036
   22MPD2    C4  345   4.442   1.252  14.739  0.1562 -0.1950 -0.5110
   22MPD2    C5  346   4.374   1.214  14.857 -0.0238 -0.0028 -0.0011
   22MPD2     H  347   4.667   1.009  14.739  0.8963  1.4877  0.4852
   22MPD2    H1  348   4.404   1.333  14.678  0.0215 -0.1154 -0.3221
   22MPD2    H2  349   4.345   1.061  15.001 -0.4970  0.5674  0.6255
   22MPD2    H3  350   4.284   1.264  14.891  0.5072  0.4149  0.7910
   22MPD2     N  351   4.608   1.217  14.572  0.2543  0.4561 -0.3087
   22MPD2    H5  352   4.563   1.292  14.521 -1.1601 -1.5200 -1.9797
   22MPD2    N1  353   4.548   0.895  14.932  0.4238  0.0995  0.1100
   22MPD2    H7  354   4.639   0.855  14.909  0.8477  1.2965 -0.2893
   23TMC2    C1  355   0.864   1.985  14.715  0.7941 -0.3994  0.2185
   23TMC2    C2  356   0.886   2.017  14.580 -0.0750 -0.0742 -0.1074
   23TMC2    C3  357   0.775   2.036  14.506  0.1526 -0.1186  0.1533
   23TMC2    C4  358   0.736   1.980  14.765  0.0913  0.2210 -0.0764
   23TMC2    C5  359   0.630   2.000  14.679  0.5882  0.9993 -0.4225
   23TMC2    C6  360   0.642   2.016  14.548 -0.2133 -0.2910 -0.0585
   23TMC2     C  361   0.978   1.957  14.808 -0.2770 -0.3592  0.1849
   23TMC2     O  362   0.956   1.922  14.924  0.3904 -0.9219 -0.3646
   23TMC2     H  363   0.983   1.989  14.541 -0.3156 -0.7296 -0.2185
   23TMC2    H1  364   0.712   1.951  14.867  0.8685 -0.0638  0.0251
   23TMC2    H2  365   0.562   2.035  14.478 -0.5819  1.1834  0.7632
   23TMC2    C7  366   0.503   2.013  14.742  0.8945 -0.4649  0.0182
   23TMC2    C8  367   0.788   2.098  14.377  0.3848  0.1808 -0.5360
   23TMC2    O1  368   0.502   2.065  14.850 -0.1825 -0.3213 -0.0741
   23TMC2    O2  369   0.692   2.160  14.321  0.1036 -0.3243  0.7236
   23TMC2    O5  370   0.918   2.127  14.358 -0.3104 -0.4786 -0.6162
   23TMC2    H5  371   0.995   2.077  14.391  0.3256 -1.3779 -3.4983
   24MPD2     C  372   1.479   1.858  14.879 -0.0958  0.1104  0.0499
   24MPD2    C1  373   1.374   1.828  14.962 -0.3764 -0.1240 -0.5998
   24MPD2    C2  374   1.256   1.880  14.922 -0.9125  0.5141 -0.1750
   24MPD2    C3  375   1.234   1.932  14.795 -0.5472 -0.4820  0.0953
   24MPD2    C4  376   1.341   1.963  14.716  0.3951 -0.2788  0.0035
   24MPD2    C5  377   1.462   1.914  14.754 -0.0919  0.3217  0.8790
   24MPD2     H  378   1.169   1.864  14.985  1.0157 -0.0922  2.2857
   24MPD2    H1  379   1.338   2.011  14.619  0.0009 -1.2216 -0.4518
   24MPD2    H2  380   1.582   1.829  14.899 -0.7923 -3.0506 -0.9389
   24MPD2    H3  381   1.551   1.924  14.692 -1.0398 -1.1003 -0.7121
   24MPD2     N  382   1.105   1.976  14.747  0.4578  0.2047  0.2273
   24MPD2    H5  383   1.107   2.030  14.662 -0.0274  1.0586  0.7685
   24MPD2    N1  384   1.397   1.762  15.086 -0.0862  0.5951  0.4549
   24MPD2    H7  385   1.494   1.749  15.114  0.1681  2.3198  0.3441
   25TMC2    C1  386   4.434   3.989  11.586 -0.1941  0.2193 -0.4598
   25TMC2    C2  387   4.418   4.021  11.454  0.7692  0.2179  0.5148
   25TMC2    C3  388   4.342   4.132  11.435  0.2046  0.6731 -1.0202
   25TMC2    C4  389   4.397   4.070  11.694 -0.2763  0.3660 -0.1316
   25TMC2    C5  390   4.331   4.184  11.668 -0.1219 -0.5740  0.3320
   25TMC2    C6  391   4.302   4.213  11.534 -0.3834  0.2495 -0.6047
   25TMC2     C  392   4.499   3.862  11.613  0.0371  0.4995  0.2056
   25TMC2     O  393   4.591   3.862  11.696 -0.1351 -0.1512  0.2002
   25TMC2     H  394   4.466   3.972  11.369 -0.7917  0.8681 -0.7519
   25TMC2    H1  395   4.424   4.034  11.793  2.2736 -1.3197 -1.4540
   25TMC2    H2  396   4.244   4.301  11.509  2.1892  2.2240  0.4425
   25TMC2    C7  397   4.258   4.248  11.776 -0.8408 -0.3060 -0.0945
   25TMC2    C8  398   4.310   4.170  11.294 -0.0075 -0.3115 -0.3284
   25TMC2    O1  399   4.216   4.362  11.754 -0.0912  0.6318  0.0947
   25TMC2    O2  400   4.283   4.285  11.264  0.1539  0.2572  0.7273
   25TMC2    O5  401   4.238   4.064  11.247 -0.4369  0.1338 -0.4053
   25TMC2    H5  402   4.266   3.979  11.288 -1.7810  0.4641  1.2146
   26MPD2     C  403   4.425   3.355  11.663  0.4431  0.0117  0.4341
   26MPD2    C1  404   4.338   3.401  11.569 -0.6286 -0.6847  0.4340
   26MPD2    C2  405   4.347   3.536  11.535 -0.4742  0.0501 -0.4789
   26MPD2    C3  406   4.435   3.627  11.594 -0.3125 -0.4189 -0.0091
   26MPD2    C4  407   4.522   3.576  11.684 -0.1548  0.0022 -0.2631
   26MPD2    C5  408   4.516   3.444  11.717 -0.0232  0.8879  1.0056
   26MPD2     H  409   4.284   3.575  11.457  0.7947  1.0166 -1.0182
   26MPD2    H1  410   4.590   3.634  11.745 -0.3497 -0.3020  0.2495
   26MPD2    H2  411   4.419   3.255  11.706  2.7754  0.7449  2.4937
   26MPD2    H3  412   4.593   3.408  11.784  0.5917  0.0854 -0.1408
   26MPD2     N  413   4.431   3.763  11.552 -0.2033  0.1187  0.9615
   26MPD2    H5  414   4.355   3.800  11.495  0.5550  2.1345  1.2371
   26MPD2    N1  415   4.251   3.313  11.509 -0.4583 -0.0351  0.5428
   26MPD2    H7  416   4.252   3.221  11.552  2.5397  1.6010  4.0765
   27TMC2    C1  417   3.073   1.337  11.658  0.2679  0.2714  0.1630
   27TMC2    C2  418   3.103   1.304  11.521 -0.2851  0.3970  0.4496
   27TMC2    C3  419   3.223   1.366  11.474 -0.4401 -0.1953  0.6310
   27TMC2    C4  420   3.167   1.415  11.728 -0.1751  0.5162  1.3211
   27TMC2    C5  421   3.283   1.464  11.666 -1.0375  0.0078 -0.0324
   27TMC2    C6  422   3.313   1.440  11.537  0.0518 -0.3761  0.5042
   27TMC2     C  423   2.976   1.238  11.718  0.1318  0.2304  0.3308
   27TMC2     O  424   2.929   1.147  11.651 -0.2936 -0.1325  0.2425
   27TMC2     H  425   3.037   1.236  11.469  1.3240  0.4368 -1.6469
   27TMC2    H1  426   3.146   1.438  11.832  1.6246 -0.2184  1.8470
   27TMC2    H2  427   3.405   1.475  11.492  0.4886  0.5426  2.0900
   27TMC2    C7  428   3.359   1.553  11.753  0.4546  0.2760  0.8224
   27TMC2    C8  429   3.225   1.401  11.330  0.1441  0.1447 -0.2481
   27TMC2    O1  430   3.360   1.528  11.872 -0.2953  0.1769  0.7511
   27TMC2    O2  431   3.272   1.496  11.280  0.2962  0.5519  0.4513
   27TMC2    O5  432   3.242   1.282  11.276 -0.4460 -0.5374 -0.2592
   27TMC2    H5  433   3.242   1.205  11.336 -1.4255 -0.6291 -0.3667
   28MPD2     C  434   2.867   0.999  12.152  0.7500 -0.1743 -0.3886
   28MPD2    C1  435   2.868   1.134  12.183  0.7736  0.1932  0.8946
   28MPD2    C2  436   2.898   1.222  12.082  0.1438 -0.1069 -0.0072
   28MPD2    C3  437   2.931   1.174  11.956 -0.1162 -1.0934 -0.6970
   28MPD2    C4  438   2.923   1.038  11.930  0.6292 -0.2494  0.0517
   28MPD2    C5  439   2.891   0.955  12.028  0.2201  0.5832 -0.0730
   28MPD2     H  440   2.901   1.329  12.097 -0.0578 -0.1339  0.2352
   28MPD2    H1  441   2.930   0.995  11.831 -3.3398  0.9791 -0.7681
   28MPD2    H2  442   2.846   0.930  12.233 -0.0510 -0.7504 -1.0861
   28MPD2    H3  443   2.878   0.849  12.008  0.0718  0.4449  0.7543
   28MPD2     N  444   2.967   1.263  11.854  0.3756 -0.1846 -0.2672
   28MPD2    H5  445   3.007   1.349  11.891  0.5317 -0.1790 -0.4483
   28MPD2    N1  446   2.832   1.178  12.313 -0.1887  0.4042  0.0984
   28MPD2    H7  447   2.829   1.100  12.378  1.3662 -1.3880 -1.9932
   29TMC2    C1  448   2.961   4.015  14.575  0.3229 -0.1481  0.1560
   29TMC2    C2  449   2.928   4.038  14.704  0.5655  0.2201  0.1444
   29TMC2    C3  450   2.928   4.166  14.747 -0.0997  0.0171 -0.1461
   29TMC2    C4  451   2.995   4.118  14.485  0.1182  0.0339  0.7188
   29TMC2    C5  452   2.983   4.247  14.542  0.7940 -0.3776 -0.9136
   29TMC2    C6  453   2.950   4.276  14.673 -0.3783 -0.5412  0.5176
   29TMC2     C  454   3.009   3.881  14.555  0.2052  0.3081  0.2913
   29TMC2     O  455   2.994   3.808  14.652  0.0156  0.0927 -0.0951
   29TMC2     H  456   2.903   3.963  14.779 -0.5255  0.4272 -0.0120
   29TMC2    H1  457   3.038   4.105  14.386 -1.9150  3.2736 -0.5988
   29TMC2    H2  458   2.929   4.376  14.711 -1.7293 -0.3904 -0.6382
   29TMC2    C7  459   3.042   4.356  14.463  0.2475  0.7804  0.3812
   29TMC2    C8  460   2.885   4.207  14.882 -0.6063 -0.2240 -0.3902
   29TMC2    O1  461   3.021   4.364  14.344 -0.5231  0.0679  0.0917
   29TMC2    O2  462   2.910   4.322  14.926 -0.4430 -0.1936  0.1940
   29TMC2    O5  463   2.785   4.114  14.914  0.3163 -0.0236 -0.4540
   29TMC2    H5  464   2.771   4.043  14.848 -0.2641 -0.2739 -0.0582
   30MPD2     C  465   3.098   3.490  14.241  0.1224  0.2788  0.5133
   30MPD2    C1  466   3.087   3.493  14.379  0.4169  0.1900  0.7410
   30MPD2    C2  467   3.080   3.616  14.439  0.0442 -0.4023  1.0044
   30MPD2    C3  468   3.069   3.729  14.364  0.8325 -0.4371 -0.2218
   30MPD2    C4  469   3.073   3.721  14.225 -0.4919 -0.2039 -0.5105
   30MPD2    C5  470   3.092   3.600  14.167 -0.0722  0.1261  0.2636
   30MPD2     H  471   3.075   3.625  14.547  0.1986 -2.4921  1.1784
   30MPD2    H1  472   3.068   3.811  14.165 -0.8643 -0.4463 -0.8467
   30MPD2    H2  473   3.116   3.397  14.190 -3.4274  0.2720 -0.7289
   30MPD2    H3  474   3.107   3.590  14.060 -2.2054  2.1323 -0.2326
   30MPD2     N  475   3.052   3.859  14.426 -0.3260 -0.3764  0.4795
   30MPD2    H5  476   3.046   3.939  14.365 -1.0428 -0.6756  0.1566
   30MPD2    N1  477   3.064   3.371  14.453 -0.3388 -0.1353 -0.3084
   30MPD2    H7  478   3.067   3.373  14.554 -0.9180  1.1587 -0.3267
   31TMC2    C1  479   0.916   2.666  15.366 -0.6275  0.4714  0.1210
   31TMC2    C2  480   0.859   2.789  15.385  1.0179  0.0805  0.2723
   31TMC2    C3  481   0.824   2.823  15.512 -0.1610 -0.1464 -0.3911
   31TMC2    C4  482   0.949   2.582  15.475 -0.2995 -0.2006 -0.1324
   31TMC2    C5  483   0.925   2.635  15.596 -0.1083  0.5610  0.3213
   31TMC2    C6  484   0.859   2.749  15.620 -0.1737 -0.2751 -0.2095
   31TMC2     C  485   0.933   2.629  15.222 -0.1098  0.1097 -0.3166
   31TMC2     O  486   0.845   2.657  15.145  0.4126  0.0397  0.1345
   31TMC2     H  487   0.837   2.848  15.297 -2.1200 -0.8440  0.4255
   31TMC2    H1  488   1.006   2.492  15.456  0.3380  0.0750  0.5009
   31TMC2    H2  489   0.839   2.785  15.720 -3.6962 -1.3472 -0.5254
   31TMC2    C7  490   0.958   2.553  15.713  0.1006 -0.2317  0.3283
   31TMC2    C8  491   0.810   2.963  15.553 -1.0189  0.4081  0.3794
   31TMC2    O1  492   1.045   2.469  15.683  0.2036  0.2270  0.3725
   31TMC2    O2  493   0.871   2.996  15.657 -0.5051  0.4245 -0.1626
   31TMC2    O5  494   0.750   3.047  15.458  0.4325  0.1648 -0.7256
   31TMC2    H5  495   0.685   2.997  15.405 -1.8340 -0.1377  2.3691
   32MPD2     C  496   1.245   2.623  14.819  0.2256 -0.3427 -0.6702
   32MPD2    C1  497   1.128   2.688  14.838 -0.0462 -0.0896 -0.6891
   32MPD2    C2  498   1.064   2.680  14.959  0.6402  0.9852 -0.0857
   32MPD2    C3  499   1.123   2.614  15.070  0.1994  0.2361  0.0514
   32MPD2    C4  500   1.248   2.561  15.051 -0.0773  0.4224 -0.4893
   32MPD2    C5  501   1.296   2.559  14.929 -0.4350  0.6031  0.6793
   32MPD2     H  502   0.965   2.724  14.962  0.8687  1.3610  2.0234
   32MPD2    H1  503   1.286   2.490  15.123  0.2494  0.2300 -0.8560
   32MPD2    H2  504   1.294   2.616  14.723 -2.8760 -1.0276 -2.1792
   32MPD2    H3  505   1.381   2.496  14.905 -0.2389  0.9332  0.5109
   32MPD2     N  506   1.061   2.593  15.196  0.8098  0.7592  0.6132
   32MPD2    H5  507   1.121   2.551  15.266  1.2636  0.0530 -0.1875
   32MPD2    N1  508   1.076   2.757  14.726  0.0798 -0.9025  0.4847
   32MPD2    H7  509   1.136   2.756  14.645 -1.8723 -0.6509 -0.9730
   33TMC2    C1  510   0.486   0.488  10.387 -0.5402  0.3846  0.4439
   33TMC2    C2  511   0.386   0.434  10.307  0.3813  0.0505  1.2941
   33TMC2    C3  512   0.390   0.458  10.174  0.5729 -0.2835  0.5902
   33TMC2    C4  513   0.595   0.551  10.334 -0.1320  0.4445 -0.0814
   33TMC2    C5  514   0.594   0.561  10.195 -0.1155 -0.0072  0.1192
   33TMC2    C6  515   0.494   0.521  10.110  0.3468 -0.4144 -0.0992
   33TMC2     C  516   0.479   0.452  10.530 -0.4500 -0.6386  0.3342
   33TMC2     O  517   0.397   0.370  10.567  0.6192 -0.4120 -0.2374
   33TMC2     H  518   0.289   0.408  10.347 -0.8839  0.7211 -1.3173
   33TMC2    H1  519   0.681   0.562  10.399 -0.9063  1.3857  0.7819
   33TMC2    H2  520   0.476   0.543  10.005  1.3945  0.3261 -0.1206
   33TMC2    C7  521   0.709   0.637  10.141 -0.4622 -0.5130 -0.4937
   33TMC2    C8  522   0.271   0.432  10.105  0.1886 -0.0022 -0.6481
   33TMC2    O1  523   0.758   0.720  10.216 -0.3592 -0.1254 -0.3281
   33TMC2    O2  524   0.189   0.353  10.145  0.3841  0.0786 -0.5857
   33TMC2    O5  525   0.244   0.531  10.022 -0.5420  0.3244  0.6130
   33TMC2    H5  526   0.300   0.612  10.029  0.9842 -0.6273 -0.5701
   34MPD2     C  527   0.688   0.478  11.009 -0.0931 -0.6836  0.6666
   34MPD2    C1  528   0.623   0.375  10.945  0.2757  0.0101 -0.2609
   34MPD2    C2  529   0.565   0.388  10.820 -0.4442  0.1802 -0.3482
   34MPD2    C3  530   0.600   0.498  10.746 -0.7947 -0.3593  0.9257
   34MPD2    C4  531   0.681   0.591  10.802  0.0573 -0.1878  0.8202
   34MPD2    C5  532   0.718   0.585  10.931 -0.0939  0.4229 -0.0268
   34MPD2     H  533   0.498   0.316  10.773 -0.3009  0.0679 -0.3799
   34MPD2    H1  534   0.722   0.674  10.746  0.0428 -0.6096  0.1887
   34MPD2    H2  535   0.722   0.474  11.112 -0.5852 -3.2113  0.7257
   34MPD2    H3  536   0.763   0.665  10.987  0.9291  0.1554 -0.4775
   34MPD2     N  537   0.568   0.522  10.607  0.6730 -0.2187 -0.6150
   34MPD2    H5  538   0.602   0.604  10.558 -1.8821  1.0341 -0.2761
   34MPD2    N1  539   0.600   0.259  11.022 -0.1098 -0.4640 -0.2259
   34MPD2    H7  540   0.608   0.268  11.123  1.7419  0.8491 -0.4892
   35TMC2    C1  541   2.213   1.641  11.317 -0.4017  0.4381 -0.2926
   35TMC2    C2  542   2.212   1.690  11.186  0.1782 -0.4162 -0.1461
   35TMC2    C3  543   2.097   1.748  11.143 -0.7663  0.1788  0.6563
   35TMC2    C4  544   2.110   1.671  11.405 -0.3764  0.6309 -0.5201
   35TMC2    C5  545   1.996   1.723  11.348 -0.7656  0.7038 -0.1514
   35TMC2    C6  546   1.989   1.766  11.218 -0.2273 -0.2850  0.1527
   35TMC2     C  547   2.331   1.570  11.364  0.7687  0.2398 -0.0821
   35TMC2     O  548   2.426   1.555  11.287  0.1916  0.7530 -0.0857
   35TMC2     H  549   2.295   1.676  11.117  0.9167 -2.2797  1.1168
   35TMC2    H1  550   2.116   1.646  11.510  0.1790  0.6618 -0.5415
   35TMC2    H2  551   1.902   1.799  11.163  1.2902  0.6490 -1.6771
   35TMC2    C7  552   1.885   1.720  11.443 -0.9491  0.2533 -0.7114
   35TMC2    C8  553   2.102   1.829  11.025  0.1164 -0.0579 -0.0574
   35TMC2    O1  554   1.922   1.708  11.558 -0.5648  0.0671  0.4035
   35TMC2    O2  555   2.016   1.834  10.939  0.0212 -0.5068  0.3333
   35TMC2    O5  556   2.170   1.936  11.068  0.4472 -0.0090 -0.0420
   35TMC2    H5  557   2.255   1.928  11.117  0.1782  0.0613  0.4344
   36MPD2     C  558   2.546   1.250  11.702 -0.7261  0.0344 -0.2540
   36MPD2    C1  559   2.422   1.282  11.744  0.3520  0.7419 -0.3094
   36MPD2    C2  560   2.340   1.359  11.666 -0.5430 -0.1315  0.0594
   36MPD2    C3  561   2.392   1.411  11.551 -0.3083 -0.0102 -0.6570
   36MPD2    C4  562   2.510   1.370  11.502 -0.1838  0.5661 -0.0557
   36MPD2    C5  563   2.587   1.286  11.579  0.2336 -0.4734 -0.2771
   36MPD2     H  564   2.243   1.394  11.699 -0.1293  1.3697 -0.3131
   36MPD2    H1  565   2.540   1.398  11.402 -0.4989 -1.1709 -0.6495
   36MPD2    H2  566   2.623   1.199  11.759 -0.0636 -0.1109 -1.2757
   36MPD2    H3  567   2.687   1.253  11.556  0.6646  1.0976 -0.7022
   36MPD2     N  568   2.313   1.512  11.490 -0.7819 -0.4129  0.0182
   36MPD2    H5  569   2.221   1.527  11.528 -0.8551  0.1569 -0.3927
   36MPD2    N1  570   2.382   1.250  11.878  0.0636 -0.4357  0.0922
   36MPD2    H7  571   2.449   1.203  11.939 -0.5694 -1.1473  0.2426
   37TMC2    C1  572   3.846   2.411  12.114 -0.2739  0.1170  0.3470
   37TMC2    C2  573   3.745   2.397  12.029  0.4575 -0.1149 -0.7244
   37TMC2    C3  574   3.776   2.402  11.899  0.4209  0.5220  0.4393
   37TMC2    C4  575   3.976   2.433  12.076 -0.2525  0.3078  0.4432
   37TMC2    C5  576   3.999   2.433  11.933  0.3499  0.2399 -0.1590
   37TMC2    C6  577   3.899   2.417  11.843  0.2050  0.0864 -0.1486
   37TMC2     C  578   3.823   2.359  12.243  0.9096  0.8564  0.3897
   37TMC2     O  579   3.715   2.395  12.288 -0.1489 -0.5430  0.0934
   37TMC2     H  580   3.641   2.391  12.058 -0.0522  4.1105 -1.6306
   37TMC2    H1  581   4.055   2.457  12.146  0.0631 -2.6270  1.0977
   37TMC2    H2  582   3.902   2.417  11.735 -3.0795  0.2748 -0.2429
   37TMC2    C7  583   4.135   2.431  11.901 -0.2701  0.2229 -0.6661
   37TMC2    C8  584   3.672   2.386  11.801  0.5846  0.1111 -0.1046
   37TMC2    O1  585   4.223   2.455  11.984  0.1282 -0.1631 -0.8410
   37TMC2    O2  586   3.670   2.430  11.685 -0.5593  0.5019  1.2320
   37TMC2    O5  587   3.600   2.275  11.829 -0.9617 -0.1839 -0.0235
   37TMC2    H5  588   3.616   2.228  11.914  1.8167 -0.6731 -0.8109
   38MPD2     C  589   3.966   2.141  12.686  0.3548 -0.7744  0.0028
   38MPD2    C1  590   4.055   2.102  12.589  0.0644  0.2159  0.5763
   38MPD2    C2  591   4.037   2.151  12.460  0.2278  1.0607 -0.4370
   38MPD2    C3  592   3.944   2.245  12.426 -0.2259 -0.1311  0.3034
   38MPD2    C4  593   3.857   2.284  12.527 -0.3116 -0.1404  0.0292
   38MPD2    C5  594   3.872   2.235  12.654  0.1027 -0.3338 -0.5762
   38MPD2     H  595   4.095   2.110  12.379  0.7819 -1.3445  1.1788
   38MPD2    H1  596   3.780   2.359  12.519 -0.6970 -0.6057 -0.6005
   38MPD2    H2  597   3.956   2.105  12.788  1.0029 -0.2027  0.2685
   38MPD2    H3  598   3.791   2.268  12.718  1.9168  0.3391  1.3571
   38MPD2     N  599   3.935   2.299  12.297 -0.0934 -0.0415 -0.3953
   38MPD2    H5  600   4.006   2.275  12.229  0.1251 -0.3895 -0.0410
   38MPD2    N1  601   4.157   2.006  12.609 -0.8313 -0.1171  0.4311
   38MPD2    H7  602   4.204   1.969  12.527 -0.8764 -2.3708  1.4284
   39TMC2    C1  603   3.077   4.703   2.070 -0.5113 -0.0631 -0.1643
   39TMC2    C2  604   2.982   0.060   2.063  0.1760 -0.3195 -0.4742
   39TMC2    C3  605   3.022   0.186   2.029  0.7044 -0.1553  0.2646
   39TMC2    C4  606   3.207   4.729   2.029  0.0539  0.1146  0.4847
   39TMC2    C5  607   3.235   0.118   1.987  0.4693  0.1591 -0.2568
   39TMC2    C6  608   3.145   0.219   1.981 -0.1271 -0.1707 -0.3772
   39TMC2     C  609   3.024   4.575   2.031  0.3197 -0.7630 -0.6996
   39TMC2     O  610   2.919   4.582   1.969  0.6254 -0.2902 -0.5301
   39TMC2     H  611   2.876   0.050   2.085  0.5076 -1.8585  0.3841
   39TMC2    H1  612   3.282   4.651   2.038 -0.1277 -0.3673 -2.3973
   39TMC2    H2  613   3.174   0.317   1.948 -0.7835  0.2678  0.3328
   39TMC2    C7  614   3.370   0.142   1.925 -0.6926 -0.0815  0.5281
   39TMC2    C8  615   2.912   0.269   1.986  0.0254  0.1317  0.1326
   39TMC2    O1  616   3.422   0.041   1.880  0.3235 -0.4334 -0.5508
   39TMC2    O2  617   2.802   0.234   1.954  0.4498 -0.4542  0.0231
   39TMC2    O5  618   2.947   0.398   1.992  0.5378  0.1192 -0.4654
   39TMC2    H5  619   3.036   0.433   2.015  1.6589 -0.7858 -3.4640
   40MPD2     C  620   3.171   4.243   2.058  0.3900  0.1077 -0.5672
   40MPD2    C1  621   3.083   4.338   2.019  0.2548 -0.3393 -0.0638
   40MPD2    C2  622   2.977   4.286   1.946  0.2329  0.4690 -0.5792
   40MPD2    C3  623   2.954   4.154   1.904 -0.3569  0.2511  0.2336
   40MPD2    C4  624   3.052   4.065   1.943  0.5516 -0.2057 -0.5371
   40MPD2    C5  625   3.153   4.112   2.026 -0.1692  0.4423 -0.6369
   40MPD2     H  626   2.910   4.363   1.910  0.5511  0.3809 -1.3750
   40MPD2    H1  627   3.051   3.961   1.913 -0.1341 -0.2462 -0.3835
   40MPD2    H2  628   3.259   4.273   2.114  0.1813 -2.7573  1.2597
   40MPD2    H3  629   3.233   4.049   2.064  0.0154  1.1003  0.0505
   40MPD2     N  630   2.855   4.122   1.803 -0.2761  0.0731  0.0505
   40MPD2    H5  631   2.867   4.031   1.759  0.4917 -0.0730  0.5640
   40MPD2    N1  632   3.102   4.469   2.065 -0.5426  0.2950 -0.2973
   40MPD2    H7  633   3.184   4.493   2.120  0.2699 -0.0556 -1.3487
   41TMC2    C1  634   2.107   1.408  13.519  0.1596  0.3260 -0.1434
   41TMC2    C2  635   2.036   1.524  13.535  0.4958  0.1581  0.9802
   41TMC2    C3  636   1.968   1.567  13.424  0.5662  0.7636  0.0288
   41TMC2    C4  637   2.134   1.357  13.396 -0.5387  0.3931 -0.1475
   41TMC2    C5  638   2.062   1.404  13.294 -0.1449 -0.3196  0.2671
   41TMC2    C6  639   1.978   1.507  13.303  0.1818  0.0986  0.5563
   41TMC2     C  640   2.168   1.340  13.638  0.3005  0.5522 -0.3536
   41TMC2     O  641   2.257   1.264  13.618  0.5099  0.1738 -0.0455
   41TMC2     H  642   2.033   1.580  13.628 -2.0376  0.9240  0.4284
   41TMC2    H1  643   2.202   1.273  13.392  2.3921  2.7582 -0.1224
   41TMC2    H2  644   1.926   1.553  13.219 -0.6717 -0.1720  0.9327
   41TMC2    C7  645   2.100   1.360  13.168 -0.7594  0.2032  0.4809
   41TMC2    C8  646   1.874   1.681  13.427 -0.5158  0.6766  0.2152
   41TMC2    O1  647   2.195   1.286  13.160  0.0627  0.0972 -0.3943
   41TMC2    O2  648   1.828   1.731  13.325  0.7182  0.0729 -0.2320
   41TMC2    O5  649   1.848   1.711  13.555 -0.3219 -0.0980 -0.0363
   41TMC2    H5  650   1.873   1.639  13.616  1.3268  0.2387 -0.3015
   42MPD2     C  651   2.237   1.237  13.905 -0.3525  0.4179 -0.5317
   42MPD2    C1  652   2.153   1.345  13.886 -0.0603  0.6773  0.0584
   42MPD2    C2  653   2.080   1.402  13.988  0.2847 -0.1153  0.6017
   42MPD2    C3  654   2.101   1.347  14.118  1.0601  0.0426  0.5672
   42MPD2    C4  655   2.192   1.241  14.136  0.4573  0.0559 -0.6447
   42MPD2    C5  656   2.259   1.188  14.027  0.4928 -0.7868 -0.4683
   42MPD2     H  657   2.004   1.478  13.975  0.5723  0.0716  0.0290
   42MPD2    H1  658   2.213   1.201  14.234 -2.5323  1.6542  0.6682
   42MPD2    H2  659   2.299   1.200  13.824  0.1521  0.4608 -0.1596
   42MPD2    H3  660   2.334   1.111  14.046  0.8760 -0.6474 -1.4064
   42MPD2     N  661   2.040   1.401  14.239  0.1136  0.4151 -0.1911
   42MPD2    H5  662   2.057   1.351  14.325  0.4737  1.5542  0.3907
   42MPD2    N1  663   2.114   1.387  13.757 -0.7177 -0.0547  1.3405
   42MPD2    H7  664   2.033   1.448  13.762  0.2261  1.4465 -1.4227
   43TMC2    C1  665   3.706   0.509   0.909 -0.7230  0.6182  0.5912
   43TMC2    C2  666   3.603   0.602   0.913  0.7996  0.0530 -0.5748
   43TMC2    C3  667   3.630   0.720   0.962 -0.2192 -0.2598 -0.1074
   43TMC2    C4  668   3.827   0.521   0.969 -0.2670  0.2036  0.2215
   43TMC2    C5  669   3.856   0.648   1.011  0.5435 -0.7285 -0.3367
   43TMC2    C6  670   3.755   0.746   1.009 -0.1726  0.0568 -0.1292
   43TMC2     C  671   3.691   0.391   0.828  0.7706 -0.1907 -0.2367
   43TMC2     O  672   3.757   0.295   0.867 -0.1081  0.3560 -0.0519
   43TMC2     H  673   3.501   0.577   0.887  0.6563  1.8137 -1.7367
   43TMC2    H1  674   3.904   0.445   0.974 -1.9514 -1.6252 -1.6748
   43TMC2    H2  675   3.781   0.847   1.037  0.7169 -0.4435  0.8917
   43TMC2    C7  676   3.994   0.688   1.017  0.1378  0.2638 -0.6167
   43TMC2    C8  677   3.553   0.840   0.933 -0.6027 -0.0241 -0.1210
   43TMC2    O1  678   4.071   0.616   0.958  0.4599  0.3565 -0.0775
   43TMC2    O2  679   3.484   0.858   0.830 -0.4176  0.1878  0.2339
   43TMC2    O5  680   3.575   0.923   1.037 -0.2266  0.2142  0.0634
   43TMC2    H5  681   3.598   0.874   1.119  1.3209  0.3521 -0.2958
   44MPD2     C  682   3.521   0.124   0.423  0.0986 -0.2108  0.0745
   44MPD2    C1  683   3.621   0.098   0.512  0.3486  0.1419 -0.1859
   44MPD2    C2  684   3.651   0.189   0.614  0.1189  0.8753 -0.3570
   44MPD2    C3  685   3.571   0.306   0.636 -0.1344  0.7342 -0.3717
   44MPD2    C4  686   3.470   0.335   0.542  0.4516 -0.6474 -0.0002
   44MPD2    C5  687   3.453   0.247   0.442  0.0938 -0.6343 -0.4950
   44MPD2     H  688   3.730   0.172   0.687 -0.3240 -1.3756 -0.3871
   44MPD2    H1  689   3.407   0.424   0.543 -0.7911 -1.5222 -1.6765
   44MPD2    H2  690   3.496   0.058   0.340  3.1243 -2.3304  0.8669
   44MPD2    H3  691   3.371   0.266   0.374  1.4847  0.9986 -1.7208
   44MPD2     N  692   3.595   0.402   0.735  0.2538 -0.1017 -0.1979
   44MPD2    H5  693   3.544   0.489   0.729 -1.7344 -1.3055 -0.7792
   44MPD2    N1  694   3.709   4.729   0.501  0.4767 -0.0104 -0.5328
   44MPD2    H7  695   3.774   4.708   0.577  1.2568  1.1695 -0.8774
   45TMC2    C1  696   3.844   1.535   9.590  0.1074 -0.2657 -0.6370
   45TMC2    C2  697   3.961   1.465   9.579 -0.5565  0.2015  0.5508
   45TMC2    C3  698   4.053   1.491   9.680  0.1852 -0.2529  0.5826
   45TMC2    C4  699   3.819   1.623   9.686  0.0471  0.7946  0.6509
   45TMC2    C5  700   3.911   1.631   9.790  0.1218 -0.1150 -0.0638
   45TMC2    C6  701   4.031   1.570   9.790 -0.2385 -0.2373 -0.7624
   45TMC2     C  702   3.762   1.537   9.471  0.5256 -0.0504 -0.9434
   45TMC2     O  703   3.789   1.446   9.391 -0.7895  0.4002  0.0306
   45TMC2     H  704   3.959   1.382   9.508  0.2454 -1.2488  2.2274
   45TMC2    H1  705   3.722   1.671   9.692 -0.5613 -0.5490  1.6588
   45TMC2    H2  706   4.098   1.574   9.875  1.1542 -0.3541 -1.8667
   45TMC2    C7  707   3.884   1.721   9.905 -0.3266 -0.4437 -0.4387
   45TMC2    C8  708   4.194   1.449   9.657 -0.1850 -0.1280  0.9049
   45TMC2    O1  709   3.969   1.718   9.996  0.4724 -0.2307 -0.0375
   45TMC2    O2  710   4.228   1.337   9.626 -0.0301 -0.2795  0.8249
   45TMC2    O5  711   4.274   1.558   9.645 -0.2048 -0.2534  0.5497
   45TMC2    H5  712   4.229   1.638   9.679  1.2227  0.2564  1.2252
   46MPD2     C  713   3.546   1.545   9.270 -0.8560  0.0933  0.7250
   46MPD2    C1  714   3.594   1.657   9.343  0.1824  0.0382 -0.5855
   46MPD2    C2  715   3.543   1.781   9.318 -0.2298  0.4656 -0.2194
   46MPD2    C3  716   3.431   1.792   9.239 -0.2666  0.8176 -0.1499
   46MPD2    C4  717   3.374   1.681   9.171 -0.1376  0.2068 -0.0791
   46MPD2    C5  718   3.443   1.562   9.184 -0.0432  0.0100 -0.6564
   46MPD2     H  719   3.584   1.871   9.362  1.4391 -1.4639  2.1209
   46MPD2    H1  720   3.291   1.666   9.104  0.6995 -0.0033 -1.0811
   46MPD2    H2  721   3.583   1.443   9.283  3.3422  1.8038  2.1692
   46MPD2    H3  722   3.408   1.473   9.133 -0.0445  2.9082 -5.7184
   46MPD2     N  723   3.383   1.920   9.218  0.6929  0.2012 -0.2494
   46MPD2    H5  724   3.422   1.981   9.288 -1.0251  1.6096 -0.5259
   46MPD2    N1  725   3.702   1.655   9.440  0.0807  0.0036 -0.8179
   46MPD2    H7  726   3.708   1.739   9.495 -1.3926 -0.0169 -0.6062
   47TMC2    C1  727   1.065   2.137   9.548 -0.2754  0.2714 -0.2127
   47TMC2    C2  728   1.121   2.040   9.471  0.2901 -0.5545  0.2889
   47TMC2    C3  729   1.030   1.964   9.409 -0.1138 -0.0283  0.0288
   47TMC2    C4  730   0.932   2.158   9.563  0.1514 -0.6067 -0.7465
   47TMC2    C5  731   0.845   2.069   9.501 -0.4018 -0.6774  0.5018
   47TMC2    C6  732   0.895   1.973   9.415 -0.3087 -0.3003 -0.0468
   47TMC2     C  733   1.148   2.204   9.648  0.2069 -0.3942  0.5994
   47TMC2     O  734   1.091   2.265   9.735  0.6524 -0.0771 -0.0899
   47TMC2     H  735   1.225   2.020   9.444  0.0151  0.5778 -1.6555
   47TMC2    H1  736   0.897   2.234   9.632 -0.0630  0.0700 -1.5944
   47TMC2    H2  737   0.829   1.907   9.359 -1.3605 -0.0904  0.9386
   47TMC2    C7  738   0.698   2.079   9.511 -0.5669  0.0508 -0.4328
   47TMC2    C8  739   1.078   1.886   9.306 -0.4637  1.0402  0.2114
   47TMC2    O1  740   0.634   1.998   9.443  0.0299 -0.0480 -0.5294
   47TMC2    O2  741   1.029   1.890   9.194 -0.2421 -0.5596 -0.0752
   47TMC2    O5  742   1.123   1.774   9.366 -0.2895 -0.1339 -0.3859
   47TMC2    H5  743   1.173   1.784   9.450  1.2998  0.2092 -1.3882
   48MPD2     C  744   1.349   2.231   9.865 -0.4054  0.1007  0.5259
   48MPD2    C1  745   1.377   2.179   9.743  0.4402  0.1998 -0.3851
   48MPD2    C2  746   1.507   2.140   9.719  0.1044  0.2765 -0.3626
   48MPD2    C3  747   1.615   2.155   9.807 -0.0951 -0.0809  0.2018
   48MPD2    C4  748   1.583   2.220   9.927 -0.2844  0.3540  0.1522
   48MPD2    C5  749   1.453   2.254   9.954  0.1704  0.0387 -0.2821
   48MPD2     H  750   1.516   2.088   9.624 -1.0584 -0.7778  0.1022
   48MPD2    H1  751   1.657   2.252  10.000 -0.3016  2.2342 -0.6635
   48MPD2    H2  752   1.248   2.265   9.883 -0.3309 -0.4609  1.9968
   48MPD2    H3  753   1.434   2.309  10.045 -0.2284  1.3962 -1.1788
   48MPD2     N  754   1.739   2.103   9.776 -0.4945 -0.8027 -0.0510
   48MPD2    H5  755   1.738   2.070   9.680 -1.7900 -1.8529  0.3250
   48MPD2    N1  756   1.281   2.169   9.639  0.1563 -0.3248 -0.3390
   48MPD2    H7  757   1.306   2.120   9.554  0.7862  2.1401 -1.5705
   49TMC2    C1  758   4.232   4.486  10.210  0.8216 -0.5158 -0.4154
   49TMC2    C2  759   4.133   4.453  10.112  0.4243  0.0973  0.0621
   49TMC2    C3  760   4.060   4.343  10.129 -0.0136  0.3932  1.2309
   49TMC2    C4  761   4.267   4.409  10.317  0.5264  0.1084  0.5733
   49TMC2    C5  762   4.186   4.295  10.325  0.1273 -0.7683 -0.6798
   49TMC2    C6  763   4.080   4.263  10.236 -0.7899 -0.2250  0.4795
   49TMC2     C  764   4.325   4.591  10.168  0.0114  0.1420  0.1385
   49TMC2     O  765   4.336   4.630  10.052 -0.5714 -0.3000  0.5294
   49TMC2     H  766   4.115   4.518  10.027  2.8449 -2.5007 -2.4113
   49TMC2    H1  767   4.361   4.408  10.373  0.3269  0.2921  0.9132
   49TMC2    H2  768   4.032   4.168  10.259 -0.0131 -0.7740 -0.1644
   49TMC2    C7  769   4.183   4.222  10.449  0.0498 -0.3427 -0.3362
   49TMC2    C8  770   3.955   4.321  10.033  0.4643  0.8062 -1.0093
   49TMC2    O1  771   4.155   4.100  10.453 -0.6160 -0.1152  0.3266
   49TMC2    O2  772   3.942   4.400   9.942  0.3015 -0.3629 -0.1988
   49TMC2    O5  773   3.947   4.188  10.024  0.7731 -0.5299  1.2081
   49TMC2    H5  774   3.985   4.134  10.097  0.3730 -0.7057  1.2847
   50MPD2     C  775   4.545   0.062  10.146  1.1215  0.1012  0.7319
   50MPD2    C1  776   4.484   0.022  10.264  0.1208 -0.6508  0.3610
   50MPD2    C2  777   4.518   0.087  10.379  0.0047 -0.5598 -0.2593
   50MPD2    C3  778   4.600   0.200  10.376  0.3491 -0.1658  0.2745
   50MPD2    C4  779   4.639   0.243  10.257 -0.3937 -0.3540 -0.6904
   50MPD2    C5  780   4.619   0.174  10.143 -0.2128 -0.1250  0.1602
   50MPD2     H  781   4.493   0.043  10.475 -1.4843 -0.9960 -0.8378
   50MPD2    H1  782   4.698   0.333  10.243  0.0793 -0.0745  2.9752
   50MPD2    H2  783   4.539   0.002  10.057 -1.0365  1.3993  0.0193
   50MPD2    H3  784   4.660   0.213  10.050  0.2473  1.8935  1.2105
   50MPD2     N  785   4.647   0.274  10.487 -0.4355 -0.2574  0.3546
   50MPD2    H5  786   4.699   0.359  10.468  0.7572 -0.8010  1.1762
   50MPD2    N1  787   4.391   4.649  10.274  0.3075  0.2812 -0.3624
   50MPD2    H7  788   4.353   4.624  10.365  3.7357 -0.0131  0.9940
   51TMC2    C1  789   0.035   4.523   1.125  0.0434 -0.5762  0.1890
   51TMC2    C2  790   4.685   4.571   1.041 -0.5512  0.2132  0.1576
   51TMC2    C3  791   4.719   4.692   0.981  0.6521  0.0701  0.1614
   51TMC2    C4  792   0.151   4.579   1.156  0.3671 -0.7643 -0.3463
   51TMC2    C5  793   0.183   4.693   1.089  0.0758 -0.0992 -0.1288
   51TMC2    C6  794   0.091   0.018   1.009  0.0215  0.0732  0.2667
   51TMC2     C  795   0.002   4.406   1.208 -0.5096 -0.4379 -0.0557
   51TMC2     O  796   0.092   4.349   1.266 -0.4010  0.1522 -0.1136
   51TMC2     H  797   4.590   4.525   1.016 -0.6225  1.1775 -1.3875
   51TMC2    H1  798   0.214   4.528   1.228  0.9887  3.9029  2.4625
   51TMC2    H2  799   0.116   0.102   0.946 -2.4306 -0.3554 -1.2652
   51TMC2    C7  800   0.290   0.034   1.141  0.0823  0.0802  0.1672
   51TMC2    C8  801   4.654   4.737   0.863  0.3914  0.3384 -0.5980
   51TMC2    O1  802   0.354   4.714   1.228 -0.2970  0.2399 -0.4124
   51TMC2    O2  803   4.673   4.692   0.750 -0.1586  0.2831 -0.4075
   51TMC2    O5  804   4.629   0.126   0.902 -0.0603  0.4169  0.1927
   51TMC2    H5  805   4.623   0.139   0.999  0.0248  0.8732  0.1340
   52MPD2     C  806   4.395   4.117   1.464  0.2442 -0.2725  0.6135
   52MPD2    C1  807   4.530   4.104   1.454  0.0877 -0.5895 -0.0526
   52MPD2    C2  808   4.607   4.194   1.377  0.4761  0.0564 -0.2665
   52MPD2    C3  809   4.541   4.306   1.314  0.1937 -0.0120  0.4335
   52MPD2    C4  810   4.406   4.318   1.333 -0.5155  0.4275 -0.0722
   52MPD2    C5  811   4.341   4.232   1.410  0.8360  0.5632 -0.7116
   52MPD2     H  812   4.712   4.165   1.371  0.2465 -0.9536  0.5440
   52MPD2    H1  813   4.341   4.398   1.300 -2.2692 -0.5973  0.8932
   52MPD2    H2  814   4.332   4.063   1.534  1.0258 -2.1769 -0.1752
   52MPD2    H3  815   4.233   4.242   1.414  0.7584 -0.3687 -0.3999
   52MPD2     N  816   4.610   4.401   1.235 -0.6014  0.1474 -0.2879
   52MPD2    H5  817   4.549   4.474   1.201 -1.4408 -0.9575 -1.1410
   52MPD2    N1  818   4.590   3.991   1.505  0.0799 -0.1940  0.2289
   52MPD2    H7  819   4.688   3.974   1.486  0.5598  2.6839  0.2298
   53TMC2    C1  820   0.038   2.103  11.987 -0.2648 -0.2246 -0.0520
   53TMC2    C2  821   0.169   2.128  11.977  0.3808 -0.4879 -0.5367
   53TMC2    C3  822   0.236   2.149  12.090 -0.2374  0.1513  0.2627
   53TMC2    C4  823   4.705   2.124  12.100 -0.1408 -0.5514 -0.4205
   53TMC2    C5  824   0.032   2.146  12.215  0.3835  0.4420  0.1160
   53TMC2    C6  825   0.170   2.167  12.211 -0.0112 -0.0461  0.2241
   53TMC2     C  826   4.720   2.120  11.856 -0.4179  0.7024 -0.8665
   53TMC2     O  827   0.033   2.080  11.759 -0.5226 -0.5222 -0.6059
   53TMC2     H  828   0.219   2.107  11.883 -1.3920 -1.4714 -1.2598
   53TMC2    H1  829   4.597   2.118  12.097 -0.1704 -0.0975 -0.3317
   53TMC2    H2  830   0.231   2.176  12.300  0.7657  1.2501 -0.4321
   53TMC2    C7  831   4.691   2.171  12.331 -0.1145 -0.0471 -0.0249
   53TMC2    C8  832   0.379   2.159  12.110  0.2421 -0.9266 -0.2749
   53TMC2    O1  833   4.570   2.180  12.327  0.0533  0.2053 -0.2655
   53TMC2    O2  834   0.432   2.209  12.205 -0.0186 -0.4083  0.3527
   53TMC2    O5  835   0.436   2.125  11.993  0.0066  0.1926 -0.4917
   53TMC2    H5  836   0.382   2.057  11.947  0.2764  0.9981 -2.0131
   54MPD2     C  837   4.502   2.197  11.636  0.0794  0.4223  0.5241
   54MPD2    C1  838   4.496   2.220  11.774 -0.7647 -0.0984 -0.2803
   54MPD2    C2  839   4.376   2.272  11.827 -0.0395  0.4711 -0.3743
   54MPD2    C3  840   4.275   2.313  11.734  0.3311  0.5425 -0.4533
   54MPD2    C4  841   4.278   2.280  11.603 -0.5027  1.0019  0.3875
   54MPD2    C5  842   4.397   2.229  11.554 -0.1843 -0.1312  0.1274
   54MPD2     H  843   4.358   2.280  11.933  0.8507  2.7934 -0.3872
   54MPD2    H1  844   4.196   2.300  11.536  0.7529  0.2103 -1.3713
   54MPD2    H2  845   4.589   2.158  11.584 -0.1887 -0.2083  0.5445
   54MPD2    H3  846   4.408   2.216  11.447  1.1261  2.2842 -0.0370
   54MPD2     N  847   4.157   2.372  11.776 -0.1092 -0.4931  0.0610
   54MPD2    H5  848   4.079   2.373  11.712  0.1144  1.0572 -0.1950
   54MPD2    N1  849   4.595   2.190  11.867  0.4528  0.4228  0.5004
   54MPD2    H7  850   4.575   2.218  11.963  0.5743  0.3202  0.5566
   55TMC2    C1  851   1.475   1.137  17.561  0.5952  0.0829  0.1457
   55TMC2    C2  852   1.512   1.168  17.430 -0.2636 -0.4460 -0.0413
   55TMC2    C3  853   1.575   1.069  17.354  0.3914  0.5720 -0.1455
   55TMC2    C4  854   1.506   1.015  17.611 -0.0213 -0.0314 -0.2189
   55TMC2    C5  855   1.563   0.923  17.532 -0.1294 -0.1170  0.3057
   55TMC2    C6  856   1.602   0.946  17.405 -0.2454  0.1290 -0.3957
   55TMC2     C  857   1.397   1.221  17.645 -0.0921 -0.5682  0.2554
   55TMC2     O  858   1.419   1.225   0.001  0.2291 -0.2185  0.4402
   55TMC2     H  859   1.498   1.272  17.403 -1.1944 -0.6800 -0.4440
   55TMC2    H1  860   1.482   0.995  17.714  1.5115  0.5680  0.2539
   55TMC2    H2  861   1.641   0.867  17.341  2.9129  0.9398  0.5458
   55TMC2    C7  862   1.535   0.790  17.564  0.3363  0.5441 -0.1628
   55TMC2    C8  863   1.620   1.097  17.220 -0.7860 -0.3418 -0.3349
   55TMC2    O1  864   1.535   0.716  17.469  0.2082  0.0883 -0.0895
   55TMC2    O2  865   1.543   1.150  17.141 -0.2380  0.3586 -0.2895
   55TMC2    O5  866   1.729   1.026  17.203  0.0304 -0.0068 -0.5431
   55TMC2    H5  867   1.769   1.024  17.292  0.6155 -0.4158 -0.8132
   56MPD2     C  868   1.131   1.462  17.523 -0.6473 -0.7416  0.1581
   56MPD2    C1  869   1.202   1.382  17.606  0.5525 -0.3515  0.5441
   56MPD2    C2  870   1.167   1.384  17.744  0.4565 -0.1321  0.5926
   56MPD2    C3  871   1.060   1.458   0.025  0.1909 -0.7223  0.2953
   56MPD2    C4  872   0.986   1.527  17.702 -0.1530  0.0174 -0.1486
   56MPD2    C5  873   1.026   1.532  17.576  0.3183 -0.3385  0.6324
   56MPD2     H  874   1.226   1.326   0.051  1.1804 -1.1517 -0.8549
   56MPD2    H1  875   0.891   1.571  17.731  0.1070  0.4644  0.0193
   56MPD2    H2  876   1.163   1.480  17.420  2.0665 -0.9427  0.9556
   56MPD2    H3  877   0.970   1.605  17.520  2.8066  0.9562 -0.1550
   56MPD2     N  878   1.006   1.438   0.159  0.1676  0.0516  0.0415
   56MPD2    H5  879   0.916   1.481   0.174  0.1541  0.8871 -2.4633
   56MPD2    N1  880   1.311   1.300  17.568 -0.5743  0.4645 -0.3849
   56MPD2    H7  881   1.326   1.295  17.467  0.2805  0.3500 -0.2489
   57TMC2    C1  882   0.648   0.749  14.136  0.3514 -0.0045 -0.1962
   57TMC2    C2  883   0.755   0.738  14.218  0.2048  0.4915  0.4953
   57TMC2    C3  884   0.824   0.624  14.201 -0.0258 -0.1514 -0.2309
   57TMC2    C4  885   0.610   0.656  14.043 -0.0476 -0.8252 -0.2384
   57TMC2    C5  886   0.688   0.547  14.029  0.4850  0.2436  0.3192
   57TMC2    C6  887   0.798   0.531  14.101  0.2600  0.2570 -1.0948
   57TMC2     C  888   0.559   0.868  14.136  0.0179  0.0374  0.0061
   57TMC2     O  889   0.478   0.861  14.042 -0.2383 -0.5738  0.7232
   57TMC2     H  890   0.786   0.821  14.281  2.4490  0.2922 -0.3550
   57TMC2    H1  891   0.538   0.682  13.966  0.6064 -2.0479 -1.2639
   57TMC2    H2  892   0.873   0.453  14.092 -0.7446 -0.8482  0.0987
   57TMC2    C7  893   0.658   0.471  13.911  0.2349  0.2803 -0.2581
   57TMC2    C8  894   0.921   0.582  14.297  0.0586  0.3213 -0.2590
   57TMC2    O1  895   0.544   0.471  13.871  0.4049  0.2271  0.0571
   57TMC2    O2  896   1.008   0.508  14.263  0.1698 -0.0787  0.0526
   57TMC2    O5  897   0.912   0.634  14.426  0.7901  0.1416  0.5203
   57TMC2    H5  898   0.842   0.701  14.441  0.3959 -0.1548 -0.0168
   58MPD2     C  899   0.308   1.269  14.304  0.8399 -0.5067 -0.0109
   58MPD2    C1  900   0.290   1.201  14.189 -0.1504  0.1580 -0.3384
   58MPD2    C2  901   0.365   1.087  14.176  0.0013  0.1656 -0.6806
   58MPD2    C3  902   0.464   1.051  14.264 -0.6281  0.0121  0.1246
   58MPD2    C4  903   0.463   1.114  14.390  0.2178  0.1500 -0.6680
   58MPD2    C5  904   0.383   1.221  14.406 -0.0816 -0.2155  0.8791
   58MPD2     H  905   0.352   1.029  14.086  0.1790 -1.6472  0.4803
   58MPD2    H1  906   0.523   1.082  14.474  0.1307 -2.3652 -1.5632
   58MPD2    H2  907   0.267   1.368  14.315  1.3146 -0.2226 -0.7791
   58MPD2    H3  908   0.400   1.281  14.494 -0.5922  1.3613 -0.0939
   58MPD2     N  909   0.555   0.949  14.243  0.6183 -0.0516 -0.7355
   58MPD2    H5  910   0.614   0.928  14.323 -0.9474  0.8887  0.6484
   58MPD2    N1  911   0.190   1.230  14.095 -0.3204  0.7232 -0.3042
   58MPD2    H7  912   0.171   1.169  14.016  1.7563  1.2374 -1.2000
   59TMC2    C1  913   2.828   0.597  12.830  0.7749 -0.2632  0.5546
   59TMC2    C2  914   2.856   0.485  12.897 -0.8702 -0.2827  0.1865
   59TMC2    C3  915   2.755   0.392  12.924 -0.1792 -0.0712  0.1820
   59TMC2    C4  916   2.703   0.620  12.768  0.3038 -0.7931  0.0581
   59TMC2    C5  917   2.602   0.533  12.805 -0.4943 -0.0602  0.4826
   59TMC2    C6  918   2.628   0.421  12.886 -0.5771  0.4229  0.1298
   59TMC2     C  919   2.943   0.679  12.801  0.3541 -0.0840 -0.4389
   59TMC2     O  920   2.946   0.749  12.698  0.5447  0.2547  0.3088
   59TMC2     H  921   2.958   0.462  12.925 -0.0250  1.5320 -1.3616
   59TMC2    H1  922   2.675   0.713  12.720  0.8240  0.1614  1.6119
   59TMC2    H2  923   2.553   0.344  12.896  0.7936 -0.9160  0.0871
   59TMC2    C7  924   2.465   0.584  12.791 -0.1839  0.8602 -0.1247
   59TMC2    C8  925   2.766   0.288  13.024  0.3341 -0.1857 -0.0616
   59TMC2    O1  926   2.393   0.532  12.875  1.0374  0.2671 -0.3784
   59TMC2    O2  927   2.666   0.249  13.085  0.1046 -0.0681 -0.1029
   59TMC2    O5  928   2.859   0.206  12.966 -1.0051 -0.3967  0.3630
   59TMC2    H5  929   2.915   0.257  12.905 -0.2952 -1.9954 -0.3080
   60MPD2     C  930   3.203   0.836  12.847 -0.0847 -0.2541 -0.2117
   60MPD2    C1  931   3.128   0.782  12.948  0.7176 -0.1205 -0.6723
   60MPD2    C2  932   3.166   0.807  13.080  0.0874 -0.2942 -0.5039
   60MPD2    C3  933   3.278   0.882  13.104  0.2472 -0.3714  0.6319
   60MPD2    C4  934   3.362   0.925  13.003 -0.1374 -0.1051 -0.4354
   60MPD2    C5  935   3.322   0.901  12.873 -0.5255 -0.1807  0.1365
   60MPD2     H  936   3.105   0.769  13.161 -2.6509  0.1375 -2.3691
   60MPD2    H1  937   3.452   0.982  13.019  0.0719  0.3855 -3.3391
   60MPD2    H2  938   3.170   0.831  12.744 -0.4950 -0.1144 -0.0883
   60MPD2    H3  939   3.378   0.942  12.790  0.3395  3.5771  2.5723
   60MPD2     N  940   3.330   0.909  13.232  0.7854 -0.0005  0.2924
   60MPD2    H5  941   3.416   0.961  13.244  0.8546  0.0641 -0.4404
   60MPD2    N1  942   3.007   0.712  12.923 -0.3017 -0.5689  0.0738
   60MPD2    H7  943   2.952   0.682  13.003  1.0279  0.7733  1.4726
   61TMC2    C1  944   1.774   2.507  15.984 -0.4498 -0.6057 -0.5276
   61TMC2    C2  945   1.796   2.515  16.119 -0.1599 -0.5679 -0.4644
   61TMC2    C3  946   1.785   2.644  16.166 -0.5896  0.2285  0.5608
   61TMC2    C4  947   1.750   2.617  15.908 -0.5076  0.6750  0.9137
   61TMC2    C5  948   1.764   2.742  15.958 -0.3581 -0.0589 -0.0693
   61TMC2    C6  949   1.775   2.759  16.095 -0.3058  0.2060  0.1242
   61TMC2     C  950   1.825   2.390  15.913 -0.1131 -0.3825  0.6189
   61TMC2     O  951   1.838   2.289  15.989  0.2847 -0.4493 -0.6453
   61TMC2     H  952   1.805   2.428  16.183  0.5620 -1.6721 -2.0513
   61TMC2    H1  953   1.706   2.604  15.810  0.4576  2.1401  0.2868
   61TMC2    H2  954   1.773   2.854  16.147 -1.7009 -0.3589  1.1009
   61TMC2    C7  955   1.795   2.843  15.868 -0.3352 -0.0929 -0.1728
   61TMC2    C8  956   1.750   2.669  16.307 -0.0577 -0.5985  0.8505
   61TMC2    O1  957   1.850   2.805  15.768  0.9120 -0.3186  0.1565
   61TMC2    O2  958   1.686   2.764  16.343 -0.0780 -0.0835 -0.4719
   61TMC2    O5  959   1.842   2.602  16.388  0.1727  0.3686  0.0473
   61TMC2    H5  960   1.901   2.536  16.346  0.6023  0.4648  0.4984
   62MPD2     C  961   1.952   2.205  15.717  0.2798 -0.0214  0.5217
   62MPD2    C1  962   1.958   2.345  15.708 -0.7748  0.5940 -0.2737
   62MPD2    C2  963   2.024   2.410  15.608 -0.3980 -0.0060  0.0698
   62MPD2    C3  964   2.088   2.341  15.505  0.0161  0.0259 -0.1385
   62MPD2    C4  965   2.089   2.199  15.529 -0.2340 -0.0703 -0.1819
   62MPD2    C5  966   2.025   2.128  15.623 -0.2723 -0.7440 -0.4038
   62MPD2     H  967   2.024   2.518  15.618  0.1710 -0.0630  0.7473
   62MPD2    H1  968   2.142   2.130  15.464  0.5938  0.4290 -0.0407
   62MPD2    H2  969   1.893   2.152  15.791 -2.2862  0.2326 -1.3346
   62MPD2    H3  970   2.023   2.020  15.621 -1.2580 -0.7660  1.4514
   62MPD2     N  971   2.142   2.406  15.393 -0.4378 -0.6033  0.6149
   62MPD2    H5  972   2.136   2.507  15.400  1.0378 -0.5617  1.2188
   62MPD2    N1  973   1.899   2.429  15.804 -0.0407  0.4554 -0.4710
   62MPD2    H7  974   1.890   2.528  15.784  0.5422  0.3799 -1.1081
   63TMC2    C1  975   0.854   2.797  10.705 -0.9633 -0.1395 -0.1738
   63TMC2    C2  976   0.809   2.926  10.730  0.7458  0.0328 -0.2710
   63TMC2    C3  977   0.863   3.023  10.654  0.4740 -0.2475 -0.0503
   63TMC2    C4  978   0.934   2.770  10.595 -0.2640  0.3926  0.0138
   63TMC2    C5  979   0.991   2.877  10.534  0.5703  0.3340  0.7658
   63TMC2    C6  980   0.949   3.003  10.550 -0.2439 -0.4355  0.6003
   63TMC2     C  981   0.815   2.694  10.801 -0.0589  0.1277 -0.0021
   63TMC2     O  982   0.758   2.731  10.904  0.2741 -0.2936 -0.4582
   63TMC2     H  983   0.741   2.946  10.812  0.8727 -0.2087 -0.1032
   63TMC2    H1  984   0.990   2.678  10.587 -0.2282  0.5151 -1.2580
   63TMC2    H2  985   0.982   3.086  10.489  0.6693 -1.4975 -0.3463
   63TMC2    C7  986   1.033   2.830  10.400 -0.5331  0.3903  0.3407
   63TMC2    C8  987   0.829   3.160  10.674 -0.7083  0.7756  0.5726
   63TMC2    O1  988   1.011   2.710  10.369 -0.0749  0.0045  0.2295
   63TMC2    O2  989   0.904   3.253  10.694 -0.2807  0.3010  0.4503
   63TMC2    O5  990   0.693   3.172  10.695  0.1446 -0.4638  0.5481
   63TMC2    H5  991   0.646   3.089  10.671 -1.1649 -0.0929  1.8453
   64MPD2     C  992   0.811   2.209  10.951 -0.1014  0.4589  0.1247
   64MPD2    C1  993   0.858   2.218  10.820  0.4406  0.9080  0.1290
   64MPD2    C2  994   0.859   2.340  10.753  1.0895 -0.8371  0.7305
   64MPD2    C3  995   0.825   2.454  10.826  0.0807 -0.1664  0.2823
   64MPD2    C4  996   0.799   2.447  10.953 -0.3951 -0.4340  0.3795
   64MPD2    C5  997   0.792   2.325  11.019  0.2307 -0.3384  0.3484
   64MPD2     H  998   0.887   2.344  10.648 -2.0930 -0.6421 -0.1358
   64MPD2    H1  999   0.790   2.530  11.022 -2.9709 -0.7115  0.3570
   64MPD2    H2 1000   0.821   2.115  11.003 -0.5428 -0.4511 -1.4338
   64MPD2    H3 1001   0.775   2.323  11.126  1.4213  1.0803  0.5671
   64MPD2     N 1002   0.840   2.570  10.748  0.4986  0.2203  0.3345
   64MPD2    H5 1003   0.863   2.548  10.652  1.1105  2.4823 -0.0490
   64MPD2    N1 1004   0.897   2.100  10.745  0.4507 -0.6271 -0.2723
   64MPD2    H7 1005   0.932   2.120  10.651 -1.7579  0.9528 -0.7272
   65TMC2    C1 1006   3.024   1.704  15.368  0.2530  0.3027 -0.2707
   65TMC2    C2 1007   3.145   1.738  15.421  0.4088  1.0316 -0.3729
   65TMC2    C3 1008   3.145   1.825  15.527 -0.1048  0.5157  0.4929
   65TMC2    C4 1009   2.915   1.766  15.410 -0.0147 -0.2060  0.6246
   65TMC2    C5 1010   2.918   1.855  15.512  0.9765 -0.7615 -0.0936
   65TMC2    C6 1011   3.036   1.894  15.569  0.7213  0.4126  0.8954
   65TMC2     C 1012   3.014   1.557  15.365 -0.7813  0.5646 -0.5106
   65TMC2     O 1013   3.114   1.494  15.334 -0.3288  0.4226 -0.5120
   65TMC2     H 1014   3.236   1.690  15.387  0.0577  0.0319  0.1042
   65TMC2    H1 1015   2.821   1.747  15.359  1.1519 -1.6618 -1.0319
   65TMC2    H2 1016   3.039   1.968  15.648 -1.2976  3.4181 -1.8550
   65TMC2    C7 1017   2.814   1.961  15.504  0.5001  0.1620 -0.6377
   65TMC2    C8 1018   3.268   1.863  15.590 -0.2309  0.1505  0.0024
   65TMC2    O1 1019   2.750   1.967  15.397 -0.3575  0.3811  0.4048
   65TMC2    O2 1020   3.274   1.974  15.643 -0.5896 -0.0530  0.0213
   65TMC2    O5 1021   3.379   1.790  15.557  0.0129 -0.5726  0.4449
   65TMC2    H5 1022   3.355   1.700  15.528  0.1264 -0.2474 -0.6593
   66MPD2     C 1023   2.983   1.286  15.495  0.2058  0.9999 -0.5789
   66MPD2    C1 1024   2.892   1.390  15.502 -0.4081 -0.2658  0.1806
   66MPD2    C2 1025   2.772   1.357  15.565 -1.0800  0.7236  0.1831
   66MPD2    C3 1026   2.753   1.237  15.637 -0.0139  0.3622 -0.4505
   66MPD2    C4 1027   2.851   1.138  15.626 -0.1698  0.1715 -0.3612
   66MPD2    C5 1028   2.960   1.164  15.551  0.0121  0.1435 -0.4221
   66MPD2     H 1029   2.695   1.433  15.560 -1.9264  0.0516  2.9845
   66MPD2    H1 1030   2.847   1.038  15.666 -1.7188 -0.3082 -1.7285
   66MPD2    H2 1031   3.083   1.285  15.453  1.5592 -1.7094  2.7178
   66MPD2    H3 1032   3.031   1.084  15.532 -1.7341 -1.7093  0.8553
   66MPD2     N 1033   2.634   1.202  15.707 -0.3365 -0.0892  0.0852
   66MPD2    H5 1034   2.638   1.127  15.776 -0.9041 -0.5990 -0.4335
   66MPD2    N1 1035   2.909   1.516  15.444 -0.0618 -0.3058 -0.0447
   66MPD2    H7 1036   2.838   1.583  15.473  0.9825  1.3291 -1.2880
   67TMC2    C1 1037   3.118   1.471  14.845 -0.2398  0.0807 -0.5507
   67TMC2    C2 1038   3.244   1.513  14.830 -0.4161  0.0234 -0.6946
   67TMC2    C3 1039   3.347   1.462  14.915 -0.2246  0.7443  1.3186
   67TMC2    C4 1040   3.086   1.381  14.940  0.1647  0.3189 -0.0075
   67TMC2    C5 1041   3.181   1.340  15.027 -0.1785 -0.5931  0.0451
   67TMC2    C6 1042   3.317   1.366  15.003  0.6535  0.3521 -0.7690
   67TMC2     C 1043   3.027   1.496  14.734  0.7741 -0.2138  0.4067
   67TMC2     O 1044   3.044   1.596  14.667  0.1550  0.0647  0.1371
   67TMC2     H 1045   3.267   1.579  14.747  0.5411 -0.6082 -0.9367
   67TMC2    H1 1046   2.989   1.336  14.956 -0.2089  0.0647 -3.0219
   67TMC2    H2 1047   3.400   1.310  15.046 -1.1646  0.4647  2.8952
   67TMC2    C7 1048   3.148   1.234  15.116  0.3859  0.6279  0.1998
   67TMC2    C8 1049   3.482   1.471  14.853  0.1614  0.3538 -0.3796
   67TMC2    O1 1050   3.055   1.161  15.093  0.0319 -0.4729 -0.0728
   67TMC2    O2 1051   3.503   1.446  14.738  0.2911  0.3329  0.5390
   67TMC2    O5 1052   3.571   1.453  14.952 -0.4923 -0.9558 -0.3305
   67TMC2    H5 1053   3.523   1.471  15.036  0.0756  0.0971 -0.2274
   68MPD2     C 1054   2.837   1.445  14.498  0.2151 -0.5431  0.7969
   68MPD2    C1 1055   2.870   1.350  14.592 -0.0650  1.0287 -0.0493
   68MPD2    C2 1056   2.832   1.216  14.565 -1.0375 -0.4957 -0.2719
   68MPD2    C3 1057   2.737   1.191  14.465  0.2150 -0.7058 -0.2929
   68MPD2    C4 1058   2.686   1.301  14.393 -0.0021  0.5794 -0.6649
   68MPD2    C5 1059   2.742   1.423  14.401  0.3404  0.4992 -0.0552
   68MPD2     H 1060   2.877   1.146  14.635  1.2503  0.7567 -0.4710
   68MPD2    H1 1061   2.599   1.298  14.328 -0.8945  1.0088  0.5142
   68MPD2    H2 1062   2.874   1.547  14.497 -4.0889  1.0015  0.1780
   68MPD2    H3 1063   2.707   1.504  14.338 -1.2259 -0.7078 -0.7296
   68MPD2     N 1064   2.666   1.067  14.454  0.3438 -0.7870 -0.1529
   68MPD2    H5 1065   2.594   1.065  14.382  0.7841 -1.5307 -0.5704
   68MPD2    N1 1066   2.967   1.381  14.692  0.2377 -0.1051 -0.2889
   68MPD2    H7 1067   2.978   1.300  14.752 -3.4802 -0.3220  0.1248
   69TMC2    C1 1068   0.211   2.504  12.855 -0.3346  0.2128  0.4256
   69TMC2    C2 1069   0.085   2.539  12.892 -0.2532  0.0306 -0.2271
   69TMC2    C3 1070   4.737   2.568  12.794 -0.2392 -0.6160 -0.5612
   69TMC2    C4 1071   0.237   2.503  12.719  0.2603  0.1521 -0.0101
   69TMC2    C5 1072   0.140   2.518  12.624  0.6824  0.0752  0.2778
   69TMC2    C6 1073   0.013   2.554  12.657  0.0387 -0.6607  0.6373
   69TMC2     C 1074   0.299   2.426  12.934 -0.0903 -0.3527 -0.2025
   69TMC2     O 1075   0.413   2.409  12.900  0.3401 -0.4343 -0.4679
   69TMC2     H 1076   0.065   2.568  12.994 -0.2559 -2.6294  0.5422
   69TMC2    H1 1077   0.337   2.491  12.679  0.1964  1.5541 -0.6037
   69TMC2    H2 1078   4.679   2.592  12.589  2.0812  0.2221 -1.1581
   69TMC2    C7 1079   0.173   2.523  12.484 -0.7836 -0.1769 -0.0832
   69TMC2    C8 1080   4.602   2.620  12.821 -0.3378  0.0068 -1.0234
   69TMC2    O1 1081   0.292   2.505  12.453 -0.5517 -0.8538  0.0050
   69TMC2    O2 1082   4.524   2.662  12.735 -0.1874  0.1139  0.1339
   69TMC2    O5 1083   4.562   2.548  12.931  0.0949 -0.0948  0.4038
   69TMC2    H5 1084   4.635   2.514  12.986 -0.1929  1.8061  1.9863
   70MPD2     C 1085   0.410   2.198  13.102  0.4406 -0.1935 -0.7965
   70MPD2    C1 1086   0.273   2.235  13.087 -0.5562 -0.1500  0.2772
   70MPD2    C2 1087   0.176   2.154  13.137  0.1166  0.8778 -0.0045
   70MPD2    C3 1088   0.210   2.036  13.191 -0.5720  0.5039 -0.4988
   70MPD2    C4 1089   0.341   2.001  13.215  0.5520 -0.0935  0.0908
   70MPD2    C5 1090   0.441   2.089  13.181  0.7645  0.8996  0.0346
   70MPD2     H 1091   0.072   2.178  13.119 -0.0091  0.6271  0.3945
   70MPD2    H1 1092   0.380   1.918  13.273 -0.8336 -1.3032 -0.7068
   70MPD2    H2 1093   0.496   2.253  13.067  0.2688  0.4666 -0.1969
   70MPD2    H3 1094   0.543   2.060  13.202  0.1361 -1.2277  0.1340
   70MPD2     N 1095   0.109   1.944  13.226 -1.0808  0.1184  0.5280
   70MPD2    H5 1096   0.140   1.852  13.257  1.1220  0.2499 -1.2776
   70MPD2    N1 1097   0.225   2.343  13.016  0.7710  0.5932 -0.1061
   70MPD2    H7 1098   0.124   2.347  13.007  0.8690  0.5059 -1.3359
   71TMC2    C1 1099   3.583   3.601   2.035  0.0493  0.2426 -0.5961
   71TMC2    C2 1100   3.712   3.601   2.085  0.4458 -0.3475  0.2143
   71TMC2    C3 1101   3.735   3.692   2.188 -0.5733  0.2549  0.1947
   71TMC2    C4 1102   3.478   3.673   2.096 -0.4028  0.6275 -0.7612
   71TMC2    C5 1103   3.506   3.750   2.204 -0.2360  0.1195  0.6828
   71TMC2    C6 1104   3.634   3.758   2.251  0.2284 -0.5520  0.0571
   71TMC2     C 1105   3.548   3.548   1.900  0.1612 -0.0566 -0.5291
   71TMC2     O 1106   3.458   3.609   1.848 -0.0670 -0.0332  0.0207
   71TMC2     H 1107   3.796   3.546   2.043  2.1181  1.7724  0.7345
   71TMC2    H1 1108   3.382   3.673   2.046  0.2366 -1.1836 -2.0058
   71TMC2    H2 1109   3.649   3.812   2.343  0.8783 -1.9810  0.7864
   71TMC2    C7 1110   3.399   3.825   2.262  0.0571  0.3272 -0.1097
   71TMC2    C8 1111   3.844   3.655   2.270  0.1708  0.1521  0.2722
   71TMC2    O1 1112   3.414   3.939   2.311  0.1812 -0.0596  0.1684
   71TMC2    O2 1113   3.895   3.545   2.261 -0.2520  0.2534  0.1448
   71TMC2    O5 1114   3.912   3.765   2.289  0.2559 -0.0890 -0.2483
   71TMC2    H5 1115   3.871   3.853   2.299  0.1997 -0.3561  1.8448
   72MPD2     C 1116   3.536   3.192   1.542 -0.0470 -0.0185 -0.2836
   72MPD2    C1 1117   3.490   3.324   1.541  0.6063 -0.7105  0.4982
   72MPD2    C2 1118   3.514   3.404   1.648 -0.3849 -0.7149 -0.4829
   72MPD2    C3 1119   3.598   3.360   1.748  0.1169  0.1648 -0.2533
   72MPD2    C4 1120   3.644   3.228   1.752 -0.0825 -0.4995  0.3637
   72MPD2    C5 1121   3.611   3.140   1.649 -0.3428 -0.0309 -0.3035
   72MPD2     H 1122   3.479   3.506   1.639  0.3068 -0.4632 -0.3106
   72MPD2    H1 1123   3.690   3.189   1.842 -0.4346  0.4594  0.9646
   72MPD2    H2 1124   3.514   3.123   1.461  0.9533 -0.0163 -0.5659
   72MPD2    H3 1125   3.645   3.038   1.652  2.1770  0.9352  4.0299
   72MPD2     N 1126   3.626   3.437   1.865  0.0830 -0.6581 -0.5452
   72MPD2    H5 1127   3.680   3.395   1.940  1.0287 -1.2387 -1.5492
   72MPD2    N1 1128   3.404   3.380   1.441 -1.2078 -0.7474  0.0011
   72MPD2    H7 1129   3.373   3.472   1.470  1.8723 -0.3251  1.9634
   73TMC2    C1 1130   2.200   4.661  14.171  0.8541  0.1560  0.7250
   73TMC2    C2 1131   2.227   0.034  14.235 -0.0806  0.5289 -0.5283
   73TMC2    C3 1132   2.299   0.035  14.344 -0.0760 -0.1526  0.0143
   73TMC2    C4 1133   2.259   4.542  14.207 -0.0403 -0.4201 -0.5961
   73TMC2    C5 1134   2.349   4.551  14.312 -0.4944 -0.0406  0.2412
   73TMC2    C6 1135   2.363   4.660  14.383  0.7046  0.2709  0.1783
   73TMC2     C 1136   2.167   4.668  14.027  0.3252  0.5032  0.1483
   73TMC2     O 1137   2.225   4.587  13.955  0.9265  0.0554 -0.0765
   73TMC2     H 1138   2.182   0.126  14.199 -0.2589  1.1603  1.3000
   73TMC2    H1 1139   2.239   4.446  14.160  2.0125 -2.0208  1.7909
   73TMC2    H2 1140   2.443   4.662  14.456  2.3826 -2.5856 -1.5807
   73TMC2    C7 1141   2.474   4.496  14.257 -0.5377 -0.5911  0.0994
   73TMC2    C8 1142   2.343   0.160  14.392 -0.0565 -0.0239 -0.1096
   73TMC2    O1 1143   2.564   4.456  14.332  0.1775 -0.6494 -0.2359
   73TMC2    O2 1144   2.370   0.251  14.316 -0.0977  0.2278 -0.1943
   73TMC2    O5 1145   2.369   0.160  14.525  0.3596 -0.2784  0.3069
   73TMC2    H5 1146   2.337   0.075  14.564  2.0117 -1.0667 -0.0680
   74MPD2     C 1147   2.112   0.212  13.607  0.5433 -0.2351 -0.0738
   74MPD2    C1 1148   2.212   0.121  13.636 -0.2900 -0.4638  1.1185
   74MPD2    C2 1149   2.204   0.064  13.768  0.5826 -0.1634  0.0611
   74MPD2    C3 1150   2.101   0.090  13.854 -0.0810 -0.4058 -0.4099
   74MPD2    C4 1151   2.008   0.183  13.823  0.4420  0.7122 -0.5046
   74MPD2    C5 1152   2.005   0.232  13.695  0.8666  0.8483  0.3838
   74MPD2     H 1153   2.286   0.002  13.803  1.0344  0.0838 -0.5528
   74MPD2    H1 1154   1.931   0.215  13.892 -1.4024 -0.3651 -2.0577
   74MPD2    H2 1155   2.114   0.263  13.511 -2.0013 -0.5139 -0.2592
   74MPD2    H3 1156   1.928   0.303  13.670  2.2001  1.1020 -3.0268
   74MPD2     N 1157   2.096   0.040  13.985  0.0653 -0.0904  0.2342
   74MPD2    H5 1158   2.040   0.088  14.055  0.3442  0.6265 -0.0340
   74MPD2    N1 1159   2.320   0.089  13.543  0.1978 -0.1629 -0.1629
   74MPD2    H7 1160   2.320   0.135  13.453  0.8741 -1.5106 -0.8474
   75TMC2    C1 1161   2.589   0.838  14.478  0.5201  0.4135  0.4375
   75TMC2    C2 1162   2.548   0.742  14.564 -0.8904 -0.2926  0.1499
   75TMC2    C3 1163   2.454   0.651  14.521  0.0056  0.4431  0.1562
   75TMC2    C4 1164   2.537   0.853  14.359 -0.7271  0.0937  0.4833
   75TMC2    C5 1165   2.432   0.770  14.330  0.1589 -0.4435 -0.3236
   75TMC2    C6 1166   2.389   0.666  14.402 -0.0629  0.5545 -0.5320
   75TMC2     C 1167   2.678   0.946  14.524  0.3238  0.0433  0.3491
   75TMC2     O 1168   2.744   0.925  14.623  0.8007 -0.4228  0.0735
   75TMC2     H 1169   2.574   0.752  14.669 -0.9894 -0.5064  0.1945
   75TMC2    H1 1170   2.584   0.910  14.279  0.3971 -0.9335  0.4022
   75TMC2    H2 1171   2.315   0.595  14.367  1.3003 -0.6592 -0.9244
   75TMC2    C7 1172   2.351   0.816  14.214 -0.2574  0.0819  0.4275
   75TMC2    C8 1173   2.411   0.541  14.601  0.2383  0.0404 -0.3254
   75TMC2    O1 1174   2.420   0.852  14.122 -0.2224  0.3611 -0.4124
   75TMC2    O2 1175   2.314   0.482  14.565 -0.1135 -0.6666  0.1540
   75TMC2    O5 1176   2.511   0.486  14.672 -0.3987 -0.3272  0.4768
   75TMC2    H5 1177   2.596   0.536  14.671 -0.4474 -0.2594 -0.0312
   76TMC2    C1 1178   0.576   1.514  12.062 -0.1029 -0.2788 -0.3040
   76TMC2    C2 1179   0.442   1.489  12.066  0.2652 -0.1779 -0.5117
   76TMC2    C3 1180   0.402   1.377  12.126  0.7628 -0.1647  0.0536
   76TMC2    C4 1181   0.666   1.432  12.130 -0.6463 -0.7119 -0.0854
   76TMC2    C5 1182   0.612   1.331  12.208 -1.0204  0.7740 -0.3581
   76TMC2    C6 1183   0.473   1.305  12.210 -0.5452 -0.2629  0.2518
   76TMC2     C 1184   0.608   1.649  12.018 -0.0892  0.2542 -1.1760
   76TMC2     O 1185   0.522   1.717  11.960  0.1418 -0.1433 -0.2241
   76TMC2     H 1186   0.371   1.536  11.999 -0.6510  0.0278  0.6076
   76TMC2    H1 1187   0.773   1.445  12.116 -1.0730  0.3271 -2.3503
   76TMC2    H2 1188   0.423   1.220  12.255  0.9480 -0.4232  1.6134
   76TMC2    C7 1189   0.679   1.257  12.310 -0.4980 -0.4358 -0.0145
   76TMC2    C8 1190   0.259   1.376  12.150 -0.1473  0.0798 -0.3434
   76TMC2    O1 1191   0.621   1.163  12.360 -0.4057  0.5009 -0.5870
   76TMC2    O2 1192   0.180   1.364  12.060  0.3977  0.9573 -0.9869
   76TMC2    O5 1193   0.246   1.461  12.253 -0.0588  0.3772 -0.0316
   76TMC2    H5 1194   0.328   1.457  12.307  0.3785 -2.8904 -0.9174
   77MPD2     C 1195   0.934   2.032  11.880 -0.6154 -0.7121  0.1974
   77MPD2    C1 1196   0.797   2.028  11.897 -0.4809 -0.0056 -0.2306
   77MPD2    C2 1197   0.727   1.917  11.943 -0.4709  0.2087 -0.8338
   77MPD2    C3 1198   0.798   1.799  11.967 -0.9980 -0.6201 -0.1676
   77MPD2    C4 1199   0.935   1.801  11.943 -0.2507 -0.6566  0.4103
   77MPD2    C5 1200   0.995   1.913  11.898  0.3474  1.0425  0.3987
   77MPD2     H 1201   0.626   1.941  11.974 -0.5378 -0.1518 -0.7797
   77MPD2    H1 1202   0.986   1.706  11.954  2.1177  0.6829  0.8501
   77MPD2    H2 1203   0.998   2.118  11.868 -2.2356  0.5065  0.2013
   77MPD2    H3 1204   1.103   1.906  11.895  0.3384  0.3193  1.6763
   77MPD2     N 1205   0.741   1.685  12.027 -0.1489  0.5061 -0.0249
   77MPD2    H5 1206   0.811   1.621  12.062  2.2346  1.9918 -2.0520
   77MPD2    N1 1207   0.720   2.143  11.882  0.0348  0.3934  0.0154
   77MPD2    H7 1208   0.623   2.146  11.913  0.4711 -2.5881  1.5977
   78TMC2    C1 1209   3.429   4.094   1.010 -0.3585 -0.1846 -0.1347
   78TMC2    C2 1210   3.402   4.207   1.087  0.4732 -0.0413 -0.0528
   78TMC2    C3 1211   3.419   4.195   1.220  0.1138  0.2851  0.1968
   78TMC2    C4 1212   3.475   3.984   1.070  1.1882 -0.3774  0.1148
   78TMC2    C5 1213   3.477   3.971   1.207  0.2496 -0.3347 -0.4443
   78TMC2    C6 1214   3.455   4.080   1.289 -1.0445 -0.3141 -0.1372
   78TMC2     C 1215   3.412   4.101   0.871  0.4747  0.6079 -0.0134
   78TMC2     O 1216   3.388   3.996   0.813  0.3338  0.1967 -0.2128
   78TMC2     H 1217   3.381   4.298   1.032 -1.2122 -0.4039 -0.0186
   78TMC2    H1 1218   3.497   3.899   1.006  1.5576 -0.5562  0.4789
   78TMC2    H2 1219   3.463   4.088   1.397 -0.3104 -3.1718  0.0238
   78TMC2    C7 1220   3.521   3.848   1.268 -0.2465  0.0539  0.2868
   78TMC2    C8 1221   3.409   4.318   1.301  0.1632  0.3334 -0.4833
   78TMC2    O1 1222   3.524   3.744   1.208 -0.1818  0.6155 -0.5479
   78TMC2    O2 1223   3.450   4.318   1.416  0.3150  0.3183 -0.2788
   78TMC2    O5 1224   3.345   4.420   1.239 -0.1584 -0.0174 -0.3511
   78TMC2    H5 1225   3.297   4.399   1.156  2.2406  0.3933 -1.8281
   79MPD1     C 1226   3.422   4.403   0.443  0.6697  0.2391  0.9353
   79MPD1    C1 1227   3.384   4.268   0.450  0.0904 -0.0144 -0.2841
   79MPD1    C2 1228   3.393   4.203   0.573 -0.3348 -0.1061  0.0661
   79MPD1    C3 1229   3.435   4.274   0.689 -0.6038 -0.0067  0.0993
   79MPD1    C4 1230   3.469   4.405   0.674 -0.4374  0.1702 -0.1441
   79MPD1    C5 1231   3.465   4.471   0.557 -0.3205  0.4534  0.2051
   79MPD1     H 1232   3.368   4.099   0.588  1.7816 -0.4624  1.0905
   79MPD1    H1 1233   3.497   4.465   0.761 -0.2319  2.2961 -1.6651
   79MPD1    H2 1234   3.415   4.461   0.352 -1.7363 -2.2850 -0.5197
   79MPD1    H3 1235   3.474   4.578   0.543 -1.0442  0.3194 -1.3366
   79MPD1     N 1236   3.442   4.222   0.822 -0.2053 -0.1980 -0.1421
   79MPD1    H5 1237   3.472   4.290   0.891  2.0904  1.6695 -2.9857
   79MPD1    N1 1238   3.356   4.203   0.327 -0.5465 -0.4550  0.2736
   79MPD1    H6 1239   3.320   4.253   0.246 -0.8042 -0.1726  0.5609
   79MPD1    H7 1240   3.292   4.124   0.339  1.2919 -1.5235  3.1475
   80TMC2    C1 1241   0.035   1.681  11.836 -0.3983 -0.9923  0.0987
   80TMC2    C2 1242   4.740   1.744  11.723  0.4081  0.0060  0.3391
   80TMC2    C3 1243   4.635   1.687  11.657 -0.1255 -0.6139 -0.0085
   80TMC2    C4 1244   4.720   1.566  11.881 -0.0872  0.0766 -0.1902
   80TMC2    C5 1245   4.625   1.510  11.803 -0.3568  0.0280 -0.1327
   80TMC2    C6 1246   4.576   1.573  11.693 -0.5606  0.4589  0.1646
   80TMC2     C 1247   0.123   1.745  11.926  0.3454 -0.1651 -0.1112
   80TMC2     O 1248   0.201   1.830  11.885  0.2531  0.0986  0.4957
   80TMC2     H 1249   0.058   1.830  11.695  0.4586  0.4421  1.7717
   80TMC2    H1 1250   0.013   1.522  11.974  0.9894  0.6423 -0.3225
   80TMC2    H2 1251   4.496   1.529  11.634 -2.4626  1.1204  2.2421
   80TMC2    C7 1252   4.569   1.378  11.851  0.0591  0.2640  0.3656
   80TMC2    C8 1253   4.560   1.768  11.563  0.1108 -0.3919 -0.6305
   80TMC2    O1 1254   4.460   1.351  11.801  0.2744 -0.0702  0.3220
   80TMC2    O2 1255   4.474   1.718  11.494  0.4352 -0.3837 -0.3100
   80TMC2    O5 1256   4.595   1.897  11.585  0.7804 -0.5381 -0.3530
   80TMC2    H5 1257   4.661   1.897  11.659 -1.1556  1.0844  1.3724
   81MPD2     C 1258   0.250   1.813  12.183 -0.4328  0.1249  0.4345
   81MPD2    C1 1259   0.121   1.776  12.173  0.6742  0.2300 -0.5699
   81MPD2    C2 1260   0.047   1.780  12.284  0.9542 -0.1429  1.1304
   81MPD2    C3 1261   0.086   1.827  12.407 -0.0447  0.3237  0.0878
   81MPD2    C4 1262   0.228   1.841  12.422  0.1176  0.3114  0.0232
   81MPD2    C5 1263   0.308   1.838  12.306 -0.0866 -0.4035  0.4603
   81MPD2     H 1264   4.684   1.753  12.271  1.7373 -2.4006 -0.5359
   81MPD2    H1 1265   0.274   1.865  12.517  2.8051 -1.7412 -0.7738
   81MPD2    H2 1266   0.315   1.804  12.096  2.2722  2.4052  2.2251
   81MPD2    H3 1267   0.416   1.844  12.312 -0.1648  0.9290  0.6008
   81MPD2     N 1268   0.001   1.847  12.520 -0.5718 -0.1804 -0.2920
   81MPD2    H5 1269   0.044   1.879  12.606 -3.7131  1.1270  0.7739
   81MPD2    N1 1270   0.062   1.737  12.053 -0.0199 -0.2085  0.3830
   81MPD2    H7 1271   4.716   1.685  12.048  0.8860 -1.6833 -0.0184
   82TMC2    C1 1272   3.151   0.524  11.123  0.6584 -0.1323 -0.0840
   82TMC2    C2 1273   3.250   0.584  11.193 -0.3034 -0.5392  0.5369
   82TMC2    C3 1274   3.293   0.515  11.302 -0.3169 -0.3513 -0.0709
   82TMC2    C4 1275   3.096   0.403  11.155  0.2514 -0.2803  0.2708
   82TMC2    C5 1276   3.135   0.345  11.273  0.3268 -0.3866 -0.2521
   82TMC2    C6 1277   3.235   0.405  11.347  0.1698  0.1464  0.1163
   82TMC2     C 1278   3.146   0.560  10.986  0.5706 -0.0329  0.7203
   82TMC2     O 1279   3.046   0.540  10.918  0.1487 -0.0822  0.3012
   82TMC2     H 1280   3.280   0.687  11.174  2.5769 -1.5314 -0.3423
   82TMC2    H1 1281   3.041   0.347  11.080  0.8966 -1.4338  0.6528
   82TMC2    H2 1282   3.257   0.381  11.451 -0.8417  2.0338  0.7818
   82TMC2    C7 1283   3.065   0.237  11.347  0.3253  0.4915 -0.0641
   82TMC2    C8 1284   3.372   0.596  11.393  0.5533  0.4277  0.1330
   82TMC2    O1 1285   3.108   0.230  11.464 -0.0198  0.2832  0.3253
   82TMC2    O2 1286   3.379   0.718  11.372  0.3957  0.0219  0.3184
   82TMC2    O5 1287   3.469   0.518  11.449 -0.0610 -0.2452 -0.4354
   82TMC2    H5 1288   3.460   0.421  11.446  1.9996 -0.4311 -0.6934
   83MPD2     C 1289   3.359   0.867  10.645  0.1189 -0.2881 -0.3012
   83MPD2    C1 1290   3.228   0.846  10.685 -0.0422  0.6111  0.5003
   83MPD2    C2 1291   3.201   0.739  10.767  0.0525 -0.4269  0.2935
   83MPD2    C3 1292   3.301   0.670  10.829 -0.1997 -0.5087 -0.0881
   83MPD2    C4 1293   3.434   0.688  10.795 -0.1899 -0.0146  0.7041
   83MPD2    C5 1294   3.454   0.788  10.699  0.5377  0.1407  0.7530
   83MPD2     H 1295   3.096   0.720  10.786 -0.6111  0.8858 -2.0174
   83MPD2    H1 1296   3.517   0.630  10.836  1.4791  0.7887 -1.4994
   83MPD2    H2 1297   3.391   0.938  10.570 -0.1976 -0.4163 -0.5610
   83MPD2    H3 1298   3.559   0.794  10.672 -0.4839  1.8547 -2.7944
   83MPD2     N 1299   3.272   0.590  10.942 -0.0186 -0.7064 -0.3628
   83MPD2    H5 1300   3.349   0.582  11.008  1.1034 -0.7652 -1.6684
   83MPD2    N1 1301   3.126   0.932  10.636 -0.0804 -0.3349 -0.4542
   83MPD2    H7 1302   3.156   1.002  10.570 -1.0303 -1.5502 -2.1656
   84TMC2    C1 1303   4.622   0.468  10.908  0.1519 -0.2491  0.5474
   84TMC2    C2 1304   4.722   0.557  10.874  0.1050  0.2160 -0.0585
   84TMC2    C3 1305   0.043   0.542  10.753 -0.4262 -0.2514 -0.1556
   84TMC2    C4 1306   4.582   0.366  10.824 -0.0680 -0.1183  0.5934
   84TMC2    C5 1307   4.651   0.354  10.709 -0.1127  0.0840  0.0682
   84TMC2    C6 1308   0.018   0.436  10.680  0.6140 -0.1006  0.3078
   84TMC2     C 1309   4.554   0.478  11.036  0.6144  0.0097 -0.5860
   84TMC2     O 1310   4.528   0.588  11.085  0.1422  0.4563 -0.2528
   84TMC2     H 1311   4.731   0.647  10.935 -2.8934  1.0119 -0.7633
   84TMC2    H1 1312   4.498   0.303  10.850  1.7986 -3.3638 -1.2240
   84TMC2    H2 1313   0.077   0.430  10.589 -1.1602 -1.2858 -0.7734
   84TMC2    C7 1314   4.608   0.253  10.615 -0.2487 -0.3911 -0.5946
   84TMC2    C8 1315   0.130   0.639  10.701 -0.3761 -0.1368  0.7808
   84TMC2    O1 1316   4.527   0.168  10.657 -0.7956  0.0934  0.5903
   84TMC2    O2 1317   0.160   0.650  10.583  0.5983 -0.0172 -0.4994
   84TMC2    O5 1318   0.226   0.645  10.792 -0.5220 -0.0029  0.4114
   84TMC2    H5 1319   0.184   0.671  10.877  0.6199 -1.1681  1.3389
   85TMC2    C1 1320   0.426   3.414  16.314  0.5293  0.6405 -0.1809
   85TMC2    C2 1321   0.386   3.544  16.314  0.6001  0.1972  0.2024
   85TMC2    C3 1322   0.348   3.599  16.199  0.0216 -0.9167 -0.7135
   85TMC2    C4 1323   0.429   3.339  16.198  0.1372  0.3296  0.2413
   85TMC2    C5 1324   0.391   3.395  16.080 -0.2952  0.0616  0.0248
   85TMC2    C6 1325   0.358   3.528  16.083  0.9981 -0.0071  0.7148
   85TMC2     C 1326   0.440   3.347  16.448  0.3093  0.0267 -0.0737
   85TMC2     O 1327   0.450   3.416  16.551 -0.5085  0.0083 -0.2473
   85TMC2     H 1328   0.381   3.581  16.416 -0.9183  1.7008 -0.3938
   85TMC2    H1 1329   0.481   3.244  16.193  0.6727  0.6099  0.5441
   85TMC2    H2 1330   0.356   3.591  15.995 -3.9137 -0.0134  0.7810
   85TMC2    C7 1331   0.499   3.377  15.991 -0.3965 -0.1514 -0.4344
   85TMC2    C8 1332   0.342   3.742  16.183  0.6948  0.1175 -0.0316
   85TMC2    O1 1333   0.602   3.372  16.055  0.0324 -0.3725  0.1857
   85TMC2    O2 1334   0.409   3.798  16.100  0.7353  0.3564  0.0212
   85TMC2    O5 1335   0.333   3.798  16.302  0.4821 -0.1200  0.4111
   85TMC2    H5 1336   0.278   3.744  16.362 -1.0145  0.0353 -0.8013
   86MPD2     C 1337   0.394   2.918  16.720  0.1918 -0.9904 -0.1438
   86MPD2    C1 1338   0.350   2.890  16.590 -0.4546  0.4409 -0.4574
   86MPD2    C2 1339   0.363   2.988  16.496 -0.2621  0.1267 -0.1466
   86MPD2    C3 1340   0.400   3.119  16.539  0.1346  0.1353 -0.4750
   86MPD2    C4 1341   0.435   3.144  16.669  0.5283  0.1842  0.4420
   86MPD2    C5 1342   0.439   3.037  16.753 -0.6620 -0.7615 -0.3569
   86MPD2     H 1343   0.342   2.980  16.390 -0.1903 -0.4449 -0.1173
   86MPD2    H1 1344   0.455   3.242  16.709 -0.8471  0.3512  0.7399
   86MPD2    H2 1345   0.388   2.838  16.792 -0.8408 -0.3444  0.4780
   86MPD2    H3 1346   0.453   3.056  16.858 -3.2274 -1.4376  0.0957
   86MPD2     N 1347   0.417   3.214  16.439 -0.0895  0.5220 -0.1639
   86MPD2    H5 1348   0.405   3.178  16.345  0.7708 -1.6899  0.5918
   86MPD2    N1 1349   0.290   2.771  16.548 -0.0285  0.8407 -0.5016
   86MPD2    H7 1350   0.242   2.768  16.459  1.8638  0.3848 -1.5136
   87TMC2    C1 1351   3.364   1.574   0.483 -0.0404 -0.2318 -0.0321
   87TMC2    C2 1352   3.483   1.633   0.460  0.1599  0.9104  0.1431
   87TMC2    C3 1353   3.480   1.774   0.443 -0.5410  0.8644 -0.4131
   87TMC2    C4 1354   3.240   1.640   0.483 -0.7057  0.4305  0.3327
   87TMC2    C5 1355   3.251   1.772   0.463  0.5453 -0.2476 -0.1986
   87TMC2    C6 1356   3.369   1.846   0.447 -0.2662  0.5743  0.1554
   87TMC2     C 1357   3.368   1.433   0.503  1.4682  0.0041 -0.2435
   87TMC2     O 1358   3.447   1.375   0.432  0.1828 -0.1285  0.3072
   87TMC2     H 1359   3.576   1.577   0.450 -0.6895 -0.2928 -0.8858
   87TMC2    H1 1360   3.145   1.587   0.485 -1.7983  2.4533  1.0755
   87TMC2    H2 1361   3.362   1.954   0.446  1.2300  0.6672 -0.0551
   87TMC2    C7 1362   3.131   1.840   0.420 -0.9379  0.8543 -0.3101
   87TMC2    C8 1363   3.610   1.838   0.476  0.0292  0.3044  1.0368
   87TMC2    O1 1364   3.144   1.960   0.393 -0.6747  0.3706  0.1035
   87TMC2    O2 1365   3.694   1.788   0.546  0.4634  0.3030 -0.0622
   87TMC2    O5 1366   3.609   1.972   0.454  0.1783  0.3925 -0.3053
   87TMC2    H5 1367   3.568   1.980   0.366 -1.0185 -0.3082  0.1873
   88MPD2     C 1368   2.846   1.719   0.232 -0.1780 -0.4401 -0.6715
   88MPD2    C1 1369   2.914   1.811   0.301  0.5436 -0.5436 -0.2151
   88MPD2    C2 1370   2.848   1.926   0.346  0.6749 -0.8495  0.2633
   88MPD2    C3 1371   2.719   1.952   0.310 -0.2948  0.4359  0.7701
   88MPD2    C4 1372   2.651   1.863   0.231 -0.3217 -0.0394  0.3730
   88MPD2    C5 1373   2.713   1.748   0.193 -0.3806 -0.4489 -0.4811
   88MPD2     H 1374   2.908   1.991   0.409  0.4490 -2.2723  1.9218
   88MPD2    H1 1375   2.547   1.881   0.208  0.0102  0.2501 -0.8893
   88MPD2    H2 1376   2.889   1.624   0.202 -1.2009 -0.8379 -0.8511
   88MPD2    H3 1377   2.649   1.675   0.144 -0.6556 -0.0905 -0.6533
   88MPD2     N 1378   2.655   2.070   0.367 -0.3310 -0.1519 -0.0911
   88MPD2    H5 1379   2.557   2.078   0.342 -1.0587 -3.1959  1.7448
   88MPD2    N1 1380   3.036   1.764   0.355  0.1660 -0.3917 -0.1940
   88MPD2    H7 1381   3.051   1.665   0.340  0.6958  0.0508 -2.5601
   89TMC2    C1 1382   3.757   0.856   1.728  0.6274  0.3294  0.4409
   89TMC2    C2 1383   3.626   0.901   1.706 -0.8989 -0.2751  0.9050
   89TMC2    C3 1384   3.602   1.036   1.699  0.0827  0.7411  0.0435
   89TMC2    C4 1385   3.858   0.947   1.733  0.1453 -0.0843  0.2235
   89TMC2    C5 1386   3.824   1.078   1.722  0.1368  0.1730  0.9445
   89TMC2    C6 1387   3.697   1.128   1.715 -0.8295  0.2542  0.3051
   89TMC2     C 1388   3.778   0.717   1.754  0.2450  0.1172 -0.2556
   89TMC2     O 1389   3.898   0.687   1.763 -0.2176 -0.2007  0.2672
   89TMC2     H 1390   3.548   0.838   1.667  0.9834 -1.2241 -1.3447
   89TMC2    H1 1391   3.957   0.929   1.774  0.2310 -0.0272  0.0429
   89TMC2    H2 1392   3.685   1.235   1.698  2.4585  0.7208  0.7919
   89TMC2    C7 1393   3.929   1.173   1.723  0.5264  0.0365 -0.6865
   89TMC2    C8 1394   3.472   1.085   1.686 -0.5400 -0.4279 -0.2512
   89TMC2    O1 1395   3.898   1.284   1.769  0.2591 -0.2043  0.6449
   89TMC2    O2 1396   3.379   1.016   1.654  0.5653 -0.0289  0.1444
   89TMC2    O5 1397   3.471   1.189   1.776  0.0559 -0.0805 -0.5418
   89TMC2    H5 1398   3.545   1.194   1.840 -0.7950 -0.7539  0.4936
   90MPD2     C 1399   3.635   0.227   1.837  0.0810  0.0332  0.2828
   90MPD2    C1 1400   3.534   0.316   1.868  0.6780 -0.4408 -0.5426
   90MPD2    C2 1401   3.544   0.454   1.839 -0.2458 -0.1318 -0.7606
   90MPD2    C3 1402   3.665   0.502   1.794 -0.3924 -0.0237  0.2997
   90MPD2    C4 1403   3.773   0.417   1.778 -0.1568  0.5285 -0.0502
   90MPD2    C5 1404   3.754   0.279   1.793  0.1326  0.2121 -0.3557
   90MPD2     H 1405   3.469   0.528   1.866 -0.9210 -0.3611 -1.9921
   90MPD2    H1 1406   3.865   0.454   1.736  0.7731 -1.8602 -0.1131
   90MPD2    H2 1407   3.638   0.122   1.864 -3.3106 -0.3928 -1.1251
   90MPD2    H3 1408   3.840   0.223   1.760 -2.2072 -2.7619 -1.4224
   90MPD2     N 1409   3.667   0.636   1.768 -0.1824  0.0634 -0.3418
   90MPD2    H5 1410   3.578   0.681   1.781 -1.5531 -3.0311  0.9128
   90MPD2    N1 1411   3.412   0.273   1.922 -0.1591  0.0849 -0.0844
   90MPD2    H7 1412   3.346   0.348   1.939  0.3898  0.7017 -0.7031
   91TMC2    C1 1413   0.009   4.016  16.518  0.2883  0.7262 -0.0907
   91TMC2    C2 1414   0.089   4.007  16.630 -0.7130 -0.2256  0.0438
   91TMC2    C3 1415   0.045   3.924  16.728 -0.2841  0.2731 -0.1545
   91TMC2    C4 1416   4.641   3.937  16.504 -0.1686 -0.0667  0.2721
   91TMC2    C5 1417   4.600   3.856  16.603 -0.5382 -0.2339 -0.0636
   91TMC2    C6 1418   4.681   3.836  16.712 -0.0201 -0.1474 -1.0235
   91TMC2     C 1419   0.048   4.105  16.415 -1.3842  0.6553  0.4657
   91TMC2     O 1420   4.714   4.143  16.325  0.2654 -0.5460 -0.6149
   91TMC2     H 1421   0.174   4.072  16.647  0.3285 -1.5540 -0.1073
   91TMC2    H1 1422   4.591   3.937  16.408  4.1537  1.9230 -1.9777
   91TMC2    H2 1423   4.666   3.757  16.785 -1.1419  0.4172 -0.6550
   91TMC2    C7 1424   4.506   3.753  16.579 -0.4425  0.1408 -0.1729
   91TMC2    C8 1425   0.132   3.892  16.840 -0.2092  1.1034 -0.7082
   91TMC2    O1 1426   4.525   3.659  16.656  0.6058  0.1149 -0.0906
   91TMC2    O2 1427   0.103   3.839  16.945 -0.2551  0.2400 -0.0955
   91TMC2    O5 1428   0.260   3.902  16.809 -0.0899 -0.3025  0.2926
   91TMC2    H5 1429   0.284   3.911  16.714  2.7666  0.3608  1.0702
   92MPD2     C 1430   0.193   4.313  16.262 -0.1931 -0.2145  0.0412
   92MPD2    C1 1431   0.258   4.210  16.332  0.3939  0.9661  0.0083
   92MPD2    C2 1432   0.397   4.196  16.331 -0.1724 -0.1698  0.2775
   92MPD2    C3 1433   0.472   4.295  16.266  0.7056  0.2391 -0.0128
   92MPD2    C4 1434   0.407   4.380  16.179 -0.1736 -0.1556  0.8315
   92MPD2    C5 1435   0.271   4.385  16.172  0.2733  0.1129  0.5810
   92MPD2     H 1436   0.441   4.112  16.382  1.6806 -0.3436 -1.6339
   92MPD2    H1 1437   0.462   4.446  16.112 -2.0571  0.2669 -0.2764
   92MPD2    H2 1438   0.087   4.337  16.258  0.4221  2.7497  1.5405
   92MPD2    H3 1439   0.223   4.443  16.094 -0.6954 -0.9145  0.4156
   92MPD2     N 1440   0.613   4.297  16.292  0.4848 -0.8789 -0.9289
   92MPD2    H5 1441   0.647   4.214  16.339  1.6037  0.9607  1.4622
   92MPD2    N1 1442   0.187   4.110  16.409 -0.0996  0.6242  0.0411
   92MPD2    H7 1443   0.245   4.040  16.455 -0.1923 -1.2346 -2.6057
   93TMC2    C1 1444   2.118   4.084  13.939 -0.4250 -0.1332  0.3623
   93TMC2    C2 1445   2.123   4.092  14.074  0.3930 -0.2593  0.5265
   93TMC2    C3 1446   2.236   4.128  14.140 -0.4417 -0.0133  0.3314
   93TMC2    C4 1447   2.222   4.126  13.861  0.5057 -1.1019  0.3903
   93TMC2    C5 1448   2.332   4.179  13.933 -1.3243  0.7543  0.4779
   93TMC2    C6 1449   2.342   4.167  14.070 -0.6158 -0.6203 -0.2946
   93TMC2     C 1450   2.002   4.030  13.873  1.0707 -0.2962 -0.3443
   93TMC2     O 1451   2.017   3.981  13.762 -0.1850 -0.3712  0.0145
   93TMC2     H 1452   2.049   4.054  14.143 -2.0223  1.0917 -1.2991
   93TMC2    H1 1453   2.214   4.105  13.755 -0.4379  0.9795  0.0589
   93TMC2    H2 1454   2.440   4.181  14.116 -1.9807  1.1601  2.0618
   93TMC2    C7 1455   2.458   4.146  13.870 -1.2394 -0.0948 -0.2477
   93TMC2    C8 1456   2.229   4.174  14.278  0.4283  0.1645  0.5267
   93TMC2    O1 1457   2.542   4.081  13.929 -0.6276  0.3168  0.0597
   93TMC2    O2 1458   2.337   4.195  14.333 -0.4906 -0.2342  0.2266
   93TMC2    O5 1459   2.123   4.249  14.294 -0.3006  0.7051  0.2977
   93TMC2    H5 1460   2.040   4.218  14.252 -0.6447 -0.0373  1.5338
   94MPD2     C 1461   1.741   3.920  13.793  0.0711  0.0525  0.1450
   94MPD2    C1 1462   1.763   4.004  13.908 -0.3325  0.8904 -0.9638
   94MPD2    C2 1463   1.645   4.057  13.974  0.1334 -0.5915  0.1417
   94MPD2    C3 1464   1.518   4.022  13.935  0.0922 -0.9979 -0.6478
   94MPD2    C4 1465   1.500   3.957  13.814 -0.1650  0.4070 -0.5302
   94MPD2    C5 1466   1.619   3.916  13.745  0.5258 -0.0584 -0.2540
   94MPD2     H 1467   1.656   4.100  14.073 -0.7631  0.8373 -0.3853
   94MPD2    H1 1468   1.400   3.936  13.777 -0.1043 -0.7290 -0.0541
   94MPD2    H2 1469   1.827   3.894  13.732  0.2974  3.2431 -0.8976
   94MPD2    H3 1470   1.613   3.871  13.646 -0.8527  0.2741 -0.3207
   94MPD2     N 1471   1.398   4.050  13.991  0.6947 -1.0321 -0.0923
   94MPD2    H5 1472   1.318   4.015  13.939 -0.6571  0.8898  0.7069
   94MPD2    N1 1473   1.893   4.048  13.948 -0.3266  0.2180 -0.3474
   94MPD2    H7 1474   1.903   4.101  14.034  1.1522  1.7331 -1.4479
   95TMC2    C1 1475   2.046   1.967  16.378  0.2799 -0.5039  0.1951
   95TMC2    C2 1476   1.978   1.972  16.497  0.0382 -0.0034  0.0024
   95TMC2    C3 1477   1.935   2.104  16.532  0.3057  1.1110  0.1847
   95TMC2    C4 1478   2.084   2.074  16.307  0.4133  0.3150 -0.2843
   95TMC2    C5 1479   2.039   2.196  16.348 -0.0506 -0.4540  0.3069
   95TMC2    C6 1480   1.949   2.212  16.450  0.4976  0.1185  0.1510
   95TMC2     C 1481   2.093   1.836  16.339  0.4184  0.2814 -0.0751
   95TMC2     O 1482   2.078   1.809  16.215 -0.1809  0.4295 -0.2115
   95TMC2     H 1483   1.937   1.889  16.553  0.2355  0.6479  1.1057
   95TMC2    H1 1484   2.145   2.057  16.219 -0.8380  0.9423 -1.2829
   95TMC2    H2 1485   1.909   2.310  16.469 -1.2618 -0.5985  0.1102
   95TMC2    C7 1486   2.069   2.315  16.263  0.2310  0.4675  0.7566
   95TMC2    C8 1487   1.846   2.128  16.645  0.6936 -0.2686 -0.2101
   95TMC2    O1 1488   2.039   2.427  16.306  0.2488  0.0566  0.0895
   95TMC2    O2 1489   1.791   2.237  16.660  0.4158  0.3245  0.4151
   95TMC2    O5 1490   1.858   2.034  16.741 -0.1726  0.0016 -0.3167
   95TMC2    H5 1491   1.853   1.941  16.710  0.4053  0.1950 -1.0177
   96MPD2     C 1492   2.248   1.362  16.462 -0.1740  0.1242  0.0984
   96MPD2    C1 1493   2.224   1.416  16.336  0.6722 -0.2461  0.3539
   96MPD2    C2 1494   2.182   1.551  16.334 -0.2459 -0.3672 -0.5678
   96MPD2    C3 1495   2.172   1.631  16.450  0.1157 -0.7926  0.3946
   96MPD2    C4 1496   2.187   1.569  16.570  0.7381  0.0662  0.0229
   96MPD2    C5 1497   2.227   1.440  16.579  0.4042  0.0510  0.1372
   96MPD2     H 1498   2.177   1.603  16.239 -1.3087  2.9537  1.2922
   96MPD2    H1 1499   2.156   1.618  16.662  2.2971  0.9577  0.0871
   96MPD2    H2 1500   2.282   1.260  16.476 -1.0052 -0.4714 -2.1395
   96MPD2    H3 1501   2.245   1.396  16.676  1.0227  0.0144  0.0086
   96MPD2     N 1502   2.122   1.761  16.448 -0.2248 -0.3077  0.6225
   96MPD2    H5 1503   2.110   1.812  16.534 -0.0383 -1.0085  1.0650
   96MPD2    N1 1504   2.258   1.336  16.221 -0.0948 -0.7307 -0.2175
   96MPD2    H7 1505   2.293   1.243  16.242 -0.4069 -1.3976 -2.7007
   97TMC2    C1 1506   0.305   3.811   0.432  0.6685  0.6753 -0.0972
   97TMC2    C2 1507   0.235   3.758   0.329 -0.0595  0.1531 -0.6278
   97TMC2    C3 1508   0.236   3.824   0.212 -0.5947  0.0294 -0.0420
   97TMC2    C4 1509   0.376   3.929   0.424 -0.3590  1.0794  0.5973
   97TMC2    C5 1510   0.361   4.001   0.308  0.2398  0.4341 -0.3609
   97TMC2    C6 1511   0.291   3.950   0.203  0.9888  0.7273 -0.4886
   97TMC2     C 1512   0.281   3.751   0.561 -0.7002 -0.6441  0.0480
   97TMC2     O 1513   0.258   3.632   0.568 -0.2621 -0.0956 -0.0132
   97TMC2     H 1514   0.181   3.664   0.340  1.8638 -1.0514 -1.3801
   97TMC2    H1 1515   0.432   3.974   0.505  0.1642  1.5848 -0.0425
   97TMC2    H2 1516   0.300   4.001   0.108  0.1733  1.3332 -0.2364
   97TMC2    C7 1517   0.399   4.141   0.306 -0.0338  0.2194  0.2064
   97TMC2    C8 1518   0.157   3.775   0.105 -0.6063 -0.1064  0.1549
   97TMC2    O1 1519   0.483   4.185   0.388 -0.5218 -0.7911 -0.2570
   97TMC2    O2 1520   0.151   3.655   0.082  0.0564 -0.1767 -0.0001
   97TMC2    O5 1521   0.052   3.860   0.097 -0.0461 -0.0281  0.1760
   97TMC2    H5 1522   0.059   3.951   0.134  0.6439  0.5570 -1.3735
   98MPD2     C 1523   0.291   3.768   1.075  0.0145 -0.7981 -0.2565
   98MPD2    C1 1524   0.264   3.663   0.992 -0.2251  0.8644  0.7660
   98MPD2    C2 1525   0.269   3.680   0.854  0.2189  0.0263 -0.0680
   98MPD2    C3 1526   0.319   3.796   0.804 -0.9658  0.3541 -0.7075
   98MPD2    C4 1527   0.371   3.892   0.892  0.1881  0.6645 -0.5172
   98MPD2    C5 1528   0.349   3.881   1.024  0.2709  0.6415 -0.3026
   98MPD2     H 1529   0.223   3.608   0.786 -1.0090 -0.3155  1.1259
   98MPD2    H1 1530   0.401   3.988   0.851 -1.5968  1.5089  0.1262
   98MPD2    H2 1531   0.275   3.763   1.182 -0.4551  1.7332 -0.2157
   98MPD2    H3 1532   0.374   3.963   1.090 -0.9814  1.2074 -0.5464
   98MPD2     N 1533   0.328   3.827   0.664  0.8366  1.0123 -0.9989
   98MPD2    H5 1534   0.359   3.921   0.645 -1.6613  1.5340 -2.5170
   98MPD2    N1 1535   0.209   3.542   1.052  0.1129 -0.0946  0.1189
   98MPD2    H7 1536   0.202   3.537   1.153  1.5897  2.0400  0.3388
   99TMC2    C1 1537   4.320   1.413   1.316  0.0171 -0.3275 -0.1100
   99TMC2    C2 1538   4.424   1.487   1.363  0.8813 -0.2857 -0.1101
   99TMC2    C3 1539   4.382   1.587   1.447  0.5831  0.2237 -0.1345
   99TMC2    C4 1540   4.187   1.430   1.348  0.7115  0.0166 -0.4454
   99TMC2    C5 1541   4.160   1.522   1.446 -0.0631 -0.0925  0.0760
   99TMC2    C6 1542   4.256   1.607   1.497 -0.0524 -0.4547 -0.6584
   99TMC2     C 1543   4.350   1.298   1.229 -0.2319  0.2711 -0.1190
   99TMC2     O 1544   4.456   1.312   1.173  0.7723 -0.4015 -0.0638
   99TMC2     H 1545   4.527   1.453   1.355 -0.3870 -3.8134 -1.1805
   99TMC2    H1 1546   4.108   1.381   1.292 -0.9438  1.5595  0.5236
   99TMC2    H2 1547   4.233   1.674   1.579 -2.7680 -0.0894 -1.7150
   99TMC2    C7 1548   4.025   1.560   1.478 -0.6547 -0.1306 -0.2647
   99TMC2    C8 1549   4.476   1.680   1.503  0.3555 -1.2481 -0.1606
   99TMC2    O1 1550   4.006   1.677   1.510 -0.9090 -0.2609  0.6037
   99TMC2    O2 1551   4.456   1.733   1.611  0.4432  0.5105  0.5449
   99TMC2    O5 1552   4.548   1.737   1.404 -0.1987  0.3846  0.0621
   99TMC2    H5 1553   4.569   1.674   1.332  1.3401 -1.1137  1.8082
  100MPD2     C 1554   4.334   1.075   1.045 -0.0935 -0.8633  0.0951
  100MPD2    C1 1555   4.246   1.083   1.153 -0.0169  1.0720 -0.4088
  100MPD2    C2 1556   4.148   0.995   1.164  0.4453  0.3144  0.6262
  100MPD2    C3 1557   4.132   0.890   1.077 -0.0420 -0.0156 -0.5793
  100MPD2    C4 1558   4.231   0.873   0.986 -0.2469  0.1055 -0.4521
  100MPD2    C5 1559   4.338   0.957   0.975 -0.0383  0.1521 -0.0810
  100MPD2     H 1560   4.083   1.008   1.250 -0.5025  2.1786 -0.3816
  100MPD2    H1 1561   4.228   0.790   0.915 -1.8335 -0.0549 -0.1990
  100MPD2    H2 1562   4.406   1.148   1.010  0.6644 -1.1684  1.0136
  100MPD2    H3 1563   4.410   0.936   0.897 -0.6901  2.5818 -1.3725
  100MPD2     N 1564   4.026   0.794   1.095  0.9791 -0.0305 -0.0758
  100MPD2    H5 1565   3.947   0.817   1.154 -1.0561 -1.1786 -2.3720
  100MPD2    N1 1566   4.254   1.204   1.235  0.3975 -0.2725 -0.3435
  100MPD2    H7 1567   4.192   1.222   1.314 -0.5256  0.0450 -1.1431
  101TMC2    C1 1568   3.371   1.798  13.416  0.4221  0.5234  0.0612
  101TMC2    C2 1569   3.237   1.818  13.414 -0.1519 -0.3834 -0.2827
  101TMC2    C3 1570   3.190   1.931  13.347  0.2064 -0.2878  0.5290
  101TMC2    C4 1571   3.454   1.893  13.362 -0.0558  0.3308 -0.2936
  101TMC2    C5 1572   3.398   2.005  13.299  0.8609 -0.4319 -0.3149
  101TMC2    C6 1573   3.265   2.024  13.283  0.6356  0.2809  0.6756
  101TMC2     C 1574   3.431   1.669  13.453  0.4820 -0.2459  0.7962
  101TMC2     O 1575   3.358   1.587  13.505  0.2083  0.2278  0.1890
  101TMC2     H 1576   3.169   1.742  13.449  0.0421 -1.3343 -1.9500
  101TMC2    H1 1577   3.562   1.891  13.371 -0.0317 -2.3991 -1.2451
  101TMC2    H2 1578   3.225   2.118  13.247 -0.5119 -0.1887  0.7137
  101TMC2    C7 1579   3.497   2.098  13.247 -0.4129 -0.7448  0.1531
  101TMC2    C8 1580   3.050   1.937  13.311  0.4463  0.1086  0.0145
  101TMC2    O1 1581   3.611   2.100  13.290 -0.0167 -0.9118  0.8685
  101TMC2    O2 1582   2.996   2.038  13.261 -0.6390  0.2955  0.3310
  101TMC2    O5 1583   3.014   1.814  13.275 -0.5057 -0.4574 -0.4057
  101TMC2    H5 1584   3.075   1.744  13.308 -0.3761 -0.1528  0.0002
  102MPD2     C 1585   3.743   1.529  13.312 -0.4579  0.7401  0.0621
  102MPD2    C1 1586   3.634   1.538  13.397  0.3124 -0.6064  0.1666
  102MPD2    C2 1587   3.602   1.428  13.480  0.0159 -0.3735 -0.0206
  102MPD2    C3 1588   3.672   1.306  13.463  0.2812 -0.3520 -0.0893
  102MPD2    C4 1589   3.775   1.303  13.370 -0.0794 -0.4316 -0.4299
  102MPD2    C5 1590   3.815   1.414  13.304 -0.1281 -0.7112 -0.4539
  102MPD2     H 1591   3.515   1.430  13.544  0.9376  2.1198  1.1805
  102MPD2    H1 1592   3.848   1.224  13.360  0.9513  0.5249 -0.4800
  102MPD2    H2 1593   3.767   1.617  13.254  3.3464  0.0642  0.6067
  102MPD2    H3 1594   3.909   1.416  13.250 -0.7423  1.3370 -1.4874
  102MPD2     N 1595   3.621   1.186  13.529  0.2569 -0.4686 -0.2174
  102MPD2    H5 1596   3.547   1.199  13.597 -0.4090  0.7479 -1.1927
  102MPD2    N1 1597   3.554   1.653  13.396  0.5052 -0.0193 -0.2509
  102MPD2    H7 1598   3.582   1.731  13.337 -0.3853  0.7594  0.3423
  103TMC2    C1 1599   1.368   1.551  12.545  0.8037 -0.6073 -0.6859
  103TMC2    C2 1600   1.407   1.659  12.471  0.0835 -0.1050  0.6858
  103TMC2    C3 1601   1.538   1.672  12.450 -0.7167 -0.0812  0.1548
  103TMC2    C4 1602   1.454   1.457  12.594  0.2987 -0.2862 -0.3126
  103TMC2    C5 1603   1.591   1.475  12.563  0.2710 -0.5311  0.2347
  103TMC2    C6 1604   1.632   1.580  12.491  0.4705 -0.2412 -0.7908
  103TMC2     C 1605   1.229   1.529  12.569 -0.2307  1.1435  0.1105
  103TMC2     O 1606   1.153   1.610  12.519 -0.2960  0.4027  0.2980
  103TMC2     H 1607   1.333   1.719  12.420 -1.3053 -0.3365  2.4112
  103TMC2    H1 1608   1.428   1.371  12.654  0.8464 -0.0240  0.3015
  103TMC2    H2 1609   1.737   1.603  12.478  0.2488  1.1770 -0.0636
  103TMC2    C7 1610   1.670   1.435  12.676 -0.9583  0.3440 -0.0015
  103TMC2    C8 1611   1.560   1.772  12.354  0.7112  0.1024  0.4335
  103TMC2    O1 1612   1.622   1.448  12.786  0.5535  0.2845 -0.3605
  103TMC2    O2 1613   1.654   1.770  12.276 -0.4668  0.5389  0.4427
  103TMC2    O5 1614   1.527   1.886  12.422  0.6992 -0.2020  0.0381
  103TMC2    H5 1615   1.478   1.866  12.504  0.3591 -1.5211 -0.4893
  104MPD2     C 1616   1.059   1.205  12.638  0.3797  0.9018  0.3732
  104MPD2    C1 1617   1.076   1.328  12.580  0.2733 -0.9090  0.2824
  104MPD2    C2 1618   0.981   1.377  12.486  0.2832 -0.0014  0.2834
  104MPD2    C3 1619   0.878   1.292  12.450 -0.2626  0.7478 -0.6736
  104MPD2    C4 1620   0.859   1.180  12.527 -0.1899 -0.3448 -0.3801
  104MPD2    C5 1621   0.949   1.135  12.619 -0.7072 -0.2400 -0.7366
  104MPD2     H 1622   0.991   1.475  12.440 -1.6248 -0.0100 -0.1497
  104MPD2    H1 1623   0.778   1.111  12.505  0.5418 -0.9385 -1.1956
  104MPD2    H2 1624   1.134   1.163  12.705 -0.9182 -2.3115 -0.1857
  104MPD2    H3 1625   0.916   1.052  12.681  1.1683  1.8458  3.1137
  104MPD2     N 1626   0.796   1.327  12.348  0.6972 -0.0994  0.0586
  104MPD2    H5 1627   0.822   1.414  12.303  3.0752 -0.5978  0.4823
  104MPD2    N1 1628   1.198   1.402  12.618  0.0681  0.4777 -0.2345
  104MPD2    H7 1629   1.274   1.365  12.673  0.3237  0.2103 -0.7692
  105TMC2    C1 1630   3.497   0.599   0.292 -0.2623  0.5225  0.7531
  105TMC2    C2 1631   3.435   0.491   0.232 -0.2031  0.0529  0.0561
  105TMC2    C3 1632   3.298   0.494   0.236  0.2075  0.0104  0.5860
  105TMC2    C4 1633   3.432   0.699   0.352 -0.6478 -0.1271  0.7953
  105TMC2    C5 1634   3.292   0.699   0.332  0.0458  0.3357  0.1259
  105TMC2    C6 1635   3.218   0.594   0.279  0.4376 -0.9036  0.3658
  105TMC2     C 1636   3.645   0.608   0.272 -0.4936 -0.5808 -0.1120
  105TMC2     O 1637   3.705   0.500   0.267 -0.3720  0.1081  0.2694
  105TMC2     H 1638   3.482   0.408   0.180 -0.2365  0.1314 -0.1015
  105TMC2    H1 1639   3.486   0.781   0.398  0.5335  0.2001 -1.1695
  105TMC2    H2 1640   3.113   0.612   0.258  0.5120 -0.1995  0.5899
  105TMC2    C7 1641   3.212   0.799   0.401 -0.3486 -0.7734  0.0119
  105TMC2    C8 1642   3.235   0.405   0.145  0.4597  0.2296  0.5121
  105TMC2    O1 1643   3.099   0.769   0.430 -0.0143  0.8960  0.4219
  105TMC2    O2 1644   3.283   0.370   0.039 -0.4969 -0.7054  0.6058
  105TMC2    O5 1645   3.107   0.390   0.189 -0.1679 -0.6189  0.2820
  105TMC2    H5 1646   3.107   0.414   0.284 -1.2079 -1.0824  0.3965
  106MPD2     C 1647   4.053   0.805   0.052 -0.4701 -0.4431  0.5673
  106MPD2    C1 1648   3.950   0.902   0.035 -0.1844  0.6973  0.1333
  106MPD2    C2 1649   3.835   0.889   0.115  0.2783 -0.3141  0.2078
  106MPD2    C3 1650   3.819   0.771   0.193 -0.2398 -0.6985 -0.0299
  106MPD2    C4 1651   3.924   0.680   0.201  0.4459 -0.0034  0.1274
  106MPD2    C5 1652   4.038   0.700   0.127 -0.0759 -0.6671  1.0645
  106MPD2     H 1653   3.746   0.946   0.089 -0.1752 -1.1858 -0.1599
  106MPD2    H1 1654   3.906   0.583   0.246  0.3889  0.4073  0.9853
  106MPD2    H2 1655   4.156   0.830   0.026 -0.1244 -2.5084 -0.0958
  106MPD2    H3 1656   4.128   0.646   0.155  0.2755 -0.0121  1.1911
  106MPD2     N 1657   3.686   0.739   0.245  0.4717 -0.7437 -0.3580
  106MPD2    H5 1658   3.612   0.807   0.234  0.9885 -0.1350 -0.0597
  106MPD2    N1 1659   3.953   1.013  17.719 -0.5050  0.0543 -0.1291
  106MPD2    H7 1660   3.870   1.069  17.701  0.3914  1.1503 -0.8357
  107TMC2    C1 1661   3.745   0.639  11.490  0.0099  0.1518 -1.1277
  107TMC2    C2 1662   3.703   0.682  11.368 -0.6750 -0.1183  0.2227
  107TMC2    C3 1663   3.753   0.628  11.255 -0.1202 -0.1002  0.4803
  107TMC2    C4 1664   3.835   0.545  11.506  0.8558 -0.1005  0.0951
  107TMC2    C5 1665   3.898   0.503  11.391 -0.3541 -0.3314 -0.5677
  107TMC2    C6 1666   3.848   0.533  11.267  0.1241 -0.3566 -0.1770
  107TMC2     C 1667   3.685   0.687  11.616  0.1173 -0.0116 -0.6501
  107TMC2     O 1668   3.721   0.633  11.721  0.0480 -0.3269 -0.4617
  107TMC2     H 1669   3.630   0.761  11.356 -2.7417 -2.0015  0.6222
  107TMC2    H1 1670   3.876   0.519  11.603  1.2450 -1.1787 -0.3560
  107TMC2    H2 1671   3.892   0.487  11.179  1.4831 -0.1153  0.3752
  107TMC2    C7 1672   4.001   0.415  11.410  0.1563 -0.2935 -0.5730
  107TMC2    C8 1673   3.696   0.638  11.121  1.1851  0.0765 -0.0098
  107TMC2    O1 1674   3.991   0.338  11.507  0.2133  0.3298 -0.0436
  107TMC2    O2 1675   3.720   0.573  11.020 -0.0734  0.1441 -0.2072
  107TMC2    O5 1676   3.585   0.712  11.133  0.2030  0.5925  0.0150
  107TMC2    H5 1677   3.559   0.750  11.220 -0.4602  1.2130 -0.4570
  108MPD2     C 1678   3.424   0.941  11.633 -0.0274  0.7905 -0.4791
  108MPD2    C1 1679   3.518   0.854  11.688  0.4842 -0.2396 -0.3200
  108MPD2    C2 1680   3.521   0.838  11.828 -0.0336 -0.4048  0.5582
  108MPD2    C3 1681   3.415   0.893  11.906  0.2282  0.0470  0.4942
  108MPD2    C4 1682   3.331   0.981  11.844  0.4135  0.1999  0.1760
  108MPD2    C5 1683   3.332   1.001  11.708 -0.5638  0.0014  0.1575
  108MPD2     H 1684   3.594   0.775  11.877  0.9453  0.1349 -0.2170
  108MPD2    H1 1685   3.255   1.029  11.906  1.1540 -1.5264  2.4476
  108MPD2    H2 1686   3.429   0.959  11.526  0.8144  1.9585 -0.2438
  108MPD2    H3 1687   3.261   1.067  11.659  0.4562 -0.4817 -1.9458
  108MPD2     N 1688   3.395   0.884  12.046 -0.4984 -0.9533  0.1441
  108MPD2    H5 1689   3.322   0.940  12.090  0.4653  1.0221 -0.7925
  108MPD2    N1 1690   3.593   0.788  11.596 -0.6426  0.2627 -0.2213
  108MPD2    H7 1691   3.552   0.799  11.504  3.7298  2.9304 -1.8583
  109TMC2    C1 1692   4.194   2.427   0.681  0.3855  1.0024  0.5679
  109TMC2    C2 1693   4.204   2.377   0.550 -0.8871  0.2681  0.3028
  109TMC2    C3 1694   4.308   2.417   0.473  0.5907  0.7045 -0.1382
  109TMC2    C4 1695   4.296   2.517   0.730  0.0579 -0.1330 -0.6057
  109TMC2    C5 1696   4.396   2.547   0.646 -1.1534  0.0107 -0.0355
  109TMC2    C6 1697   4.408   2.498   0.520  0.0684 -0.0136  0.4631
  109TMC2     C 1698   4.055   2.460   0.725 -0.1346 -0.5354 -0.3308
  109TMC2     O 1699   3.966   2.451   0.638 -0.2239  0.3343  0.1789
  109TMC2     H 1700   4.127   2.322   0.498 -0.3414  0.6306 -0.8871
  109TMC2    H1 1701   4.288   2.565   0.827  1.7301  0.0343 -0.5598
  109TMC2    H2 1702   4.478   2.540   0.448 -0.2243  1.2857  0.9361
  109TMC2    C7 1703   4.488   2.642   0.709  0.4745 -0.6326 -0.5361
  109TMC2    C8 1704   4.309   2.383   0.335 -0.2833 -0.1954 -0.0604
  109TMC2    O1 1705   4.440   2.723   0.795  0.4142  0.1421  0.2379
  109TMC2    O2 1706   4.261   2.280   0.284  0.0493  0.4047 -0.0771
  109TMC2    O5 1707   4.314   2.498   0.274  0.7190  1.1103 -0.5913
  109TMC2    H5 1708   4.305   2.581   0.326  0.1559  0.8525 -0.2814
  110MPD2     C 1709   3.729   2.736   0.998  0.4405 -0.2224 -0.3564
  110MPD2    C1 1710   3.848   2.738   1.064 -0.0290 -0.0668 -1.1810
  110MPD2    C2 1711   3.953   2.666   1.016 -0.6243 -0.2825  0.4417
  110MPD2    C3 1712   3.935   2.578   0.907 -0.3524 -0.3975 -0.6981
  110MPD2    C4 1713   3.807   2.567   0.845 -0.2549  0.1367  0.1686
  110MPD2    C5 1714   3.701   2.651   0.896  1.0567  0.4090  0.2586
  110MPD2     H 1715   4.056   2.685   1.043  0.2230 -1.1726 -2.1188
  110MPD2    H1 1716   3.788   2.503   0.760 -0.8190  1.4100 -0.6743
  110MPD2    H2 1717   3.646   2.794   1.036  1.7296  0.0322  2.0360
  110MPD2    H3 1718   3.606   2.644   0.845  1.3940 -0.4978 -0.2564
  110MPD2     N 1719   4.046   2.518   0.851 -0.2598 -0.0530 -0.2811
  110MPD2    H5 1720   4.131   2.511   0.905 -0.2198 -1.8261 -0.5607
  110MPD2    N1 1721   3.879   2.836   1.161 -0.5853  0.2166  0.5433
  110MPD2    H7 1722   3.978   2.851   1.177 -1.1887  1.1745  3.3354
  111TMC2    C1 1723   3.341   2.507  12.298  0.0799  0.6935 -0.1135
  111TMC2    C2 1724   3.248   2.484  12.390  0.7314 -0.7265 -0.0921
  111TMC2    C3 1725   3.261   2.554  12.504 -0.4015  0.2117  0.0643
  111TMC2    C4 1726   3.448   2.596  12.316 -0.5931 -0.5164  0.6180
  111TMC2    C5 1727   3.453   2.665  12.439  0.1226  0.5257 -0.2867
  111TMC2    C6 1728   3.358   2.646  12.532 -1.0201 -0.7805 -0.7466
  111TMC2     C 1729   3.351   2.413  12.186 -0.6847 -0.1346 -0.1567
  111TMC2     O 1730   3.398   2.453  12.082 -0.0012  0.0064  0.0632
  111TMC2     H 1731   3.178   2.404  12.369 -1.4936  0.9742  0.8739
  111TMC2    H1 1732   3.523   2.597  12.238 -1.2372 -2.7332 -0.0210
  111TMC2    H2 1733   3.363   2.690  12.631 -2.8884 -0.4323 -0.8019
  111TMC2    C7 1734   3.576   2.712  12.490 -0.0171 -0.0210 -0.8791
  111TMC2    C8 1735   3.189   2.516  12.627 -0.5052  0.5334 -0.5102
  111TMC2    O1 1736   3.599   2.687  12.606 -0.3392 -0.5081 -0.3446
  111TMC2    O2 1737   3.195   2.581  12.730 -0.1870  0.6437 -0.4232
  111TMC2    O5 1738   3.109   2.404  12.604 -0.0465 -0.1191 -0.0320
  111TMC2    H5 1739   3.138   2.333  12.543  1.7803  1.3596 -0.8800
  112MPD2     C 1740   3.257   1.970  11.953  0.3811  0.0237  0.0800
  112MPD2    C1 1741   3.302   2.090  11.898  0.3296  0.0696 -0.0767
  112MPD2    C2 1742   3.308   2.201  11.976  0.4195 -0.2536 -0.3095
  112MPD2    C3 1743   3.277   2.192  12.111  0.2942 -0.3011  0.3960
  112MPD2    C4 1744   3.224   2.077  12.157 -0.4199 -0.4375  0.4742
  112MPD2    C5 1745   3.213   1.963  12.080 -0.0884  0.9370 -0.0819
  112MPD2     H 1746   3.338   2.294  11.929 -0.0071  2.1663  4.2190
  112MPD2    H1 1747   3.190   2.069  12.259  0.7570 -1.6136  0.7686
  112MPD2    H2 1748   3.249   1.878  11.897  3.3573  0.0991 -0.4273
  112MPD2    H3 1749   3.174   1.869  12.116  1.4449  0.7530  1.0757
  112MPD2     N 1750   3.285   2.300  12.200 -0.1976  0.0619  0.3121
  112MPD2    H5 1751   3.256   2.272  12.293 -1.0223  0.8859  0.3015
  112MPD2    N1 1752   3.342   2.103  11.763  0.9842 -0.2931  0.2663
  112MPD2    H7 1753   3.377   2.194  11.733  1.1843 -0.6307 -0.5283
  113TMC2    C1 1754   1.879   1.219   0.597 -0.1376  0.4239  0.6849
  113TMC2    C2 1755   1.776   1.307   0.578  0.2448  0.0252 -0.2585
  113TMC2    C3 1756   1.657   1.248   0.543  0.0047  0.7504  0.4516
  113TMC2    C4 1757   1.877   1.087   0.584  0.0254  0.1634 -0.1486
  113TMC2    C5 1758   1.760   1.037   0.540 -0.3820 -0.0039 -0.0514
  113TMC2    C6 1759   1.653   1.113   0.513 -0.2775  0.5727 -0.1320
  113TMC2     C 1760   2.012   1.277   0.605  0.4265  0.3122  0.2115
  113TMC2     O 1761   2.020   1.382   0.665  0.0309 -0.0206  0.1728
  113TMC2     H 1762   1.781   1.413   0.603  1.0579 -0.4228  1.4544
  113TMC2    H1 1763   1.955   1.011   0.589 -0.7905 -0.6336  0.5239
  113TMC2    H2 1764   1.555   1.066   0.505 -0.3518  0.7596 -0.3137
  113TMC2    C7 1765   1.757   0.892   0.517 -0.7334  0.6888  0.1839
  113TMC2    C8 1766   1.536   1.313   0.603 -0.4230 -0.3354 -0.0020
  113TMC2    O1 1767   1.688   0.863   0.422  0.1174  0.2691 -0.0780
  113TMC2    O2 1768   1.549   1.390   0.693 -0.1485  0.3256 -0.2372
  113TMC2    O5 1769   1.473   1.344   0.494  0.2445  0.2601  0.2534
  113TMC2    H5 1770   1.502   1.281   0.424 -3.4413 -0.5051 -0.5739
  114MPD2     C 1771   2.523   1.277   0.525  0.1108  0.4556 -0.5744
  114MPD2    C1 1772   2.440   1.386   0.549 -0.2680  0.3214  0.0300
  114MPD2    C2 1773   2.309   1.347   0.557 -0.2742 -0.9357  0.2442
  114MPD2    C3 1774   2.248   1.226   0.530  0.0898 -0.6015  0.1671
  114MPD2    C4 1775   2.335   1.127   0.507 -0.6009  0.0756 -0.5340
  114MPD2    C5 1776   2.473   1.148   0.502 -0.8568  0.1009  0.1538
  114MPD2     H 1777   2.244   1.426   0.589  0.1596 -0.7372  0.6263
  114MPD2    H1 1778   2.304   1.026   0.485  3.8304 -1.0496 -1.5413
  114MPD2    H2 1779   2.631   1.287   0.513  0.2999 -0.0556  0.7963
  114MPD2    H3 1780   2.537   1.064   0.478  1.8475  2.0096  0.6720
  114MPD2     N 1781   2.111   1.202   0.543  0.4344 -0.5518  0.6647
  114MPD2    H5 1782   2.075   1.118   0.499 -2.6718 -0.2852  2.6719
  114MPD2    N1 1783   2.479   1.522   0.563 -0.0407 -0.7812 -0.6652
  114MPD2    H7 1784   2.409   1.593   0.543  1.7983  0.6106 -2.1874
  115TMC2    C1 1785   2.704   2.684   0.136  0.3546 -0.0957  0.4949
  115TMC2    C2 1786   2.754   2.622   0.251  0.0502 -0.0335 -0.1822
  115TMC2    C3 1787   2.839   2.692   0.328 -0.4281 -0.4149  0.1594
  115TMC2    C4 1788   2.742   2.813   0.101 -0.3293 -0.3825 -0.0544
  115TMC2    C5 1789   2.842   2.875   0.174 -0.0918 -0.0293  0.0399
  115TMC2    C6 1790   2.890   2.819   0.285  0.1102 -0.5479  0.5161
  115TMC2     C 1791   2.619   2.608   0.050 -0.3431 -0.0140  0.0281
  115TMC2     O 1792   2.619   2.487   0.067 -0.0791  0.0422 -0.3269
  115TMC2     H 1793   2.707   2.530   0.284  0.2992  0.1140  0.5891
  115TMC2    H1 1794   2.698   2.852   0.010  1.4211  1.3129 -0.1545
  115TMC2    H2 1795   2.973   2.859   0.342 -0.1310  0.6364  0.0430
  115TMC2    C7 1796   2.854   3.020   0.180  0.2043 -0.6832 -0.1317
  115TMC2    C8 1797   2.899   2.630   0.444 -0.4322 -0.0783 -0.0512
  115TMC2    O1 1798   2.900   3.067   0.280 -0.0737 -0.2391 -0.1235
  115TMC2    O2 1799   2.969   2.690   0.523  0.0349  0.5174  0.6040
  115TMC2    O5 1800   2.881   2.493   0.425  0.2305  0.2583 -0.5168
  115TMC2    H5 1801   2.833   2.471   0.343  0.9174  0.3335 -0.9377
  116MPD2     C 1802   2.306   2.486  17.434 -0.2128  0.6158 -0.0038
  116MPD2    C1 1803   2.424   2.425  17.473  0.2103 -0.1942  0.2681
  116MPD2    C2 1804   2.496   2.482  17.579 -0.5304 -0.2169 -0.3549
  116MPD2    C3 1805   2.467   2.610  17.620 -0.4845 -0.2819  0.4706
  116MPD2    C4 1806   2.361   2.675  17.565  0.4351  0.1672 -0.7110
  116MPD2    C5 1807   2.274   2.610  17.484  0.3472 -0.0279  0.3877
  116MPD2     H 1808   2.583   2.432  17.620 -0.3621  0.0213 -0.4200
  116MPD2    H1 1809   2.326   2.771  17.601 -0.1465 -0.3489  0.1216
  116MPD2    H2 1810   2.238   2.434  17.368  1.2243 -2.3840  0.8852
  116MPD2    H3 1811   2.188   2.663  17.445 -2.2698 -4.1616  0.6108
  116MPD2     N 1812   2.543   2.677  17.721 -0.5880  0.0141 -0.3053
  116MPD2    H5 1813   2.530   2.777  17.728  1.1157  0.2285 -0.1707
  116MPD2    N1 1814   2.465   2.307  17.411 -0.2959  0.3721  1.0292
  116MPD2    H7 1815   2.401   2.258  17.349  2.3857  0.0699 -1.4535
  117TMC2    C1 1816   1.683   4.507  14.504  0.6149 -0.7251  0.4327
  117TMC2    C2 1817   1.797   4.458  14.560 -0.2746  0.0147 -0.0151
  117TMC2    C3 1818   1.918   4.517  14.532  0.2892 -0.2356  0.7967
  117TMC2    C4 1819   1.681   4.625  14.432  0.1052  0.1468  0.2310
  117TMC2    C5 1820   1.806   4.678  14.416  0.2288  0.0684 -0.3138
  117TMC2    C6 1821   1.924   4.623  14.455 -0.5691 -0.1186  0.2504
  117TMC2     C 1822   1.574   4.418  14.505 -0.4332 -0.6746 -0.5151
  117TMC2     O 1823   1.585   4.317  14.571  0.1365 -0.3582 -0.3882
  117TMC2     H 1824   1.793   4.374  14.628  1.5738  0.8297  1.0960
  117TMC2    H1 1825   1.596   4.681  14.396  1.2162  0.7684 -1.4448
  117TMC2    H2 1826   2.021   4.656  14.418 -0.6083 -0.4001 -0.1006
  117TMC2    C7 1827   1.811   0.054  14.328  0.1139 -0.3132  1.5539
  117TMC2    C8 1828   2.049   4.466  14.563  0.0630  0.1184 -0.4029
  117TMC2    O1 1829   1.864   0.033  14.217  0.4249  0.3817 -0.0933
  117TMC2    O2 1830   2.148   4.535  14.548  0.1476  0.0114 -0.1189
  117TMC2    O5 1831   2.051   4.331  14.596 -0.0211  0.1502  0.3254
  117TMC2    H5 1832   1.971   4.282  14.569  0.0032  0.2365  0.0953
  118MPD2     C 1833   1.638   0.378  14.370  0.7503 -0.0262  0.1090
  118MPD2    C1 1834   1.736   0.289  14.325  0.3477  0.0012 -0.0531
  118MPD2    C2 1835   1.830   0.332  14.237  0.1262  0.5500  0.2729
  118MPD2    C3 1836   1.821   0.461  14.188  0.5236 -0.3609 -0.4598
  118MPD2    C4 1837   1.722   0.547  14.222 -0.6508 -0.2923  0.4427
  118MPD2    C5 1838   1.626   0.505  14.317 -0.3169 -0.2998  0.3098
  118MPD2     H 1839   1.896   0.253  14.206  0.2485  1.4019 -1.6350
  118MPD2    H1 1840   1.729   0.651  14.192 -0.5885 -1.0971 -2.3604
  118MPD2    H2 1841   1.558   0.346  14.435 -0.2974  0.0478 -1.1685
  118MPD2    H3 1842   1.549   0.576  14.345  0.7251  1.2929 -0.8709
  118MPD2     N 1843   1.918   0.503  14.090  0.3695  0.1184  0.0611
  118MPD2    H5 1844   1.895   0.587  14.038 -1.0090 -0.6448 -0.5415
  118MPD2    N1 1845   1.736   0.156  14.372  0.2335  0.6499  0.4439
  118MPD2    H7 1846   1.671   0.145  14.450  0.9940 -0.8447  0.8634
  119TMC2    C1 1847   4.516   0.591  13.442 -0.3472  0.1441  0.4376
  119TMC2    C2 1848   4.547   0.540  13.320  0.0748 -0.9208 -0.5173
  119TMC2    C3 1849   4.447   0.470  13.256  0.3628  0.0360 -0.4587
  119TMC2    C4 1850   4.387   0.584  13.500 -0.8772  0.5404  0.0703
  119TMC2    C5 1851   4.297   0.520  13.423 -0.4410 -0.2947  0.1564
  119TMC2    C6 1852   4.319   0.456  13.305  0.4767 -0.2311 -0.4543
  119TMC2     C 1853   4.597   0.703  13.481  0.3293  0.8312  0.5469
  119TMC2     O 1854   4.541   0.778  13.559  0.2068 -0.9192  0.0271
  119TMC2     H 1855   4.643   0.570  13.281 -0.2663  0.0768 -0.5749
  119TMC2    H1 1856   4.363   0.634  13.593  0.9113 -1.1994  1.4776
  119TMC2    H2 1857   4.244   0.396  13.254  2.1682 -2.4848 -0.3187
  119TMC2    C7 1858   4.156   0.535  13.456 -0.2920 -0.0836 -0.1440
  119TMC2    C8 1859   4.515   0.381  13.161 -1.0737 -0.1653  0.0250
  119TMC2    O1 1860   4.072   0.516  13.372  0.7286 -0.1202  0.0437
  119TMC2    O2 1861   4.637   0.368  13.160 -0.1704  0.5678 -0.6476
  119TMC2    O5 1862   4.436   0.270  13.173  0.1873 -0.2656  0.5926
  119TMC2    H5 1863   4.339   0.289  13.171 -0.1750 -2.0044  1.8171
  120MPD2     C 1864   0.275   0.979  13.554 -0.0640  0.7276  0.0581
  120MPD2    C1 1865   0.149   1.011  13.580 -0.2446  0.8570  0.6893
  120MPD2    C2 1866   0.051   0.911  13.547  0.4126 -0.7432 -0.2868
  120MPD2    C3 1867   0.082   0.794  13.472  0.1484  0.7947 -0.0405
  120MPD2    C4 1868   0.215   0.779  13.438 -0.3696 -0.2255  0.3159
  120MPD2    C5 1869   0.308   0.868  13.480  0.3735 -0.7027  0.0979
  120MPD2     H 1870   4.689   0.928  13.571  1.1069  1.6631  1.0052
  120MPD2    H1 1871   0.245   0.691  13.384 -1.4351 -0.8846  0.8075
  120MPD2    H2 1872   0.354   1.047  13.584 -1.2755  1.6943  1.0888
  120MPD2    H3 1873   0.411   0.848  13.451  0.8837  0.3012  1.2332
  120MPD2     N 1874   4.725   0.700  13.436  0.6847  0.5017  0.2129
  120MPD2    H5 1875   0.010   0.613  13.391  0.7841  0.3106  0.6409
  120MPD2    N1 1876   0.113   1.133  13.649 -0.5741  0.2910 -0.3949
  120MPD2    H7 1877   0.192   1.184  13.687  1.3733 -1.5749 -2.0073
  121TMC2    C1 1878   0.814   2.488  14.564 -0.0418 -0.4418  0.2303
  121TMC2    C2 1879   0.847   2.474  14.696 -0.5463  0.2400  0.1847
  121TMC2    C3 1880   0.743   2.427  14.777  0.6848 -0.1241 -0.4474
  121TMC2    C4 1881   0.692   2.465  14.510  0.4485 -0.2921 -0.7064
  121TMC2    C5 1882   0.592   2.423  14.595 -0.0231 -0.0887  0.4622
  121TMC2    C6 1883   0.622   2.394  14.725 -0.3359  0.0715 -0.4346
  121TMC2     C 1884   0.923   2.552  14.485  0.5102  0.2651  0.9145
  121TMC2     O 1885   1.034   2.514  14.524 -0.0193 -0.8778  0.1734
  121TMC2     H 1886   0.937   2.513  14.741 -0.7566 -0.3935  1.1737
  121TMC2    H1 1887   0.673   2.468  14.403  0.4044 -1.4524 -0.7354
  121TMC2    H2 1888   0.548   2.348  14.789 -0.3871  0.4314 -0.2338
  121TMC2    C7 1889   0.459   2.411  14.535  0.4675  0.1553 -0.1360
  121TMC2    C8 1890   0.779   2.375  14.904  0.5657  0.0647  0.0294
  121TMC2    O1 1891   0.460   2.440  14.416  0.3001  0.2371  0.5583
  121TMC2    O2 1892   0.889   2.330  14.925 -0.0242 -0.2094  0.0316
  121TMC2    O5 1893   0.684   2.379  14.994 -0.3473  0.1214  0.3747
  121TMC2    H5 1894   0.605   2.435  14.976 -2.0359 -3.2181 -2.4761
  122MPD2     C 1895   1.070   2.652  14.252  0.0911 -0.0719 -0.4201
  122MPD2    C1 1896   0.930   2.659  14.260  0.1351  0.2732  0.4235
  122MPD2    C2 1897   0.861   2.701  14.156 -0.1756  0.3551 -0.3981
  122MPD2    C3 1898   0.931   2.725  14.037 -0.2408 -0.5458 -0.5402
  122MPD2    C4 1899   1.068   2.711  14.026  0.5841  0.5683  0.3389
  122MPD2    C5 1900   1.139   2.675  14.137 -0.2759 -0.3593 -0.6407
  122MPD2     H 1901   0.757   2.729  14.170 -0.1824  0.0531  0.1907
  122MPD2    H1 1902   1.109   2.710  13.926  0.4690  0.6743  0.2909
  122MPD2    H2 1903   1.133   2.620  14.335  1.2369  2.6917 -0.1980
  122MPD2    H3 1904   1.242   2.643  14.138 -0.9780 -2.6154 -0.6401
  122MPD2     N 1905   0.873   2.761  13.912  0.1998 -0.5389 -0.1329
  122MPD2    H5 1906   0.920   2.742  13.824  1.8647  1.2751  0.3809
  122MPD2    N1 1907   0.863   2.613  14.375  0.2225  0.0633 -0.0979
  122MPD2    H7 1908   0.763   2.600  14.358  0.4809  0.5382 -1.9255
  123TMC2    C1 1909   4.262   1.227  10.541  0.3255  0.4711 -0.3071
  123TMC2    C2 1910   4.227   1.356  10.507  0.3873 -0.2012  0.6018
  123TMC2    C3 1911   4.294   1.409  10.395 -0.0081 -0.0432  0.4714
  123TMC2    C4 1912   4.355   1.152  10.473  0.2088 -0.6407  0.1790
  123TMC2    C5 1913   4.414   1.215  10.362  0.5620  0.0341 -0.3076
  123TMC2    C6 1914   4.397   1.343  10.330  0.0131 -0.6390 -0.6023
  123TMC2     C 1915   4.198   1.184  10.664 -0.4546 -0.0348  0.0620
  123TMC2     O 1916   4.160   1.276  10.736 -0.3770 -0.1520 -0.0059
  123TMC2     H 1917   4.154   1.409  10.568  0.4876  1.0279 -0.3402
  123TMC2    H1 1918   4.395   1.057  10.510  0.1853 -0.6932  0.0685
  123TMC2    H2 1919   4.452   1.404  10.259 -1.4747  0.2261 -1.0205
  123TMC2    C7 1920   4.505   1.137  10.284 -0.0813  0.0942 -0.3751
  123TMC2    C8 1921   4.312   1.547  10.390  0.3248  0.9546  0.0616
  123TMC2    O1 1922   4.581   1.198  10.210 -0.4869 -0.1448 -0.0918
  123TMC2    O2 1923   4.420   1.597  10.422  0.1442  0.4303 -0.0112
  123TMC2    O5 1924   4.194   1.594  10.440 -0.0505 -0.1757 -0.3704
  123TMC2    H5 1925   4.120   1.538  10.410 -0.4976  0.7316 -0.9475
  124MPD2     C 1926   3.852   0.865  10.869 -0.3283 -0.9459 -0.3043
  124MPD2    C1 1927   3.939   0.788  10.802 -0.3006 -0.8442  0.6776
  124MPD2    C2 1928   4.034   0.856  10.723 -0.0954  0.0522 -0.1508
  124MPD2    C3 1929   4.058   0.994  10.730 -0.2298 -0.2140  0.5893
  124MPD2    C4 1930   3.962   1.068  10.798 -0.7780 -0.6735  0.5631
  124MPD2    C5 1931   3.869   1.001  10.858  0.0268 -0.0585  0.0128
  124MPD2     H 1932   4.112   0.798  10.674 -1.1533 -0.9383 -0.6733
  124MPD2    H1 1933   3.965   1.175  10.811 -0.0169 -0.6392  0.0625
  124MPD2    H2 1934   3.776   0.821  10.932 -0.7107 -0.4682 -0.4347
  124MPD2    H3 1935   3.797   1.061  10.913  0.4194 -0.3699  0.8472
  124MPD2     N 1936   4.160   1.049  10.656  0.2797 -0.9694  0.0549
  124MPD2    H5 1937   4.206   0.983  10.595  1.7372  0.9026 -0.8841
  124MPD2    N1 1938   3.916   0.649  10.804  0.1099 -0.3349  0.7450
  124MPD2    H7 1939   3.840   0.605  10.854 -0.7705 -0.1160 -0.4073
  125TMC2    C1 1940   4.673   1.797   9.456 -0.5875  0.6851  0.5665
  125TMC2    C2 1941   4.540   1.821   9.434  0.1947 -0.0239  0.0327
  125TMC2    C3 1942   4.503   1.950   9.427  0.5467  0.1736  0.6683
  125TMC2    C4 1943   0.021   1.900   9.481 -0.4833  0.4035 -0.3427
  125TMC2    C5 1944   4.712   2.031   9.485  0.1942 -0.1908 -0.5079
  125TMC2    C6 1945   4.586   2.062   9.450  0.0964 -0.2433  0.1114
  125TMC2     C 1946   4.721   1.664   9.429 -0.2980 -0.4063 -0.2607
  125TMC2     O 1947   0.091   1.660   9.389  0.0443  0.5890  0.3194
  125TMC2     H 1948   4.467   1.747   9.401  0.7118 -1.0837  1.3028
  125TMC2    H1 1949   0.118   1.873   9.522 -1.1856 -0.6657  0.6230
  125TMC2    H2 1950   4.553   2.164   9.439  0.0279 -0.3456 -0.6323
  125TMC2    C7 1951   0.046   2.140   9.530  0.1603  0.3060 -0.1582
  125TMC2    C8 1952   4.367   1.994   9.382 -1.3493  0.2259  0.8095
  125TMC2    O1 1953   4.730   2.237   9.580 -0.1863  0.4453 -0.1521
  125TMC2    O2 1954   4.301   2.086   9.430  0.8863 -0.6160  0.1954
  125TMC2    O5 1955   4.345   1.931   9.268 -0.5779 -0.0218 -0.8314
  125TMC2    H5 1956   4.418   1.880   9.228 -0.7214 -1.0041  0.1565
  126MPD1     C 1957   4.688   1.151   9.465 -0.9969  0.2726 -0.8106
  126MPD1    C1 1958   4.565   1.195   9.498 -0.2285  0.6847  0.1491
  126MPD1    C2 1959   4.554   1.335   9.481  0.2130 -0.1504  0.5201
  126MPD1    C3 1960   4.655   1.425   9.451  0.9154  0.4772  0.2780
  126MPD1    C4 1961   0.042   1.369   9.431 -0.3044 -0.0787 -0.6638
  126MPD1    C5 1962   0.055   1.229   9.424  0.1311 -0.1137 -0.0050
  126MPD1     H 1963   4.455   1.378   9.491  0.6551  0.7613  0.9696
  126MPD1    H1 1964   0.122   1.431   9.392 -1.1055  1.6714  0.5135
  126MPD1    H2 1965   4.699   1.043   9.456 -2.8954  0.0790 -0.7979
  126MPD1    H3 1966   0.148   1.181   9.396  1.0082  2.1554 -0.9955
  126MPD1     N 1967   4.630   1.564   9.455  0.5019 -0.0749  0.4951
  126MPD1    H5 1968   4.540   1.589   9.495 -0.3301 -1.1169 -0.7469
  126MPD1    N1 1969   4.456   1.116   9.524 -0.2092  0.0244 -0.6089
  126MPD1    H6 1970   4.393   1.166   9.586 -1.3055 -0.3834 -1.3873
  126MPD1    H7 1971   4.487   1.032   9.572 -2.0298 -0.1453  0.2936
  127TMC2    C1 1972   1.389   1.302   9.940 -0.3126  0.0116  0.1674
  127TMC2    C2 1973   1.341   1.346  10.064 -0.2099  0.1440  0.2797
  127TMC2    C3 1974   1.231   1.272  10.112  0.4114 -0.3016  0.0621
  127TMC2    C4 1975   1.331   1.193   9.876  0.4289  0.3263  0.9106
  127TMC2    C5 1976   1.232   1.115   9.927 -0.4903 -0.0928  0.0396
  127TMC2    C6 1977   1.181   1.160  10.045  0.3665 -0.7278  0.6832
  127TMC2     C 1978   1.500   1.379   9.879 -0.2555  0.7061 -0.5585
  127TMC2     O 1979   1.550   1.461   9.951  0.0368 -0.2804 -0.2371
  127TMC2     H 1980   1.377   1.439  10.107 -1.1115 -0.3255  2.0475
  127TMC2    H1 1981   1.374   1.155   9.784 -1.0532  1.5858 -0.3071
  127TMC2    H2 1982   1.089   1.125  10.092 -0.4127  0.1030 -0.2274
  127TMC2    C7 1983   1.183   1.001   9.847 -0.2233  0.6200 -0.9483
  127TMC2    C8 1984   1.141   1.324  10.214  0.2122 -0.7070 -0.4060
  127TMC2    O1 1985   1.208   0.998   9.724 -0.1378  0.4561 -0.0138
  127TMC2    O2 1986   1.019   1.316  10.200  0.7384  0.5420 -0.0974
  127TMC2    O5 1987   1.196   1.409  10.296  0.2484 -0.1594  0.2556
  127TMC2    H5 1988   1.291   1.390  10.304 -0.2627 -3.0407 -0.6331
  128MPD2     C 1989   1.665   1.344   9.559  0.0046  0.1613  0.1655
  128MPD2    C1 1990   1.638   1.396   9.677 -0.8464 -0.2113  0.3488
  128MPD2    C2 1991   1.730   1.497   9.721  0.7605  0.4181  0.5118
  128MPD2    C3 1992   1.834   1.526   9.631 -0.4162 -0.8567  0.2181
  128MPD2    C4 1993   1.858   1.452   9.516 -0.4898  0.3543 -0.1394
  128MPD2    C5 1994   1.771   1.363   9.485 -0.4067 -0.4275  0.2591
  128MPD2     H 1995   1.739   1.539   9.821  2.2864  2.8509 -0.6359
  128MPD2    H1 1996   1.940   1.466   9.447  1.2764 -0.8380  1.7341
  128MPD2    H2 1997   1.599   1.265   9.525  0.7939 -0.6593  0.5542
  128MPD2    H3 1998   1.778   1.309   9.391  0.9407 -1.7939  1.1388
  128MPD2     N 1999   1.919   1.637   9.662  1.2044  0.0349  0.0052
  128MPD2    H5 2000   1.894   1.679   9.751  0.0204 -0.2032 -0.2172
  128MPD2    N1 2001   1.532   1.342   9.751 -0.6087  0.0995  0.7084
  128MPD2    H7 2002   1.481   1.266   9.707  0.0357  0.1081 -0.0419
  129TMC2    C1 2003   0.188   2.790   1.992 -0.4931 -0.4885  0.0813
  129TMC2    C2 2004   0.319   2.796   2.042  0.1161 -0.2375  0.6561
  129TMC2    C3 2005   0.412   2.741   1.952  0.1391  0.6743  0.9190
  129TMC2    C4 2006   0.161   2.722   1.880  0.2725 -0.1140 -0.1272
  129TMC2    C5 2007   0.251   2.668   1.792 -0.0173  0.4087  0.2911
  129TMC2    C6 2008   0.386   2.681   1.830 -0.3261 -0.0839 -0.3168
  129TMC2     C 2009   0.084   2.861   2.058 -0.1875 -0.8022 -0.3660
  129TMC2     O 2010   0.083   2.863   2.182  0.1161  0.1334 -0.2382
  129TMC2     H 2011   0.347   2.858   2.127 -0.4611 -0.5744  1.0963
  129TMC2    H1 2012   0.059   2.733   1.845  0.0711  1.0470  0.8516
  129TMC2    H2 2013   0.463   2.615   1.791 -1.3858 -2.1335  1.0308
  129TMC2    C7 2014   0.218   2.562   1.690 -0.7919 -0.1855  0.0109
  129TMC2    C8 2015   0.550   2.741   1.982 -0.2614  0.1574 -0.3929
  129TMC2    O1 2016   0.098   2.530   1.684  0.2248  0.0727  0.0348
  129TMC2    O2 2017   0.620   2.651   1.936 -0.3847 -0.3123  0.1599
  129TMC2    O5 2018   0.596   2.852   2.036  0.0157  0.1074  0.0257
  129TMC2    H5 2019   0.540   2.932   2.047 -0.5801 -0.3590  0.3588
  130MPD2     C 2020   4.639   3.082   2.120  0.4824 -0.9769 -0.1866
  130MPD2    C1 2021   4.715   3.073   2.007 -0.1661 -0.2970  0.4112
  130MPD2    C2 2022   4.723   3.185   1.927  0.7097 -0.5415 -0.4718
  130MPD2    C3 2023   4.653   3.300   1.956 -0.5618  0.4958  0.2793
  130MPD2    C4 2024   4.570   3.301   2.066 -0.1781  0.0794  0.5281
  130MPD2    C5 2025   4.555   3.187   2.134 -0.3973 -0.2532 -0.4168
  130MPD2     H 2026   0.045   3.182   1.839  3.2553 -1.8773  1.4496
  130MPD2    H1 2027   4.520   3.394   2.091  0.7403  0.1388  2.1293
  130MPD2    H2 2028   4.616   2.997   2.184 -1.4072  0.5514  1.1835
  130MPD2    H3 2029   4.483   3.190   2.215 -1.3071 -1.7699 -1.1919
  130MPD2     N 2030   4.679   3.413   1.874  0.0471 -0.2032 -0.5722
  130MPD2    H5 2031   4.727   3.402   1.785 -1.4555 -1.5622 -1.1979
  130MPD2    N1 2032   0.046   2.962   1.975  0.5160 -0.4798  0.5275
  130MPD2    H7 2033   0.098   2.969   1.887  0.1698  1.3069  0.4718
  131TMC2    C1 2034   3.650   0.690   9.972 -0.3507 -0.3865  0.3516
  131TMC2    C2 2035   3.526   0.681   9.913 -0.0117  0.2147 -0.3105
  131TMC2    C3 2036   3.463   0.801   9.899  0.1827 -0.0494 -0.2272
  131TMC2    C4 2037   3.717   0.806  10.007 -0.0523 -0.5327 -0.3474
  131TMC2    C5 2038   3.650   0.919   9.974 -0.4210 -0.4668  0.6699
  131TMC2    C6 2039   3.521   0.923   9.929  0.1354 -0.2649 -0.5983
  131TMC2     C 2040   3.686   0.589  10.061  0.2380  0.7287 -0.4931
  131TMC2     O 2041   3.748   0.622  10.164 -0.3613 -0.1177  0.0299
  131TMC2     H 2042   3.465   0.595   9.889  0.7450 -0.7197  1.1451
  131TMC2    H1 2043   3.817   0.809  10.050 -0.3902 -2.4667  0.5527
  131TMC2    H2 2044   3.464   1.014   9.913  0.1054 -0.0635  0.6213
  131TMC2    C7 2045   3.719   1.044   9.980  0.1032  0.0455 -0.0820
  131TMC2    C8 2046   3.347   0.799   9.810  0.4846  0.0446  0.1373
  131TMC2    O1 2047   3.654   1.145   9.968  0.3335 -0.0368  0.3998
  131TMC2    O2 2048   3.327   0.706   9.733 -0.0679  0.5231  0.4277
  131TMC2    O5 2049   3.245   0.879   9.854 -0.4157  0.5433  1.1500
  131TMC2    H5 2050   3.257   0.927   9.939  1.4115 -0.2656  1.3433
  132MPD2     C 2051   3.603   0.230  10.074  0.2695 -0.5946 -0.4617
  132MPD2    C1 2052   3.635   0.355  10.130  0.3516  0.7803  0.2354
  132MPD2    C2 2053   3.698   0.363  10.253  0.2795  0.3091  0.5786
  132MPD2    C3 2054   3.699   0.252  10.328 -0.1989  0.4013  0.4366
  132MPD2    C4 2055   3.672   0.123  10.273 -0.1743 -0.5086 -0.7199
  132MPD2    C5 2056   3.611   0.122  10.153  1.2452 -0.0483 -0.2797
  132MPD2     H 2057   3.726   0.458  10.298 -0.6690 -1.0448  4.0322
  132MPD2    H1 2058   3.686   0.029  10.325  0.2136  0.2003  0.4361
  132MPD2    H2 2059   3.548   0.221   9.981 -2.3678  0.5624  0.9830
  132MPD2    H3 2060   3.575   0.029  10.112 -0.7060  0.5513  0.0801
  132MPD2     N 2061   3.755   0.264  10.453 -0.0735 -0.1766  0.0687
  132MPD2    H5 2062   3.785   0.360  10.469 -1.0663  0.0960  0.2869
  132MPD2    N1 2063   3.623   0.468  10.042  0.0604 -0.4772 -0.3823
  132MPD2    H7 2064   3.591   0.450   9.947 -2.3734 -1.2193  0.5793
  133TMC2    C1 2065   3.991   2.146   9.773 -0.0525 -0.1325 -0.1922
  133TMC2    C2 2066   4.055   2.044   9.707 -0.3374  0.1309  0.1955
  133TMC2    C3 2067   4.158   1.983   9.762  0.0799  0.4611  0.0082
  133TMC2    C4 2068   4.025   2.182   9.899 -0.0222 -0.5104  0.5309
  133TMC2    C5 2069   4.119   2.105   9.957  0.0881  0.3256  0.2315
  133TMC2    C6 2070   4.194   2.008   9.892 -0.6799 -0.4421 -0.2881
  133TMC2     C 2071   3.882   2.202   9.697  0.6429 -0.0478  0.0765
  133TMC2     O 2072   3.843   2.144   9.598 -0.3146 -0.5919 -0.1754
  133TMC2     H 2073   4.033   2.028   9.602 -0.3547 -1.1646  0.3959
  133TMC2    H1 2074   3.968   2.249   9.962 -2.5619 -2.0545 -0.1389
  133TMC2    H2 2075   4.261   1.936   9.938 -2.3480 -2.4570 -0.9779
  133TMC2    C7 2076   4.158   2.138  10.092 -0.5097  0.5474  0.9620
  133TMC2    C8 2077   4.223   1.871   9.705 -0.5212 -0.7158  0.3320
  133TMC2    O1 2078   4.198   2.048  10.167 -0.0978 -0.3453 -0.1996
  133TMC2    O2 2079   4.159   1.794   9.638  0.0159 -0.0502  0.3049
  133TMC2    O5 2080   4.354   1.869   9.713 -0.6573  0.3388 -0.2703
  133TMC2    H5 2081   4.401   1.931   9.771 -1.5178  0.6861  0.0588
  134MPD2     C 2082   3.676   2.507   9.793  0.0320  0.5287 -0.6113
  134MPD2    C1 2083   3.708   2.386   9.734 -0.0293 -0.0820  0.1135
  134MPD2    C2 2084   3.614   2.328   9.657  0.1635 -0.4505  0.0903
  134MPD2    C3 2085   3.499   2.400   9.620 -0.3255  0.7719 -0.1303
  134MPD2    C4 2086   3.467   2.514   9.687 -0.5403  0.5158 -0.7528
  134MPD2    C5 2087   3.556   2.570   9.769  0.6611 -0.4937 -0.0809
  134MPD2     H 2088   3.632   2.230   9.615 -1.8069 -1.1542  0.9077
  134MPD2    H1 2089   3.374   2.567   9.671 -0.5017  0.7411 -0.2195
  134MPD2    H2 2090   3.751   2.567   9.843  0.2286 -0.9618  0.8730
  134MPD2    H3 2091   3.536   2.668   9.810  0.1303 -0.8252  0.4487
  134MPD2     N 2092   3.408   2.345   9.531 -0.5919  0.6205  0.2907
  134MPD2    H5 2093   3.321   2.396   9.529 -0.9883 -0.0955 -0.5677
  134MPD2    N1 2094   3.832   2.323   9.758  0.3999  0.3173  0.3446
  134MPD2    H7 2095   3.887   2.360   9.836  0.1238  1.0483  0.1955
  135TMC2    C1 2096   0.137   3.287   9.978 -0.9997  0.6236  0.0483
  135TMC2    C2 2097   0.109   3.398  10.052  0.2669 -0.1550  0.1448
  135TMC2    C3 2098   0.163   3.407  10.181  0.5629  0.3268 -0.3643
  135TMC2    C4 2099   0.171   3.166  10.038  0.5153 -0.3151  0.8489
  135TMC2    C5 2100   0.205   3.175  10.176 -0.3486  0.0513 -0.1722
  135TMC2    C6 2101   0.199   3.296  10.243 -0.5937 -0.2491  0.7974
  135TMC2     C 2102   0.126   3.304   9.831  0.3681  0.6612 -0.5602
  135TMC2     O 2103   0.083   3.406   9.781  0.0342  0.0152  0.3531
  135TMC2     H 2104   0.067   3.488  10.010  1.6552  0.0364 -0.8524
  135TMC2    H1 2105   0.173   3.069   9.989 -0.2904 -0.3368  0.8530
  135TMC2    H2 2106   0.236   3.303  10.344  0.7142 -0.1596  0.3154
  135TMC2    C7 2107   0.211   3.047  10.250  0.5007  0.1618 -0.1378
  135TMC2    C8 2108   0.157   3.538  10.250 -0.2818 -0.7189  0.6364
  135TMC2    O1 2109   0.252   3.059  10.366 -0.2074 -0.1002  0.4987
  135TMC2    O2 2110   0.128   3.639  10.194  0.3177 -0.4867 -0.1833
  135TMC2    O5 2111   0.142   3.510  10.381  0.0811  0.3528  0.2999
  135TMC2    H5 2112   0.148   3.416  10.409 -0.8500 -0.0191 -0.7457
  136MPD2     C 2113   0.166   3.265   9.543  0.1121 -0.2536  0.7460
  136MPD2    C1 2114   0.200   3.172   9.640 -0.4888  0.2151 -0.1539
  136MPD2    C2 2115   0.249   3.046   9.601 -0.4350  0.3612  0.1232
  136MPD2    C3 2116   0.262   3.016   9.465  0.8357 -0.8311 -0.6614
  136MPD2    C4 2117   0.215   3.107   9.375 -0.1529 -0.4864  0.0208
  136MPD2    C5 2118   0.165   3.228   9.413  0.7436  0.1525  0.2851
  136MPD2     H 2119   0.281   2.970   9.671  0.1485  0.3359 -0.1678
  136MPD2    H1 2120   0.218   3.084   9.269  3.0190  1.4593 -0.3078
  136MPD2    H2 2121   0.130   3.365   9.563 -0.1068 -0.6411  2.2333
  136MPD2    H3 2122   0.117   3.293   9.341  3.3704  1.7687 -0.0087
  136MPD2     N 2123   0.323   2.905   9.408 -0.0273  0.2373  0.2536
  136MPD2    H5 2124   0.316   2.882   9.310 -1.0218  2.8298 -0.3013
  136MPD2    N1 2125   0.189   3.198   9.775  0.2013 -1.0571 -0.7072
  136MPD2    H7 2126   0.224   3.131   9.843 -1.6367  0.5651  1.8365
  137TMC2    C1 2127   0.839   1.028   9.599  0.1161  0.9947  0.0097
  137TMC2    C2 2128   0.899   1.027   9.478  0.7583  0.1448  0.1630
  137TMC2    C3 2129   0.863   0.924   9.399  0.4299  0.2368  0.3405
  137TMC2    C4 2130   0.756   0.932   9.641 -0.2273  0.5875  0.1266
  137TMC2    C5 2131   0.732   0.825   9.561 -0.1926 -0.3378  0.2991
  137TMC2    C6 2132   0.777   0.825   9.433 -0.1694  0.7724 -0.0057
  137TMC2     C 2133   0.854   1.141   9.687 -0.0351 -0.1554  0.1778
  137TMC2     O 2134   0.797   1.134   9.798  0.0190 -0.0306 -0.2938
  137TMC2     H 2135   0.956   1.110   9.438 -1.1035  1.9402  1.2764
  137TMC2    H1 2136   0.728   0.926   9.746 -1.8156  0.0488 -0.3250
  137TMC2    H2 2137   0.738   0.750   9.365  5.1736 -0.7967 -1.3303
  137TMC2    C7 2138   0.615   0.749   9.598 -0.3599 -0.1947  0.2909
  137TMC2    C8 2139   0.904   0.928   9.254 -0.0821  0.5458 -0.4044
  137TMC2    O1 2140   0.590   0.650   9.521 -0.2064 -0.0777  0.6238
  137TMC2    O2 2141   0.849   0.851   9.172 -0.0121 -0.4100 -0.0796
  137TMC2    O5 2142   1.037   0.958   9.254  0.3035 -0.1334 -0.0074
  137TMC2    H5 2143   1.057   0.963   9.350  0.5323  0.1910 -0.0735
  138MPD2     C 2144   1.124   1.397   9.720 -0.3953  0.0514  0.5063
  138MPD2    C1 2145   1.001   1.338   9.747 -0.3527 -0.3221 -0.6027
  138MPD2    C2 2146   0.922   1.385   9.851  0.3750 -0.5523 -0.8626
  138MPD2    C3 2147   0.975   1.480   9.935  0.0915 -0.7084  0.3948
  138MPD2    C4 2148   1.104   1.528   9.916 -0.3549  0.1360 -0.0639
  138MPD2    C5 2149   1.176   1.487   9.808  1.0113 -0.2912  0.2978
  138MPD2     H 2150   0.823   1.342   9.865 -0.1846  0.6826 -1.0709
  138MPD2    H1 2151   1.153   1.606   9.972  1.6423 -1.4605  0.4290
  138MPD2    H2 2152   1.191   1.362   9.643 -2.0090 -0.1915 -0.7804
  138MPD2    H3 2153   1.278   1.518   9.787  0.7013  0.9885  0.6469
  138MPD2     N 2154   0.887   1.532  10.027 -0.2409  0.2239  0.0455
  138MPD2    H5 2155   0.794   1.492  10.030 -0.3550  0.6057  1.4056
  138MPD2    N1 2156   0.954   1.232   9.656  0.1718  0.5942  0.3445
  138MPD2    H7 2157   1.018   1.218   9.579 -2.3113  0.3825 -1.6824
  139TMC2    C1 2158   1.301   0.510  13.616  0.1167 -0.4433 -0.3647
  139TMC2    C2 2159   1.219   0.464  13.508 -0.5061 -0.6776  0.2602
  139TMC2    C3 2160   1.086   0.483  13.518  0.3562  0.0665  0.0609
  139TMC2    C4 2161   1.242   0.561  13.731 -0.2520 -0.2151  0.0410
  139TMC2    C5 2162   1.106   0.576  13.735  0.3076 -0.0949  0.2164
  139TMC2    C6 2163   1.030   0.536  13.629 -0.1213  0.2239  0.8299
  139TMC2     C 2164   1.412   0.422  13.635  0.0442  0.8798 -0.2376
  139TMC2     O 2165   1.441   0.362  13.534 -0.7689  0.4277  0.7969
  139TMC2     H 2166   1.272   0.453  13.414 -2.4013 -0.6832 -0.8119
  139TMC2    H1 2167   1.311   0.610  13.799  1.8335  0.0406 -2.2524
  139TMC2    H2 2168   0.930   0.575  13.610 -0.6000 -1.8350 -0.9292
  139TMC2    C7 2169   1.050   0.673  13.829  0.2045  0.2151 -0.6929
  139TMC2    C8 2170   0.992   0.453  13.410  0.0797 -0.0969 -0.0688
  139TMC2    O1 2171   0.949   0.719  13.786 -0.3339 -0.9802 -0.0835
  139TMC2    O2 2172   0.892   0.516  13.390 -0.5998  0.0030  0.3518
  139TMC2    O5 2173   1.048   0.361  13.323  0.6601  0.1240 -0.7390
  139TMC2    H5 2174   1.134   0.324  13.350 -0.5719 -3.5228 -1.7246
  140MPD2     C 2175   1.541   0.269  13.950 -0.1019 -0.7390  0.4420
  140MPD2    C1 2176   1.534   0.294  13.812 -0.0066 -0.3659  0.0944
  140MPD2    C2 2177   1.610   0.205  13.739  0.6057 -0.7677  0.4714
  140MPD2    C3 2178   1.684   0.101  13.793  0.1135 -0.4003  0.6344
  140MPD2    C4 2179   1.694   0.096  13.932 -0.6895  1.0465  0.2613
  140MPD2    C5 2180   1.623   0.182  14.008  0.2436 -0.0609  0.1950
  140MPD2     H 2181   1.613   0.225  13.633 -0.4416  2.4453  1.0274
  140MPD2    H1 2182   1.756   0.024  13.984  0.0419  0.6373 -1.1616
  140MPD2    H2 2183   1.499   0.342  14.018  0.9210 -0.0042  0.2797
  140MPD2    H3 2184   1.618   0.170  14.116 -4.3938  0.3353  0.0189
  140MPD2     N 2185   1.753   0.013  13.705 -0.0087  0.1067  0.0622
  140MPD2    H5 2186   1.742   0.037  13.607  0.8575 -1.2521 -0.3587
  140MPD2    N1 2187   1.446   0.389  13.762  0.0074  0.4113  0.2012
  140MPD2    H7 2188   1.401   0.441  13.837 -0.8740 -1.0319  0.6659
  141TMC2    C1 2189   1.937   1.559  14.389  0.4390 -0.4795  0.1395
  141TMC2    C2 2190   2.033   1.535  14.488  0.1300  0.1088 -1.1085
  141TMC2    C3 2191   2.043   1.608  14.603  0.1725 -0.0756  0.3136
  141TMC2    C4 2192   1.864   1.672  14.402  0.3664  0.0923 -0.3963
  141TMC2    C5 2193   1.864   1.744  14.516 -1.2113  0.2696  0.7996
  141TMC2    C6 2194   1.958   1.716  14.618 -0.4836  0.3372 -0.2430
  141TMC2     C 2195   1.966   1.518  14.253 -0.4670 -0.5177 -0.3844
  141TMC2     O 2196   1.918   1.585  14.160 -0.3201 -0.1816  0.4211
  141TMC2     H 2197   2.115   1.467  14.467  0.5546  0.2045  0.2093
  141TMC2    H1 2198   1.791   1.691  14.324 -1.0041  0.1982  0.9122
  141TMC2    H2 2199   1.944   1.762  14.715 -1.9384 -0.9467  0.1478
  141TMC2    C7 2200   1.794   1.871  14.518  0.5852  0.1773  0.5521
  141TMC2    C8 2201   2.144   1.574  14.696 -0.1657  0.0307  0.7578
  141TMC2    O1 2202   1.679   1.868  14.476 -0.2911 -0.1401 -0.4245
  141TMC2    O2 2203   2.218   1.480  14.678 -0.1322  0.0145  0.1425
  141TMC2    O5 2204   2.165   1.667  14.799  0.0949  0.2628  0.2785
  141TMC2    H5 2205   2.109   1.748  14.799 -1.2017 -0.6400 -0.3046
  142TMC2    C1 2206   4.122   0.212  10.150  0.3772  0.1780 -0.2253
  142TMC2    C2 2207   4.170   0.148  10.036 -0.1796 -0.6126  0.2752
  142TMC2    C3 2208   4.276   0.212   9.965  1.2290 -0.1659  0.0263
  142TMC2    C4 2209   4.182   0.329  10.187 -0.3116  0.3402  0.4186
  142TMC2    C5 2210   4.282   0.390  10.113  0.7753  0.3609  0.2850
  142TMC2    C6 2211   4.332   0.336  10.002  0.2067  0.2219  0.5895
  142TMC2     C 2212   4.085   0.118  10.258 -0.7084 -0.7767 -0.3055
  142TMC2     O 2213   4.025   0.018  10.220 -0.1513 -0.0416 -0.3517
  142TMC2     H 2214   4.131   0.054   9.999 -1.9550  0.7770 -1.4398
  142TMC2    H1 2215   4.140   0.386  10.268 -0.0143 -2.2303  2.3857
  142TMC2    H2 2216   4.409   0.377   9.938 -1.1847 -0.9400 -1.8363
  142TMC2    C7 2217   4.353   0.509  10.165  0.3712  0.4015 -0.3704
  142TMC2    C8 2218   4.337   0.139   9.857  0.4930 -0.0538 -1.1473
  142TMC2    O1 2219   4.325   0.539  10.279 -0.9071 -0.3628 -0.4529
  142TMC2    O2 2220   4.453   0.161   9.823  0.3304  0.1873 -0.0839
  142TMC2    O5 2221   4.246   0.057   9.789 -0.4629  0.0574  0.1757
  142TMC2    H5 2222   4.153   0.070   9.816 -0.2162  0.6899  0.7270
  143MPD2     C 2223   4.105   4.713  10.757  0.5476 -0.0226 -0.1777
  143MPD2    C1 2224   4.039   4.666  10.650 -0.1563 -1.7278 -0.0040
  143MPD2    C2 2225   4.047   4.721  10.520 -0.5594  0.4432  0.6202
  143MPD2    C3 2226   4.121   0.088  10.502 -1.0483  0.0792  0.3253
  143MPD2    C4 2227   4.182   0.146  10.616 -0.2315 -0.5647  0.7123
  143MPD2    C5 2228   4.175   0.089  10.738 -0.2823  0.1710  0.1642
  143MPD2     H 2229   3.987   4.685  10.438 -0.0958 -0.9115  0.8651
  143MPD2    H1 2230   4.251   0.229  10.609 -0.3414 -0.6281 -1.1777
  143MPD2    H2 2231   4.126   4.656  10.848  0.2744 -0.5732 -0.4615
  143MPD2    H3 2232   4.240   0.130  10.815 -3.5698  1.1902  2.3951
  143MPD2     N 2233   4.134   0.159  10.378 -0.5059  0.6583  0.0985
  143MPD2    H5 2234   4.199   0.237  10.382 -1.4716  1.3724  2.0055
  143MPD2    N1 2235   3.957   4.559  10.686  0.4320  0.5091 -0.2069
  143MPD2    H7 2236   3.955   4.531  10.784  1.3280  2.0197  0.2465
  144TMC2    C1 2237   2.701   0.111   1.127 -0.1802 -0.7197  0.1700
  144TMC2    C2 2238   2.744   4.728   1.183 -0.0588  0.0739  0.3180
  144TMC2    C3 2239   2.845   4.727   1.265 -0.2999 -0.3015  0.9174
  144TMC2    C4 2240   2.759   0.230   1.161 -0.0308  0.3992  0.4289
  144TMC2    C5 2241   2.860   0.226   1.254 -0.3521  0.5750  0.3538
  144TMC2    C6 2242   2.910   0.102   1.302 -0.2451 -0.2414 -0.2371
  144TMC2     C 2243   2.571   0.114   1.059  0.1634  0.9539  0.2234
  144TMC2     O 2244   2.535   0.002   1.036 -0.1456  0.6011 -0.3141
  144TMC2     H 2245   2.699   4.630   1.168 -0.5629  0.0517  1.9245
  144TMC2    H1 2246   2.728   0.320   1.110  0.1164  0.7861  1.0182
  144TMC2    H2 2247   2.994   0.118   1.367  1.5638 -0.2200 -2.5676
  144TMC2    C7 2248   2.959   0.336   1.234  0.1535 -0.1082  0.5770
  144TMC2    C8 2249   2.880   4.594   1.323 -1.0271  0.4161  0.4846
  144TMC2    O1 2250   2.920   0.450   1.219  0.0908 -0.5217 -0.4304
  144TMC2    O2 2251   2.804   4.500   1.336  0.0424  0.2887  0.3085
  144TMC2    O5 2252   3.007   4.588   1.320 -0.1717 -0.1021 -0.2528
  144TMC2    H5 2253   3.051   4.668   1.284  1.7527 -0.4139  1.3612
  145MPD2     C 2254   2.165   0.281   0.789 -0.0045 -0.7108  0.1672
  145MPD2    C1 2255   2.194   0.157   0.840  0.0417 -0.2082  0.6157
  145MPD2    C2 2256   2.305   0.140   0.924 -0.3846  1.0248 -0.0035
  145MPD2    C3 2257   2.397   0.243   0.948  0.5631  0.6390 -0.7818
  145MPD2    C4 2258   2.369   0.367   0.893 -0.1563 -0.2121 -0.0556
  145MPD2    C5 2259   2.250   0.381   0.822 -0.0045 -0.3369 -0.4318
  145MPD2     H 2260   2.328   0.044   0.968 -4.6951  0.9005  2.0606
  145MPD2    H1 2261   2.432   0.453   0.908  0.0564 -0.7790  2.3844
  145MPD2    H2 2262   2.085   0.297   0.719  0.0802  2.4162  0.7845
  145MPD2    H3 2263   2.226   0.478   0.779  0.6303 -0.3632 -0.8368
  145MPD2     N 2264   2.516   0.233   1.027 -0.2083 -0.2151 -0.0755
  145MPD2    H5 2265   2.555   0.324   1.052  0.5145 -0.1442 -1.5149
  145MPD2    N1 2266   2.118   0.040   0.796 -0.1473 -0.3923 -0.3484
  145MPD2    H7 2267   2.157   4.693   0.826 -0.5197 -0.4909 -0.1551
  146TMC2    C1 2268   3.044   2.887  12.932 -0.0489 -0.6869 -0.3497
  146TMC2    C2 2269   3.009   2.909  12.807  0.0611 -0.1929 -0.8303
  146TMC2    C3 2270   3.109   2.916  12.713  0.0913 -0.4193  0.3427
  146TMC2    C4 2271   3.178   2.882  12.973 -0.2486 -0.4781  0.2711
  146TMC2    C5 2272   3.277   2.889  12.874 -0.2672 -0.2044 -0.0514
  146TMC2    C6 2273   3.243   2.919  12.745  0.3253 -0.4789  0.1699
  146TMC2     C 2274   2.942   2.900  13.032  0.4091  0.2066  0.3412
  146TMC2     O 2275   2.842   2.965  13.001  0.1338 -0.2858  0.4620
  146TMC2     H 2276   2.905   2.913  12.777 -0.4437  0.7023  1.0413
  146TMC2    H1 2277   3.199   2.874  13.079  0.6674  2.1469  0.2996
  146TMC2    H2 2278   3.321   2.931  12.671  1.0368 -0.5622  0.8966
  146TMC2    C7 2279   3.415   2.887  12.906  0.9067  0.0239  0.3390
  146TMC2    C8 2280   3.055   2.860  12.587 -0.2103 -0.3066 -0.7735
  146TMC2    O1 2281   3.492   2.943  12.830  0.3246 -0.0773 -0.2024
  146TMC2    O2 2282   2.969   2.772  12.578  0.0875  0.1000  0.3350
  146TMC2    O5 2283   3.130   2.903  12.477  0.2651 -0.2435  0.3209
  146TMC2    H5 2284   3.197   2.969  12.504 -0.3031 -0.0072  1.1572
  147MPD2     C 2285   3.806   2.721  13.192  0.7474 -0.1951  0.1720
  147MPD2    C1 2286   3.690   2.652  13.236 -0.6348  0.6714 -0.1347
  147MPD2    C2 2287   3.570   2.694  13.176  0.5652 -0.1701 -0.5880
  147MPD2    C3 2288   3.559   2.789  13.076  0.9452  0.1963  0.3624
  147MPD2    C4 2289   3.677   2.850  13.032 -0.2973  0.1032  0.3105
  147MPD2    C5 2290   3.796   2.814  13.096 -0.3588  0.1885 -0.1873
  147MPD2     H 2291   3.478   2.641  13.197 -0.0532  1.7371  1.5664
  147MPD2    H1 2292   3.676   2.931  12.960 -1.2299 -0.4159 -0.2565
  147MPD2    H2 2293   3.904   2.703  13.235 -0.2460 -2.9260  1.3461
  147MPD2    H3 2294   3.884   2.869  13.063  0.7619 -0.6158  1.4614
  147MPD2     N 2295   3.434   2.806  13.013 -0.0307  0.3788 -0.0047
  147MPD2    H5 2296   3.360   2.749  13.054  1.7577 -2.0488 -0.1336
  147MPD2    N1 2297   3.700   2.552  13.329  0.1339  0.2315  0.3083
  147MPD2    H7 2298   3.795   2.534  13.359  0.8298  0.2698 -1.8957
  148TMC2    C1 2299   3.407   1.566  10.096  0.3114  0.1537  0.4434
  148TMC2    C2 2300   3.504   1.654  10.121  0.2949  0.3250  0.4293
  148TMC2    C3 2301   3.578   1.611  10.223  1.0679 -0.1918  0.5184
  148TMC2    C4 2302   3.381   1.446  10.172  0.0714  0.2590 -0.1427
  148TMC2    C5 2303   3.478   1.406  10.264  0.4435  0.0354 -0.1408
  148TMC2    C6 2304   3.578   1.493  10.288 -0.0518  0.1841 -0.5695
  148TMC2     C 2305   3.317   1.604   9.987  0.7334  0.3592 -0.5412
  148TMC2     O 2306   3.319   1.720   9.945  0.3621  0.3554 -0.1449
  148TMC2     H 2307   3.504   1.758  10.091  1.3962  0.3026  0.3384
  148TMC2    H1 2308   3.302   1.378  10.144 -1.2293  1.7929 -0.2002
  148TMC2    H2 2309   3.655   1.484  10.364 -1.0199 -1.4589  0.1956
  148TMC2    C7 2310   3.500   1.264  10.272  0.7448  0.4802 -0.6239
  148TMC2    C8 2311   3.678   1.707  10.264 -0.1790  0.1197 -0.6397
  148TMC2    O1 2312   3.414   1.188  10.228 -0.0843 -0.1680 -0.1642
  148TMC2    O2 2313   3.784   1.672  10.315 -0.3973 -0.5424  0.0660
  148TMC2    O5 2314   3.602   1.810  10.315 -0.6426 -0.0626  0.0229
  148TMC2    H5 2315   3.507   1.801  10.292 -0.2465 -2.2309 -0.7645
  149MPD2     C 2316   3.058   1.643   9.852 -0.2221 -0.3277  0.8683
  149MPD2    C1 2317   3.125   1.519   9.870 -0.5841  0.0329  0.3443
  149MPD2    C2 2318   3.074   1.401   9.827  0.3119 -0.1309 -0.3258
  149MPD2    C3 2319   2.950   1.398   9.778  0.0420 -0.1336 -0.0708
  149MPD2    C4 2320   2.890   1.515   9.742 -0.1653 -0.7345  0.7741
  149MPD2    C5 2321   2.942   1.632   9.779  0.0488  0.1744  0.8732
  149MPD2     H 2322   3.126   1.307   9.845  0.4036 -0.0155  0.0243
  149MPD2    H1 2323   2.793   1.514   9.695  0.1760  1.2188  0.0319
  149MPD2    H2 2324   3.095   1.741   9.880  0.8847  0.0021 -1.6954
  149MPD2    H3 2325   2.890   1.725   9.760  0.4207  0.4846  1.3682
  149MPD2     N 2326   2.879   1.278   9.746  0.4368  0.1130 -1.0104
  149MPD2    H5 2327   2.779   1.272   9.736  0.4648 -1.1828 -0.4467
  149MPD2    N1 2328   3.234   1.503   9.948  0.0188 -0.3748 -0.4246
  149MPD2    H7 2329   3.254   1.406   9.969 -1.3658 -0.6175 -0.2760
  150TMC2    C1 2330   1.076   0.959  12.275 -0.3555 -0.0666  0.5965
  150TMC2    C2 2331   1.039   1.060  12.190  0.5635 -0.3909  0.2766
  150TMC2    C3 2332   1.124   1.167  12.176  0.4366  0.2968 -1.3650
  150TMC2    C4 2333   1.188   0.959  12.346 -0.2783  0.5430  0.8478
  150TMC2    C5 2334   1.268   1.067  12.330 -0.1922  0.7635 -0.2857
  150TMC2    C6 2335   1.246   1.170  12.243  0.0557  0.7612 -0.4071
  150TMC2     C 2336   0.975   0.855  12.299  0.4265  0.0122  0.3554
  150TMC2     O 2337   1.014   0.746  12.341 -0.4771 -0.0683  0.4115
  150TMC2     H 2338   0.947   1.063  12.133  0.1809 -0.6922  0.8789
  150TMC2    H1 2339   1.183   0.888  12.428  0.2257  0.1335  0.5256
  150TMC2    H2 2340   1.303   1.262  12.244 -0.8841  1.3528 -1.2163
  150TMC2    C7 2341   1.377   1.093  12.416 -0.5806 -0.3304 -0.0193
  150TMC2    C8 2342   1.076   1.287  12.107 -0.2587 -0.2982 -0.3135
  150TMC2    O1 2343   1.411   1.208  12.434 -0.1380  0.0001 -0.3052
  150TMC2    O2 2344   1.139   1.393  12.109  0.3205  0.1385 -0.0075
  150TMC2    O5 2345   0.979   1.253  12.022 -0.3920  0.6020 -0.1112
  150TMC2    H5 2346   0.963   1.312  11.945 -0.4253  1.7861  0.8069
  151MPD2     C 2347   0.500   0.659  12.254 -0.1834 -0.1647 -0.6341
  151MPD2    C1 2348   0.497   0.788  12.210 -0.1635 -0.5858 -0.0993
  151MPD2    C2 2349   0.613   0.863  12.210  0.5706  0.0323 -0.5801
  151MPD2    C3 2350   0.731   0.815  12.260  0.4896  0.5917  0.6420
  151MPD2    C4 2351   0.737   0.684  12.303  0.0893 -0.0926 -0.1845
  151MPD2    C5 2352   0.623   0.609  12.291  0.5867 -0.3308 -0.0284
  151MPD2     H 2353   0.610   0.967  12.179 -2.3294  0.9481  2.7404
  151MPD2    H1 2354   0.820   0.630  12.346  0.9266  1.0446 -0.4062
  151MPD2    H2 2355   0.417   0.592  12.238  0.1668 -0.9523  0.8495
  151MPD2    H3 2356   0.632   0.507  12.327  2.4449 -0.2005 -0.0975
  151MPD2     N 2357   0.846   0.902  12.265 -0.0946 -0.0528  0.0041
  151MPD2    H5 2358   0.832   0.999  12.240 -0.2037  0.3777  1.7316
  151MPD2    N1 2359   0.375   0.837  12.146 -0.1252  0.2001  0.4094
  151MPD2    H7 2360   0.296   0.773  12.148 -2.3824  2.9215 -2.3673
  152TMC2    C1 2361   1.039   0.726  12.701  0.4499 -0.2644 -0.5482
  152TMC2    C2 2362   1.129   0.627  12.655  0.0926  0.4163  0.1831
  152TMC2    C3 2363   1.257   0.645  12.691  0.6429 -1.2508  0.0283
  152TMC2    C4 2364   1.086   0.842  12.765 -0.1006 -0.0265 -0.6727
  152TMC2    C5 2365   1.214   0.857  12.793 -0.1069 -0.1517 -0.1177
  152TMC2    C6 2366   1.302   0.757  12.757 -0.3310 -0.5129 -0.2038
  152TMC2     C 2367   0.897   0.713  12.687  0.5658 -0.8265  0.4456
  152TMC2     O 2368   0.837   0.802  12.745 -0.0648  0.1275 -0.2679
  152TMC2     H 2369   1.092   0.543  12.596 -1.7232 -0.6490  2.8159
  152TMC2    H1 2370   1.015   0.907  12.816 -0.6940  0.3959 -2.0487
  152TMC2    H2 2371   1.410   0.764  12.767 -0.5372  2.3491  0.1299
  152TMC2    C7 2372   1.240   0.948  12.898  0.5797  0.1035 -0.2545
  152TMC2    C8 2373   1.353   0.550  12.644  0.3850 -0.6578  0.0176
  152TMC2    O1 2374   1.154   1.036  12.917 -0.6503  0.3033 -1.2076
  152TMC2    O2 2375   1.441   0.531  12.724  0.4231 -0.3394 -0.6086
  152TMC2    O5 2376   1.312   0.461  12.555  0.0259 -0.3789 -0.1708
  152TMC2    H5 2377   1.241   0.495  12.496  0.7333 -0.1768 -0.9109
  153MPD2     C 2378   0.675   0.418  12.634  0.6229  0.4790 -0.2776
  153MPD2    C1 2379   0.709   0.553  12.646 -0.4936 -0.5972 -0.2916
  153MPD2    C2 2380   0.605   0.648  12.638  0.5390 -0.4785  0.5371
  153MPD2    C3 2381   0.472   0.604  12.630  0.1724  0.3103 -0.3204
  153MPD2    C4 2382   0.443   0.468  12.623  0.0473  0.3443 -0.8301
  153MPD2    C5 2383   0.544   0.376  12.628  0.0327 -0.2000  0.0757
  153MPD2     H 2384   0.635   0.751  12.622 -0.6928 -0.3331 -0.8759
  153MPD2    H1 2385   0.342   0.430  12.631 -0.0552  1.2559  2.3592
  153MPD2    H2 2386   0.749   0.339  12.636  1.5174  1.3871  1.8954
  153MPD2    H3 2387   0.515   0.271  12.621  1.0096 -0.3158 -2.0996
  153MPD2     N 2388   0.366   0.703  12.622  0.2641  0.0140 -0.4557
  153MPD2    H5 2389   0.382   0.801  12.605  1.0222 -0.3892 -2.1015
  153MPD2    N1 2390   0.847   0.590  12.648 -0.2010 -0.0948  0.4324
  153MPD2    H7 2391   0.918   0.519  12.634  2.6899  3.2724 -2.1746
  154TMC2    C1 2392   2.649   1.289   0.185 -0.1649  0.3339  0.1732
  154TMC2    C2 2393   2.727   1.356   0.277 -0.1563 -0.0975  0.0485
  154TMC2    C3 2394   2.860   1.317   0.294  0.4986  0.7226 -0.3202
  154TMC2    C4 2395   2.694   1.171   0.129 -0.5125 -0.1874 -0.1603
  154TMC2    C5 2396   2.816   1.124   0.168 -0.5419 -0.3185  1.0813
  154TMC2    C6 2397   2.903   1.197   0.252 -0.1643  0.1157  0.1680
  154TMC2     C 2398   2.541   1.352   0.119 -0.3878  0.0910  0.1214
  154TMC2     O 2399   2.518   1.466   0.155  0.1683  0.1324 -0.1307
  154TMC2     H 2400   2.691   1.445   0.328  0.3611  0.3745 -0.4157
  154TMC2    H1 2401   2.639   1.115   0.054  1.8404 -2.0740 -0.4527
  154TMC2    H2 2402   3.004   1.171   0.282 -0.6706 -1.5912  0.3655
  154TMC2    C7 2403   2.864   0.995   0.108  0.0241 -0.5574  0.4640
  154TMC2    C8 2404   2.931   1.379   0.403 -0.2334  0.5083  0.4855
  154TMC2    O1 2405   2.779   0.912   0.075 -0.0921 -0.1741  0.3977
  154TMC2    O2 2406   2.996   1.479   0.383  0.3785  0.3010 -0.2630
  154TMC2    O5 2407   2.906   1.314   0.520  0.0783  0.3396  0.5550
  154TMC2    H5 2408   2.858   1.229   0.515 -0.4880  0.7045 -0.2480
  155MPD2     C 2409   2.351   1.275  17.587 -0.2827  0.0204 -0.3175
  155MPD2    C1 2410   2.379   1.333  17.707  0.0543  0.8622  0.0671
  155MPD2    C2 2411   2.299   1.436  17.751 -0.6111  0.4580  0.4126
  155MPD2    C3 2412   2.189   1.471  17.674  0.3341  0.4215  0.2457
  155MPD2    C4 2413   2.155   1.410  17.558  0.4183  0.3482  0.0653
  155MPD2    C5 2414   2.240   1.311  17.514  0.4944 -0.5912 -0.7902
  155MPD2     H 2415   2.294   1.478   0.088 -0.4595 -0.5753  0.8559
  155MPD2    H1 2416   2.064   1.422  17.499  0.8329 -1.9230 -1.0259
  155MPD2    H2 2417   2.416   1.201  17.542 -0.7263 -1.8764  2.1555
  155MPD2    H3 2418   2.211   1.269  17.418 -1.0030 -0.5105 -0.3727
  155MPD2     N 2419   2.110   1.579  17.721 -0.1588 -0.6700 -0.2858
  155MPD2    H5 2420   2.116   1.606   0.055  0.2717  1.8893 -1.0193
  155MPD2    N1 2421   2.497   1.292   0.008  0.4002 -0.5291 -0.2292
  155MPD2    H7 2422   2.551   1.226  17.717  0.0470  1.1984 -2.6825
  156TMC2    C1 2423   0.421   3.163  11.645  0.8040  0.1355  0.7046
  156TMC2    C2 2424   0.311   3.084  11.670  0.0874 -0.5496 -0.8692
  156TMC2    C3 2425   0.191   3.131  11.628 -0.4103  0.2203 -0.3654
  156TMC2    C4 2426   0.406   3.281  11.589 -0.3520  0.5278 -0.1137
  156TMC2    C5 2427   0.283   3.326  11.558  0.0204 -0.2693 -0.2501
  156TMC2    C6 2428   0.170   3.259  11.584  0.1034  0.4688  0.6430
  156TMC2     C 2429   0.552   3.140  11.707  0.0763 -0.4062  0.2171
  156TMC2     O 2430   0.645   3.217  11.696 -0.8585 -0.3031  0.0338
  156TMC2     H 2431   0.322   2.996  11.732 -0.6256  0.4872  0.7543
  156TMC2    H1 2432   0.488   3.348  11.564  1.2377 -1.1662  0.4975
  156TMC2    H2 2433   0.072   3.294  11.552  0.2728  1.8578  1.5994
  156TMC2    C7 2434   0.278   3.466  11.582  0.2386  0.0285 -0.2706
  156TMC2    C8 2435   0.076   3.037  11.622  0.6719 -1.0347 -0.3902
  156TMC2    O1 2436   0.366   3.535  11.527  0.1999  0.2582  0.8102
  156TMC2    O2 2437   4.706   3.081  11.598  0.6064  0.5803 -1.0201
  156TMC2    O5 2438   0.132   2.917  11.589  0.2202 -0.2128  0.0228
  156TMC2    H5 2439   0.227   2.912  11.565 -0.0208 -2.0561 -0.5093
  157MPD2     C 2440   0.669   2.808  11.822  0.1179  0.3749  0.1996
  157MPD2    C1 2441   0.672   2.945  11.807 -0.2781 -0.2824 -0.1752
  157MPD2    C2 2442   0.784   3.018  11.846 -0.1612 -0.1135 -0.0588
  157MPD2    C3 2443   0.878   2.956  11.919 -0.6779 -0.9806  0.3592
  157MPD2    C4 2444   0.876   2.820  11.944 -0.0097 -0.1887  0.4490
  157MPD2    C5 2445   0.764   2.745  11.895  0.2443 -0.8954 -0.4583
  157MPD2     H 2446   0.792   3.124  11.827 -1.5524  0.4160  2.2726
  157MPD2    H1 2447   0.946   2.762  12.003  1.1145  0.9693  0.2474
  157MPD2    H2 2448   0.589   2.741  11.791  0.5421 -0.1217  0.1765
  157MPD2    H3 2449   0.744   2.644  11.928 -0.2351 -0.4219  0.6968
  157MPD2     N 2450   0.972   3.049  11.964  0.9849  0.6924 -0.3421
  157MPD2    H5 2451   0.956   3.146  11.939 -0.7769  0.8994  1.5315
  157MPD2    N1 2452   0.555   3.012  11.758  0.1026  0.0889  0.2165
  157MPD2    H7 2453   0.473   2.954  11.749 -1.8369  2.8658  0.2040
  158TMC2    C1 2454   1.550   1.471  13.475  0.2249 -0.3170  0.0095
  158TMC2    C2 2455   1.598   1.432  13.351  0.1543  0.2025 -0.0315
  158TMC2    C3 2456   1.548   1.495  13.247 -0.3901  0.0736  0.2820
  158TMC2    C4 2457   1.447   1.550  13.499  0.4674 -0.0261 -0.1370
  158TMC2    C5 2458   1.382   1.598  13.389 -0.1628  0.7713 -0.1530
  158TMC2    C6 2459   1.436   1.574  13.262  1.1001  0.8610 -0.0747
  158TMC2     C 2460   1.604   1.391  13.585  0.3607 -0.2569  0.9184
  158TMC2     O 2461   1.675   1.298  13.555 -0.3430  0.5983  0.2046
  158TMC2     H 2462   1.678   1.359  13.335 -1.3970 -1.5690  0.2858
  158TMC2    H1 2463   1.406   1.559  13.599 -2.0990  1.2495 -1.3042
  158TMC2    H2 2464   1.401   1.636  13.180 -2.4734 -1.0905 -0.0390
  158TMC2    C7 2465   1.240   1.639  13.385 -0.7545  0.9020 -0.3203
  158TMC2    C8 2466   1.616   1.489  13.127 -0.1530 -0.1814 -0.1812
  158TMC2    O1 2467   1.196   1.674  13.273  0.1199 -0.0534 -0.2649
  158TMC2    O2 2468   1.731   1.449  13.124  0.1464  0.6544  0.4632
  158TMC2    O5 2469   1.522   1.494  13.029 -0.3707 -0.4559  0.6875
  158TMC2    H5 2470   1.554   1.463  12.942  3.3968 -0.6900  2.1292
  159MPD2     C 2471   1.733   1.346  14.078 -0.0919 -0.0706 -0.2897
  159MPD2    C1 2472   1.627   1.432  14.079  0.4826 -0.1319 -0.5272
  159MPD2    C2 2473   1.585   1.471  13.950 -0.3983  0.3892  0.2313
  159MPD2    C3 2474   1.625   1.402  13.840 -0.7387 -0.6716 -0.2677
  159MPD2    C4 2475   1.716   1.300  13.850 -0.1009 -0.1181  0.0436
  159MPD2    C5 2476   1.779   1.282  13.966  0.3895 -0.7399  0.4612
  159MPD2     H 2477   1.514   1.553  13.944 -1.8760 -0.8484  0.7145
  159MPD2    H1 2478   1.746   1.239  13.766 -0.1188 -0.7703  0.5050
  159MPD2    H2 2479   1.799   1.319  14.160 -0.0250 -2.3053 -1.0808
  159MPD2    H3 2480   1.870   1.224  13.977  0.0877 -1.2150  0.4332
  159MPD2     N 2481   1.581   1.449  13.709  0.3911  0.5925  0.0868
  159MPD2    H5 2482   1.526   1.534  13.711 -1.0041 -0.2469 -3.1858
  159MPD2    N1 2483   1.577   1.478  14.197  0.1603  0.0335  0.6446
  159MPD2    H7 2484   1.610   1.428  14.279 -2.1686 -0.6613  1.1720
  160TMC2    C1 2485   1.731   0.576   1.232  0.1419 -0.0347  0.3100
  160TMC2    C2 2486   1.766   0.537   1.354  0.1404  0.5722  0.1904
  160TMC2    C3 2487   1.837   0.627   1.431  0.9481 -0.2661  0.3522
  160TMC2    C4 2488   1.763   0.689   1.171 -0.0266  0.5155 -0.5823
  160TMC2    C5 2489   1.831   0.781   1.252  0.1850  0.1628  0.0885
  160TMC2    C6 2490   1.859   0.753   1.384 -0.5605 -0.4027  0.0811
  160TMC2     C 2491   1.621   0.500   1.170  0.4944  0.1971 -0.5816
  160TMC2     O 2492   1.621   0.382   1.198 -0.3046  0.6640 -0.6265
  160TMC2     H 2493   1.753   0.433   1.380 -2.2692  0.5360 -1.2116
  160TMC2    H1 2494   1.735   0.711   1.069 -1.9659  1.1916  0.0916
  160TMC2    H2 2495   1.916   0.828   1.437 -1.3860  1.0471 -1.0687
  160TMC2    C7 2496   1.914   0.876   1.184  0.5969  0.7496 -0.1339
  160TMC2    C8 2497   1.846   0.616   1.577 -0.3164  0.9254 -1.0006
  160TMC2    O1 2498   1.929   0.983   1.241  0.6333  0.0552  0.1564
  160TMC2    O2 2499   1.892   0.704   1.646  0.1270 -0.3870 -0.2103
  160TMC2    O5 2500   1.747   0.535   1.611  0.4942 -0.1653  0.1113
  160TMC2    H5 2501   1.700   0.495   1.535  1.7801 -1.0161 -0.2449
  161MPD2     C 2502   1.341   0.422   1.170 -0.1120 -0.0584  0.3606
  161MPD2    C1 2503   1.382   0.552   1.147 -0.6240 -0.0663 -0.2505
  161MPD2    C2 2504   1.291   0.653   1.113  0.6599 -0.8793  0.2411
  161MPD2    C3 2505   1.154   0.628   1.110 -0.2225  0.1513  0.4703
  161MPD2    C4 2506   1.115   0.495   1.136 -0.3594 -0.6536  0.3893
  161MPD2    C5 2507   1.211   0.397   1.167 -0.3149 -0.0876 -0.0547
  161MPD2     H 2508   1.332   0.746   1.077 -1.5624 -0.0643 -0.1581
  161MPD2    H1 2509   1.010   0.467   1.131  0.0932 -2.5105  1.3598
  161MPD2    H2 2510   1.413   0.344   1.190  1.0672  1.6418  2.7335
  161MPD2    H3 2511   1.171   0.297   1.176 -0.2359 -0.0302  0.9360
  161MPD2     N 2512   1.055   0.720   1.068 -0.6725 -0.1262 -0.3914
  161MPD2    H5 2513   0.963   0.679   1.057 -0.7153  0.8756 -3.6690
  161MPD2    N1 2514   1.520   0.590   1.143  0.3004 -0.2323 -0.8288
  161MPD2    H7 2515   1.545   0.686   1.120 -1.0557  0.3192 -0.0034
  162TMC2    C1 2516   3.602   2.515   1.287 -0.6913  0.4969  0.5942
  162TMC2    C2 2517   3.499   2.538   1.370 -0.1412  0.1526  0.2391
  162TMC2    C3 2518   3.510   2.618   1.484 -0.7418 -0.2899  0.1558
  162TMC2    C4 2519   3.722   2.570   1.321  0.2114  0.1614 -0.0080
  162TMC2    C5 2520   3.735   2.650   1.435  0.0494 -0.5346  0.1189
  162TMC2    C6 2521   3.637   2.671   1.525  0.4017  0.4762  0.1895
  162TMC2     C 2522   3.594   2.446   1.164  0.3048 -0.2240  0.0795
  162TMC2     O 2523   3.700   2.397   1.121  0.3942  0.2658 -0.7831
  162TMC2     H 2524   3.415   2.470   1.364  0.5044 -0.8248  2.4048
  162TMC2    H1 2525   3.798   2.535   1.253  0.9615  2.1319 -0.1710
  162TMC2    H2 2526   3.656   2.723   1.618  2.2941 -1.5044  0.9125
  162TMC2    C7 2527   3.869   2.674   1.490  0.2852  0.6715  0.3473
  162TMC2    C8 2528   3.428   2.575   1.601  0.0258  0.2814 -0.7086
  162TMC2    O1 2529   3.884   2.767   1.564  0.5772  0.0678 -0.1198
  162TMC2    O2 2530   3.419   2.451   1.626  0.2495  0.1436  0.4047
  162TMC2    O5 2531   3.436   2.671   1.685  0.4760 -0.8146 -0.0165
  162TMC2    H5 2532   3.463   2.757   1.646 -0.7727 -0.5792 -0.3711
  163MPD2     C 2533   3.409   2.386   0.689 -0.1713  0.0937 -0.2603
  163MPD2    C1 2534   3.520   2.327   0.746 -0.3013  0.3979  0.2152
  163MPD2    C2 2535   3.536   2.336   0.885  0.0204  0.9900  0.3441
  163MPD2    C3 2536   3.443   2.406   0.961  0.0471  0.2132 -0.5983
  163MPD2    C4 2537   3.322   2.450   0.901 -0.3217  0.4655  0.1392
  163MPD2    C5 2538   3.307   2.432   0.765  0.0533  0.4372 -0.0424
  163MPD2     H 2539   3.630   2.305   0.929 -0.8631 -1.0712  0.7720
  163MPD2    H1 2540   3.245   2.504   0.954 -0.4311  0.4065  0.0409
  163MPD2    H2 2541   3.388   2.361   0.586  0.0984  1.1099 -0.5673
  163MPD2    H3 2542   3.211   2.454   0.720 -0.6790 -0.7774  0.8918
  163MPD2     N 2543   3.468   2.452   1.096 -0.1246  0.1952  0.2978
  163MPD2    H5 2544   3.395   2.510   1.136 -1.2940 -0.0684 -1.4502
  163MPD2    N1 2545   3.613   2.271   0.659 -0.5429  0.3407  0.1628
  163MPD2    H7 2546   3.601   2.277   0.558  0.6423  1.0870  0.0760
  164TMC2    C1 2547   4.039   0.941  11.215 -0.1879  0.0925  0.2777
  164TMC2    C2 2548   3.995   0.911  11.339  0.5100  0.2472  0.3100
  164TMC2    C3 2549   3.975   1.023  11.415 -0.2422  0.5133 -0.2028
  164TMC2    C4 2550   4.057   1.068  11.170  0.0985  0.2615 -0.0895
  164TMC2    C5 2551   4.020   1.169  11.253  0.2814  0.8060  0.0887
  164TMC2    C6 2552   3.971   1.153  11.373  0.3044 -0.8407 -0.2335
  164TMC2     C 2553   4.103   0.837  11.150  0.8375 -0.5949 -0.2472
  164TMC2     O 2554   4.083   0.723  11.191 -0.7800  0.1009  0.0891
  164TMC2     H 2555   4.004   0.812  11.382 -1.2646 -0.2236 -0.4294
  164TMC2    H1 2556   4.069   1.096  11.066  1.6067  2.0462  0.5525
  164TMC2    H2 2557   3.931   1.224  11.444 -1.8757 -0.4561 -1.8636
  164TMC2    C7 2558   3.974   1.290  11.195 -0.6577  0.1096  0.3503
  164TMC2    C8 2559   3.996   0.998  11.555  0.6843 -0.4550 -0.3227
  164TMC2    O1 2560   3.920   1.274  11.088 -0.1759 -0.0675  0.0332
  164TMC2    O2 2561   3.970   0.892  11.617  0.0678 -0.2144  0.5256
  164TMC2    O5 2562   4.052   1.109  11.610 -0.0900  0.1587 -0.1999
  164TMC2    H5 2563   4.111   1.161  11.551 -0.9158  0.3549 -0.8429
  165TMC2    C1 2564   0.861   0.196   1.485 -0.1392 -0.1776  0.1595
  165TMC2    C2 2565   0.841   0.265   1.605 -0.4393 -0.7009 -0.4162
  165TMC2    C3 2566   0.949   0.306   1.675  0.4115 -0.2395 -0.8442
  165TMC2    C4 2567   0.986   0.180   1.432 -0.3370 -0.2341 -0.6122
  165TMC2    C5 2568   1.092   0.233   1.501 -1.0191 -0.6927  0.4564
  165TMC2    C6 2569   1.079   0.286   1.627 -0.5540  0.1598  0.0890
  165TMC2     C 2570   0.752   0.171   1.399  0.3826 -0.4382  0.3737
  165TMC2     O 2571   0.744   0.069   1.332 -0.2931 -0.3441 -0.7377
  165TMC2     H 2572   0.742   0.281   1.647 -0.3495 -0.1258 -0.4245
  165TMC2    H1 2573   1.004   0.151   1.329  0.0715 -2.9223  0.2113
  165TMC2    H2 2574   1.160   0.332   1.683 -0.8811  0.6908  0.1283
  165TMC2    C7 2575   1.228   0.195   1.462 -0.1566  0.1014 -0.1090
  165TMC2    C8 2576   0.936   0.411   1.773  0.2398  0.1933 -0.6292
  165TMC2    O1 2577   1.314   0.272   1.498  0.5190 -0.5655  0.8487
  165TMC2    O2 2578   0.869   0.514   1.754 -0.0850 -0.3801 -0.4672
  165TMC2    O5 2579   1.004   0.368   1.878  0.0749 -0.5555  0.2319
  165TMC2    H5 2580   1.026   0.273   1.875  0.1456 -0.5518  0.7574
  166MPD2     C 2581   0.348   0.405   1.174  0.1021 -0.7454 -0.0924
  166MPD2    C1 2582   0.381   0.269   1.175 -0.4284 -0.7955  0.3806
  166MPD2    C2 2583   0.502   0.231   1.233 -0.2059 -0.2149 -0.2541
  166MPD2    C3 2584   0.570   0.319   1.311  0.2973 -0.2157  0.8588
  166MPD2    C4 2585   0.523   0.449   1.316 -0.8105  0.6236 -0.0866
  166MPD2    C5 2586   0.412   0.494   1.254  0.2091 -0.0668  0.3491
  166MPD2     H 2587   0.541   0.130   1.221 -0.8682 -0.5208  0.1372
  166MPD2    H1 2588   0.566   0.531   1.374 -1.5436  1.6263 -0.9535
  166MPD2    H2 2589   0.256   0.440   1.131  0.3839  1.0437  0.7658
  166MPD2    H3 2590   0.384   0.598   1.260 -0.6871 -0.3937  1.7540
  166MPD2     N 2591   0.684   0.289   1.390 -0.2210  0.4368  0.0856
  166MPD2    H5 2592   0.733   0.367   1.434  1.7858 -0.9034  0.2493
  166MPD2    N1 2593   0.290   0.169   1.117 -0.2627  0.1681  0.2398
  166MPD2    H7 2594   0.201   0.204   1.082 -0.3568 -0.8682 -0.5434
  167TMC2    C1 2595   3.653   2.016  12.256 -0.8076  0.1926  0.0348
  167TMC2    C2 2596   3.602   2.121  12.320  0.3995  0.3207 -0.1759
  167TMC2    C3 2597   3.590   2.114  12.457  0.7850  0.2695 -0.2657
  167TMC2    C4 2598   3.680   1.898  12.314 -0.0130 -0.0071 -0.8629
  167TMC2    C5 2599   3.668   1.890  12.453 -0.3264  0.0756 -0.1295
  167TMC2    C6 2600   3.617   1.992  12.526  1.0837 -1.2168 -0.1774
  167TMC2     C 2601   3.637   2.020  12.108 -0.4461 -0.4237 -0.3461
  167TMC2     O 2602   3.663   2.123  12.052 -0.2679 -0.6035 -0.6014
  167TMC2     H 2603   3.564   2.204  12.262 -1.2956 -0.5881 -0.3682
  167TMC2    H1 2604   3.714   1.813  12.257  4.1364  1.4414 -0.5804
  167TMC2    H2 2605   3.606   1.992  12.634  0.7565 -1.4424 -0.2099
  167TMC2    C7 2606   3.686   1.762  12.524 -0.3217 -0.1657  0.0409
  167TMC2    C8 2607   3.506   2.200  12.525  0.1973 -0.1132  0.1322
  167TMC2    O1 2608   3.632   1.755  12.638 -0.1753  0.1846  0.3487
  167TMC2    O2 2609   3.428   2.170  12.612  0.6052  0.1227 -0.4762
  167TMC2    O5 2610   3.519   2.323  12.470 -0.6663 -0.4392  1.0132
  167TMC2    H5 2611   3.595   2.332  12.408 -0.7147  0.2763  1.0613
  168MPD2     C 2612   3.695   1.929  11.839  0.0231 -0.6614 -0.1519
  168MPD2    C1 2613   3.603   1.865  11.924  0.0740 -0.5709  0.0672
  168MPD2    C2 2614   3.517   1.770  11.875 -0.5345  0.7692 -0.3944
  168MPD2    C3 2615   3.517   1.733  11.741 -0.5260  0.4388  0.6349
  168MPD2    C4 2616   3.613   1.794  11.661  0.3293  0.4190 -0.5108
  168MPD2    C5 2617   3.703   1.884  11.708 -0.1603  0.0252 -0.4470
  168MPD2     H 2618   3.455   1.723  11.950  0.1796 -1.5890 -1.2800
  168MPD2    H1 2619   3.611   1.771  11.555  0.2946 -2.2539  0.0600
  168MPD2    H2 2620   3.758   2.013  11.865  0.2658 -1.3410  1.4828
  168MPD2    H3 2621   3.773   1.934  11.642  0.1638 -0.3051 -0.3546
  168MPD2     N 2622   3.433   1.634  11.680  0.2951 -0.1613 -0.1311
  168MPD2    H5 2623   3.413   1.649  11.582 -2.2035  1.4046  0.6357
  168MPD2    N1 2624   3.588   1.906  12.056  0.0686 -0.2541  0.4716
  168MPD2    H7 2625   3.532   1.851  12.121 -1.9013 -0.2454 -1.2148
  169MPD1     C 2626   1.391   4.503   9.421  0.0224  0.2092 -0.6974
  169MPD1    C1 2627   1.405   4.619   9.351  1.1262 -0.3152  0.3730
  169MPD1    C2 2628   1.369   0.003   9.415  0.2181 -0.1742 -0.5680
  169MPD1    C3 2629   1.334   0.005   9.550 -0.9776  0.5638  0.1219
  169MPD1    C4 2630   1.331   4.628   9.620  0.1252  0.3575  0.3476
  169MPD1    C5 2631   1.362   4.507   9.555 -1.1368  0.4566  0.1855
  169MPD1     H 2632   1.350   0.095   9.362 -0.5694 -0.4560 -0.7787
  169MPD1    H1 2633   1.315   4.627   9.727 -0.0673  1.1789  0.3261
  169MPD1    H2 2634   1.408   4.407   9.375  1.0960  0.3568 -0.5974
  169MPD1    H3 2635   1.357   4.410   9.603  0.8697  0.1043 -0.2810
  169MPD1     N 2636   1.304   0.136   9.603  0.3995  0.5134  0.5206
  169MPD1    H5 2637   1.318   0.217   9.543 -1.7329  0.9922  0.6624
  169MPD1    N1 2638   1.413   4.615   9.209  0.5592  0.1620 -0.5477
  169MPD1    H6 2639   1.461   4.535   9.168  1.2482  0.2048  0.1741
  169MPD1    H7 2640   1.458   4.695   9.166  0.0901  0.6425 -0.1386
  170MPD1     C 2641   4.709   3.687  13.332  0.1890 -0.9540 -0.3429
  170MPD1    C1 2642   4.669   3.814  13.362  0.5766  0.1076  0.4023
  170MPD1    C2 2643   4.581   3.840  13.466 -0.0423  0.2762  0.4070
  170MPD1    C3 2644   4.522   3.736  13.529 -0.9107 -0.0873 -0.1841
  170MPD1    C4 2645   4.553   3.611  13.490 -0.2896  0.1176  0.0749
  170MPD1    C5 2646   4.644   3.588  13.393  0.3407 -0.5744  0.3200
  170MPD1     H 2647   4.559   3.945  13.479  1.5712  0.6193  0.3176
  170MPD1    H1 2648   4.500   3.531  13.540  0.1580 -0.8572 -1.0191
  170MPD1    H2 2649   0.043   3.657  13.260 -0.8661 -0.4369 -1.6486
  170MPD1    H3 2650   4.673   3.487  13.366 -1.4176 -1.0247  0.1085
  170MPD1     N 2651   4.433   3.775  13.632  0.4051 -0.8130  0.2166
  170MPD1    H5 2652   4.398   3.870  13.626  1.0254 -0.5734  0.4541
  170MPD1    N1 2653   0.005   3.923  13.312 -0.2035  0.0239 -0.9010
  170MPD1    H6 2654   0.041   3.911  13.217 -0.7872  2.5244 -1.4567
  170MPD1    H7 2655   4.706   4.017  13.313  3.0612  1.4103 -0.1398
  171MPD1     C 2656   3.182   0.598  15.583  0.0283 -0.1873 -1.5529
  171MPD1    C1 2657   3.092   0.489  15.578  1.2735 -0.5715  0.3916
  171MPD1    C2 2658   3.120   0.375  15.651  0.2032  0.0826 -0.4300
  171MPD1    C3 2659   3.240   0.354  15.714  0.6238 -0.0049 -0.3038
  171MPD1    C4 2660   3.322   0.465  15.719  0.0976  0.0852 -0.2510
  171MPD1    C5 2661   3.300   0.584  15.655  0.0672  0.4566 -0.0257
  171MPD1     H 2662   3.051   0.292  15.660 -1.3456  1.3696 -0.4683
  171MPD1    H1 2663   3.416   0.453  15.772 -1.3429 -1.9884  1.8524
  171MPD1    H2 2664   3.162   0.693  15.534 -3.2603  0.3803  0.9545
  171MPD1    H3 2665   3.369   0.667  15.661  1.1752 -0.4189 -0.5981
  171MPD1     N 2666   3.272   0.243  15.793  0.6524  0.1917  0.2493
  171MPD1    H5 2667   3.362   0.244  15.839  0.8218  1.7851 -0.1095
  171MPD1    N1 2668   2.964   0.517  15.526  0.5657  0.1667  0.3906
  171MPD1    H6 2669   2.966   0.585  15.451  0.7223  2.0897  2.1518
  171MPD1    H7 2670   2.919   0.434  15.487  0.9638 -0.0129  0.3091
  172MPD1     C 2671   2.414   4.198   0.830 -0.3549 -0.3803  0.9591
  172MPD1    C1 2672   2.364   4.258   0.721 -0.6391  0.1614  0.5535
  172MPD1    C2 2673   2.378   4.392   0.705  0.0277  0.0052 -0.7940
  172MPD1    C3 2674   2.433   4.474   0.804 -0.7314 -0.0590  0.2573
  172MPD1    C4 2675   2.474   4.418   0.918 -0.2331  0.4315  0.3940
  172MPD1    C5 2676   2.456   4.281   0.933 -0.3284  0.1247 -0.1465
  172MPD1     H 2677   2.362   4.430   0.605 -0.0912 -1.1144 -1.2000
  172MPD1    H1 2678   2.518   4.475   0.999 -0.0618  1.4121 -0.4026
  172MPD1    H2 2679   2.414   4.091   0.844  0.9442 -0.6593 -1.1037
  172MPD1    H3 2680   2.493   4.234   1.023  0.6635  1.1348 -0.0315
  172MPD1     N 2681   2.457   4.608   0.782 -0.7757 -0.1648  0.8319
  172MPD1    H5 2682   2.488   4.662   0.862  2.1690  0.1965 -0.5558
  172MPD1    N1 2683   2.325   4.176   0.614  0.0397  0.1274 -0.0785
  172MPD1    H6 2684   2.287   4.085   0.636 -0.0331  0.3016  0.5258
  172MPD1    H7 2685   2.252   4.223   0.561  0.0077 -0.6392 -0.7067
  173MPD1     C 2686   3.577   4.254  13.802  0.5268 -1.3487  0.6624
  173MPD1    C1 2687   3.676   4.173  13.845  0.2392  0.2378 -0.3440
  173MPD1    C2 2688   3.671   4.157  13.985 -0.5108 -0.2295  0.4001
  173MPD1    C3 2689   3.592   4.237  14.068  0.7652 -0.5921 -0.0862
  173MPD1    C4 2690   3.527   4.339  14.014  0.6038 -0.3948 -0.1759
  173MPD1    C5 2691   3.512   4.342  13.876  0.4595  0.3303  0.2294
  173MPD1     H 2692   3.723   4.078  14.040 -1.8866 -0.4315  1.4123
  173MPD1    H1 2693   3.476   4.412  14.076 -1.4189  0.0376 -2.3292
  173MPD1    H2 2694   3.557   4.266  13.696  1.9471 -2.6364  0.2503
  173MPD1    H3 2695   3.448   4.416  13.830  0.6874  0.9269  0.8583
  173MPD1     N 2696   3.603   4.210  14.207 -0.3898 -0.0240  0.4795
  173MPD1    H5 2697   3.670   4.140  14.239 -3.4755 -2.7777  0.9809
  173MPD1    N1 2698   3.743   4.078  13.761  0.5039  0.3134  0.5332
  173MPD1    H6 2699   3.759   4.119  13.669 -0.8164  0.4034  0.3406
  173MPD1    H7 2700   3.832   4.049  13.802  0.6938 -2.3153 -1.7453
  174MPD1     C 2701   4.000   3.541  14.815  0.1742  0.2358 -0.1990
  174MPD1    C1 2702   4.043   3.648  14.749  0.5895 -0.4893  0.0476
  174MPD1    C2 2703   3.957   3.738  14.688  0.9582 -0.4714 -0.2811
  174MPD1    C3 2704   3.821   3.719  14.692  0.8900 -0.5958  0.3260
  174MPD1    C4 2705   3.775   3.602  14.752 -0.2867 -0.6701  0.5217
  174MPD1    C5 2706   3.860   3.523  14.817  0.2242  0.1625 -0.3616
  174MPD1     H 2707   3.995   3.831  14.647  1.1854  0.1279  1.3133
  174MPD1    H1 2708   3.669   3.577  14.747 -0.7560  0.9233  2.6362
  174MPD1    H2 2709   4.063   3.469  14.865 -0.2074 -1.4171 -2.1104
  174MPD1    H3 2710   3.821   3.433  14.863  1.4638 -1.8830 -3.2890
  174MPD1     N 2711   3.726   3.811  14.642  0.1475 -0.1980 -1.0454
  174MPD1    H5 2712   3.627   3.792  14.652  0.6354 -1.8789  0.6628
  174MPD1    N1 2713   4.183   3.699  14.766  0.3010  0.1608  0.6221
  174MPD1    H6 2714   4.248   3.621  14.773  1.4235  1.1113  0.6745
  174MPD1    H7 2715   4.212   3.756  14.686 -1.9938  1.9638  1.0582
  175MPD1     C 2716   2.425   0.188  15.498 -0.3717  1.1087  0.6966
  175MPD1    C1 2717   2.319   0.100  15.508  0.3477 -0.1936  0.8347
  175MPD1    C2 2718   2.263   0.075  15.636  0.4982  0.1690 -0.0972
  175MPD1    C3 2719   2.317   0.128  15.752  0.2875  0.4237 -0.3716
  175MPD1    C4 2720   2.421   0.221  15.732  0.3162 -0.3893  0.5913
  175MPD1    C5 2721   2.482   0.244  15.609  0.0037  1.0108  0.0956
  175MPD1     H 2722   2.175   0.011  15.642  0.4322  0.2278 -0.4409
  175MPD1    H1 2723   2.469   0.271  15.815  2.0473 -0.8968 -0.1028
  175MPD1    H2 2724   2.480   0.203  15.406 -1.1044 -0.7607 -0.0443
  175MPD1    H3 2725   2.561   0.319  15.607  0.9227 -0.0004 -2.3135
  175MPD1     N 2726   2.268   0.106  15.887 -0.2668 -0.3902 -0.4942
  175MPD1    H5 2727   2.307   0.159  15.964 -1.7822  2.3022 -1.5898
  175MPD1    N1 2728   2.261   0.039  15.390 -0.3106  0.0495  0.6444
  175MPD1    H6 2729   2.241   0.100  15.311 -0.3464  0.5878  1.0746
  175MPD1    H7 2730   2.183   4.717  15.405 -0.8270  0.4053 -0.5556
  176MPD1     C 2731   3.175   2.072  17.474  0.1492  0.1752  1.4319
  176MPD1    C1 2732   3.126   2.186  17.417  0.3368 -0.3383 -0.2373
  176MPD1    C2 2733   3.186   2.303  17.449 -0.4901 -0.2148 -0.4212
  176MPD1    C3 2734   3.292   2.313  17.540  0.0940 -0.6693  0.5982
  176MPD1    C4 2735   3.357   2.198  17.570  0.8144 -0.0293  0.0957
  176MPD1    C5 2736   3.298   2.074  17.541 -0.9057  0.6556 -0.8834
  176MPD1     H 2737   3.147   2.397  17.413 -0.5901 -0.4268 -0.8792
  176MPD1    H1 2738   3.450   2.192  17.625  1.1202  0.1244 -0.4108
  176MPD1    H2 2739   3.128   1.975  17.459 -1.9679  1.1992  1.5392
  176MPD1    H3 2740   3.347   1.978  17.548  0.5762  1.5462  1.1743
  176MPD1     N 2741   3.340   2.446  17.572  0.0779  0.2775 -0.1382
  176MPD1    H5 2742   3.285   2.521  17.532  1.0609  0.7618 -0.5767
  176MPD1    N1 2743   3.018   2.167  17.339 -0.5149  0.5564 -0.2614
  176MPD1    H6 2744   2.983   2.072  17.342 -0.3182  0.5018  0.3050
  176MPD1    H7 2745   3.030   2.195  17.241 -1.1232 -1.3739 -0.8795
  177MPD1     C 2746   2.641   2.391   9.919  0.0109 -0.6562 -0.4175
  177MPD1    C1 2747   2.545   2.353  10.011  0.0613 -0.4236  0.1715
  177MPD1    C2 2748   2.444   2.264   9.974  0.3798  0.7135 -0.1933
  177MPD1    C3 2749   2.440   2.213   9.842  0.8134 -0.6923 -0.3221
  177MPD1    C4 2750   2.541   2.239   9.756 -0.3510  0.4010  0.5691
  177MPD1    C5 2751   2.641   2.327   9.797  1.0065 -0.5978  0.0650
  177MPD1     H 2752   2.363   2.236  10.040  0.2851 -0.4139 -0.7878
  177MPD1    H1 2753   2.557   2.193   9.660 -1.0459 -0.8248  1.0453
  177MPD1    H2 2754   2.718   2.459   9.952 -0.1861 -0.9900  0.7395
  177MPD1    H3 2755   2.719   2.344   9.724  1.6281  0.1472  0.9046
  177MPD1     N 2756   2.329   2.130   9.806 -0.4504  0.0092 -1.0110
  177MPD1    H5 2757   2.260   2.115   9.878 -2.1836 -0.4548 -2.7762
  177MPD1    N1 2758   2.536   2.419  10.131  0.0181 -0.1576  0.3289
  177MPD1    H6 2759   2.518   2.365  10.216 -0.6939 -0.7669 -0.2112
  177MPD1    H7 2760   2.630   2.457  10.142 -0.4279  1.1927 -0.5656
  178MPD1     C 2761   4.351   3.358   0.408 -0.7156  0.6348 -0.0389
  178MPD1    C1 2762   4.290   3.327   0.295  0.2861 -0.5936  0.0336
  178MPD1    C2 2763   4.361   3.321   0.178 -0.4132 -0.1871 -0.4073
  178MPD1    C3 2764   4.494   3.367   0.174  0.5036 -0.4868 -0.3332
  178MPD1    C4 2765   4.553   3.409   0.294 -0.3161  0.2454 -0.1884
  178MPD1    C5 2766   4.487   3.396   0.410  0.0799 -0.7081 -0.4374
  178MPD1     H 2767   4.314   3.297   0.083 -1.0885 -2.4397  0.4841
  178MPD1    H1 2768   4.659   3.433   0.300 -0.0261 -1.2988  0.7566
  178MPD1    H2 2769   4.300   3.350   0.503 -0.5272 -0.3502 -0.0234
  178MPD1    H3 2770   4.536   3.399   0.506  0.8611 -2.9868 -0.7818
  178MPD1     N 2771   4.576   3.366   0.059 -0.1952 -0.4095  0.4328
  178MPD1    H5 2772   4.676   3.383   0.070 -0.4226  0.1144  1.6487
  178MPD1    N1 2773   4.156   3.284   0.303  0.7068 -0.3750  0.3565
  178MPD1    H6 2774   4.102   3.334   0.373  4.6038 -0.0965  3.1224
  178MPD1    H7 2775   4.113   3.294   0.211  1.1530 -1.2145  0.0590
  179MPD1     C 2776   4.331   1.492  15.672 -0.4928  0.0248 -0.3453
  179MPD1    C1 2777   4.273   1.411  15.580 -0.8023  0.1297  0.1581
  179MPD1    C2 2778   4.250   1.284  15.622 -0.2013  1.0289  0.6343
  179MPD1    C3 2779   4.295   1.236  15.749  0.4137 -0.1858 -0.6716
  179MPD1    C4 2780   4.355   1.322  15.838  0.1032 -0.1294  0.5876
  179MPD1    C5 2781   4.372   1.454  15.799 -0.9611  0.0052 -0.1520
  179MPD1     H 2782   4.202   1.220  15.549  1.4102  1.3268 -0.6722
  179MPD1    H1 2783   4.386   1.289  15.937 -1.1237  0.0203  1.0115
  179MPD1    H2 2784   4.332   1.599  15.657 -0.7795  0.0500 -0.1957
  179MPD1    H3 2785   4.412   1.523  15.873  1.0096 -0.8574 -0.4091
  179MPD1     N 2786   4.286   1.100  15.786 -0.6508  0.1959  0.3993
  179MPD1    H5 2787   4.333   1.075  15.872  0.5965 -0.2785 -0.4334
  179MPD1    N1 2788   4.222   1.460  15.461  0.2284 -0.5595  0.1872
  179MPD1    H6 2789   4.201   1.383  15.397 -2.2163  0.7620 -0.5655
  179MPD1    H7 2790   4.288   1.517  15.408 -1.0202  0.7690  0.0830
  180MPD1     C 2791   4.429   2.268  15.368 -0.0435  0.4239 -0.4169
  180MPD1    C1 2792   4.419   2.223  15.237 -0.6565 -0.3222  0.5554
  180MPD1    C2 2793   4.294   2.237  15.173 -0.2727  1.0225  0.1660
  180MPD1    C3 2794   4.187   2.291  15.237  0.1073  0.0033 -0.4532
  180MPD1    C4 2795   4.194   2.315  15.374 -0.7554 -0.3614  0.3543
  180MPD1    C5 2796   4.319   2.306  15.438  0.2418  0.6050  0.8329
  180MPD1     H 2797   4.289   2.207  15.069 -1.3882 -0.5621  0.6802
  180MPD1    H1 2798   4.109   2.365  15.419 -0.3192 -0.5068  1.3537
  180MPD1    H2 2799   4.525   2.266  15.418 -0.3139 -2.7480 -0.0291
  180MPD1    H3 2800   4.327   2.339  15.541 -0.7815  1.4406  0.6527
  180MPD1     N 2801   4.074   2.302  15.157 -0.4471  0.1002 -0.1299
  180MPD1    H5 2802   4.080   2.257  15.066  0.1627 -0.9197  0.4237
  180MPD1    N1 2803   4.532   2.165  15.177 -1.3994 -0.2217  0.3219
  180MPD1    H6 2804   4.541   2.227  15.097 -1.2337 -1.6431 -0.7644
  180MPD1    H7 2805   4.617   2.185  15.228 -0.8418 -1.9545  0.0816
  181MPD1     C 2806   0.282   4.436  10.598 -0.1014  0.1718 -0.0727
  181MPD1    C1 2807   0.395   4.443  10.672  0.0888  0.9725 -0.0774
  181MPD1    C2 2808   0.512   4.421  10.609 -0.0820  0.1182 -0.0004
  181MPD1    C3 2809   0.518   4.397  10.474  0.0407 -0.2123 -0.3468
  181MPD1    C4 2810   0.410   4.390  10.397 -0.6599  0.2409  0.0383
  181MPD1    C5 2811   0.284   4.405  10.461  0.1716 -0.8447 -0.1637
  181MPD1     H 2812   0.596   4.443  10.675  0.0191 -0.5161  0.0864
  181MPD1    H1 2813   0.423   4.384  10.289 -2.0728 -1.9257 -0.0082
  181MPD1    H2 2814   0.185   4.455  10.642 -0.1717  2.0509 -1.0317
  181MPD1    H3 2815   0.187   4.393  10.414  0.5007  0.2505 -1.1612
  181MPD1     N 2816   0.641   4.388  10.404  0.3328 -0.2524 -0.5581
  181MPD1    H5 2817   0.626   4.366  10.306  1.4190  0.7699 -0.9595
  181MPD1    N1 2818   0.392   4.506  10.794  0.6311  0.0483  0.4227
  181MPD1    H6 2819   0.464   4.468  10.856 -0.7789 -0.2311  1.8825
  181MPD1    H7 2820   0.307   4.523  10.848 -0.4042  1.8785 -1.8019
  182MPD1     C 2821   2.304   2.476   0.903  0.0981  0.5770  0.0945
  182MPD1    C1 2822   2.195   2.483   0.819 -0.0760  0.0831  0.2925
  182MPD1    C2 2823   2.159   2.604   0.763  0.4982 -0.1119  0.3381
  182MPD1    C3 2824   2.246   2.714   0.773 -0.2561 -0.4904 -0.1567
  182MPD1    C4 2825   2.348   2.704   0.861  0.0753 -0.5663 -0.2569
  182MPD1    C5 2826   2.385   2.585   0.919 -0.4222  0.0657  0.5433
  182MPD1     H 2827   2.066   2.604   0.707 -0.4875 -0.7286  1.9868
  182MPD1    H1 2828   2.412   2.791   0.872 -0.1617 -0.2542 -1.3861
  182MPD1    H2 2829   2.340   2.385   0.949  0.6499  1.1761  0.8527
  182MPD1    H3 2830   2.466   2.576   0.990 -0.4093  0.1230  0.5354
  182MPD1     N 2831   2.228   2.844   0.711  0.3612  0.0835 -0.6761
  182MPD1    H5 2832   2.288   2.917   0.745  0.1016 -1.1856  2.5198
  182MPD1    N1 2833   2.115   2.366   0.820 -0.2929  0.1731 -0.2167
  182MPD1    H6 2834   2.074   2.337   0.732 -0.6767  3.0076 -0.9818
  182MPD1    H7 2835   2.172   2.286   0.843  0.8070  0.9538 -0.2258
  183MPD1     C 2836   2.331   3.509   9.530  0.8287  0.4697  0.5646
  183MPD1    C1 2837   2.217   3.445   9.578  0.3796 -0.8708 -0.2487
  183MPD1    C2 2838   2.140   3.504   9.672  0.1984 -0.6016 -0.2046
  183MPD1    C3 2839   2.187   3.619   9.733  0.4203 -0.7352  0.3143
  183MPD1    C4 2840   2.302   3.681   9.687  0.2925  0.3484  0.0501
  183MPD1    C5 2841   2.375   3.628   9.587 -0.6001  0.4755 -0.1092
  183MPD1     H 2842   2.045   3.456   9.692  1.2664 -0.6698  4.7637
  183MPD1    H1 2843   2.336   3.774   9.731  0.9096 -0.0842  0.4829
  183MPD1    H2 2844   2.390   3.476   9.445 -0.1215  2.0598 -0.7053
  183MPD1    H3 2845   2.472   3.671   9.567 -0.4613 -0.6594 -1.9552
  183MPD1     N 2846   2.103   3.680   9.821 -0.5346 -0.4537  0.3522
  183MPD1    H5 2847   2.017   3.629   9.836 -0.0582 -1.2174  0.4509
  183MPD1    N1 2848   2.164   3.340   9.500 -0.8903 -0.5160 -0.5372
  183MPD1    H6 2849   2.223   3.273   9.451  0.4828 -0.0132  0.4379
  183MPD1    H7 2850   2.084   3.287   9.535 -0.0303 -1.2982  0.2482
  184MPD1     C 2851   0.409   2.233  10.116  0.8343  0.1505 -0.4408
  184MPD1    C1 2852   0.366   2.104  10.099 -0.0012  0.1701 -0.5133
  184MPD1    C2 2853   0.442   2.019  10.031 -0.3793  0.2395 -0.4954
  184MPD1    C3 2854   0.573   2.049   9.993 -0.5157  0.0984  0.4205
  184MPD1    C4 2855   0.616   2.185  10.014  0.1331 -0.0045 -0.5409
  184MPD1    C5 2856   0.535   2.268  10.080 -1.0506  0.4050 -0.7491
  184MPD1     H 2857   0.388   1.932   9.995 -0.2993 -0.0073 -0.0176
  184MPD1    H1 2858   0.713   2.214   9.976  0.0607  0.1427 -0.6147
  184MPD1    H2 2859   0.357   2.305  10.178  0.9553 -1.0175  1.0069
  184MPD1    H3 2860   0.564   2.372  10.094  0.8840 -0.2482  0.0921
  184MPD1     N 2861   0.662   1.958   9.925 -0.0802 -0.3960 -0.1793
  184MPD1    H5 2862   0.750   1.999   9.896  0.4075 -1.0853  0.3123
  184MPD1    N1 2863   0.236   2.071  10.130  0.1641 -0.2172 -0.0384
  184MPD1    H6 2864   0.195   2.124  10.208 -1.9035  0.5053 -1.6078
  184MPD1    H7 2865   0.212   1.973  10.125 -1.2675  0.1504 -0.3763
  185MPD1     C 2866   0.464   1.122   9.393 -0.7840  0.4489 -0.3258
  185MPD1    C1 2867   0.565   1.190   9.326  0.1703  0.5496 -0.3963
  185MPD1    C2 2868   0.636   1.297   9.385 -0.3700  0.0831  0.1964
  185MPD1    C3 2869   0.606   1.330   9.516 -0.5859 -0.5769 -0.1500
  185MPD1    C4 2870   0.508   1.266   9.586 -0.1722  0.0325  0.3914
  185MPD1    C5 2871   0.436   1.162   9.518  0.7854 -0.0604 -0.3605
  185MPD1     H 2872   0.726   1.334   9.338  0.7852 -1.5683  1.0696
  185MPD1    H1 2873   0.484   1.289   9.690  1.8065  1.8829  0.4143
  185MPD1    H2 2874   0.425   1.028   9.357 -0.7565  0.2856  0.0669
  185MPD1    H3 2875   0.359   1.109   9.572 -1.4181  1.1835 -2.2827
  185MPD1     N 2876   0.662   1.440   9.578  0.0357  0.2626  0.2878
  185MPD1    H5 2877   0.614   1.465   9.665 -0.7099  2.2811 -0.7155
  185MPD1    N1 2878   0.616   1.123   9.216 -0.4450 -0.5661  0.9548
  185MPD1    H6 2879   0.557   1.073   9.150  0.0722  0.2030 -0.1012
  185MPD1    H7 2880   0.677   1.179   9.157 -0.2462  0.7350  2.3825
  186MPD1     C 2881   4.540   2.385  15.934  0.0678 -0.1032  0.2785
  186MPD1    C1 2882   4.437   2.368  16.017 -0.3072  0.5172  0.4558
  186MPD1    C2 2883   4.444   2.263  16.103  0.0449 -0.3051  0.2195
  186MPD1    C3 2884   4.541   2.165  16.092 -0.2900 -0.3097  0.8232
  186MPD1    C4 2885   4.637   2.177  15.993  0.0308  0.4178 -0.0784
  186MPD1    C5 2886   4.639   2.291  15.921 -0.2377  0.5649  0.0483
  186MPD1     H 2887   4.367   2.261  16.179  0.0742 -2.2816  0.1952
  186MPD1    H1 2888   4.721   2.111  15.976 -0.1830  0.3327 -0.8021
  186MPD1    H2 2889   4.528   2.460  15.857 -0.3227 -0.8144 -0.3647
  186MPD1    H3 2890   4.716   2.297  15.845 -2.0828 -2.2842 -2.0659
  186MPD1     N 2891   4.551   2.046  16.171  0.2137  0.5358 -0.0240
  186MPD1    H5 2892   4.621   1.976  16.149  0.1283  0.5767 -0.4242
  186MPD1    N1 2893   4.335   2.463  16.026 -0.4778  0.5815 -0.1394
  186MPD1    H6 2894   4.252   2.423  16.069  0.5344 -1.1963  0.1774
  186MPD1    H7 2895   4.305   2.492  15.933  0.1751  1.6162 -0.0211
  187MPD1     C 2896   3.523   3.632   0.381  0.2798  0.5832 -0.2769
  187MPD1    C1 2897   3.549   3.500   0.348 -0.0224  0.1004  0.3231
  187MPD1    C2 2898   3.549   3.476   0.212 -0.8612 -0.0462  0.7070
  187MPD1    C3 2899   3.528   3.574   0.115  0.4258  0.0964  0.6549
  187MPD1    C4 2900   3.502   3.699   0.155 -0.5758 -0.1425 -0.0859
  187MPD1    C5 2901   3.500   3.733   0.287 -0.5840  0.2608  0.1951
  187MPD1     H 2902   3.575   3.374   0.184  1.9750  0.9182 -0.1870
  187MPD1    H1 2903   3.468   3.774   0.085 -2.4219  0.4729  1.4858
  187MPD1    H2 2904   3.504   3.666   0.482 -0.1522  0.5564 -0.3508
  187MPD1    H3 2905   3.460   3.830   0.315 -0.6509  1.0434 -2.6170
  187MPD1     N 2906   3.555   3.549  17.744  0.0267  0.3143  0.5941
  187MPD1    H5 2907   3.547   3.629  17.683  3.2730  0.1324 -0.0769
  187MPD1    N1 2908   3.590   3.406   0.443  0.2334  0.4273 -0.0083
  187MPD1    H6 2909   3.550   3.313   0.428 -1.0514  0.8126  0.9950
  187MPD1    H7 2910   3.558   3.420   0.539  0.0399 -0.9334  0.1339
  188MPD1     C 2911   3.331   2.255  10.106 -0.4723  0.9394  0.7622
  188MPD1    C1 2912   3.321   2.290   9.972  0.7736  0.4298  0.3644
  188MPD1    C2 2913   3.297   2.193   9.878  0.6562  0.7660 -0.4460
  188MPD1    C3 2914   3.296   2.059   9.911 -0.4583 -0.5068  0.0299
  188MPD1    C4 2915   3.300   2.025  10.044  0.5207 -0.1035  0.1611
  188MPD1    C5 2916   3.322   2.123  10.143  0.1621 -0.1766 -0.3161
  188MPD1     H 2917   3.298   2.220   9.773 -1.9863  1.3344 -0.3255
  188MPD1    H1 2918   3.310   1.917  10.058 -1.5893 -0.5039 -1.5071
  188MPD1    H2 2919   3.327   2.328  10.186 -3.8511  1.2128  0.3135
  188MPD1    H3 2920   3.319   2.099  10.249  2.1020  1.0178  0.0109
  188MPD1     N 2921   3.316   1.958   9.817 -0.2415 -0.4060  0.0589
  188MPD1    H5 2922   3.317   1.862   9.850  4.0669 -1.0739 -1.9697
  188MPD1    N1 2923   3.312   2.425   9.946  1.2258 -0.4911 -0.1912
  188MPD1    H6 2924   3.347   2.465   9.859 -1.6396  2.5620  0.0527
  188MPD1    H7 2925   3.358   2.479  10.019  2.2725  0.2305 -1.3865
  189MPD1     C 2926   1.333   4.613   0.613  0.3369 -0.5099 -0.2113
  189MPD1    C1 2927   1.212   4.533   0.627  0.2348  0.0368  0.1475
  189MPD1    C2 2928   1.089   4.599   0.636  0.0100 -0.7602  0.4120
  189MPD1    C3 2929   1.070   4.733   0.612  0.0126  0.6995 -0.2885
  189MPD1    C4 2930   1.186   0.064   0.599  0.5907 -0.2773  0.8098
  189MPD1    C5 2931   1.312   0.011   0.609 -0.1211  0.3379 -0.3702
  189MPD1     H 2932   1.001   4.538   0.654  0.5176 -1.7774 -0.5201
  189MPD1    H1 2933   1.174   0.167   0.567  0.6306 -0.7336 -0.6673
  189MPD1    H2 2934   1.433   4.571   0.611  0.0616 -1.1810  0.1605
  189MPD1    H3 2935   1.391   0.085   0.607 -0.0222  0.2527  0.2084
  189MPD1     N 2936   0.937   0.033   0.595 -0.3054 -0.2836 -0.3721
  189MPD1    H5 2937   0.869   4.700   0.583  1.0004 -1.5789  0.3001
  189MPD1    N1 2938   1.225   4.391   0.643 -0.6846  0.0466 -0.3178
  189MPD1    H6 2939   1.132   4.350   0.648 -1.9131  2.9681  1.1120
  189MPD1    H7 2940   1.270   4.353   0.560 -0.6262  0.2296 -0.3701
  190MPD1     C 2941   3.990   2.850  15.889 -0.3232  0.1429 -0.5737
  190MPD1    C1 2942   4.026   2.811  16.016  0.6500 -0.1559 -0.2241
  190MPD1    C2 2943   4.157   2.778  16.031  0.7303 -0.3696  0.4322
  190MPD1    C3 2944   4.247   2.778  15.926  0.7421 -0.2446 -0.6463
  190MPD1    C4 2945   4.209   2.805  15.798  0.2445 -0.2176 -0.2363
  190MPD1    C5 2946   4.080   2.845  15.784 -0.5878  0.1596  0.1019
  190MPD1     H 2947   4.180   2.739  16.129 -2.2342 -0.2524  1.1913
  190MPD1    H1 2948   4.273   2.811  15.711  0.6483 -0.1435  0.0662
  190MPD1    H2 2949   3.886   2.882  15.882  0.0123  0.8202 -2.7199
  190MPD1    H3 2950   4.061   2.874  15.681  0.4076 -0.7022 -0.3216
  190MPD1     N 2951   4.382   2.753  15.961  0.0930  0.2400  0.5211
  190MPD1    H5 2952   4.398   2.721  16.056 -1.5121 -0.0275  0.6952
  190MPD1    N1 2953   3.930   2.799  16.117  0.0764 -0.0934  0.0878
  190MPD1    H6 2954   3.973   2.833  16.203 -0.2094  1.1175 -0.2447
  190MPD1    H7 2955   3.848   2.859  16.110 -1.0775 -1.5396  1.2911
  191MPD1     C 2956   3.253   4.619  13.112 -0.0420 -0.0152 -0.5389
  191MPD1    C1 2957   3.366   4.568  13.066  0.3722  0.3177  0.1315
  191MPD1    C2 2958   3.428   4.642  12.971  0.0222  0.0520 -0.0112
  191MPD1    C3 2959   3.365   0.017  12.918  0.5575  0.1622 -0.4829
  191MPD1    C4 2960   3.241   0.067  12.970  0.2175 -0.0044  0.9755
  191MPD1    C5 2961   3.194   4.733  13.070  0.0891 -0.5677 -0.2807
  191MPD1     H 2962   3.524   4.601  12.942  0.6714  1.2099  0.4982
  191MPD1    H1 2963   3.187   0.158  12.943  1.5523 -0.3077 -2.8045
  191MPD1    H2 2964   3.193   4.568  13.187  0.4535  0.9410  0.5112
  191MPD1    H3 2965   3.105   0.029  13.120  0.0731  1.4042 -1.7947
  191MPD1     N 2966   3.435   0.092  12.820 -0.4413  0.6217 -0.4880
  191MPD1    H5 2967   3.521   0.051  12.785 -0.9241  0.2787 -1.2789
  191MPD1    N1 2968   3.437   4.479  13.146 -0.2778 -0.0055 -0.0325
  191MPD1    H6 2969   3.495   4.435  13.075  0.3076 -0.5311  0.7686
  191MPD1    H7 2970   3.378   4.411  13.194 -1.0301  0.1439 -0.7420
  192MPD1     C 2971   3.350   0.416  11.803  0.0545 -0.0947 -0.1452
  192MPD1    C1 2972   3.302   0.494  11.908  0.0929  0.8528  0.4069
  192MPD1    C2 2973   3.345   0.459  12.038  0.2439 -0.0229 -0.1231
  192MPD1    C3 2974   3.438   0.359  12.063  0.2057  0.7164  0.1739
  192MPD1    C4 2975   3.482   0.289  11.955 -0.2073  1.1154 -0.7802
  192MPD1    C5 2976   3.438   0.315  11.834 -0.0388 -0.5426 -0.2307
  192MPD1     H 2977   3.298   0.522  12.113 -0.5084 -1.1671  0.3804
  192MPD1    H1 2978   3.549   0.206  11.972 -3.5258 -2.0968 -3.3236
  192MPD1    H2 2979   3.330   0.434  11.697 -0.4495  0.3928  0.0288
  192MPD1    H3 2980   3.487   0.263  11.753 -0.1468 -0.5458 -0.2940
  192MPD1     N 2981   3.470   0.308  12.192 -0.7083 -0.0627  0.8812
  192MPD1    H5 2982   3.548   0.243  12.193 -0.3549  0.3567  0.5387
  192MPD1    N1 2983   3.208   0.603  11.893  0.2044 -0.5394 -0.0417
  192MPD1    H6 2984   3.200   0.681  11.958 -2.1373 -1.9285  1.3354
  192MPD1    H7 2985   3.220   0.644  11.800 -0.0359  1.0822  0.6431
  193MPD1     C 2986   3.093   4.597  16.367  0.0328 -0.0328 -0.1121
  193MPD1    C1 2987   3.067   4.725  16.397  0.3032 -0.1156 -0.4235
  193MPD1    C2 2988   3.155   0.057  16.473 -0.0580 -0.5617  0.2736
  193MPD1    C3 2989   3.259   4.733  16.546 -0.3734 -0.8152  0.3917
  193MPD1    C4 2990   3.259   4.596  16.534 -0.5191  0.3398 -0.3535
  193MPD1    C5 2991   3.186   4.529  16.437 -0.9387  0.6964  0.3743
  193MPD1     H 2992   3.150   0.165  16.471  0.5046 -0.5505 -0.3598
  193MPD1    H1 2993   3.336   4.535  16.580 -0.4071  1.7638  1.3677
  193MPD1    H2 2994   3.029   4.539  16.302  0.2447 -0.2995 -0.0842
  193MPD1    H3 2995   3.215   4.428  16.408  0.3182  1.6491 -1.6730
  193MPD1     N 2996   3.369   0.066  16.610 -0.1004 -0.2077  0.3078
  193MPD1    H5 2997   3.444   0.006  16.642 -0.2020 -0.3570  0.2667
  193MPD1    N1 2998   2.971   0.056  16.325 -0.1377 -0.0913  0.1817
  193MPD1    H6 2999   2.925   0.125  16.384  0.1931 -2.5701  3.3256
  193MPD1    H7 3000   2.903   0.000  16.274 -0.5866  1.6842 -1.1463
  194MPD1     C 3001   1.072   2.458  16.784 -0.9015  0.1693 -0.0210
  194MPD1    C1 3002   1.071   2.374  16.678  0.2315  0.5992 -0.5979
  194MPD1    C2 3003   1.087   2.235  16.697  0.3436 -0.5876 -0.3415
  194MPD1    C3 3004   1.115   2.187  16.825  0.1620 -0.7576  0.3693
  194MPD1    C4 3005   1.113   2.280  16.929 -0.0777 -0.0894  0.1396
  194MPD1    C5 3006   1.090   2.411  16.912 -0.5152  0.9375  0.0497
  194MPD1     H 3007   1.075   2.169  16.613  0.0065 -1.5582  0.4670
  194MPD1    H1 3008   1.133   2.239  17.028  2.7560  1.5293  0.2424
  194MPD1    H2 3009   1.063   2.565  16.766 -0.7529 -0.0432 -1.4288
  194MPD1    H3 3010   1.093   2.485  16.991 -1.4443  1.0211  0.0155
  194MPD1     N 3011   1.125   2.051  16.856 -0.1711 -0.5233  0.4000
  194MPD1    H5 3012   1.141   2.036  16.955 -1.9857 -1.0629  0.6036
  194MPD1    N1 3013   1.030   2.428  16.556  0.0755  0.5641  0.2539
  194MPD1    H6 3014   1.079   2.513  16.532  0.3108  0.0479 -1.1160
  194MPD1    H7 3015   1.046   2.361  16.480  0.4084  1.9695 -0.9158
  195MPD1     C 3016   3.054   4.514   0.011  0.0730 -0.4282  0.0632
  195MPD1    C1 3017   3.005   4.461   0.126  0.1197 -0.9337 -0.3933
  195MPD1    C2 3018   3.025   4.330   0.156  0.0465 -0.6276  0.6848
  195MPD1    C3 3019   3.091   4.245   0.067 -0.0912 -0.4636  0.4270
  195MPD1    C4 3020   3.135   4.296  17.716  0.6844  0.1195 -0.2011
  195MPD1    C5 3021   3.120   4.430  17.692 -0.3431  0.1855 -0.7072
  195MPD1     H 3022   2.974   4.279   0.237 -1.9633  0.0821 -0.1345
  195MPD1    H1 3023   3.178   4.241  17.633  1.4065 -1.3097  1.1280
  195MPD1    H2 3024   3.028   4.611  17.734  2.2258 -0.0420 -0.4178
  195MPD1    H3 3025   3.145   4.458  17.590  2.0823 -0.1170 -0.1924
  195MPD1     N 3026   3.117   4.105   0.090 -0.1306 -0.2599  0.7768
  195MPD1    H5 3027   3.153   4.053   0.011  1.7817 -0.8446  2.0319
  195MPD1    N1 3028   2.925   4.550   0.203 -0.3056  0.2520 -0.6891
  195MPD1    H6 3029   2.921   4.534   0.303 -2.2326  0.5718 -0.7187
  195MPD1    H7 3030   2.958   4.645   0.188  0.3646  0.1519  0.1821
  196MPD1     C 3031   2.905   3.081   0.578 -0.7345 -0.0418 -0.3298
  196MPD1    C1 3032   2.940   3.212   0.570  0.5571 -0.4799 -0.4937
  196MPD1    C2 3033   2.997   3.271   0.679  0.1938 -0.0802 -0.2173
  196MPD1    C3 3034   3.019   3.202   0.798 -0.1617  0.6532  0.4848
  196MPD1    C4 3035   2.976   3.069   0.803  0.8847 -0.2151 -0.6464
  196MPD1    C5 3036   2.927   3.011   0.692  0.3134  0.2944  0.6783
  196MPD1     H 3037   3.030   3.374   0.671 -1.1001  0.3475 -0.0169
  196MPD1    H1 3038   2.974   3.012   0.895  2.1340 -3.3366 -2.5704
  196MPD1    H2 3039   2.866   3.015   0.501  1.3072 -1.4315 -0.1705
  196MPD1    H3 3040   2.885   2.911   0.699 -1.7489  1.1195  0.1711
  196MPD1     N 3041   3.077   3.260   0.915  0.5297  0.3652  1.0910
  196MPD1    H5 3042   3.097   3.200   0.995 -0.4374 -0.3634  0.7892
  196MPD1    N1 3043   2.904   3.285   0.454 -0.0823 -0.0423  0.7799
  196MPD1    H6 3044   2.903   3.226   0.372 -2.8420  0.2317  0.6218
  196MPD1    H7 3045   2.960   3.367   0.432  2.0045 -1.7944 -0.3695
  197MPD1     C 3046   1.807   4.566  17.700 -0.3292  0.0418  0.0944
  197MPD1    C1 3047   1.919   4.621   0.000 -0.5469 -0.6458  0.5361
  197MPD1    C2 3048   1.987   4.716  17.695  0.9634 -0.3807  0.7509
  197MPD1    C3 3049   1.949   0.026  17.573  0.8715  0.5363 -0.3098
  197MPD1    C4 3050   1.847   4.704  17.507 -0.6197 -0.0491 -0.0027
  197MPD1    C5 3051   1.772   4.605  17.569 -0.2964 -0.3986  0.6597
  197MPD1     H 3052   2.079   0.008  17.742  0.8173 -0.6421  1.2177
  197MPD1    H1 3053   1.810   0.004  17.414  1.5320 -3.3855 -2.3251
  197MPD1    H2 3054   1.753   4.493  17.758  2.9985 -2.8719 -0.5021
  197MPD1    H3 3055   1.685   4.565  17.519  0.3075 -0.4363 -0.3559
  197MPD1     N 3056   2.018   0.131  17.507  0.7292  0.5629  0.1639
  197MPD1    H5 3057   1.987   0.154  17.414  1.2689 -0.9745 -0.3954
  197MPD1    N1 3058   1.954   4.594   0.135  0.6995 -0.1373 -1.5387
  197MPD1    H6 3059   1.913   4.513   0.180 -0.7005  0.0374 -2.4975
  197MPD1    H7 3060   2.051   4.600   0.165  0.5861 -1.1974 -0.9414
  198MPD1     C 3061   3.305   3.667  15.842  0.4028  0.2541  0.5294
  198MPD1    C1 3062   3.339   3.663  15.708  0.3765  0.2844 -0.3962
  198MPD1    C2 3063   3.475   3.648  15.682  0.3145  0.1167 -0.4341
  198MPD1    C3 3064   3.570   3.659  15.781  0.5144  0.2743  0.0062
  198MPD1    C4 3065   3.531   3.686  15.910  0.0408  0.3287 -0.3753
  198MPD1    C5 3066   3.398   3.685  15.933 -0.5118  0.0675 -0.5444
  198MPD1     H 3067   3.511   3.620  15.584 -2.5207 -0.6112 -1.2529
  198MPD1    H1 3068   3.592   3.700  15.998 -1.4392  1.1864  0.5166
  198MPD1    H2 3069   3.201   3.657  15.873  0.5916 -1.8100  0.4299
  198MPD1    H3 3070   3.368   3.698  16.036  0.6929  1.3936 -0.3524
  198MPD1     N 3071   3.703   3.640  15.743  0.4868 -0.2972  0.2439
  198MPD1    H5 3072   3.732   3.612  15.650  1.4463  0.6469  0.2688
  198MPD1    N1 3073   3.237   3.622  15.616  0.2856 -0.6326 -0.8216
  198MPD1    H6 3074   3.268   3.654  15.525 -1.3553 -1.8185 -1.7718
  198MPD1    H7 3075   3.152   3.675  15.633 -0.5180 -2.1727 -0.0761
  199MPD1     C 3076   0.173   0.234  11.077  0.0869 -0.1005 -0.0135
  199MPD1    C1 3077   0.131   0.113  11.019 -0.0703 -0.3100  0.0815
  199MPD1    C2 3078   0.140   0.092  10.882  0.3269 -0.4307  0.0828
  199MPD1    C3 3079   0.204   0.186  10.799  0.2248  0.1116 -0.6480
  199MPD1    C4 3080   0.252   0.297  10.862  0.8221  0.5193  0.4082
  199MPD1    C5 3081   0.230   0.325  10.992 -0.0743 -0.0604 -0.7718
  199MPD1     H 3082   0.111   4.738  10.841  0.7899 -0.8440  0.7151
  199MPD1    H1 3083   0.304   0.379  10.813  1.0342 -0.7714 -1.5154
  199MPD1    H2 3084   0.174   0.247  11.184 -1.3312 -1.0235  0.1208
  199MPD1    H3 3085   0.264   0.419  11.033 -1.3050  0.6881 -1.4712
  199MPD1     N 3086   0.241   0.166  10.663 -0.5561  0.5711 -0.1254
  199MPD1    H5 3087   0.301   0.232  10.615 -0.8747  0.3660 -0.8026
  199MPD1    N1 3088   0.070   0.017  11.097  0.1895 -0.3715 -0.1708
  199MPD1    H6 3089   0.105   4.665  11.074  0.3548 -0.1619 -0.7716
  199MPD1    H7 3090   0.084   0.027  11.198  1.1454  1.0589 -0.4361
  200MPD1     C 3091   0.160   0.097  15.145  0.2022  0.4637 -0.1975
  200MPD1    C1 3092   0.101   0.004  15.075 -0.0228 -0.1992 -0.1852
  200MPD1    C2 3093   0.166   4.698  14.962 -0.3834 -0.0920  0.0065
  200MPD1    C3 3094   0.291   0.008  14.929  0.3043 -0.2130  0.4260
  200MPD1    C4 3095   0.353   0.105  15.008  0.1966  0.4170 -0.4915
  200MPD1    C5 3096   0.281   0.148  15.111 -0.3992 -0.2625  0.1851
  200MPD1     H 3097   0.121   4.632  14.888 -1.0237 -0.6988  0.9463
  200MPD1    H1 3098   0.450   0.142  14.977  0.4977  1.0672  1.2120
  200MPD1    H2 3099   0.110   0.137  15.232 -0.2138 -2.4147  0.9179
  200MPD1    H3 3100   0.309   0.240  15.161 -0.4830 -1.2143  1.9934
  200MPD1     N 3101   0.358   4.699  14.818 -0.2707 -0.4889 -0.1910
  200MPD1    H5 3102   0.293   4.644  14.764  1.1929 -1.0325 -1.4025
  200MPD1    N1 3103   4.732   4.680  15.110  0.2404 -0.2398 -0.1871
  200MPD1    H6 3104   4.682   4.652  15.026 -1.6083  2.4480  0.0295
  200MPD1    H7 3105   4.671   0.011  15.147  0.8377  0.4392 -0.5519
  201MPD1     C 3106   1.890   3.419  13.213 -0.1379 -0.1470  0.0532
  201MPD1    C1 3107   1.844   3.402  13.339  0.3609  0.2000  0.3380
  201MPD1    C2 3108   1.933   3.372  13.438 -0.2140 -0.9447 -0.2775
  201MPD1    C3 3109   2.067   3.353  13.408  0.3102  0.3959 -0.4080
  201MPD1    C4 3110   2.112   3.352  13.276  0.6596  0.7535 -0.5350
  201MPD1    C5 3111   2.022   3.389  13.188 -0.1579  0.1319 -0.3893
  201MPD1     H 3112   1.901   3.370  13.542  3.7334 -0.3937  0.9268
  201MPD1    H1 3113   2.211   3.336  13.235 -0.0699  0.0910 -2.0099
  201MPD1    H2 3114   1.821   3.447  13.134 -1.0687  1.2862  1.3696
  201MPD1    H3 3115   2.047   3.399  13.083 -0.5635 -1.1902 -0.6023
  201MPD1     N 3116   2.154   3.317  13.519  0.1538  0.6483  0.5859
  201MPD1    H5 3117   2.109   3.293  13.607  0.2053  1.0706  0.7283
  201MPD1    N1 3118   1.712   3.446  13.371  0.0840  0.4715  0.0332
  201MPD1    H6 3119   1.684   3.394  13.454 -1.1468  0.2984 -0.4886
  201MPD1    H7 3120   1.644   3.437  13.296 -0.9263  0.9095  0.8981
  202MPD1     C 3121   1.751   2.829   9.522 -0.6265 -1.1020  0.3630
  202MPD1    C1 3122   1.834   2.735   9.567  0.2825 -0.3142 -0.3322
  202MPD1    C2 3123   1.873   2.750   9.698  0.3849  0.4257  0.4549
  202MPD1    C3 3124   1.808   2.841   9.785  0.6741  0.6185 -0.8995
  202MPD1    C4 3125   1.707   2.916   9.734  0.0165 -0.3046  0.7882
  202MPD1    C5 3126   1.675   2.909   9.602  0.2545 -0.5639  0.1784
  202MPD1     H 3127   1.964   2.697   9.722  0.6310  0.2893 -0.7447
  202MPD1    H1 3128   1.645   2.976   9.800  0.0927  1.4859 -0.7874
  202MPD1    H2 3129   1.731   2.826   9.415 -0.0947 -1.9156  0.2915
  202MPD1    H3 3130   1.609   2.969   9.541 -0.7687 -2.8609 -0.9890
  202MPD1     N 3131   1.824   2.828   9.924 -0.3113 -1.0796 -0.3687
  202MPD1    H5 3132   1.758   2.887   9.973 -0.9307 -2.5062  0.5037
  202MPD1    N1 3133   1.929   2.694   9.472 -0.6594 -0.3439  0.7708
  202MPD1    H6 3134   1.981   2.613   9.506 -0.4744 -0.1339  0.9840
  202MPD1    H7 3135   1.886   2.667   9.384 -1.3116  1.0309  0.6773
  203MPD1     C 3136   1.441   4.248  12.906  0.3927 -0.0312 -0.7037
  203MPD1    C1 3137   1.429   4.184  13.026 -0.2903 -0.4585  0.5544
  203MPD1    C2 3138   1.374   4.063  13.021 -0.2145 -0.7933 -0.0514
  203MPD1    C3 3139   1.338   4.002  12.901 -0.1318 -0.2191 -0.1692
  203MPD1    C4 3140   1.359   4.067  12.785  0.3927  0.3880  0.0606
  203MPD1    C5 3141   1.416   4.187  12.791 -0.3503  0.4788  0.0392
  203MPD1     H 3142   1.350   4.007  13.111 -0.2459 -1.0075 -0.1936
  203MPD1    H1 3143   1.326   4.024  12.691 -0.6900 -1.3388  1.2234
  203MPD1    H2 3144   1.507   4.334  12.904 -0.4967  0.5970 -2.4228
  203MPD1    H3 3145   1.432   4.235  12.695 -2.0478  0.1986 -0.3785
  203MPD1     N 3146   1.292   3.865  12.906  0.2898  0.2015  0.1928
  203MPD1    H5 3147   1.278   3.815  12.993  0.6050 -0.3945 -0.1014
  203MPD1    N1 3148   1.462   4.246  13.150 -0.0101 -0.6194 -0.6389
  203MPD1    H6 3149   1.384   4.299  13.188  0.2632  0.2996 -1.3412
  203MPD1    H7 3150   1.488   4.182  13.225  0.2113 -0.8961 -0.9542
  204MPD1     C 3151   1.096   0.917   0.317  0.6550  0.0272  0.3165
  204MPD1    C1 3152   1.185   0.906   0.214  0.2182 -0.4399  0.4685
  204MPD1    C2 3153   1.180   0.790   0.139 -0.1378  0.5098  0.2142
  204MPD1    C3 3154   1.086   0.690   0.161  0.5793 -0.0609 -0.6330
  204MPD1    C4 3155   1.002   0.704   0.263 -0.0568 -0.2750  0.2371
  204MPD1    C5 3156   1.007   0.819   0.336  0.1902 -0.4384  0.6858
  204MPD1     H 3157   1.256   0.786   0.061  0.0203 -1.6785  0.4712
  204MPD1    H1 3158   0.929   0.630   0.291  0.8030 -0.2645  2.5177
  204MPD1    H2 3159   1.082   1.011   0.368 -0.7555 -0.2140  0.3718
  204MPD1    H3 3160   0.932   0.843   0.410 -0.8323  0.3942 -0.6071
  204MPD1     N 3161   1.079   0.574   0.079  0.2539  0.0078  0.1471
  204MPD1    H5 3162   1.142   0.579  17.763  0.8410 -0.5461  0.5810
  204MPD1    N1 3163   1.286   1.005   0.200 -0.3559 -0.1317  0.4044
  204MPD1    H6 3164   1.259   1.097   0.233 -0.8469 -0.0293 -0.2699
  204MPD1    H7 3165   1.340   1.005   0.114 -0.8386 -2.4039  0.1019
  205MPD1     C 3166   0.335   4.037  17.099  0.0812  0.2157 -0.0448
  205MPD1    C1 3167   0.384   3.913  17.141 -0.3888 -0.5906 -0.4016
  205MPD1    C2 3168   0.492   3.907  17.223 -0.3665 -0.5610 -0.2331
  205MPD1    C3 3169   0.549   4.027  17.264 -0.3742  0.3188  0.1481
  205MPD1    C4 3170   0.496   4.150  17.224 -0.1538  0.4752  0.2073
  205MPD1    C5 3171   0.384   4.158  17.140 -0.1534  0.3621 -0.0794
  205MPD1     H 3172   0.529   3.807  17.243  0.7216 -0.1771 -0.3037
  205MPD1    H1 3173   0.539   4.246  17.251  0.8586 -0.3524  1.5336
  205MPD1    H2 3174   0.250   4.045  17.033 -1.3670  0.1141  1.8112
  205MPD1    H3 3175   0.341   4.249  17.102  2.0658  1.1529 -0.7235
  205MPD1     N 3176   0.661   4.021  17.350 -0.0133  0.0634 -0.7289
  205MPD1    H5 3177   0.690   4.116  17.373  1.1531 -0.1289 -1.4236
  205MPD1    N1 3178   0.343   3.797  17.081  0.3368 -0.2883 -0.2139
  205MPD1    H6 3179   0.258   3.816  17.028  0.4741 -0.4787 -0.5033
  205MPD1    H7 3180   0.331   3.720  17.147 -0.1073  0.3768  0.4815
  206MPD1     C 3181   1.531   2.127  17.021  0.2365  0.0431  0.4863
  206MPD1    C1 3182   1.545   2.007  16.963 -0.4621  0.3791 -0.1444
  206MPD1    C2 3183   1.523   1.989  16.829  0.6201  0.6074 -0.6191
  206MPD1    C3 3184   1.466   2.092  16.756 -0.6595  0.0279 -0.9225
  206MPD1    C4 3185   1.438   2.211  16.817 -0.5967 -0.3145 -0.4245
  206MPD1    C5 3186   1.471   2.230  16.946  0.9339 -0.0764  0.0586
  206MPD1     H 3187   1.557   1.898  16.781  1.1286 -0.6425  2.1353
  206MPD1    H1 3188   1.389   2.289  16.760 -0.5841 -0.0571 -0.0782
  206MPD1    H2 3189   1.562   2.139  17.125  1.8411 -1.8741  0.2266
  206MPD1    H3 3190   1.457   2.329  16.988 -0.0559 -0.0524 -0.3121
  206MPD1     N 3191   1.430   2.097  16.621 -0.2678  0.3942 -0.0692
  206MPD1    H5 3192   1.406   2.184  16.575 -1.7023 -0.7882 -1.5232
  206MPD1    N1 3193   1.594   1.893  17.037 -0.7029 -0.0870  0.0210
  206MPD1    H6 3194   1.593   1.899  17.139  0.8918  2.6004 -0.1313
  206MPD1    H7 3195   1.555   1.805  17.004 -1.5025  0.0266  0.6482
  207MPD1     C 3196   3.098   4.190  10.276 -0.5440 -0.3531  0.3544
  207MPD1    C1 3197   3.109   4.122  10.397 -0.5897 -0.1504  0.0607
  207MPD1    C2 3198   3.225   4.142  10.470 -0.2799 -0.1112  0.4533
  207MPD1    C3 3199   3.314   4.249  10.434  0.8003 -0.0265 -0.8706
  207MPD1    C4 3200   3.291   4.327  10.323 -0.3030  0.7733 -0.1837
  207MPD1    C5 3201   3.184   4.294  10.242 -0.0545  0.7114  0.5428
  207MPD1     H 3202   3.248   4.071  10.548  0.0173 -0.7784 -0.2414
  207MPD1    H1 3203   3.366   4.399  10.291 -0.1226  0.8493  0.4167
  207MPD1    H2 3204   3.019   4.157  10.208 -1.3532 -0.0957  1.1723
  207MPD1    H3 3205   3.166   4.343  10.146  1.8560 -0.1495 -0.2561
  207MPD1     N 3206   3.430   4.282  10.512 -0.5616  0.0892 -0.2748
  207MPD1    H5 3207   3.485   4.359  10.474 -0.3907  1.2792  2.3997
  207MPD1    N1 3208   3.026   4.012  10.422  0.2279 -0.4013 -0.2388
  207MPD1    H6 3209   2.996   3.981  10.514  0.0980 -0.4592 -0.2995
  207MPD1    H7 3210   2.939   4.036  10.374  0.6932  1.5930 -0.0919
  208MPD1     C 3211   1.917   3.671  16.641  0.0449  0.0013 -0.0012
  208MPD1    C1 3212   1.905   3.761  16.734 -0.1653  0.6236  0.7792
  208MPD1    C2 3213   1.890   3.720  16.859  0.1080 -0.3401  0.0713
  208MPD1    C3 3214   1.899   3.586  16.895 -0.0191 -0.4636 -0.8031
  208MPD1    C4 3215   1.921   3.495  16.796  0.3322 -0.7354  0.4267
  208MPD1    C5 3216   1.926   3.541  16.671 -0.0339  0.6544  0.0415
  208MPD1     H 3217   1.866   3.798  16.931  2.3873  0.5580 -0.1361
  208MPD1    H1 3218   1.949   3.393  16.821  0.4899 -0.6835  0.4646
  208MPD1    H2 3219   1.920   3.710  16.540 -1.6690  1.6857  0.6122
  208MPD1    H3 3220   1.942   3.462  16.598  0.0121  1.6370 -1.0143
  208MPD1     N 3221   1.889   3.555  17.033 -0.1657  0.5598  0.4728
  208MPD1    H5 3222   1.881   3.629  17.102 -0.9427  0.0615  0.9085
  208MPD1    N1 3223   1.865   3.897  16.692  0.0767  0.6259  0.2942
  208MPD1    H6 3224   1.913   3.929  16.608 -0.0507  0.2271  0.0692
  208MPD1    H7 3225   1.879   3.960  16.771  0.3027  1.1146 -0.1300
  209MPD1     C 3226   3.560   3.114  11.283 -0.3570 -0.2875 -0.4813
  209MPD1    C1 3227   3.607   3.206  11.191 -0.5543 -0.3940 -0.0909
  209MPD1    C2 3228   3.672   3.319  11.243  0.3911  0.2930  0.2986
  209MPD1    C3 3229   3.709   3.323  11.374 -0.9828 -0.4274  0.0626
  209MPD1    C4 3230   3.677   3.217  11.459  0.8456 -0.5724 -0.2681
  209MPD1    C5 3231   3.594   3.116  11.421 -0.5440  0.0059 -0.0089
  209MPD1     H 3232   3.705   3.400  11.179 -0.5740  0.6749  0.2813
  209MPD1    H1 3233   3.717   3.210  11.559 -0.4847 -0.4714  0.2773
  209MPD1    H2 3234   3.501   3.029  11.249  0.3880 -1.0139  0.0230
  209MPD1    H3 3235   3.567   3.043  11.497 -0.2004 -0.1484 -0.0321
  209MPD1     N 3236   3.802   3.422  11.414  0.0523  0.4820 -0.0066
  209MPD1    H5 3237   3.821   3.490  11.342 -1.2710 -1.2116 -1.9729
  209MPD1    N1 3238   3.552   3.207  11.060 -0.4502  0.0523 -0.1467
  209MPD1    H6 3239   3.622   3.234  10.992 -1.6929 -0.1611 -1.5167
  209MPD1    H7 3240   3.522   3.115  11.029 -0.4034  0.5419 -1.6056
  210MPD1     C 3241   4.498   3.613  12.172  0.2790  0.0235 -0.9310
  210MPD1    C1 3242   4.469   3.733  12.109 -0.0191  0.4181 -0.5307
  210MPD1    C2 3243   4.367   3.730  12.015 -0.3962  0.0588 -0.0559
  210MPD1    C3 3244   4.310   3.614  11.968  0.5358  0.4842 -0.1379
  210MPD1    C4 3245   4.361   3.491  12.018  0.3875  0.1022 -0.3455
  210MPD1    C5 3246   4.443   3.496  12.131  0.2989  0.5121  0.4080
  210MPD1     H 3247   4.331   3.828  11.989  0.4165 -0.0219 -1.5221
  210MPD1    H1 3248   4.332   3.392  11.986  3.4250 -0.5746 -0.9857
  210MPD1    H2 3249   4.571   3.604  12.252  0.6419  0.9530 -1.1538
  210MPD1    H3 3250   4.469   3.401  12.175 -2.7779  0.0659  1.2343
  210MPD1     N 3251   4.210   3.612  11.866  0.1829  0.0144 -0.2217
  210MPD1    H5 3252   4.185   3.522  11.828  3.4480 -0.6408 -0.8728
  210MPD1    N1 3253   4.510   3.856  12.164  0.7460  0.3152 -0.1211
  210MPD1    H6 3254   4.490   3.940  12.110  0.6707  0.4725  0.1531
  210MPD1    H7 3255   4.607   3.861  12.195  0.9094  2.1303 -0.8965
  211MPD1     C 3256   0.862   3.718  15.762  0.1848  0.1175  0.1019
  211MPD1    C1 3257   0.739   3.743  15.829  0.0585 -1.0775  0.3270
  211MPD1    C2 3258   0.757   3.811  15.947 -0.4429  0.0473 -0.1403
  211MPD1    C3 3259   0.887   3.853  15.986  0.0642 -0.3363 -0.1053
  211MPD1    C4 3260   1.006   3.820  15.921 -0.0732  0.3712 -0.2684
  211MPD1    C5 3261   0.985   3.747  15.806  0.3038  0.5932  0.6482
  211MPD1     H 3262   0.672   3.841  16.007  0.2022  2.4292 -0.4508
  211MPD1    H1 3263   1.107   3.851  15.947 -0.8670  0.0816  3.1803
  211MPD1    H2 3264   0.853   3.671  15.665 -0.3108  0.8457 -0.2111
  211MPD1    H3 3265   1.070   3.715  15.746 -0.1967  0.5809 -0.0653
  211MPD1     N 3266   0.878   3.927  16.104  0.9676  0.5078  0.1930
  211MPD1    H5 3267   0.788   3.962  16.132  0.8599  0.4557 -0.0905
  211MPD1    N1 3268   0.617   3.727  15.763 -0.3370  0.0626  0.4870
  211MPD1    H6 3269   0.625   3.656  15.690 -1.9327 -1.0483  1.3974
  211MPD1    H7 3270   0.535   3.711  15.822 -2.2550 -0.6391 -2.3367
  212MPD1     C 3271   0.801   2.133  16.505  0.8997 -0.6412  0.0288
  212MPD1    C1 3272   0.735   2.223  16.573 -0.5232  0.8547  0.0088
  212MPD1    C2 3273   0.638   2.171  16.660  0.2889 -0.2384  0.3605
  212MPD1    C3 3274   0.637   2.035  16.694 -0.3864 -0.2283 -0.0782
  212MPD1    C4 3275   0.718   1.955  16.632  0.2536 -0.4061 -0.4324
  212MPD1    C5 3276   0.801   1.999  16.536  0.2006  0.2278 -0.1723
  212MPD1     H 3277   0.568   2.238  16.707  2.3160  3.6048 -2.0258
  212MPD1    H1 3278   0.728   1.848  16.645 -0.6068 -0.3267  0.8549
  212MPD1    H2 3279   0.867   2.160  16.423  0.7293  0.8403  0.3654
  212MPD1    H3 3280   0.875   1.941  16.481  0.8648  0.8850  0.0268
  212MPD1     N 3281   0.549   1.976  16.790  1.0239 -0.5646 -0.0467
  212MPD1    H5 3282   0.545   1.875  16.782 -1.1511 -0.5161  0.3580
  212MPD1    N1 3283   0.731   2.357  16.528  0.1162 -0.0262 -0.5241
  212MPD1    H6 3284   0.690   2.422  16.594  0.8038  1.1152 -1.2185
  212MPD1    H7 3285   0.824   2.388  16.501  0.7138 -0.1235  1.3768
  213MPD1     C 3286   3.611   2.888  16.045 -0.5761 -0.5733  0.1474
  213MPD1    C1 3287   3.536   2.782  16.016 -0.7171  0.1289 -0.8628
  213MPD1    C2 3288   3.458   2.784  15.905  0.1689 -0.0659  0.9981
  213MPD1    C3 3289   3.469   2.881  15.801  0.2343  0.0405 -0.0955
  213MPD1    C4 3290   3.580   2.956  15.814 -0.4838  1.0908 -0.0501
  213MPD1    C5 3291   3.644   2.967  15.939  0.0917 -0.3179 -0.2189
  213MPD1     H 3292   3.381   2.709  15.893 -0.2784  0.6504 -0.5583
  213MPD1    H1 3293   3.609   3.019  15.731  1.7106  2.6439  1.8831
  213MPD1    H2 3294   3.658   2.899  16.142  0.2544 -2.2014 -0.0754
  213MPD1    H3 3295   3.717   3.047  15.944  0.2379 -0.4386 -0.4294
  213MPD1     N 3296   3.403   2.866  15.677  0.3718 -0.7900 -0.2362
  213MPD1    H5 3297   3.333   2.795  15.658 -1.1600  0.7331 -0.1815
  213MPD1    N1 3298   3.502   2.697  16.118 -0.1921  0.3115 -0.1277
  213MPD1    H6 3299   3.481   2.606  16.077  0.5328  0.5894 -1.1258
  213MPD1    H7 3300   3.574   2.679  16.188  0.1282  0.3244 -0.4515
  214MPD1     C 3301   3.045   2.168  15.361  0.0171 -0.3613 -0.0695
  214MPD1    C1 3302   2.978   2.263  15.283 -0.5928  0.3660  0.8289
  214MPD1    C2 3303   3.014   2.393  15.289 -0.0578 -0.8894 -1.0100
  214MPD1    C3 3304   3.095   2.440  15.386 -0.3315  0.3651 -0.1756
  214MPD1    C4 3305   3.164   2.347  15.473 -0.2631 -0.3579  0.6030
  214MPD1    C5 3306   3.133   2.218  15.454  0.5313  0.1872  0.3349
  214MPD1     H 3307   2.958   2.463  15.229  2.4306  1.4196 -0.6203
  214MPD1    H1 3308   3.219   2.376  15.562  1.9521 -0.0305 -0.8840
  214MPD1    H2 3309   3.023   2.063  15.349  0.6364 -0.6217  1.0052
  214MPD1    H3 3310   3.185   2.140  15.509  0.9802 -0.0903 -0.4752
  214MPD1     N 3311   3.128   2.580  15.407  0.6883 -0.0832  0.4071
  214MPD1    H5 3312   3.171   2.604  15.496 -0.4051  1.9186  0.4137
  214MPD1    N1 3313   2.891   2.225  15.176 -0.2145 -0.1929  0.4250
  214MPD1    H6 3314   2.832   2.146  15.202  1.1935 -1.4949 -0.3275
  214MPD1    H7 3315   2.827   2.301  15.153  0.3787 -0.0981 -0.9451
  215MPD1     C 3316   2.739   3.359  11.189 -0.4633  0.2373 -0.4945
  215MPD1    C1 3317   2.730   3.372  11.324  0.9624  0.2032 -0.2446
  215MPD1    C2 3318   2.826   3.442  11.391 -0.5838  0.5281 -0.2836
  215MPD1    C3 3319   2.921   3.516  11.315 -0.5128 -0.6979  0.6497
  215MPD1    C4 3320   2.934   3.485  11.180  0.3647 -0.2125 -0.4607
  215MPD1    C5 3321   2.843   3.408  11.119 -0.6922  0.7806  0.0762
  215MPD1     H 3322   2.831   3.436  11.499 -3.3162 -0.6011 -0.2229
  215MPD1    H1 3323   3.012   3.518  11.112 -0.1510  1.0624 -0.4189
  215MPD1    H2 3324   2.670   3.292  11.139 -0.4249  0.2352 -0.5454
  215MPD1    H3 3325   2.847   3.392  11.012  1.5140  0.7834  0.1638
  215MPD1     N 3326   3.012   3.602  11.391  0.6662  0.1710 -0.1299
  215MPD1    H5 3327   2.980   3.611  11.487  1.1272 -0.3315  0.0701
  215MPD1    N1 3328   2.648   3.284  11.396 -0.4903 -0.5910  0.5310
  215MPD1    H6 3329   2.565   3.249  11.349  0.2548 -1.4172 -0.1671
  215MPD1    H7 3330   2.627   3.320  11.489  1.9298 -1.3337  1.3473
  216MPD1     C 3331   0.581   2.763  17.342 -0.1556 -0.0080  0.5863
  216MPD1    C1 3332   0.589   2.659  17.254 -0.2145  0.5905 -0.2497
  216MPD1    C2 3333   0.606   2.529  17.289  0.3823  0.4119 -0.4199
  216MPD1    C3 3334   0.607   2.497  17.424  0.3974  0.1972  0.3720
  216MPD1    C4 3335   0.589   2.606  17.514  1.0351  0.1923  0.4266
  216MPD1    C5 3336   0.568   2.737  17.476  0.3636  0.1157  0.0798
  216MPD1     H 3337   0.627   2.454  17.214 -1.2136  1.9119 -2.3624
  216MPD1    H1 3338   0.569   2.581  17.618  0.5166 -1.2831 -0.0327
  216MPD1    H2 3339   0.579   2.869  17.319  2.0085 -0.5453 -2.0669
  216MPD1    H3 3340   0.557   2.816  17.550 -0.8362 -0.7987  0.8797
  216MPD1     N 3341   0.623   2.359  17.457  0.0803  0.2720 -0.5141
  216MPD1    H5 3342   0.633   2.288  17.385  0.8987  1.7917 -1.9032
  216MPD1    N1 3343   0.564   2.692  17.121  0.1366  0.0129 -0.6974
  216MPD1    H6 3344   0.614   2.773  17.086  1.8843  0.2096  2.2347
  216MPD1    H7 3345   0.570   2.614  17.056 -0.6088 -1.9603  1.6002
  217MPD1     C 3346   0.203   1.906   9.139  0.6018 -0.3900  0.5071
  217MPD1    C1 3347   0.117   2.017   9.160 -0.1777 -0.1450  0.3496
  217MPD1    C2 3348   0.176   2.142   9.187  0.0226  0.0700 -0.0133
  217MPD1    C3 3349   0.316   2.155   9.203  0.4746 -0.8096 -0.6272
  217MPD1    C4 3350   0.395   2.042   9.193  0.3494 -0.8642 -0.3178
  217MPD1    C5 3351   0.337   1.924   9.160 -0.2229  0.8698  1.1105
  217MPD1     H 3352   0.109   2.226   9.203 -1.9849 -1.7892  1.4200
  217MPD1    H1 3353   0.503   2.047   9.202  0.2434  0.0472  0.4307
  217MPD1    H2 3354   0.163   1.809   9.112 -2.3743  0.7128  1.0020
  217MPD1    H3 3355   0.398   1.839   9.132 -0.8799  0.3305  1.3143
  217MPD1     N 3356   0.384   2.276   9.234 -0.5589  0.2560  0.5870
  217MPD1    H5 3357   0.485   2.271   9.225 -0.4890 -0.2145  1.5965
  217MPD1    N1 3358   4.722   2.002   9.126 -0.2187 -0.3409  0.0823
  217MPD1    H6 3359   4.682   1.908   9.121 -0.4024 -0.2689  0.2358
  217MPD1    H7 3360   4.660   2.058   9.183  1.5455  1.1761  0.4850
  218MPD1     C 3361   3.898   4.421  12.828  0.3879 -0.3095 -0.7179
  218MPD1    C1 3362   3.823   4.411  12.938  0.2289  0.0043  0.0838
  218MPD1    C2 3363   3.733   4.298  12.950 -0.2495 -0.0432 -1.0741
  218MPD1    C3 3364   3.731   4.195  12.858 -0.3206  0.8073 -0.5499
  218MPD1    C4 3365   3.812   4.208  12.755 -0.7133  0.4920 -0.1617
  218MPD1    C5 3366   3.900   4.314  12.746 -0.8118  0.1243  0.7610
  218MPD1     H 3367   3.667   4.290  13.035 -0.7310  1.9035 -1.2701
  218MPD1    H1 3368   3.809   4.128  12.683  4.9885  0.8721 -0.7986
  218MPD1    H2 3369   3.962   4.505  12.807 -0.1145  0.0817 -0.6792
  218MPD1    H3 3370   3.961   4.314  12.657  1.3013 -1.3027  2.1820
  218MPD1     N 3371   3.641   4.088  12.880  0.4345 -0.0352 -0.1046
  218MPD1    H5 3372   3.590   4.089  12.968 -0.1019 -0.1903 -0.4126
  218MPD1    N1 3373   3.811   4.523  13.023  0.1805 -0.0802 -0.3175
  218MPD1    H6 3374   3.761   4.504  13.110  1.6183 -0.1374  0.4893
  218MPD1    H7 3375   3.897   4.575  13.034  0.7745 -1.3919  1.3048
  219MPD1     C 3376   3.065   3.497  12.249  0.1447 -0.4446 -0.6163
  219MPD1    C1 3377   3.006   3.488  12.378 -0.4091 -0.5620 -0.6104
  219MPD1    C2 3378   3.065   3.549  12.482  0.1327 -0.0725  0.1268
  219MPD1    C3 3379   3.182   3.623  12.461  0.1350  0.5914 -0.4949
  219MPD1    C4 3380   3.244   3.630  12.337 -0.0013  0.0080  0.0105
  219MPD1    C5 3381   3.182   3.565  12.233  0.0898 -0.6747 -0.4573
  219MPD1     H 3382   3.012   3.540  12.576 -1.3644  2.2628 -0.4852
  219MPD1    H1 3383   3.336   3.686  12.321  0.3421 -0.4480  0.3757
  219MPD1    H2 3384   3.026   3.457  12.157  0.5615 -0.8926 -0.5970
  219MPD1    H3 3385   3.218   3.564  12.131 -0.6841  4.3891 -0.7792
  219MPD1     N 3386   3.244   3.711  12.558  0.1977  0.4296  0.6022
  219MPD1    H5 3387   3.325   3.766  12.532 -0.1253  0.3904 -0.4883
  219MPD1    N1 3388   2.876   3.442  12.394  0.5115 -0.5229  0.1320
  219MPD1    H6 3389   2.852   3.371  12.326 -1.9739 -0.2778  0.7335
  219MPD1    H7 3390   2.868   3.396  12.485 -2.0546 -2.0853 -0.8878
  220MPD1     C 3391   3.147   0.110   9.865 -0.2916  0.0715 -0.2493
  220MPD1    C1 3392   3.030   0.127   9.931 -0.1566  0.5074  0.1524
  220MPD1    C2 3393   3.025   0.076  10.060 -0.2263 -0.1122  0.8205
  220MPD1    C3 3394   3.133   0.016  10.123  0.5773  0.3601 -0.4408
  220MPD1    C4 3395   3.251   0.017  10.062 -0.0445 -0.4829  0.9052
  220MPD1    C5 3396   3.253   0.060   9.933  0.1021 -0.0123  0.4092
  220MPD1     H 3397   2.930   0.080  10.111 -0.6764 -0.9790  0.0476
  220MPD1    H1 3398   3.335   4.705  10.104 -0.7768 -1.6951  0.8509
  220MPD1    H2 3399   3.168   0.126   9.760 -1.7252  0.1170 -0.5293
  220MPD1    H3 3400   3.343   0.050   9.872  0.4568  1.1094  0.7501
  220MPD1     N 3401   3.111   4.711  10.250  0.0789  0.3514 -0.2288
  220MPD1    H5 3402   3.012   4.708  10.270  0.2605  0.1171  0.6168
  220MPD1    N1 3403   2.913   0.163   9.858 -0.4188  0.4062  0.1942
  220MPD1    H6 3404   2.841   0.205   9.916 -2.0715 -1.1202 -0.7442
  220MPD1    H7 3405   2.936   0.232   9.787  0.1361 -2.9454 -2.8580
  221MPD1     C 3406   0.716   4.530  17.192  0.2594 -0.5851 -0.4786
  221MPD1    C1 3407   0.809   4.463  17.270 -0.2964  0.3645 -0.0479
  221MPD1    C2 3408   0.849   4.335  17.235 -0.0481 -1.0315 -0.8260
  221MPD1    C3 3409   0.804   4.276  17.121  0.9337 -0.0645  0.2050
  221MPD1    C4 3410   0.716   4.347  17.041 -0.4133 -0.3250 -0.0409
  221MPD1    C5 3411   0.669   4.469  17.077 -0.6678 -0.1034  0.4310
  221MPD1     H 3412   0.920   4.288  17.303  1.0271  1.7106 -0.0499
  221MPD1    H1 3413   0.679   4.307  16.947  1.0496 -1.2383 -0.2182
  221MPD1    H2 3414   0.676   4.628  17.217  2.1594  0.5962 -2.1232
  221MPD1    H3 3415   0.587   4.516  17.025  0.6241 -1.1041 -2.4665
  221MPD1     N 3416   0.841   4.146  17.087 -0.4441  0.4461  0.2438
  221MPD1    H5 3417   0.794   4.109  17.005 -0.7082  1.9598 -0.3008
  221MPD1    N1 3418   0.848   4.511  17.398 -0.0465  0.1652 -0.4171
  221MPD1    H6 3419   0.933   4.474  17.440 -0.7941  0.9117  1.7804
  221MPD1    H7 3420   0.838   4.612  17.399 -2.2803 -0.0330 -2.9464
  222MPD1     C 3421   0.655   3.090  17.055 -0.1383 -1.3276  0.4402
  222MPD1    C1 3422   0.761   3.061  17.139 -0.2790 -0.8465 -0.5789
  222MPD1    C2 3423   0.746   3.078  17.280  0.9161  0.1101 -0.4674
  222MPD1    C3 3424   0.629   3.122  17.332 -0.1980 -1.2214  0.3387
  222MPD1    C4 3425   0.523   3.146  17.247 -0.1435  0.1983 -0.4053
  222MPD1    C5 3426   0.541   3.138  17.113 -0.5852 -0.1161  0.1343
  222MPD1     H 3427   0.832   3.083  17.347  0.1724 -0.3334  0.5151
  222MPD1    H1 3428   0.426   3.186  17.275 -0.1336  1.3357 -1.9549
  222MPD1    H2 3429   0.655   3.070  16.949  1.5760 -0.1757  0.2343
  222MPD1    H3 3430   0.460   3.167  17.047  0.7980  2.8212 -0.2930
  222MPD1     N 3431   0.604   3.143  17.470  0.8851 -0.0300 -0.1586
  222MPD1    H5 3432   0.516   3.188  17.494  1.7552  1.5494  0.1154
  222MPD1    N1 3433   0.882   2.998  17.099 -0.0016 -0.4853 -0.0134
  222MPD1    H6 3434   0.964   3.041  17.143  0.2941  0.1724 -1.2144
  222MPD1    H7 3435   0.888   3.019  16.999  0.5132 -1.2420 -0.1411
  223MPD1     C 3436   4.559   2.989   0.031 -0.1603  0.4533 -0.9995
  223MPD1    C1 3437   4.629   2.935  17.689 -0.2581 -0.1551  0.6953
  223MPD1    C2 3438   0.021   2.964  17.682 -0.0685  0.7254 -0.1730
  223MPD1    C3 3439   0.085   3.019   0.030 -0.9305  0.1801  0.0691
  223MPD1    C4 3440   0.008   3.067   0.136 -0.0133  0.4607  0.6807
  223MPD1    C5 3441   4.616   3.061   0.138  0.2372  0.3748 -0.1185
  223MPD1     H 3442   0.078   2.940  17.593 -1.6642 -0.9935 -0.7262
  223MPD1    H1 3443   0.046   3.118   0.224  0.6677  3.9377 -1.6576
  223MPD1    H2 3444   4.451   2.986   0.024 -0.2765  0.3915  0.8481
  223MPD1    H3 3445   4.558   3.110   0.214 -0.1660  3.2100 -2.2633
  223MPD1     N 3446   0.224   3.037   0.020  0.4327 -0.1189  0.1290
  223MPD1    H5 3447   0.270   2.996  17.703  0.6170  1.0950 -0.3880
  223MPD1    N1 3448   4.557   2.884  17.582  0.2189 -0.2487 -0.4998
  223MPD1    H6 3449   4.469   2.842  17.611  1.4599 -0.9388  2.2169
  223MPD1    H7 3450   4.607   2.819  17.520 -0.3849 -1.6926  0.5368
  224MPD1     C 3451   1.858   3.999   9.371  0.4338  0.1892 -0.2496
  224MPD1    C1 3452   1.913   3.887   9.431  0.5196  0.5374  0.5719
  224MPD1    C2 3453   1.836   3.822   9.530  0.0549 -0.4248  0.7594
  224MPD1    C3 3454   1.710   3.853   9.563  0.4742 -0.3332 -0.4480
  224MPD1    C4 3455   1.656   3.964   9.492  0.2776  0.3571  0.0341
  224MPD1    C5 3456   1.727   4.037   9.400  0.1130 -0.1078  0.0079
  224MPD1     H 3457   1.883   3.735   9.574  2.4529  0.0855 -0.7645
  224MPD1    H1 3458   1.559   4.007   9.514 -1.3527 -3.0927 -0.4386
  224MPD1    H2 3459   1.918   4.053   9.299  1.1174 -0.3833 -0.1154
  224MPD1    H3 3460   1.681   4.120   9.349  1.1146  1.4996  1.7255
  224MPD1     N 3461   1.630   3.788   9.657 -1.0290  0.5316  0.3139
  224MPD1    H5 3462   1.532   3.813   9.658 -0.8368  1.3301 -0.7849
  224MPD1    N1 3463   2.048   3.858   9.412  0.2881 -0.3556 -0.6189
  224MPD1    H6 3464   2.073   3.874   9.315 -0.5882  0.2369 -0.7450
  224MPD1    H7 3465   2.076   3.764   9.441  2.4712 -0.1136 -1.9569
  225MPD1     C 3466   3.516   4.663  12.468 -0.4430 -0.1586 -0.1694
  225MPD1    C1 3467   3.492   4.576  12.572  0.3374 -0.4866  0.8372
  225MPD1    C2 3468   3.364   4.559  12.619 -0.2174  0.8154 -0.6642
  225MPD1    C3 3469   3.258   4.613  12.548 -0.1863 -0.3084  0.2055
  225MPD1    C4 3470   3.283   4.699  12.441  0.5623  0.2808 -0.1432
  225MPD1    C5 3471   3.415   4.725  12.407  0.3448  0.2431 -0.3827
  225MPD1     H 3472   3.347   4.492  12.702 -0.2630  2.7024  0.8317
  225MPD1    H1 3473   3.201   0.014  12.397  0.3645 -1.0956 -1.5428
  225MPD1    H2 3474   3.616   4.694  12.442 -0.0720 -0.7197  0.5893
  225MPD1    H3 3475   3.445   0.047  12.324  0.7337 -2.2143 -2.1415
  225MPD1     N 3476   3.126   4.592  12.600 -0.2414  1.1725 -0.2917
  225MPD1    H5 3477   3.049   4.634  12.549 -1.2570  0.5446  0.7322
  225MPD1    N1 3478   3.595   4.512  12.646  0.1836  0.1303 -0.3932
  225MPD1    H6 3479   3.554   4.432  12.695  1.5868  0.0406  0.6501
  225MPD1    H7 3480   3.678   4.485  12.593  0.4503  0.5489 -0.1937
  226MPD1     C 3481   0.835   4.637  10.167  0.3537  0.0542 -0.3563
  226MPD1    C1 3482   0.907   4.598  10.060 -0.5368  0.1771  0.2265
  226MPD1    C2 3483   1.024   4.661  10.032  0.1382  0.2006 -0.2465
  226MPD1    C3 3484   1.085   4.736  10.130  0.2870  0.7899  0.6234
  226MPD1    C4 3485   1.031   0.011  10.255 -0.5651  0.2240 -0.5228
  226MPD1    C5 3486   0.902   4.704  10.266 -0.5775  0.4979 -0.3971
  226MPD1     H 3487   1.069   4.644   9.935  2.4216 -0.1403  0.8745
  226MPD1    H1 3488   1.075   0.062  10.340 -0.0109  0.5197 -0.9850
  226MPD1    H2 3489   0.738   4.600  10.198  0.0237 -0.0327 -1.4936
  226MPD1    H3 3490   0.863   4.722  10.366 -1.0915 -0.1450 -0.4832
  226MPD1     N 3491   1.207   0.051  10.095 -0.0080  0.1226  0.1200
  226MPD1    H5 3492   1.230   0.028   9.999  0.3175 -1.6884  0.6236
  226MPD1    N1 3493   0.850   4.516   9.964 -0.0237  0.0545  0.0095
  226MPD1    H6 3494   0.919   4.457   9.918 -0.9021 -0.8020 -0.2103
  226MPD1    H7 3495   0.785   4.455  10.013 -3.0480  2.7821 -0.6040
  227MPD1     C 3496   2.018   0.790  10.067 -0.2497  0.6494  0.1097
  227MPD1    C1 3497   2.063   0.680   9.998 -0.8797 -0.7025  0.1727
  227MPD1    C2 3498   1.981   0.573   9.978 -1.1454 -0.5631  0.0210
  227MPD1    C3 3499   1.848   0.569  10.034 -0.2457 -0.0427 -0.9173
  227MPD1    C4 3500   1.810   0.682  10.105  0.7703 -0.6693  0.0971
  227MPD1    C5 3501   1.890   0.796  10.114  0.5883  0.7674 -0.4767
  227MPD1     H 3502   2.017   0.482   9.931  1.4629  0.0503  0.8685
  227MPD1    H1 3503   1.715   0.701  10.153 -0.5146  1.5468 -3.3029
  227MPD1    H2 3504   2.080   0.879  10.075  0.4699 -0.0861  2.4644
  227MPD1    H3 3505   1.859   0.890  10.159 -1.7222  0.0922 -0.6218
  227MPD1     N 3506   1.759   0.456  10.006  0.1289  0.7373 -0.3834
  227MPD1    H5 3507   1.790   0.393   9.933  0.2374  0.4035 -0.0481
  227MPD1    N1 3508   2.183   0.685   9.927 -0.4612 -0.3947  0.2357
  227MPD1    H6 3509   2.222   0.591   9.935 -0.7300 -0.8069 -3.0249
  227MPD1    H7 3510   2.251   0.751   9.961 -0.5760  0.1889 -0.6596
  228MPD1     C 3511   4.422   2.149  13.455  0.9664  0.0429 -0.0269
  228MPD1    C1 3512   4.362   2.199  13.338  0.2830 -1.0346  0.5171
  228MPD1    C2 3513   4.222   2.216  13.348 -0.2741  0.5372 -0.3767
  228MPD1    C3 3514   4.157   2.180  13.467 -0.2551  0.3123 -0.0692
  228MPD1    C4 3515   4.217   2.123  13.567 -0.0955 -0.3391 -0.4957
  228MPD1    C5 3516   4.353   2.114  13.564 -0.2319 -0.5541 -0.4253
  228MPD1     H 3517   4.172   2.267  13.267 -2.0393  1.5699  1.3321
  228MPD1    H1 3518   4.166   2.089  13.656 -0.1580  0.4032 -0.2462
  228MPD1    H2 3519   4.527   2.119  13.454  1.2424  1.0015  0.4104
  228MPD1    H3 3520   4.405   2.080  13.653  1.6770  2.2831 -0.4306
  228MPD1     N 3521   4.012   2.203  13.466 -0.2687 -0.6695 -0.6091
  228MPD1    H5 3522   3.969   2.227  13.377 -1.5998  1.4261  0.5994
  228MPD1    N1 3523   4.445   2.251  13.242 -0.0463 -0.0831  0.4780
  228MPD1    H6 3524   4.531   2.196  13.238  0.0491  0.0949  0.1125
  228MPD1    H7 3525   4.407   2.240  13.148  1.0603 -0.3688  0.0629
  229MPD1     C 3526   3.865   1.054  14.899 -0.6725 -0.6962  0.5793
  229MPD1    C1 3527   3.915   1.165  14.956 -0.8226 -0.0667  0.7200
  229MPD1    C2 3528   4.026   1.157  15.039 -0.0738 -0.0005  0.8670
  229MPD1    C3 3529   4.086   1.033  15.067 -0.7278  0.1249 -0.3557
  229MPD1    C4 3530   4.038   0.924  15.000 -0.2689  0.6861 -0.1914
  229MPD1    C5 3531   3.929   0.936  14.914  0.3193  0.0543 -0.8754
  229MPD1     H 3532   4.064   1.241  15.096  0.8158  0.0297  0.2223
  229MPD1    H1 3533   4.081   0.828  15.021  2.2484  1.6210 -1.1049
  229MPD1    H2 3534   3.771   1.047  14.844 -0.3269 -1.5212  0.0918
  229MPD1    H3 3535   3.886   0.853  14.860  0.3477  0.6629 -1.8259
  229MPD1     N 3536   4.182   1.015  15.163  0.2262 -0.1250  0.3015
  229MPD1    H5 3537   4.224   0.922  15.158  0.6708  0.1123 -0.3608
  229MPD1    N1 3538   3.840   1.283  14.959  0.6086 -0.7072 -0.4159
  229MPD1    H6 3539   3.896   1.368  14.959  0.3155 -0.5284 -1.9258
  229MPD1    H7 3540   3.773   1.288  14.883 -1.5039 -0.5684  1.4252
  230MPD1     C 3541   4.734   1.353  16.004  0.1007 -0.4730  0.2018
  230MPD1    C1 3542   4.723   1.219  16.007  0.3652 -0.9893  0.2108
  230MPD1    C2 3543   4.699   1.150  15.890 -0.3381  0.4350  0.0715
  230MPD1    C3 3544   4.668   1.215  15.769 -0.2060  0.1170 -0.0330
  230MPD1    C4 3545   4.680   1.352  15.772 -1.3889  0.7114  0.2036
  230MPD1    C5 3546   4.718   1.417  15.882  0.3868 -0.1049 -0.1991
  230MPD1     H 3547   4.707   1.042  15.892  0.2466  0.4976  0.9359
  230MPD1    H1 3548   4.659   1.417  15.687 -2.2513  0.7886  0.4770
  230MPD1    H2 3549   0.021   1.420  16.085  2.7875 -0.6526 -0.5946
  230MPD1    H3 3550   4.739   1.523  15.878 -2.4129  0.4881  0.7191
  230MPD1     N 3551   4.634   1.129  15.657  0.4349 -0.1306  0.1899
  230MPD1    H5 3552   4.640   1.028  15.661 -1.5267 -0.2191  0.8906
  230MPD1    N1 3553   0.024   1.143  16.118 -0.7707 -0.3168  0.4764
  230MPD1    H6 3554   0.015   1.203  16.200 -0.2962 -0.6310  0.7577
  230MPD1    H7 3555   4.720   1.053  16.131 -0.0447 -0.9002 -0.9704
  231MPD1     C 3556   2.657   3.010  15.845  0.3103  0.0152  0.0095
  231MPD1    C1 3557   2.590   2.987  15.731 -0.7111 -0.0508  0.4255
  231MPD1    C2 3558   2.615   3.071  15.622  0.3974 -0.2400  0.6339
  231MPD1    C3 3559   2.718   3.161  15.628 -0.6017  0.0891 -0.9409
  231MPD1    C4 3560   2.778   3.189  15.750  0.4486 -0.2114 -0.0944
  231MPD1    C5 3561   2.747   3.116  15.858 -0.3092  0.6531 -0.0141
  231MPD1     H 3562   2.553   3.043  15.538 -0.4070 -0.1296  1.1867
  231MPD1    H1 3563   2.854   3.265  15.767  0.2334  0.2395 -1.1582
  231MPD1    H2 3564   2.637   2.945  15.930  0.4657 -0.9235 -0.6825
  231MPD1    H3 3565   2.789   3.134  15.956  1.0137  0.9102 -0.6248
  231MPD1     N 3566   2.748   3.225  15.503 -0.3505 -0.5158 -0.2836
  231MPD1    H5 3567   2.692   3.195  15.424 -0.2684  1.4217 -1.0786
  231MPD1    N1 3568   2.484   2.897  15.731  0.4093 -0.2627  0.7770
  231MPD1    H6 3569   2.462   2.890  15.632  1.2134 -3.9143  0.8771
  231MPD1    H7 3570   2.396   2.935  15.766 -0.9908 -1.9573 -0.8996
  232MPD1     C 3571   0.214   0.789   0.068  0.4287 -0.0054 -0.3667
  232MPD1    C1 3572   0.085   0.755   0.031 -0.3009  0.1285 -0.1242
  232MPD1    C2 3573   0.011   0.662   0.108  0.1300 -0.4954 -0.5660
  232MPD1    C3 3574   0.062   0.619   0.227  0.0015  0.0050  0.4572
  232MPD1    C4 3575   0.192   0.659   0.259 -1.0722 -0.2190  0.4426
  232MPD1    C5 3576   0.264   0.743   0.182 -0.5781 -0.0027 -0.2655
  232MPD1     H 3577   4.657   0.623   0.077  0.0935 -0.8133 -0.0523
  232MPD1    H1 3578   0.242   0.633   0.351  1.4209  1.5911 -0.3876
  232MPD1    H2 3579   0.278   0.854   0.009 -0.0204  1.9393  1.2926
  232MPD1    H3 3580   0.361   0.781   0.212 -1.8183  1.1883  2.2394
  232MPD1     N 3581   4.722   0.530   0.305  0.1159  0.1350  0.2794
  232MPD1    H5 3582   4.633   0.508   0.263  1.1609  0.7767 -2.3075
  232MPD1    N1 3583   0.039   0.788  17.669 -0.5269 -0.6852  0.0688
  232MPD1    H6 3584   0.091   0.861  17.620 -1.9312 -0.6156 -1.3108
  232MPD1    H7 3585   4.682   0.814  17.668 -0.1292  0.8565  0.5669
  233MPD1     C 3586   1.557   4.441   0.828  0.2146  0.2433  0.1364
  233MPD1    C1 3587   1.579   4.314   0.793  0.7983  0.5221  0.0866
  233MPD1    C2 3588   1.688   4.255   0.850  0.5992 -0.3716 -0.1198
  233MPD1    C3 3589   1.785   4.323   0.921 -0.1040  0.6925  0.1254
  233MPD1    C4 3590   1.770   4.454   0.944  0.5666 -0.4346  0.1329
  233MPD1    C5 3591   1.650   4.504   0.901  0.0416  0.4644  0.1593
  233MPD1     H 3592   1.700   4.149   0.833  0.8670 -0.9740  3.8232
  233MPD1    H1 3593   1.852   4.513   0.983 -0.7242  2.1415 -1.0767
  233MPD1    H2 3594   1.471   4.502   0.805 -1.0445 -1.7152 -0.3739
  233MPD1    H3 3595   1.629   4.610   0.897  2.0516  0.8353 -0.5838
  233MPD1     N 3596   1.899   4.263   0.972  0.2465  0.2153 -0.3495
  233MPD1    H5 3597   1.957   4.314   1.039 -0.6555  0.2832  0.3783
  233MPD1    N1 3598   1.473   4.233   0.742 -0.7475  0.3643  0.5092
  233MPD1    H6 3599   1.494   4.143   0.698 -1.6849 -1.3401  3.4865
  233MPD1    H7 3600   1.408   4.284   0.683 -1.0865 -0.1425  0.4391
  234MPD1     C 3601   2.257   2.395   9.558  0.6671 -0.3238 -0.3302
  234MPD1    C1 3602   2.229   2.445   9.687  0.0672  0.1314 -0.2475
  234MPD1    C2 3603   2.095   2.454   9.720  0.4963  0.4133  0.3094
  234MPD1    C3 3604   1.999   2.410   9.637  0.6611  0.0705 -0.1749
  234MPD1    C4 3605   2.027   2.348   9.516  0.0068  0.7296  0.4417
  234MPD1    C5 3606   2.164   2.330   9.480 -0.2482  0.3287 -0.7846
  234MPD1     H 3607   2.060   2.496   9.814 -0.3499  0.0678  0.1472
  234MPD1    H1 3608   1.962   2.324   9.433  1.7346  0.4861 -0.8529
  234MPD1    H2 3609   2.361   2.393   9.528  1.1595 -2.5980  1.5745
  234MPD1    H3 3610   2.190   2.284   9.385  2.2151  1.0553 -0.4386
  234MPD1     N 3611   1.864   2.420   9.688  0.4894  0.2057  0.3683
  234MPD1    H5 3612   1.848   2.465   9.777  0.6906 -2.0413  1.5220
  234MPD1    N1 3613   2.328   2.518   9.751  0.1189 -0.4890 -0.4093
  234MPD1    H6 3614   2.419   2.472   9.751  0.7918  0.8955  2.4607
  234MPD1    H7 3615   2.308   2.526   9.850  2.7054  1.1724 -0.0343
  235MPD1     C 3616   3.743   4.695  11.452 -0.0182  0.0139 -1.0221
  235MPD1    C1 3617   3.637   4.680  11.362  0.5169  0.5608 -0.2831
  235MPD1    C2 3618   3.662   4.724  11.228 -0.7212  0.6953 -0.4663
  235MPD1    C3 3619   3.775   0.063  11.188  0.1038  0.9470  0.2298
  235MPD1    C4 3620   3.870   0.077  11.290  0.1824  0.3129  0.3242
  235MPD1    C5 3621   3.860   0.010  11.408  1.0384 -0.0771  0.2142
  235MPD1     H 3622   3.588   4.704  11.152 -1.4364  1.1691  0.1103
  235MPD1    H1 3623   3.963   0.128  11.267 -0.4708  0.5148 -1.9544
  235MPD1    H2 3624   3.749   4.664  11.555 -1.6592  1.3355 -0.5400
  235MPD1    H3 3625   3.947   0.007  11.473 -0.3843  0.4136  2.1203
  235MPD1     N 3626   3.774   0.126  11.058  0.0654 -0.3693 -0.5764
  235MPD1    H5 3627   3.697   0.099  10.998 -0.0816 -2.3842  0.5135
  235MPD1    N1 3628   3.526   4.619  11.408  0.0831  0.5578 -0.1195
  235MPD1    H6 3629   3.449   4.666  11.362 -0.0316 -0.4231 -0.9488
  235MPD1    H7 3630   3.521   4.621  11.509 -3.3907  0.9962 -0.2970
  236MPD1     C 3631   2.041   1.174   9.718  0.0321  0.2420 -0.1255
  236MPD1    C1 3632   2.079   1.048   9.767  0.2447  0.5785 -0.5790
  236MPD1    C2 3633   2.217   1.018   9.779  0.0703 -0.5779 -0.2675
  236MPD1    C3 3634   2.312   1.117   9.756 -0.1431  0.0111 -0.0165
  236MPD1    C4 3635   2.267   1.236   9.692  0.5587 -0.1597  0.5259
  236MPD1    C5 3636   2.129   1.268   9.686  0.0161 -0.6440  0.0261
  236MPD1     H 3637   2.242   0.920   9.818  0.5473 -0.2664  0.2110
  236MPD1    H1 3638   2.342   1.315   9.690 -1.0075  1.3410  0.7432
  236MPD1    H2 3639   1.938   1.208   9.712  0.6619  2.0655 -0.5679
  236MPD1    H3 3640   2.101   1.368   9.653  1.0514 -0.6069 -0.7239
  236MPD1     N 3641   2.448   1.103   9.785  0.2487  0.2273 -0.0500
  236MPD1    H5 3642   2.516   1.170   9.751 -0.1573  1.2729  1.2406
  236MPD1    N1 3643   1.983   0.951   9.806 -1.1455 -0.2574 -0.6288
  236MPD1    H6 3644   2.019   0.890   9.879 -0.6023  2.3912  1.3498
  236MPD1    H7 3645   1.896   0.992   9.839 -0.4798  1.3615 -0.8917
  237MPD1     C 3646   3.256   4.706  15.419 -0.1254  0.1563  0.2792
  237MPD1    C1 3647   3.283   4.573  15.396 -0.2928 -0.7444  0.3215
  237MPD1    C2 3648   3.180   4.481  15.359  0.1805  0.7335 -0.1528
  237MPD1    C3 3649   3.050   4.523  15.344  0.8273  0.3543  0.0899
  237MPD1    C4 3650   3.023   4.656  15.360  0.0782  0.0630 -0.4234
  237MPD1    C5 3651   3.120   4.740  15.393  0.2743 -0.8679 -0.3279
  237MPD1     H 3652   3.214   4.379  15.344  1.3063  0.9112  1.1087
  237MPD1    H1 3653   2.927   4.699  15.334  0.3452  1.1462  0.3804
  237MPD1    H2 3654   3.326   0.046  15.435  2.8055 -2.4799  0.7876
  237MPD1    H3 3655   3.087   0.101  15.408 -1.1297 -1.5138  0.9405
  237MPD1     N 3656   2.945   4.431  15.308  0.0900  0.4280 -0.3690
  237MPD1    H5 3657   2.855   4.472  15.286  0.7075  2.1437  0.3115
  237MPD1    N1 3658   3.410   4.526  15.399  0.9832 -0.4348 -0.4549
  237MPD1    H6 3659   3.424   4.429  15.371 -1.8376 -0.7470 -0.7065
  237MPD1    H7 3660   3.460   4.534  15.487 -0.4622  0.4025  0.2744
  238MPD1     C 3661   0.228   2.411  15.451 -0.2837 -0.0541 -0.2467
  238MPD1    C1 3662   0.126   2.423  15.540  0.4255  0.4039 -0.1450
  238MPD1    C2 3663   0.001   2.458  15.498 -0.1422 -0.3509 -0.2300
  238MPD1    C3 3664   4.715   2.483  15.367 -0.1119 -0.1153 -0.3535
  238MPD1    C4 3665   0.077   2.463  15.272 -0.6277  0.2454  0.2018
  238MPD1    C5 3666   0.206   2.430  15.320 -1.1686 -0.3209 -0.1664
  238MPD1     H 3667   4.662   2.441  15.568  1.3370 -0.6999  1.4153
  238MPD1    H1 3668   0.063   2.478  15.166  2.0255  2.4462  0.1520
  238MPD1    H2 3669   0.323   2.373  15.487 -0.7796  0.4263  1.5976
  238MPD1    H3 3670   0.282   2.395  15.251  0.9583 -1.1471  2.6079
  238MPD1     N 3671   4.589   2.534  15.337 -0.0314 -0.1584 -0.0216
  238MPD1    H5 3672   4.524   2.544  15.414  0.5955  2.6206  0.1550
  238MPD1    N1 3673   0.151   2.369  15.668 -0.0296  0.0863 -0.1835
  238MPD1    H6 3674   0.085   2.397  15.741 -1.2786 -1.5821 -0.6707
  238MPD1    H7 3675   0.248   2.382  15.695  0.2228 -1.0719 -0.5122
  239MPD1     C 3676   4.603   3.732  14.983 -0.1163 -0.1475 -0.0884
  239MPD1    C1 3677   4.486   3.803  14.986 -0.2206 -0.0157  0.5691
  239MPD1    C2 3678   4.462   3.913  14.903 -0.6499  0.3817  0.7143
  239MPD1    C3 3679   4.565   3.944  14.810 -0.0085 -1.1785 -0.1846
  239MPD1    C4 3680   4.673   3.859  14.795 -0.4451 -0.2090  0.5982
  239MPD1    C5 3681   4.695   3.761  14.885 -0.0053  0.6863  0.0498
  239MPD1     H 3682   4.372   3.973  14.908  0.1527  1.4298  2.4266
  239MPD1    H1 3683   0.001   3.874  14.714 -1.6304  1.9663 -0.0234
  239MPD1    H2 3684   4.619   3.651  15.053 -0.7555  0.3842  0.6721
  239MPD1    H3 3685   0.045   3.703  14.882  1.6380  3.3026 -0.4503
  239MPD1     N 3686   4.547   4.035  14.698  0.3298 -0.2589 -0.2108
  239MPD1    H5 3687   4.598   4.011  14.613 -0.1117  0.7225 -0.7625
  239MPD1    N1 3688   4.384   3.768  15.080  0.7454  0.2188  1.1141
  239MPD1    H6 3689   4.286   3.783  15.057  0.4895  0.5656  2.3862
  239MPD1    H7 3690   4.398   3.686  15.139  2.2089  0.4378  1.0722
  240MPD1     C 3691   4.287   3.086  14.171 -0.0274 -0.1436  0.5452
  240MPD1    C1 3692   4.153   3.121  14.191 -0.3033 -0.1175  0.3816
  240MPD1    C2 3693   4.121   3.157  14.327 -0.3186  0.0114 -0.2717
  240MPD1    C3 3694   4.200   3.137  14.433 -0.1151  0.1844  0.8227
  240MPD1    C4 3695   4.332   3.098  14.403 -0.8100 -0.2015 -0.0640
  240MPD1    C5 3696   4.370   3.087  14.272 -0.0903 -0.0747 -0.4969
  240MPD1     H 3697   4.021   3.194  14.346 -0.5714 -1.2050  0.7372
  240MPD1    H1 3698   4.404   3.076  14.481 -0.0860 -0.0323 -0.6843
  240MPD1    H2 3699   4.328   3.047  14.079  0.1024  1.5478 -0.1207
  240MPD1    H3 3700   4.465   3.041  14.246 -0.3841 -0.5244 -0.7710
  240MPD1     N 3701   4.144   3.150  14.565  0.0767 -0.6287  0.4132
  240MPD1    H5 3702   4.059   3.204  14.579  0.4592  0.3433 -1.0314
  240MPD1    N1 3703   4.052   3.095  14.096 -0.2178  0.3377  0.7566
  240MPD1    H6 3704   3.984   3.170  14.087 -0.1506  0.3108  0.0220
  240MPD1    H7 3705   4.085   3.079  14.001 -0.2362  1.1855  0.6081
  241MPD1     C 3706   4.624   2.919  15.446  0.2509 -0.0054 -0.4075
  241MPD1    C1 3707   4.504   2.986  15.469  0.6636 -0.6821 -0.1012
  241MPD1    C2 3708   4.421   3.036  15.370  0.4440  0.1891  0.7339
  241MPD1    C3 3709   4.444   3.003  15.237 -0.0845  0.0025 -0.0954
  241MPD1    C4 3710   4.568   2.948  15.213 -0.3073 -0.5560  0.0031
  241MPD1    C5 3711   4.649   2.905  15.313 -0.4552 -0.3479  0.4662
  241MPD1     H 3712   4.325   3.079  15.397  0.6421  1.7111 -0.9808
  241MPD1    H1 3713   4.603   2.934  15.112  1.0508 -0.8599  0.5133
  241MPD1    H2 3714   4.680   2.886  15.533 -1.3232  2.1343  1.4330
  241MPD1    H3 3715   4.741   2.856  15.282  0.8512  2.0575  0.5916
  241MPD1     N 3716   4.352   3.022  15.131  0.3508  0.3942 -0.4035
  241MPD1    H5 3717   4.391   3.002  15.039  0.0871  0.6828 -0.5747
  241MPD1    N1 3718   4.467   3.000  15.605 -0.1491  0.5606 -0.2460
  241MPD1    H6 3719   4.374   3.040  15.618 -0.5198 -1.2715  2.7290
  241MPD1    H7 3720   4.481   2.914  15.658 -0.5792  0.4848 -0.2612
  242MPD1     C 3721   3.872   2.416  15.951  0.2846 -0.3438  0.5041
  242MPD1    C1 3722   3.849   2.453  15.820 -0.0017  0.1570 -0.3216
  242MPD1    C2 3723   3.881   2.359  15.722 -0.9660  0.6896  0.2113
  242MPD1    C3 3724   3.930   2.234  15.752 -0.7789 -0.2562  0.0676
  242MPD1    C4 3725   3.963   2.201  15.880  0.1863  0.0328  0.0361
  242MPD1    C5 3726   3.932   2.296  15.977  0.1606  0.1503 -0.0805
  242MPD1     H 3727   3.855   2.380  15.619  1.0239  0.3297 -0.3687
  242MPD1    H1 3728   4.005   2.104  15.901 -0.6712 -0.0238  1.4631
  242MPD1    H2 3729   3.854   2.486  16.032 -2.9320  0.0296 -0.5615
  242MPD1    H3 3730   3.956   2.270  16.079 -2.1568  0.1062  0.4704
  242MPD1     N 3731   3.954   2.139  15.649 -0.1608  0.1282 -0.7895
  242MPD1    H5 3732   4.000   2.055  15.682 -1.8351 -0.2367  0.5901
  242MPD1    N1 3733   3.780   2.578  15.791 -0.3224  0.2818 -0.8719
  242MPD1    H6 3734   3.800   2.594  15.692 -1.4660 -1.3406 -1.3666
  242MPD1    H7 3735   3.810   2.663  15.837 -0.8756  1.2755 -2.3302
  243MPD1     C 3736   0.902   2.188  17.158 -0.2829 -0.1666 -0.7338
  243MPD1    C1 3737   0.837   2.138  17.050  0.8411 -0.3706  0.1685
  243MPD1    C2 3738   0.817   2.002  17.051 -0.1888 -0.1124  0.9114
  243MPD1    C3 3739   0.867   1.916  17.147  0.2562 -0.0621  0.3478
  243MPD1    C4 3740   0.931   1.973  17.256 -0.4636  0.6436 -0.1963
  243MPD1    C5 3741   0.947   2.111  17.265  1.1472 -0.3272  0.7331
  243MPD1     H 3742   0.773   1.963  16.960  0.5318  0.9786  0.0946
  243MPD1    H1 3743   0.967   1.909  17.335 -1.1792  0.8529  0.3062
  243MPD1    H2 3744   0.914   2.295  17.165 -0.1444 -0.1270 -1.6539
  243MPD1    H3 3745   0.990   2.154  17.354 -0.9407  1.1227  1.0627
  243MPD1     N 3746   0.854   1.777  17.122  0.2424  0.5008 -0.7949
  243MPD1    H5 3747   0.791   1.752  17.047  1.6106 -0.1792 -1.7295
  243MPD1    N1 3748   0.790   2.228  16.953 -0.1659  0.3716 -0.0006
  243MPD1    H6 3749   0.831   2.321  16.953 -0.0145  0.3094  0.5435
  243MPD1    H7 3750   0.802   2.189  16.860 -1.9822 -0.4260  0.0966
  244MPD1     C 3751   0.882   0.896  17.663 -0.6823  0.1507 -0.1608
  244MPD1    C1 3752   0.925   1.020  17.699  0.0232 -0.0740  0.4612
  244MPD1    C2 3753   0.921   1.113  17.597 -0.4146  0.6741  1.0507
  244MPD1    C3 3754   0.895   1.088  17.461  0.2193 -0.5357  0.4821
  244MPD1    C4 3755   0.848   0.960  17.440 -0.1442  0.4768  0.4436
  244MPD1    C5 3756   0.839   0.865  17.536 -0.5368 -0.4842  0.0808
  244MPD1     H 3757   0.941   1.215  17.626  1.4257  0.2515  1.2664
  244MPD1    H1 3758   0.822   0.933  17.338  1.3666 -1.5026  0.5866
  244MPD1    H2 3759   0.891   0.821  17.741  1.0380 -2.0688 -2.4878
  244MPD1    H3 3760   0.816   0.762  17.510 -0.4609  0.0124 -1.8977
  244MPD1     N 3761   0.913   1.192  17.362 -0.4234 -0.0985 -0.4293
  244MPD1    H5 3762   0.939   1.284  17.397  1.0474 -0.8923  0.5841
  244MPD1    N1 3763   0.947   1.061   0.061 -0.4180 -0.6932  0.3712
  244MPD1    H6 3764   0.989   0.985   0.114 -1.0135 -1.3490 -0.0956
  244MPD1    H7 3765   1.012   1.138   0.055  0.2962 -1.2864  0.5389
  245MPD1     C 3766   2.283   1.643  13.047  0.4836  0.6539  0.1736
  245MPD1    C1 3767   2.388   1.612  13.131  0.2685 -0.1668  0.7207
  245MPD1    C2 3768   2.366   1.643  13.264 -0.4278  0.4692  0.0876
  245MPD1    C3 3769   2.262   1.728  13.310 -0.2336 -0.1632 -0.2908
  245MPD1    C4 3770   2.161   1.766  13.219  0.0474  0.0754  0.1329
  245MPD1    C5 3771   2.180   1.722  13.090  0.1504 -0.3417  0.3601
  245MPD1     H 3772   2.438   1.597  13.332 -0.4009 -0.1217 -0.3414
  245MPD1    H1 3773   2.078   1.832  13.238  0.3408 -0.0279  1.7992
  245MPD1    H2 3774   2.285   1.612  12.943 -3.3539 -1.0169  0.6025
  245MPD1    H3 3775   2.112   1.755  13.012  0.2218  1.7354  1.1697
  245MPD1     N 3776   2.258   1.768  13.446 -0.4110 -0.3783  0.2673
  245MPD1    H5 3777   2.336   1.729  13.498 -0.2846 -0.1220  0.2682
  245MPD1    N1 3778   2.498   1.528  13.094  0.2051 -0.1986 -0.6071
  245MPD1    H6 3779   2.579   1.552  13.151 -1.2159  3.4424 -0.0877
  245MPD1    H7 3780   2.530   1.539  12.998 -1.0330  1.1401 -0.8675
  246MPD1     C 3781   4.414   2.474  10.382 -0.2101  0.1746 -0.5065
  246MPD1    C1 3782   4.383   2.540  10.262  0.7231  0.0451  0.3282
  246MPD1    C2 3783   4.298   2.476  10.173  1.0559 -0.5155  0.3800
  246MPD1    C3 3784   4.252   2.344  10.203 -0.6449 -0.5417 -0.2106
  246MPD1    C4 3785   4.282   2.288  10.320  0.2387  0.7138  0.1535
  246MPD1    C5 3786   4.348   2.357  10.417 -0.5229 -0.3398 -0.1137
  246MPD1     H 3787   4.286   2.493  10.067 -2.0131  1.1153  0.9920
  246MPD1    H1 3788   4.276   2.182  10.339  1.1467  0.6539  0.1307
  246MPD1    H2 3789   4.468   2.530  10.457  2.5437 -2.9426 -0.1528
  246MPD1    H3 3790   4.388   2.315  10.509  1.7083  1.0643 -0.4512
  246MPD1     N 3791   4.185   2.273  10.097 -0.0319 -0.1639 -0.3915
  246MPD1    H5 3792   4.162   2.325  10.013  0.6545  0.3532 -0.2579
  246MPD1    N1 3793   4.463   2.644  10.212  0.7216 -0.3468  0.4111
  246MPD1    H6 3794   4.505   2.694  10.291 -2.1670  1.5594  0.7595
  246MPD1    H7 3795   4.415   2.706  10.147  0.8333 -1.9749 -1.1920
  247MPD1     C 3796   2.308   2.522  15.854  0.1254  0.0681 -0.2297
  247MPD1    C1 3797   2.266   2.587  15.966  0.1203  0.3956 -0.7742
  247MPD1    C2 3798   2.208   2.508  16.072 -0.4427 -0.0755  0.3636
  247MPD1    C3 3799   2.185   2.372  16.052 -0.9025 -0.0765  0.2538
  247MPD1    C4 3800   2.229   2.309  15.938  0.0778  0.2592  0.1738
  247MPD1    C5 3801   2.288   2.387  15.841 -0.5027 -0.1012 -0.1817
  247MPD1     H 3802   2.174   2.558  16.162 -0.2357 -0.0918  0.4497
  247MPD1    H1 3803   2.209   2.205  15.917  2.3059 -1.3401  6.2820
  247MPD1    H2 3804   2.359   2.571  15.772 -0.7871 -0.3734 -1.0613
  247MPD1    H3 3805   2.305   2.337  15.747  1.2069 -1.1291  0.6825
  247MPD1     N 3806   2.131   2.283  16.151  0.3381  0.1636  0.0011
  247MPD1    H5 3807   2.129   2.186  16.120 -2.5436  0.1335  0.3295
  247MPD1    N1 3808   2.310   2.720  15.982 -0.3215  0.0267  0.1011
  247MPD1    H6 3809   2.315   2.765  15.890 -2.4464  2.0318  0.9694
  247MPD1    H7 3810   2.252   2.771  16.049  1.2746  0.7960  0.8925
  248MPD1     C 3811   3.247   0.705  17.705 -0.3588  0.1693  0.2536
  248MPD1    C1 3812   3.300   0.834  17.729  0.2597  0.1693 -0.4454
  248MPD1    C2 3813   3.213   0.926   0.015 -0.3417  0.4164 -0.0822
  248MPD1    C3 3814   3.078   0.896   0.031 -0.3119  0.2033 -0.3536
  248MPD1    C4 3815   3.030   0.769   0.008  0.2053 -0.0580  0.4554
  248MPD1    C5 3816   3.118   0.678  17.726  0.1962 -0.4431  0.5546
  248MPD1     H 3817   3.250   1.025   0.042  1.9614  0.3150 -2.8280
  248MPD1    H1 3818   2.926   0.744   0.024  0.0572 -0.1194 -0.5803
  248MPD1    H2 3819   3.303   0.623  17.661 -1.7424 -0.6652  0.0433
  248MPD1    H3 3820   3.075   0.579  17.712  0.4301 -0.7587  2.0383
  248MPD1     N 3821   2.998   1.007   0.082 -0.5818  0.2791 -0.3232
  248MPD1    H5 3822   3.048   1.091   0.107  0.7648 -1.1722  1.8395
  248MPD1    N1 3823   3.440   0.869  17.728 -0.1333 -0.5353  0.1573
  248MPD1    H6 3824   3.504   0.802  17.685 -0.4497 -0.3556 -0.5839
  248MPD1    H7 3825   3.457   0.961  17.688  0.3679 -0.7415 -0.1115
  249MPD1     C 3826   4.138   4.202  10.955 -0.0516 -0.3657  0.2794
  249MPD1    C1 3827   4.206   4.316  10.916  0.5006  0.4030 -0.1014
  249MPD1    C2 3828   4.223   4.340  10.787  0.3478 -0.7759 -0.1070
  249MPD1    C3 3829   4.187   4.258  10.688  0.4160  0.9246  0.0731
  249MPD1    C4 3830   4.119   4.142  10.726  0.1800  0.1384  0.7563
  249MPD1    C5 3831   4.104   4.110  10.856  0.2916  0.4100 -0.1872
  249MPD1     H 3832   4.251   4.440  10.756 -1.9164  0.4155  1.7129
  249MPD1    H1 3833   4.060   4.078  10.661 -0.8914  1.8834 -0.0061
  249MPD1    H2 3834   4.104   4.195  11.058 -0.2272 -1.3713  0.1588
  249MPD1    H3 3835   4.041   4.030  10.893  0.9798 -0.0848 -0.0860
  249MPD1     N 3836   4.202   4.305  10.555 -0.7720 -0.1631 -0.7768
  249MPD1    H5 3837   4.229   4.402  10.542 -0.9247  0.1188  0.9977
  249MPD1    N1 3838   4.243   4.414  11.009 -0.3772  0.0189 -0.1260
  249MPD1    H6 3839   4.239   4.374  11.103 -0.0748  0.8676  0.2533
  249MPD1    H7 3840   4.332   4.463  11.002 -1.2382  1.6370  0.2326
  250MPD2     C 3841   0.924   4.219  13.534  0.2223  0.2768 -0.0583
  250MPD2    C1 3842   1.005   4.261  13.431  1.0201 -0.4945 -0.1356
  250MPD2    C2 3843   0.993   4.202  13.305 -0.0845 -0.3019  0.3353
  250MPD2    C3 3844   0.905   4.093  13.283  0.4443 -0.0605  0.1385
  250MPD2    C4 3845   0.844   4.038  13.395  0.4104 -0.3281  0.0131
  250MPD2    C5 3846   0.857   4.101  13.519  0.2951  0.4665  0.6909
  250MPD2     H 3847   1.048   4.235  13.218  0.6041 -0.6430  0.6330
  250MPD2    H1 3848   0.772   3.957  13.382 -1.1706  1.1265 -0.3205
  250MPD2    H2 3849   0.905   4.263  13.632 -0.0455 -1.0446  0.4762
  250MPD2    H3 3850   0.812   4.061  13.610 -1.3731  0.0069 -0.3311
  250MPD2     N 3851   0.865   4.043  13.156  0.2310  0.0393  0.1922
  250MPD2    H5 3852   0.779   3.988  13.157  0.1853  0.1029 -0.0972
  250MPD2    N1 3853   1.084   4.378  13.446 -0.3823  0.0018  0.4865
  250MPD2    H7 3854   1.070   4.417  13.539 -1.5163 -0.8484  0.6715
  251TMC3    C1 3855   1.232   4.540  13.422  0.2239 -1.1244  0.9100
  251TMC3    C2 3856   1.146   4.631  13.473  0.3541  0.9417  0.1782
  251TMC3    C3 3857   1.187   0.006  13.528  0.6830  0.1314  0.3151
  251TMC3    C4 3858   1.365   4.566  13.431  0.4072  0.0436  1.1929
  251TMC3    C5 3859   1.407   4.684  13.484  0.3623  0.8256  0.3429
  251TMC3    C6 3860   1.321   0.043  13.528 -0.0707 -0.4164  0.6027
  251TMC3     C 3861   1.187   4.419  13.365  0.2245  0.1183 -0.3416
  251TMC3     O 3862   1.257   4.362  13.280  0.5149  0.4828  0.2136
  251TMC3     H 3863   1.039   4.615  13.465  0.6544 -0.7847 -0.3081
  251TMC3    H1 3864   1.441   4.491  13.409 -1.9942 -1.8138 -0.6704
  251TMC3    H2 3865   1.356   0.134  13.576 -1.4047  1.7217 -2.5064
  251TMC3    C7 3866   1.548   4.716  13.466  0.6945  0.2589 -0.4712
  251TMC3    C8 3867   1.091   0.097  13.589  0.6507 -0.3655 -0.1677
  251TMC3    O1 3868   1.625   4.622  13.482 -0.0042 -0.2872 -0.5941
  251TMC3    O2 3869   1.138   0.182  13.669 -0.8085  0.2599 -0.4085
  252TMC3    C1 3870   1.211   0.292   9.759  0.1947  0.2877 -0.0107
  252TMC3    C2 3871   1.290   0.396   9.709  0.0434 -0.2517  0.2462
  252TMC3    C3 3872   1.302   0.509   9.789 -0.6115  0.4443  0.2609
  252TMC3    C4 3873   1.137   0.307   9.876  0.0962  0.1276 -0.1190
  252TMC3    C5 3874   1.147   0.425   9.943  0.4090  0.3984  0.1145
  252TMC3    C6 3875   1.224   0.529   9.902  0.3428 -0.2266  0.0249
  252TMC3     C 3876   1.254   0.156   9.732  0.1617 -0.1323 -0.1939
  252TMC3     O 3877   1.238   0.079   9.825  0.4181  0.4435 -0.5763
  252TMC3     H 3878   1.361   0.381   9.629 -0.8829  2.1433 -1.0374
  252TMC3    H1 3879   1.085   0.221   9.915 -3.6336  1.8059 -1.3932
  252TMC3    H2 3880   1.232   0.610   9.974 -2.1098 -0.1889  0.2583
  252TMC3    C7 3881   1.098   0.431  10.083 -0.1625  0.0166 -0.4730
  252TMC3    C8 3882   1.380   0.620   9.736  0.7362 -0.5718 -0.6740
  252TMC3    O1 3883   1.163   0.499  10.164  0.1232  0.1826  0.7126
  252TMC3    O2 3884   1.428   0.608   9.623  0.0549  0.2129  0.2701
  253MPD2     C 3885   2.097   4.146  15.485 -0.6157  0.4223 -0.5004
  253MPD2    C1 3886   1.969   4.098  15.496 -0.6843  0.2863  0.9114
  253MPD2    C2 3887   1.916   4.071  15.618 -0.1525 -0.4891  0.1800
  253MPD2    C3 3888   1.989   4.105  15.734 -0.1524 -0.4028  0.3822
  253MPD2    C4 3889   2.111   4.172  15.720 -0.3531 -0.1215  0.5162
  253MPD2    C5 3890   2.161   4.178  15.598  0.1458 -0.3430  0.0626
  253MPD2     H 3891   1.814   4.039  15.632 -0.9893  1.9073 -0.4334
  253MPD2    H1 3892   2.144   4.224  15.809  0.8215 -1.1156  0.6548
  253MPD2    H2 3893   2.150   4.161  15.392  0.9454 -0.6676  0.2157
  253MPD2    H3 3894   2.255   4.228  15.579 -1.0180  1.9291  0.3155
  253MPD2     N 3895   1.950   4.079  15.866  0.2397  0.1984 -0.0244
  253MPD2    H5 3896   2.019   4.091  15.939  0.7417  0.2874 -0.5203
  253MPD2    N1 3897   1.896   4.057  15.384  0.4584 -0.0633  0.4940
  253MPD2    H7 3898   1.795   4.058  15.396  0.3883  0.2295 -0.0906
  254TMC3    C1 3899   1.807   4.054  16.059  0.1168 -0.4720  0.2202
  254TMC3    C2 3900   1.683   4.080  16.112  0.2775  0.4029  0.0783
  254TMC3    C3 3901   1.675   4.101  16.245  0.1427  0.5728 -0.2645
  254TMC3    C4 3902   1.917   4.035  16.143  0.0116 -0.6013 -0.0335
  254TMC3    C5 3903   1.903   4.053  16.279 -0.7400 -0.0394 -0.5531
  254TMC3    C6 3904   1.781   4.086  16.329 -0.1744  0.0354 -0.0492
  254TMC3     C 3905   1.825   4.048  15.914 -0.4305 -0.5981  0.4364
  254TMC3     O 3906   1.729   4.016  15.844 -0.3385  0.1241 -0.0209
  254TMC3     H 3907   1.599   4.090  16.043 -0.4791 -0.3985  0.8816
  254TMC3    H1 3908   2.005   3.988  16.102  1.5919  0.7714  1.7541
  254TMC3    H2 3909   1.769   4.095  16.436 -1.7343  0.5768 -0.2694
  254TMC3    C7 3910   2.014   4.045  16.374 -0.7241 -0.3875 -0.3595
  254TMC3    C8 3911   1.596   4.214  16.293  0.4724 -0.9041  0.0259
  254TMC3    O1 3912   1.990   4.041  16.491  0.2889  1.0704 -0.0200
  254TMC3    O2 3913   1.622   4.255  16.404  0.8195  0.7338  0.1746
  255MPD2     C 3914   4.681   1.618  10.153  1.2636  0.6716 -0.1682
  255MPD2    C1 3915   4.720   1.731  10.220 -0.1900 -0.2610  0.4954
  255MPD2    C2 3916   0.113   1.741  10.266 -0.9770  0.2401 -0.0046
  255MPD2    C3 3917   0.208   1.650  10.223 -0.2947  0.5448  0.4305
  255MPD2    C4 3918   0.165   1.531  10.165  0.3845 -1.3338  0.7879
  255MPD2    C5 3919   0.031   1.512  10.139 -0.2186  0.0704 -0.2655
  255MPD2     H 3920   0.147   1.828  10.321 -2.0927  0.5963  0.1300
  255MPD2    H1 3921   0.238   1.457  10.137 -0.4749 -1.3624 -1.4178
  255MPD2    H2 3922   4.575   1.595  10.143  0.9431  2.3813 -0.8151
  255MPD2    H3 3923   4.730   1.417  10.110  0.7070 -0.7849  1.1910
  255MPD2     N 3924   0.342   1.681  10.245 -0.0998 -0.0513 -0.7604
  255MPD2    H5 3925   0.364   1.756  10.310  1.0789 -2.4022  1.5162
  255MPD2    N1 3926   4.623   1.826  10.241  0.1412 -0.0957 -0.8504
  255MPD2    H7 3927   4.534   1.802  10.199  0.1972 -1.0617 -0.4098
  256TMC3    C1 3928   4.548   2.051  10.274  0.0434  0.2234  0.4566
  256TMC3    C2 3929   4.598   2.173  10.312  0.0561 -0.1164 -0.2588
  256TMC3    C3 3930   4.630   2.264  10.221 -0.5524  0.3101  0.3049
  256TMC3    C4 3931   4.506   2.035  10.146  0.1749 -0.0374 -0.2972
  256TMC3    C5 3932   4.539   2.132  10.056 -0.6147 -0.4165  0.4955
  256TMC3    C6 3933   4.601   2.250  10.090  0.0513 -0.1091  0.2014
  256TMC3     C 3934   4.638   1.935  10.318 -0.6388 -0.6612  0.1803
  256TMC3     O 3935   4.729   1.950  10.401 -0.1402  0.2613  0.2635
  256TMC3     H 3936   4.634   2.178  10.414 -2.5581  0.5291  0.6315
  256TMC3    H1 3937   4.465   1.941  10.109  0.5376 -0.4753  0.4210
  256TMC3    H2 3938   4.643   2.321  10.019  2.0866 -0.8911  0.6308
  256TMC3    C7 3939   4.574   2.063   9.934 -0.3354 -0.1651 -0.0622
  256TMC3    C8 3940   0.012   2.337  10.251 -0.0543 -0.2250 -0.1740
  256TMC3    O1 3941   4.492   1.984   9.896  0.3936 -0.2213  0.5348
  256TMC3    O2 3942   0.089   2.280  10.333  0.4781 -0.5323  0.6244
  257MPD2     C 3943   3.956   4.466  13.622  0.2918  0.3289 -0.6963
  257MPD2    C1 3944   4.077   4.423  13.580 -0.5005 -0.2091  0.2009
  257MPD2    C2 3945   4.146   4.311  13.625 -0.5832 -0.2750  0.4550
  257MPD2    C3 3946   4.082   4.240  13.728 -0.2022 -0.2910 -0.4469
  257MPD2    C4 3947   3.970   4.296  13.787 -0.0648  0.9842  0.2019
  257MPD2    C5 3948   3.903   4.402  13.732 -0.9202 -0.8739 -0.7840
  257MPD2     H 3949   4.238   4.271  13.584 -0.4580  0.8971 -0.4085
  257MPD2    H1 3950   3.926   4.246  13.872  0.0726  0.4804 -0.0236
  257MPD2    H2 3951   3.904   4.543  13.566 -1.2034 -0.3701 -0.2862
  257MPD2    H3 3952   3.812   4.444  13.775 -0.8773 -0.1988 -1.3505
  257MPD2     N 3953   4.144   4.118  13.768  0.3924 -0.2703  0.1505
  257MPD2    H5 3954   4.221   4.090  13.709 -0.3242  0.4487 -1.1243
  257MPD2    N1 3955   4.138   4.505  13.486 -0.0179 -0.3568 -0.8951
  257MPD2    H7 3956   4.079   4.564  13.429 -1.2318 -0.7175 -0.0092
  258TMC3    C1 3957   4.195   3.935  13.908  0.5523  0.1737  0.0602
  258TMC3    C2 3958   4.248   3.871  13.806  0.1511  0.4450  0.3923
  258TMC3    C3 3959   4.330   3.766  13.843  0.6764 -0.2607 -0.4717
  258TMC3    C4 3960   4.219   3.914  14.036 -0.8202 -0.4526  0.5832
  258TMC3    C5 3961   4.306   3.815  14.067 -0.0052  0.0179  0.2713
  258TMC3    C6 3962   4.365   3.739  13.974  0.5090  0.7594  0.1820
  258TMC3     C 3963   4.109   4.048  13.884  0.0048  0.3348 -0.5373
  258TMC3     O 3964   4.027   4.082  13.971 -0.2339 -0.6079 -0.1075
  258TMC3     H 3965   4.235   3.888  13.700  0.4140 -0.9576  0.1294
  258TMC3    H1 3966   4.166   3.974  14.109  0.7622  0.6614  0.8261
  258TMC3    H2 3967   4.431   3.659  14.005 -0.0036  0.4113  0.3746
  258TMC3    C7 3968   4.349   3.803  14.207  0.5579  0.0406  0.4035
  258TMC3    C8 3969   4.396   3.697  13.739  0.0901  0.0260  0.3465
  258TMC3    O1 3970   4.272   3.832  14.297  0.1226 -0.3061  0.2660
  258TMC3    O2 3971   4.435   3.585  13.769  0.1002 -0.1674 -0.5189
  259MPD2     C 3972   3.663   1.073   0.576 -0.1156  0.3503  0.0419
  259MPD2    C1 3973   3.735   1.131   0.680  0.8372  0.3931 -0.1198
  259MPD2    C2 3974   3.868   1.129   0.657  0.6004 -0.5656  0.2826
  259MPD2    C3 3975   3.934   1.078   0.545  0.3895 -0.3760  0.2244
  259MPD2    C4 3976   3.856   1.031   0.445  0.5845  0.6016  0.2311
  259MPD2    C5 3977   3.724   1.013   0.466 -0.7125 -0.1437  0.2694
  259MPD2     H 3978   3.933   1.172   0.733  1.8072  0.8900 -1.5712
  259MPD2    H1 3979   3.901   0.981   0.360 -1.4756  0.6930 -0.9017
  259MPD2    H2 3980   3.556   1.058   0.588  0.2617  0.8269  3.9195
  259MPD2    H3 3981   3.659   0.967   0.393 -1.2120 -2.0505  1.9127
  259MPD2     N 3982   4.077   1.076   0.532  0.4772 -0.6011  0.7488
  259MPD2    H5 3983   4.135   1.078   0.616  0.9040  1.2696  0.4257
  259MPD2    N1 3984   3.668   1.193   0.796  0.1945  0.0997 -0.5659
  259MPD2    H7 3985   3.569   1.177   0.811 -0.3845  1.9616 -2.4329
  260TMC3    C1 3986   4.289   1.024   0.427 -0.0604 -0.6262  1.0748
  260TMC3    C2 3987   4.344   0.989   0.307 -0.2422  0.3575 -0.4587
  260TMC3    C3 3988   4.428   0.879   0.294  0.7435  0.2603 -0.3471
  260TMC3    C4 3989   4.310   0.944   0.532  0.2176 -0.2988  0.6453
  260TMC3    C5 3990   4.380   0.825   0.520  0.1409 -0.2233  0.0075
  260TMC3    C6 3991   4.453   0.800   0.410  0.0274  0.0481 -0.1045
  260TMC3     C 3992   4.151   1.072   0.407 -0.6071 -0.5348  0.3811
  260TMC3     O 3993   4.115   1.076   0.291 -0.2649  0.3260 -0.3803
  260TMC3     H 3994   4.325   1.045   0.216  0.8514  0.0588 -0.8658
  260TMC3    H1 3995   4.268   0.969   0.629 -3.6173 -1.1606 -0.7987
  260TMC3    H2 3996   4.524   0.719   0.407 -0.3680 -0.1558 -3.2662
  260TMC3    C7 3997   4.299   0.710   0.556  0.2703  0.5777  0.8048
  260TMC3    C8 3998   4.414   0.810   0.165 -0.3872  0.1771 -0.5568
  260TMC3    O1 3999   4.333   0.612   0.494  0.1927  0.2896  0.8775
  260TMC3    O2 4000   4.417   0.868   0.058 -0.1144 -0.2732  0.2227
  261MPD2     C 4001   0.340   4.308  12.632 -0.0453  1.0583  0.0045
  261MPD2    C1 4002   0.459   4.293  12.568 -0.5726 -0.3891  0.8068
  261MPD2    C2 4003   0.476   4.355  12.451 -0.1983 -0.2135  0.1144
  261MPD2    C3 4004   0.388   4.448  12.400 -0.3557 -0.1268 -0.3144
  261MPD2    C4 4005   0.276   4.480  12.478  0.1812  0.3541 -0.2425
  261MPD2    C5 4006   0.252   4.402  12.592  0.0353  0.2981 -0.4173
  261MPD2     H 4007   0.569   4.342  12.397  0.2215 -1.2171  1.0745
  261MPD2    H1 4008   0.206   4.558  12.447  2.3857  1.4016 -2.5635
  261MPD2    H2 4009   0.319   4.257  12.724  1.7990  1.6995  0.7878
  261MPD2    H3 4010   0.155   4.400  12.639  0.2386 -2.0896 -0.1174
  261MPD2     N 4011   0.418   4.504  12.271 -0.3496  0.1390  0.0836
  261MPD2    H5 4012   0.503   4.470  12.229 -0.6039 -1.9113  1.2456
  261MPD2    N1 4013   0.558   4.211  12.626  0.4896 -0.0603  0.4814
  261MPD2    H7 4014   0.642   4.190  12.572  1.7048 -1.1016  2.7903
  262TMC3    C1 4015   0.390   4.649  12.086  0.9975  0.3164  0.2715
  262TMC3    C2 4016   0.304   4.733  12.029  0.9934 -0.8919 -0.7645
  262TMC3    C3 4017   0.352   0.060  11.923  1.1335  0.4051  0.2698
  262TMC3    C4 4018   0.523   4.639  12.057  0.5481  1.8635 -0.4330
  262TMC3    C5 4019   0.567   4.716  11.956  0.1319 -0.1041  0.4413
  262TMC3    C6 4020   0.487   0.060  11.883  0.3541 -0.4615 -0.0066
  262TMC3     C 4021   0.350   4.610  12.217 -0.0298 -0.5666 -0.6127
  262TMC3     O 4022   0.262   4.683  12.261  0.7731  0.2823 -0.1727
  262TMC3     H 4023   0.197   4.728  12.049  0.1929  2.1889 -4.3127
  262TMC3    H1 4024   0.594   4.587  12.121  0.5821  1.8706 -0.4650
  262TMC3    H2 4025   0.525   0.118  11.799  0.0201 -1.9679 -1.2011
  262TMC3    C7 4026   0.714   4.720  11.938  0.3702  0.6592 -0.3987
  262TMC3    C8 4027   0.280   0.170  11.868 -0.1888  0.2160  0.6995
  262TMC3    O1 4028   0.782   4.693  12.034  0.0011 -0.6862  0.3626
  262TMC3    O2 4029   0.342   0.257  11.811  0.4103 -0.4405 -0.0091
  263MPD2     C 4030   1.181   3.740  11.640  0.0779 -0.5011 -0.9392
  263MPD2    C1 4031   1.316   3.721  11.621  0.1972 -0.5383 -0.9626
  263MPD2    C2 4032   1.378   3.830  11.570 -0.0239  0.0943  0.5799
  263MPD2    C3 4033   1.318   3.946  11.525 -0.0424 -0.3807 -0.2228
  263MPD2    C4 4034   1.177   3.952  11.527  0.6682 -0.0685  0.3052
  263MPD2    C5 4035   1.110   3.851  11.591  0.5634 -0.1933 -0.5971
  263MPD2     H 4036   1.482   3.810  11.548 -0.2710  0.0652 -0.5565
  263MPD2    H1 4037   1.114   4.034  11.494  1.3515  1.2515  2.3059
  263MPD2    H2 4038   1.121   3.671  11.699  0.6717  1.6978  2.2868
  263MPD2    H3 4039   1.003   3.864  11.604  0.3580 -2.2482 -0.2910
  263MPD2     N 4040   1.397   4.059  11.491  0.1519  0.3061 -1.0236
  263MPD2    H5 4041   1.497   4.066  11.505  0.1117  1.8108 -1.5351
  263MPD2    N1 4042   1.372   3.600  11.657 -0.6704 -0.5589 -1.1935
  263MPD2    H7 4043   1.311   3.527  11.693 -0.0808 -0.8393 -0.7490
  264TMC3    C1 4044   1.449   4.262  11.393  0.3757 -0.5444  0.6703
  264TMC3    C2 4045   1.537   4.300  11.493 -0.4444  0.3281  0.8583
  264TMC3    C3 4046   1.636   4.384  11.454  0.7084 -0.3743 -0.2437
  264TMC3    C4 4047   1.459   4.303  11.267  0.2769  0.3157 -0.1182
  264TMC3    C5 4048   1.565   4.377  11.229 -0.7893  0.8083  1.1477
  264TMC3    C6 4049   1.654   4.420  11.322 -0.9720 -0.6102  0.1255
  264TMC3     C 4050   1.345   4.168  11.428 -0.0833  0.5734  0.1384
  264TMC3     O 4051   1.243   4.170  11.362 -0.1516 -0.2790 -0.2836
  264TMC3     H 4052   1.517   4.272  11.596  1.4251  1.4553  1.5274
  264TMC3    H1 4053   1.405   4.244  11.194 -0.5562 -1.8347  2.2466
  264TMC3    H2 4054   1.728   4.495  11.295  0.0671 -0.7721  2.5341
  264TMC3    C7 4055   1.614   4.379  11.089  0.5316  0.1521 -0.4731
  264TMC3    C8 4056   1.700   4.468  11.552 -0.1561 -0.5509 -0.3440
  264TMC3    O1 4057   1.733   4.412  11.072 -0.3891 -0.1093  0.6291
  264TMC3    O2 4058   1.744   4.580  11.524  0.1007  0.3308  0.1744
  265MPD2     C 4059   3.351   4.124  15.794 -0.1251  0.1041  0.1202
  265MPD2    C1 4060   3.344   4.233  15.707  0.7237 -0.8410 -0.1194
  265MPD2    C2 4061   3.367   4.221  15.568  0.2622 -0.1046 -0.4021
  265MPD2    C3 4062   3.418   4.103  15.515  0.4864  0.4213  0.2812
  265MPD2    C4 4063   3.427   3.993  15.603  1.0400 -0.2970  0.3136
  265MPD2    C5 4064   3.395   4.000  15.736  0.0042  0.8155 -0.2215
  265MPD2     H 4065   3.362   4.309  15.504  1.5314 -0.7907 -1.4377
  265MPD2    H1 4066   3.437   3.897  15.554  1.7457  0.1390 -0.3807
  265MPD2    H2 4067   3.346   4.137  15.902 -0.8639  0.8857 -0.0053
  265MPD2    H3 4068   3.404   3.915  15.802  1.2849  0.4354 -0.8883
  265MPD2     N 4069   3.435   4.064  15.376  0.0544  0.2099 -0.1532
  265MPD2    H5 4070   3.453   3.966  15.357  1.6846  0.3199  0.7741
  265MPD2    N1 4071   3.317   4.361  15.755  0.1250  0.3461 -0.1947
  265MPD2    H7 4072   3.327   4.436  15.688  0.1572  0.6105  0.1057
  266TMC3    C1 4073   3.261   4.529  15.911  0.3174  0.1284 -0.1780
  266TMC3    C2 4074   3.295   4.560  16.041  0.3949 -0.1632  0.1741
  266TMC3    C3 4075   3.317   4.689  16.084 -0.3000  0.3750  0.1682
  266TMC3    C4 4076   3.224   4.622  15.822  0.4657 -0.7749  0.3874
  266TMC3    C5 4077   3.254   0.014  15.863  0.0176  0.1486 -0.0243
  266TMC3    C6 4078   3.297   0.043  15.987  0.0021  0.1448 -0.5324
  266TMC3     C 4079   3.264   4.388  15.880 -0.0533 -0.1587 -0.0556
  266TMC3     O 4080   3.214   4.313  15.965  0.7798 -0.7525  1.0107
  266TMC3     H 4081   3.310   4.490  16.122 -1.1251 -0.2480  0.3747
  266TMC3    H1 4082   3.198   4.593  15.721  1.0826 -0.4550  0.1377
  266TMC3    H2 4083   3.325   0.146  16.010  0.4448  0.2968 -1.7657
  266TMC3    C7 4084   3.215   0.118  15.773  0.7590  0.3470  0.3928
  266TMC3    C8 4085   3.406   4.704  16.198  0.0214 -0.7915 -0.5317
  266TMC3    O1 4086   3.137   0.084  15.686  0.0430 -0.0220 -1.0604
  266TMC3    O2 4087   3.468   4.605  16.237  0.2048  0.3850  0.1267
  267MPD2     C 4088   1.177   1.968   0.422  0.3524 -1.6034  0.3749
  267MPD2    C1 4089   1.173   1.886   0.308  0.0106 -0.3694 -0.4419
  267MPD2    C2 4090   1.061   1.894   0.226  0.1430 -1.0328  0.2289
  267MPD2    C3 4091   0.963   1.995   0.247 -0.0802 -0.1614  0.1680
  267MPD2    C4 4092   0.974   2.087   0.350  0.3851  0.2359  1.0251
  267MPD2    C5 4093   1.084   2.071   0.438 -0.0987 -0.5833  0.5705
  267MPD2     H 4094   1.054   1.827   0.140 -1.5457 -1.3431  0.6232
  267MPD2    H1 4095   0.902   2.166   0.370 -1.2661 -1.1146  0.4467
  267MPD2    H2 4096   1.256   1.958   0.495  0.5532 -0.3966  0.3129
  267MPD2    H3 4097   1.098   2.145   0.515 -0.6808  0.1704 -0.0495
  267MPD2     N 4098   0.856   2.020   0.160  0.0539 -0.5468 -0.1864
  267MPD2    H5 4099   0.814   2.111   0.177 -2.0336 -1.4970 -0.2673
  267MPD2    N1 4100   1.268   1.779   0.290 -0.0196  0.0183  0.6074
  267MPD2    H7 4101   1.349   1.795   0.349  0.8682 -3.0128  0.2116
  268TMC3    C1 4102   1.411   1.622   0.185 -0.2750  0.3658  0.0224
  268TMC3    C2 4103   1.449   1.559   0.064  0.0794  0.1707 -0.3870
  268TMC3    C3 4104   1.575   1.520   0.051  0.5323 -0.0909 -0.3451
  268TMC3    C4 4105   1.496   1.630   0.297 -0.3779  0.8525 -0.2325
  268TMC3    C5 4106   1.619   1.568   0.279 -0.2898  0.5218 -0.8115
  268TMC3    C6 4107   1.652   1.509   0.162  0.5862 -0.4632 -0.4354
  268TMC3     C 4108   1.291   1.700   0.182 -0.1918 -0.2522 -0.1635
  268TMC3     O 4109   1.226   1.691   0.078  0.3649  0.7811  0.0602
  268TMC3     H 4110   1.369   1.546  17.755 -1.1842 -4.0539  1.7800
  268TMC3    H1 4111   1.457   1.662   0.393 -0.7164 -0.9353  0.2304
  268TMC3    H2 4112   1.756   1.480   0.147  0.7646  0.7628 -1.5219
  268TMC3    C7 4113   1.720   1.599   0.373  0.3423 -0.2919  0.4065
  268TMC3    C8 4114   1.639   1.504  17.686 -0.8238 -0.2639  0.2728
  268TMC3    O1 4115   1.826   1.544   0.368  0.5009  0.1438 -0.5722
  268TMC3    O2 4116   1.738   1.434  17.685 -0.4431 -0.3455 -0.1121
  269MPD2     C 4117   0.981   0.020  15.506 -0.1645  0.2528  0.0162
  269MPD2    C1 4118   0.967   4.735  15.644 -0.3848 -0.4203  0.0866
  269MPD2    C2 4119   1.003   0.095  15.740  0.7878 -0.7108 -0.6267
  269MPD2    C3 4120   1.044   0.219  15.694  0.5038 -0.2036  0.1558
  269MPD2    C4 4121   1.048   0.245  15.555 -0.0867 -0.0301 -0.2483
  269MPD2    C5 4122   1.019   0.145  15.467 -0.2659  0.0567  0.7452
  269MPD2     H 4123   1.005   0.072  15.846 -0.7213 -0.1060 -0.4617
  269MPD2    H1 4124   1.056   0.345  15.514  1.5640 -0.2931 -0.5328
  269MPD2    H2 4125   0.965   4.689  15.428  1.0616 -1.2168  1.1262
  269MPD2    H3 4126   1.023   0.164  15.360 -1.9132  0.4047  0.7565
  269MPD2     N 4127   1.068   0.328  15.785 -0.2486  0.3486  0.0997
  269MPD2    H5 4128   1.028   0.317  15.877 -1.6923  0.1619 -0.5471
  269MPD2    N1 4129   0.922   4.604  15.683  0.4529  0.1747 -0.0178
  269MPD2    H7 4130   0.886   4.550  15.605  0.6267  0.3286 -0.2038
  270TMC3    C1 4131   0.883   4.424  15.825  0.1160  0.7571  0.5167
  270TMC3    C2 4132   0.783   4.380  15.741 -0.3210  0.3570  0.0744
  270TMC3    C3 4133   0.770   4.243  15.722  0.0178  0.5761  0.3727
  270TMC3    C4 4134   0.975   4.335  15.872  0.0584 -0.1481  0.4372
  270TMC3    C5 4135   0.954   4.201  15.846  0.2533 -0.8310 -0.4685
  270TMC3    C6 4136   0.844   4.149  15.780 -0.3361  0.7103 -0.3719
  270TMC3     C 4137   0.936   4.558  15.806  0.4373  0.2120  0.4105
  270TMC3     O 4138   1.011   4.597  15.895  0.0272  0.1392  0.3698
  270TMC3     H 4139   0.715   4.453  15.698  0.6711  0.4172 -1.3585
  270TMC3    H1 4140   1.068   4.357  15.923  1.0062  0.3549 -1.5177
  270TMC3    H2 4141   0.812   4.046  15.768 -4.0219  2.0521 -1.9973
  270TMC3    C7 4142   1.070   4.136  15.814 -0.6304  0.0637 -0.5882
  270TMC3    C8 4143   0.733   4.187  15.589  0.0496 -0.8551  0.3735
  270TMC3    O1 4144   1.175   4.162  15.873  0.1209  0.5473  0.8302
  270TMC3    O2 4145   0.804   4.096  15.545 -0.4901 -0.1794  0.0836
  271MPD2     C 4146   0.214   4.208  13.907  0.0045 -0.1681 -0.6942
  271MPD2    C1 4147   0.118   4.186  14.004  0.1783 -0.3737 -0.8798
  271MPD2    C2 4148   0.019   4.283  14.027  0.2754  0.4491 -0.1583
  271MPD2    C3 4149   0.006   4.391  13.936  0.0841 -0.2804 -0.2618
  271MPD2    C4 4150   0.104   4.405  13.835 -0.6522  0.4071  0.7614
  271MPD2    C5 4151   0.207   4.314  13.819 -0.2474 -0.0403 -0.3293
  271MPD2     H 4152   4.690   4.274  14.109  1.0982 -1.4126  0.3358
  271MPD2    H1 4153   0.105   4.491  13.769 -0.8123  1.4244  2.0779
  271MPD2    H2 4154   0.296   4.140  13.891 -1.0706 -1.1291 -2.1406
  271MPD2    H3 4155   0.271   4.310  13.733  1.7046  1.2617  1.0652
  271MPD2     N 4156   4.646   4.488  13.942  0.4298 -1.0126 -1.1203
  271MPD2    H5 4157   4.640   4.552  13.863 -1.6283  0.6952  0.4132
  271MPD2    N1 4158   0.122   4.085  14.102 -0.3128 -0.1585 -0.0380
  271MPD2    H7 4159   0.058   4.095  14.180  2.0255 -1.8909  2.1303
  272TMC3    C1 4160   0.250   3.943  14.237 -0.2399  0.5404  0.2887
  272TMC3    C2 4161   0.373   3.886  14.252  0.2849 -0.1820  0.0548
  272TMC3    C3 4162   0.431   3.855  14.376  0.1818 -0.1056  0.2566
  272TMC3    C4 4163   0.177   3.976  14.349  0.5508  0.4781 -0.2808
  272TMC3    C5 4164   0.249   3.973  14.465 -0.6042 -0.6651  0.2971
  272TMC3    C6 4165   0.371   3.911  14.487 -0.4849 -0.1411 -0.3499
  272TMC3     C 4166   0.211   3.979  14.101  0.0800  0.3862  0.4607
  272TMC3     O 4167   0.272   3.933  14.005  0.2902 -0.2800  0.2043
  272TMC3     H 4168   0.422   3.873  14.156  0.1338  0.0870 -0.0568
  272TMC3    H1 4169   0.080   4.023  14.336  0.5600  0.3522 -0.7921
  272TMC3    H2 4170   0.416   3.907  14.585  1.6541 -0.1232 -1.3432
  272TMC3    C7 4171   0.198   4.067  14.567  0.4750  0.2164 -0.2747
  272TMC3    C8 4172   0.573   3.840  14.378 -0.1201 -0.1227 -0.1488
  272TMC3    O1 4173   0.077   4.083  14.572  0.1601  0.5052 -0.2332
  272TMC3    O2 4174   0.632   3.901  14.292 -0.0192 -0.2920  0.2134
  273MPD2     C 4175   1.558   2.028  12.083 -0.2117 -0.6163 -0.2071
  273MPD2    C1 4176   1.691   2.046  12.058  0.4589  0.0168 -0.0138
  273MPD2    C2 4177   1.733   2.136  11.959  0.1043  0.7046  0.2810
  273MPD2    C3 4178   1.644   2.222  11.898 -0.2839 -0.2535 -0.7821
  273MPD2    C4 4179   1.505   2.205  11.928 -0.0252 -0.4851  0.4560
  273MPD2    C5 4180   1.464   2.110  12.021 -0.8976  0.2341 -0.5736
  273MPD2     H 4181   1.838   2.158  11.946 -0.0837  0.3529 -1.8513
  273MPD2    H1 4182   1.432   2.279  11.896  0.4668  0.2746  1.0678
  273MPD2    H2 4183   1.518   1.946  12.141 -0.0712  0.5696  1.5535
  273MPD2    H3 4184   1.358   2.094  12.038 -0.9301  0.3491 -0.6728
  273MPD2     N 4185   1.688   2.330  11.808 -0.2654  0.2815 -0.1418
  273MPD2    H5 4186   1.611   2.380  11.765  0.3523  1.7447  0.4506
  273MPD2    N1 4187   1.784   1.962  12.119  0.0808  0.0771  0.6097
  273MPD2    H7 4188   1.743   1.893  12.180 -0.7157  0.8763  0.9868
  274TMC3    C1 4189   1.835   2.446  11.669 -0.1862  0.2048 -0.1138
  274TMC3    C2 4190   1.741   2.448  11.573  0.0440 -0.2350 -0.6288
  274TMC3    C3 4191   1.760   2.531  11.466  0.7039  0.3835 -0.2750
  274TMC3    C4 4192   1.934   2.533  11.669  0.2360 -0.0631 -0.4533
  274TMC3    C5 4193   1.942   2.629  11.570  0.4534  0.1580 -0.8491
  274TMC3    C6 4194   1.862   2.619  11.459  1.0386  1.1960 -0.5914
  274TMC3     C 4195   1.822   2.355  11.772 -0.3860 -0.1655 -0.1609
  274TMC3     O 4196   1.927   2.318  11.822  0.8652 -0.2081 -0.5675
  274TMC3     H 4197   1.667   2.369  11.565 -0.5651 -0.0893  3.4201
  274TMC3    H1 4198   1.997   2.539  11.757  0.6145 -1.5850 -0.6286
  274TMC3    H2 4199   1.852   2.699  11.387  1.1116  0.3177 -1.5821
  274TMC3    C7 4200   1.996   2.762  11.603  0.0756 -0.5700  0.0677
  274TMC3    C8 4201   1.642   2.577  11.395  0.2072 -0.9569  0.4065
  274TMC3    O1 4202   1.963   2.849  11.524 -0.1734 -0.0667  0.6923
  274TMC3    O2 4203   1.634   2.692  11.358 -0.0290 -0.5841 -0.4600
  275MPD2     C 4204   1.664   0.644  14.762 -0.1031 -0.5766  0.7448
  275MPD2    C1 4205   1.631   0.526  14.823 -0.4081  0.9412  0.0786
  275MPD2    C2 4206   1.525   0.453  14.761  0.6500  0.7451 -1.0537
  275MPD2    C3 4207   1.439   0.510  14.670 -0.6236  0.2231 -0.1277
  275MPD2    C4 4208   1.462   0.641  14.633 -0.6652 -0.3942 -0.2446
  275MPD2    C5 4209   1.574   0.705  14.677  0.0296 -0.5239  0.0961
  275MPD2     H 4210   1.504   0.355  14.801 -0.3562  0.4230 -2.3773
  275MPD2    H1 4211   1.406   0.697  14.558 -1.3058 -0.4309  0.2081
  275MPD2    H2 4212   1.756   0.700  14.777 -0.2682  0.4234 -2.1006
  275MPD2    H3 4213   1.594   0.807  14.646 -0.5318 -0.6076 -0.5431
  275MPD2     N 4214   1.321   0.447  14.617 -0.4504  0.3248  0.0223
  275MPD2    H5 4215   1.268   0.497  14.547 -1.4777 -0.6259  0.1195
  275MPD2    N1 4216   1.706   0.465  14.933  0.0267  0.0982 -0.1832
  275MPD2    H7 4217   1.679   0.374  14.970 -1.9259  0.2344 -1.2982
  276TMC3    C1 4218   1.860   0.464  15.119 -0.0640  0.3489 -0.0227
  276TMC3    C2 4219   1.885   0.330  15.108  0.6647 -0.5463 -0.1603
  276TMC3    C3 4220   1.969   0.285  15.199  0.3429  0.1047  0.4116
  276TMC3    C4 4221   1.895   0.549  15.224 -0.3325  0.7131 -0.1603
  276TMC3    C5 4222   1.969   0.488  15.321  1.4462  0.4089 -0.3671
  276TMC3    C6 4223   2.012   0.355  15.306 -0.0253  0.1052 -0.5477
  276TMC3     C 4224   1.794   0.542  15.015  0.6046 -0.2215 -0.0311
  276TMC3     O 4225   1.814   0.663  15.014 -0.0274 -0.6868  0.0778
  276TMC3     H 4226   1.873   0.280  15.012  3.4046 -1.9107  0.2127
  276TMC3    H1 4227   1.866   0.652  15.240  1.0979  1.0851 -0.0381
  276TMC3    H2 4228   2.091   0.309  15.365 -1.3300 -0.6157  0.6438
  276TMC3    C7 4229   2.030   0.560  15.423  0.6938 -0.6266 -0.0789
  276TMC3    C8 4230   2.046   0.168  15.170  0.3240 -0.0668 -0.2973
  276TMC3    O1 4231   2.019   0.682  15.419 -0.0140  0.0821  0.0446
  276TMC3    O2 4232   2.165   0.183  15.182 -0.1177 -0.1497 -0.0364
  277MPD2     C 4233   3.827   4.333  13.352  0.1989 -0.0413  0.1673
  277MPD2    C1 4234   3.706   4.393  13.370  0.1190  0.0736 -0.5940
  277MPD2    C2 4235   3.599   4.320  13.401 -0.0721 -0.1556 -0.0518
  277MPD2    C3 4236   3.604   4.184  13.415 -0.4803  0.4684  0.9405
  277MPD2    C4 4237   3.726   4.123  13.383 -0.2365 -0.5092 -0.1656
  277MPD2    C5 4238   3.839   4.195  13.351 -0.3998 -0.1033 -0.0755
  277MPD2     H 4239   3.506   4.373  13.416 -0.2319 -0.7314  0.9917
  277MPD2    H1 4240   3.745   4.018  13.404 -2.0994 -0.7645  0.1922
  277MPD2    H2 4241   3.916   4.386  13.321  1.2823 -1.9180  0.0740
  277MPD2    H3 4242   3.940   4.157  13.342 -0.4099 -0.0002 -0.6437
  277MPD2     N 4243   3.484   4.116  13.457  0.4601 -0.1010  0.3463
  277MPD2    H5 4244   3.405   4.178  13.467 -0.5606 -1.0176 -2.1806
  277MPD2    N1 4245   3.689   4.532  13.337  0.3467 -0.4059 -0.0631
  277MPD2    H7 4246   3.592   4.562  13.341 -0.0017 -1.6625  1.0812
  278TMC3    C1 4247   3.343   3.943  13.521 -0.4993  0.1333 -0.2383
  278TMC3    C2 4248   3.326   3.825  13.593  0.3776  0.1004  0.2082
  278TMC3    C3 4249   3.205   3.796  13.653  0.2644 -0.3224  0.2397
  278TMC3    C4 4250   3.238   4.024  13.504  0.5822  0.7493  0.8311
  278TMC3    C5 4251   3.115   3.990  13.567 -0.7587 -0.7622 -0.6646
  278TMC3    C6 4252   3.093   3.868  13.629  0.1523 -0.1522  0.2490
  278TMC3     C 4253   3.474   3.982  13.476 -0.3068 -0.1336  0.0616
  278TMC3     O 4254   3.564   3.905  13.487 -0.3000  0.1282 -0.2218
  278TMC3     H 4255   3.405   3.753  13.608 -0.1702 -0.7691 -1.0713
  278TMC3    H1 4256   3.246   4.098  13.425  0.4081 -0.3096 -0.1799
  278TMC3    H2 4257   2.996   3.836  13.663 -0.7527  0.3843 -1.8207
  278TMC3    C7 4258   3.002   4.070  13.514 -0.2823  0.4567  0.4286
  278TMC3    C8 4259   3.195   3.662  13.721 -0.3701  0.0999 -0.1205
  278TMC3    O1 4260   3.023   4.147  13.424 -0.6083  0.0541  1.0530
  278TMC3    O2 4261   3.295   3.606  13.764  0.0465 -0.0699  0.8502
  279MPD2     C 4262   3.082   0.073   0.518 -0.4601 -0.4142 -0.0151
  279MPD2    C1 4263   2.963   0.116   0.466 -0.2467  0.3690 -0.0424
  279MPD2    C2 4264   2.961   0.134   0.332 -0.4352 -0.7115  0.2579
  279MPD2    C3 4265   3.070   0.094   0.251 -0.0843  0.0638 -0.3484
  279MPD2    C4 4266   3.183   0.043   0.301 -0.0940 -0.2457  0.2924
  279MPD2    C5 4267   3.185   0.033   0.437  0.0142  0.0224 -0.0185
  279MPD2     H 4268   2.871   0.169   0.282 -1.7712 -2.9192  1.0946
  279MPD2    H1 4269   3.269   0.014   0.242  0.5265  0.0531  1.0479
  279MPD2    H2 4270   3.103   0.061   0.624  0.8965 -2.8147 -0.5558
  279MPD2    H3 4271   3.273   4.736   0.487 -1.1220 -0.6327  1.4673
  279MPD2     N 4272   3.058   0.105   0.112  0.8686  0.3851  1.0779
  279MPD2    H5 4273   3.142   0.120   0.057 -0.2383  1.0383 -0.4264
  279MPD2    N1 4274   2.858   0.169   0.543  0.0259 -1.2047  0.2630
  279MPD2    H7 4275   2.784   0.200   0.480  0.7523  0.2848  0.1517
  280TMC3    C1 4276   2.696   0.188   0.705  0.6367  0.0039  0.1432
  280TMC3    C2 4277   2.618   0.074   0.736 -0.5120 -0.0801  0.4205
  280TMC3    C3 4278   2.499   0.062   0.664  0.5723  1.2953 -0.2888
  280TMC3    C4 4279   2.649   0.282   0.615 -0.2557  0.7580 -0.1260
  280TMC3    C5 4280   2.527   0.267   0.560  0.3605  0.2695  0.4183
  280TMC3    C6 4281   2.448   0.160   0.581  0.3346  0.4834  0.3846
  280TMC3     C 4282   2.831   0.148   0.674 -0.4707 -0.6782 -0.2313
  280TMC3     O 4283   2.897   0.085   0.757  0.4590  0.8665 -0.2346
  280TMC3     H 4284   2.662   4.741   0.800  1.8165  0.1408 -0.9454
  280TMC3    H1 4285   2.713   0.366   0.591 -1.0127  1.2994 -0.2317
  280TMC3    H2 4286   2.357   0.148   0.524  0.8201  4.0605 -1.1756
  280TMC3    C7 4287   2.462   0.393   0.516 -0.1739  0.3209 -0.6652
  280TMC3    C8 4288   2.425   4.679   0.670  0.1346  0.2046  0.2865
  280TMC3    O1 4289   2.514   0.504   0.532  0.0771 -0.8393  0.2901
  280TMC3    O2 4290   2.371   4.655   0.565  0.8437 -0.0778  0.0956
  281TMC3    C1 4291   1.889   4.584  13.634 -0.0784  1.0365  0.0853
  281TMC3    C2 4292   1.936   4.664  13.529 -0.1372 -0.2449 -0.2861
  281TMC3    C3 4293   1.965   4.594  13.418  0.0925  0.6687  1.2647
  281TMC3    C4 4294   1.881   4.442  13.634 -0.7536 -0.4320  0.1141
  281TMC3    C5 4295   1.900   4.383  13.511  1.0755  0.9414 -0.1988
  281TMC3    C6 4296   1.948   4.464  13.408  0.7903 -0.4185 -0.1160
  281TMC3     C 4297   1.817   4.648  13.746  0.3209 -0.2074 -0.6703
  281TMC3     O 4298   1.795   4.578  13.847 -0.2845  0.4986  0.1448
  281TMC3     H 4299   1.934   0.031  13.531  0.0421 -0.2263 -0.9848
  281TMC3    H1 4300   1.847   4.381  13.717 -0.2546  0.0636  0.6888
  281TMC3    H2 4301   1.965   4.413  13.313  0.2771 -0.7129 -0.0492
  281TMC3    C7 4302   1.793   4.301  13.475 -0.5969  0.2124  0.6435
  281TMC3    C8 4303   2.053   4.661  13.318  0.0313 -0.3703 -0.4433
  281TMC3    O1 4304   1.808   4.227  13.377 -0.1408 -0.1404 -0.0823
  281TMC3    O2 4305   2.145   4.589  13.280 -0.2510 -0.3395 -0.0675
  282MPD2     C 4306   3.313   0.908  15.463  0.0320 -0.9437 -0.2116
  282MPD2    C1 4307   3.369   1.032  15.486  0.1989  0.7794  0.8990
  282MPD2    C2 4308   3.345   1.137  15.403 -0.7748  1.1978 -0.0271
  282MPD2    C3 4309   3.259   1.117  15.297  0.3310  0.3082 -0.7199
  282MPD2    C4 4310   3.207   0.994  15.272 -0.5532  0.4787  0.2403
  282MPD2    C5 4311   3.237   0.890  15.361  0.4018 -0.6585  0.2600
  282MPD2     H 4312   3.376   1.237  15.432  0.6913  0.6135  0.3754
  282MPD2    H1 4313   3.151   0.961  15.186 -0.9460  0.7602  0.3862
  282MPD2    H2 4314   3.322   0.823  15.529  1.6263 -0.7649 -0.1864
  282MPD2    H3 4315   3.197   0.792  15.341 -0.4302  0.2062 -2.3230
  282MPD2     N 4316   3.234   1.228  15.217 -0.2294 -0.5088  0.0462
  282MPD2    H5 4317   3.290   1.312  15.228 -0.5782 -0.3613  0.7111
  282MPD2    N1 4318   3.437   1.053  15.603  0.2521  0.8530  0.3548
  282MPD2    H7 4319   3.434   0.984  15.677  1.1364 -1.4656 -1.7899
  283TMC3    C1 4320   3.516   1.169  15.801  1.1292 -0.6103 -0.1987
  283TMC3    C2 4321   3.549   1.292  15.841 -0.3843 -0.2539  0.7828
  283TMC3    C3 4322   3.523   1.314  15.974 -0.7453 -0.2408 -0.0563
  283TMC3    C4 4323   3.445   1.082  15.882 -0.1680 -0.3164  0.6606
  283TMC3    C5 4324   3.419   1.105  16.016 -0.4232 -0.0249  0.3683
  283TMC3    C6 4325   3.451   1.229  16.054 -0.1369 -1.1202 -0.0681
  283TMC3     C 4326   3.501   1.169  15.649 -0.2804  0.0637  0.3895
  283TMC3     O 4327   3.537   1.268  15.586  0.6271 -0.0623 -0.1038
  283TMC3     H 4328   3.603   1.357  15.774  0.3159 -2.6682 -0.9650
  283TMC3    H1 4329   3.409   0.985  15.850  0.8340 -0.4036 -0.2131
  283TMC3    H2 4330   3.427   1.248  16.158  2.3349 -1.0978  0.4848
  283TMC3    C7 4331   3.299   1.046  16.072  0.3772  0.3181 -0.0783
  283TMC3    C8 4332   3.523   1.444  16.035 -0.5204 -0.3166 -0.4556
  283TMC3    O1 4333   3.222   1.108  16.147  0.4625  0.1377  0.1093
  283TMC3    O2 4334   3.485   1.457  16.152 -0.0025  0.1232 -0.4704
  284MPD2     C 4335   1.366   0.734  12.051  0.4070  0.0946 -0.2571
  284MPD2    C1 4336   1.495   0.769  12.081  0.2351  0.9038  0.2604
  284MPD2    C2 4337   1.571   0.664  12.128 -0.5397  0.2252 -0.2895
  284MPD2    C3 4338   1.526   0.534  12.142 -1.1693  0.5304  0.2298
  284MPD2    C4 4339   1.395   0.499  12.101 -0.3487 -0.4154 -0.1620
  284MPD2    C5 4340   1.323   0.605  12.055 -1.0549  0.1426 -0.0615
  284MPD2     H 4341   1.674   0.692  12.149  0.7020 -2.2976 -3.0360
  284MPD2    H1 4342   1.348   0.402  12.110 -0.7271 -0.1385  0.8374
  284MPD2    H2 4343   1.299   0.811  12.015 -0.6563 -0.1816  1.1330
  284MPD2    H3 4344   1.220   0.597  12.022 -1.0277 -1.6008  0.3101
  284MPD2     N 4345   1.612   0.437  12.207 -0.5183 -0.6767 -0.0233
  284MPD2    H5 4346   1.710   0.462  12.216 -0.5049 -0.2672 -1.3577
  284MPD2    N1 4347   1.558   0.899  12.072  0.1176 -0.5092 -0.2829
  284MPD2    H7 4348   1.659   0.896  12.081 -0.2386 -3.2705  2.6186
  285TMC3    C1 4349   1.599   1.125  12.025 -0.1390 -0.6236  0.1563
  285TMC3    C2 4350   1.725   1.094  12.070 -0.3583  0.1807  0.4524
  285TMC3    C3 4351   1.835   1.137  11.998 -0.3427 -0.1299  0.3624
  285TMC3    C4 4352   1.583   1.206  11.923  0.7126  0.0394  0.3671
  285TMC3    C5 4353   1.690   1.258  11.860 -0.0432 -1.0149  0.1525
  285TMC3    C6 4354   1.813   1.231  11.898 -0.1300 -0.4314  0.0263
  285TMC3     C 4355   1.504   1.013  12.027 -1.0859  0.6667  0.2252
  285TMC3     O 4356   1.392   1.041  11.989 -0.1339  0.0731 -0.2231
  285TMC3     H 4357   1.739   1.023  12.151  0.5027  0.4096  0.5010
  285TMC3    H1 4358   1.482   1.225  11.888  0.8433 -2.2551 -1.2611
  285TMC3    H2 4359   1.888   1.294  11.851 -1.5129 -0.1640 -1.8109
  285TMC3    C7 4360   1.681   1.342  11.742  0.0444 -0.7869  0.1914
  285TMC3    C8 4361   1.918   1.024  11.964 -0.1972 -0.5496  0.4283
  285TMC3    O1 4362   1.787   1.342  11.671  0.4069 -0.3902 -0.1138
  285TMC3    O2 4363   1.888   0.919  12.019 -0.3560 -0.4653 -0.3022
  286MPD2     C 4364   2.467   0.227   1.423  0.2448 -0.2615  0.4263
  286MPD2    C1 4365   2.390   0.116   1.376 -0.6527  0.0836  0.8386
  286MPD2    C2 4366   2.425   4.726   1.408  0.3228  0.0395  0.3191
  286MPD2    C3 4367   2.538   4.698   1.487 -0.2334 -0.6848  0.2735
  286MPD2    C4 4368   2.612   0.064   1.528 -0.5224  0.6096  0.0868
  286MPD2    C5 4369   2.576   0.198   1.505  0.3139  0.2310 -0.2915
  286MPD2     H 4370   2.358   4.647   1.378 -0.9440  1.2514 -0.0755
  286MPD2    H1 4371   2.700   0.059   1.590 -0.6047 -1.8868 -0.0129
  286MPD2    H2 4372   2.449   0.332   1.402  0.6775 -0.8244 -2.7528
  286MPD2    H3 4373   2.644   0.278   1.533  1.0492  0.3103 -2.3794
  286MPD2     N 4374   2.574   4.569   1.517 -0.1730  0.1073  0.2146
  286MPD2    H5 4375   2.644   4.560   1.590 -0.2516  0.4578  0.3315
  286MPD2    N1 4376   2.268   0.130   1.302  0.7461 -0.4730 -0.1723
  286MPD2    H7 4377   2.224   0.041   1.280 -1.5037  0.2404  1.4576
  287TMC3    C1 4378   2.589   4.331   1.492  0.9498  0.1213  0.7114
  287TMC3    C2 4379   2.617   4.247   1.389  0.2110 -0.2776 -0.2146
  287TMC3    C3 4380   2.705   4.145   1.410 -0.5665 -0.0920 -0.0856
  287TMC3    C4 4381   2.630   4.312   1.616  0.6764 -0.0672  0.3445
  287TMC3    C5 4382   2.713   4.208   1.637 -0.1254  0.3296 -0.3944
  287TMC3    C6 4383   2.763   4.126   1.535 -0.5920 -0.4508 -0.0580
  287TMC3     C 4384   2.531   4.459   1.451 -0.6694 -0.7755  0.5648
  287TMC3     O 4385   2.467   4.458   1.341  0.9334  0.1698 -0.3588
  287TMC3     H 4386   2.554   4.268   1.303  1.0203 -0.4130 -0.8467
  287TMC3    H1 4387   2.594   4.382   1.691  0.8529 -2.2192  2.4158
  287TMC3    H2 4388   2.817   4.033   1.550 -1.1079 -0.9544 -1.2808
  287TMC3    C7 4389   2.744   4.198   1.773  0.1522 -0.1356 -0.5205
  287TMC3    C8 4390   2.697   4.038   1.307 -0.0331 -0.4471 -0.9079
  287TMC3    O1 4391   2.690   4.270   1.857 -0.0246  0.2737 -0.9093
  287TMC3    O2 4392   2.726   3.924   1.344  0.6471 -0.2639 -0.6623
  288TMC3    C1 4393   3.637   4.015  14.558 -0.3108  0.4079 -0.5068
  288TMC3    C2 4394   3.523   3.996  14.627 -0.1201 -0.2511  0.8103
  288TMC3    C3 4395   3.418   4.087  14.601  0.5269  0.7312 -0.0291
  288TMC3    C4 4396   3.643   4.101  14.455  0.4503 -0.1714 -0.2848
  288TMC3    C5 4397   3.535   4.182  14.428  0.1092  0.0727  0.0974
  288TMC3    C6 4398   3.422   4.177  14.503  0.1760 -0.2741  0.2265
  288TMC3     C 4399   3.756   3.934  14.589  0.0888  0.4240  0.1752
  288TMC3     O 4400   3.859   3.984  14.556 -0.0292 -1.1382 -0.6912
  288TMC3     H 4401   3.514   3.938  14.718 -2.4534  0.9358  1.3371
  288TMC3    H1 4402   3.739   4.104  14.404  1.5889 -0.3107  1.8399
  288TMC3    H2 4403   3.338   4.245  14.499  0.6484  0.2739 -0.6223
  288TMC3    C7 4404   3.509   4.249  14.301 -0.2073 -0.3072  0.0850
  288TMC3    C8 4405   3.300   4.090  14.686 -0.2120  0.6928  0.3656
  288TMC3    O1 4406   3.404   4.307  14.279  0.1169  0.1394 -0.4175
  288TMC3    O2 4407   3.250   4.199  14.712  0.1523  0.7025  0.7736
  289MPD2     C 4408   3.610   2.795  15.071  0.0540  0.5540 -0.3370
  289MPD2    C1 4409   3.633   2.891  14.973 -0.0902  0.0124  0.0840
  289MPD2    C2 4410   3.523   2.939  14.901  0.1060 -0.3411  0.1651
  289MPD2    C3 4411   3.391   2.886  14.924 -0.8644  0.3009  0.5769
  289MPD2    C4 4412   3.379   2.788  15.022  0.6141 -0.1114 -0.3744
  289MPD2    C5 4413   3.485   2.747  15.093 -0.3719  0.0579 -0.3153
  289MPD2     H 4414   3.529   3.017  14.825  1.6307 -2.6450 -2.0772
  289MPD2    H1 4415   3.284   2.745  15.051 -0.0982  1.9015  0.2510
  289MPD2    H2 4416   3.693   2.753  15.127 -0.0834  1.1904  0.3411
  289MPD2    H3 4417   3.467   2.663  15.159  0.7068 -0.7442 -1.0360
  289MPD2     N 4418   3.283   2.926  14.847  0.6785 -0.4193 -0.6072
  289MPD2    H5 4419   3.191   2.884  14.857  0.1535  1.1147  1.1231
  289MPD2    N1 4420   3.767   2.930  14.960  0.6959 -0.3954 -0.6164
  289MPD2    H7 4421   3.840   2.892  15.018  0.9464  0.3091 -0.4718
  290TMC3    C1 4422   3.160   3.039  14.686 -0.5222 -0.1479  0.5044
  290TMC3    C2 4423   3.152   3.144  14.595 -0.3983 -0.6042 -0.0821
  290TMC3    C3 4424   3.051   3.140  14.503  0.2319  1.1650  0.6259
  290TMC3    C4 4425   3.070   2.936  14.678  0.3232 -0.2451  0.4120
  290TMC3    C5 4426   2.976   2.937  14.580  0.5905 -0.8050  0.0182
  290TMC3    C6 4427   2.967   3.036  14.489  0.9971 -1.1461  0.6839
  290TMC3     C 4428   3.286   3.031  14.760  0.0665  0.2809 -0.1979
  290TMC3     O 4429   3.361   3.120  14.727 -0.5629 -0.0457 -0.1020
  290TMC3     H 4430   3.206   3.237  14.605 -0.6835 -0.6096  1.5192
  290TMC3    H1 4431   3.084   2.845  14.735  0.1565 -0.2521  0.4417
  290TMC3    H2 4432   2.886   3.041  14.417  2.5059 -0.6332 -0.9706
  290TMC3    C7 4433   2.852   2.868  14.593  0.3759 -0.1019 -0.4104
  290TMC3    C8 4434   3.041   3.244  14.406 -0.0639  0.0507  0.3891
  290TMC3    O1 4435   2.755   2.907  14.531 -0.5501 -0.7834 -0.1485
  290TMC3    O2 4436   3.030   3.196  14.290  0.3624  0.3804  0.4104
  291MPD2     C 4437   3.455   3.431   0.795 -0.2982 -1.5480  0.3056
  291MPD2    C1 4438   3.392   3.354   0.699 -0.8231 -0.5765  0.3599
  291MPD2    C2 4439   3.309   3.420   0.617  0.0144  0.3874 -0.0791
  291MPD2    C3 4440   3.291   3.559   0.623 -0.3100 -0.4412  0.0783
  291MPD2    C4 4441   3.361   3.635   0.714 -0.4908  1.3061 -0.3196
  291MPD2    C5 4442   3.433   3.564   0.804  0.0905 -0.1078  0.1983
  291MPD2     H 4443   3.255   3.362   0.543  0.0122  1.1193 -0.6551
  291MPD2    H1 4444   3.356   3.743   0.716  3.7792  1.4446  1.9139
  291MPD2    H2 4445   3.518   3.384   0.869 -1.0839 -2.0928  0.6284
  291MPD2    H3 4446   3.480   3.623   0.883  1.9130  0.7552 -1.5381
  291MPD2     N 4447   3.220   3.641   0.527 -0.5603  0.6369 -0.4329
  291MPD2    H5 4448   3.251   3.738   0.530 -0.1239  0.4728  0.5512
  291MPD2    N1 4449   3.421   3.212   0.684  0.2312  0.0658  0.3573
  291MPD2    H7 4450   3.447   3.156   0.765 -0.5868  0.2077  0.7195
  292TMC3    C1 4451   3.399   3.004   0.604 -0.3142 -0.6402 -0.7357
  292TMC3    C2 4452   3.343   2.966   0.726 -0.0979  0.0335 -0.8836
  292TMC3    C3 4453   3.278   2.847   0.731  0.2056  1.0808 -0.5674
  292TMC3    C4 4454   3.398   2.919   0.493  0.4154  0.0417 -0.2756
  292TMC3    C5 4455   3.326   2.808   0.509  0.2927 -0.2431  0.1203
  292TMC3    C6 4456   3.276   2.761   0.628  0.6011 -0.5379 -0.3041
  292TMC3     C 4457   3.407   3.141   0.571 -0.2604  0.0683 -0.1790
  292TMC3     O 4458   3.389   3.183   0.456  0.4955  0.3040  0.3901
  292TMC3     H 4459   3.327   3.029   0.813 -0.2621  0.7941 -1.4599
  292TMC3    H1 4460   3.427   2.949   0.393 -1.4474 -1.2965 -1.2218
  292TMC3    H2 4461   3.232   2.662   0.630 -1.6506  0.5062  1.3831
  292TMC3    C7 4462   3.337   2.706   0.404  0.4295 -0.1625  0.4590
  292TMC3    C8 4463   3.206   2.814   0.851  0.4010  0.6908  0.2440
  292TMC3    O1 4464   3.404   2.607   0.427  0.8479  0.7435 -0.5109
  292TMC3    O2 4465   3.253   2.837   0.965 -0.0185 -0.2527  0.3150
  293MPD2     C 4466   4.580   4.029  12.687 -0.3213  0.8621  0.2998
  293MPD2    C1 4467   4.471   4.055  12.764  0.4902  0.2570 -0.0781
  293MPD2    C2 4468   4.482   4.128  12.884 -0.1129  0.7079 -0.0442
  293MPD2    C3 4469   4.603   4.184  12.915  0.0969 -0.1526  0.3284
  293MPD2    C4 4470   4.710   4.171  12.829 -0.0950 -0.3463  0.2044
  293MPD2    C5 4471   4.699   4.089  12.722  1.1168  0.6605 -0.1300
  293MPD2     H 4472   4.392   4.139  12.944 -1.0636 -2.6940 -0.8351
  293MPD2    H1 4473   0.068   4.212  12.844 -0.6134  0.8095  0.4967
  293MPD2    H2 4474   4.576   3.975  12.594  1.6673  2.5545 -0.7717
  293MPD2    H3 4475   0.040   4.069  12.654  1.2343  2.3341 -0.4736
  293MPD2     N 4476   4.607   4.267  13.031  0.1879 -0.3486 -0.4133
  293MPD2    H5 4477   4.529   4.257  13.094  0.5982  0.8132  0.2754
  293MPD2    N1 4478   4.349   3.989  12.719  0.1162 -0.1193 -0.0984
  293MPD2    H7 4479   4.368   3.954  12.625  2.3932 -1.2751  0.8014
  294TMC3    C1 4480   4.118   3.930  12.707 -0.7738 -0.9516 -0.6727
  294TMC3    C2 4481   4.016   3.881  12.781 -0.1091  0.7376  0.2060
  294TMC3    C3 4482   3.904   3.835  12.714 -0.1066 -0.1946  0.2089
  294TMC3    C4 4483   4.112   3.956  12.569  0.6580 -0.9886  0.3978
  294TMC3    C5 4484   4.000   3.919  12.507  0.3091 -0.5661  0.3660
  294TMC3    C6 4485   3.896   3.861  12.580  0.5920  0.8303 -0.3331
  294TMC3     C 4486   4.229   3.975  12.790  0.2018  0.2155  0.6150
  294TMC3     O 4487   4.200   3.997  12.905  0.6618 -0.0925  0.1415
  294TMC3     H 4488   4.028   3.848  12.884 -2.3800 -3.0370 -0.7519
  294TMC3    H1 4489   4.186   4.013  12.513 -2.4590  1.9528 -0.7522
  294TMC3    H2 4490   3.815   3.821  12.521  1.1277 -0.6940 -0.0206
  294TMC3    C7 4491   3.959   4.008  12.403  0.3383 -0.9463  0.0983
  294TMC3    C8 4492   3.833   3.724  12.762 -0.1131  0.6926 -0.5462
  294TMC3    O1 4493   3.858   4.076  12.424  0.0941  0.4457 -0.1760
  294TMC3    O2 4494   3.807   3.732  12.881 -0.0148  0.0537  0.5287
  295MPD2     C 4495   0.444   3.224   1.262  0.1607  0.4499  0.9074
  295MPD2    C1 4496   0.452   3.365   1.259 -0.2896  0.1077  0.0129
  295MPD2    C2 4497   0.359   3.433   1.337 -0.2712  0.5689  0.2914
  295MPD2    C3 4498   0.263   3.374   1.420  0.0847  0.8193 -0.3125
  295MPD2    C4 4499   0.252   3.236   1.419 -0.2256 -0.0372 -0.8169
  295MPD2    C5 4500   0.352   3.169   1.356  0.3886  0.0051 -0.3822
  295MPD2     H 4501   0.357   3.541   1.336  0.0940  0.5722 -0.2434
  295MPD2    H1 4502   0.176   3.183   1.475 -0.5076  0.4159 -0.7726
  295MPD2    H2 4503   0.511   3.157   1.209  0.5215  1.1407  0.4836
  295MPD2    H3 4504   0.351   3.064   1.379 -0.4511 -0.0774 -0.7691
  295MPD2     N 4505   0.161   3.450   1.488  0.2218 -0.2872  0.6095
  295MPD2    H5 4506   0.094   3.405   1.550  0.1076 -0.4013  0.4032
  295MPD2    N1 4507   0.536   3.425   1.167 -0.6673 -0.5889 -0.0834
  295MPD2    H7 4508   0.577   3.356   1.106 -0.2609  1.4164 -2.0995
  296TMC3    C1 4509   0.058   3.657   1.574  0.5591  0.1436 -0.5396
  296TMC3    C2 4510   4.715   3.757   1.530 -0.5801 -0.6359  0.8006
  296TMC3    C3 4511   4.619   3.794   1.615  0.4593  0.1435 -0.3649
  296TMC3    C4 4512   0.031   3.581   1.686 -0.8276  0.0380 -0.9207
  296TMC3    C5 4513   4.665   3.615   1.762 -0.6963  0.6255 -0.1399
  296TMC3    C6 4514   4.588   3.724   1.729 -0.1845 -0.3317 -0.5299
  296TMC3     C 4515   0.140   3.592   1.465 -0.6687  0.9788  0.1787
  296TMC3     O 4516   0.154   3.656   1.361  0.6813  0.3219  0.1351
  296TMC3     H 4517   4.730   3.813   1.438 -0.0590  0.2645  1.4315
  296TMC3    H1 4518   0.098   3.501   1.713  2.4450  1.9434 -3.3114
  296TMC3    H2 4519   4.512   3.758   1.798  1.4629 -1.2451  1.7222
  296TMC3    C7 4520   4.609   3.532   1.869 -0.0300 -0.5331  1.4493
  296TMC3    C8 4521   4.527   3.895   1.579  0.1996 -0.0873  0.1448
  296TMC3    O1 4522   4.534   3.581   1.951 -0.5127  0.3683  0.2564
  296TMC3    O2 4523   4.414   3.887   1.633  0.5634  0.0206  0.0189
  297MPD2     C 4524   2.526   0.020  16.534 -0.0481  0.5549 -0.3983
  297MPD2    C1 4525   2.525   0.087  16.418  0.3864 -0.3193  0.9150
  297MPD2    C2 4526   2.635   0.167  16.390  0.0904 -0.7297  0.2558
  297MPD2    C3 4527   2.740   0.182  16.483 -0.9270  0.2592  0.5080
  297MPD2    C4 4528   2.737   0.104  16.602  0.1739 -0.0144  0.1146
  297MPD2    C5 4529   2.626   0.028  16.625 -0.9463 -0.0269  0.0658
  297MPD2     H 4530   2.645   0.223  16.299  1.4841 -2.2441 -0.5218
  297MPD2    H1 4531   2.814   0.107  16.678  2.0993 -0.4499 -1.8091
  297MPD2    H2 4532   2.446   4.693  16.558  0.2849 -0.2794 -1.6853
  297MPD2    H3 4533   2.620   4.716  16.719  2.6556 -0.4797  0.0379
  297MPD2     N 4534   2.842   0.276  16.469 -0.0538  0.5964  0.2463
  297MPD2    H5 4535   2.845   0.323  16.379  1.6424 -1.8468 -0.9972
  297MPD2    N1 4536   2.407   0.086  16.341 -0.8469  0.0022  0.0994
  297MPD2    H7 4537   2.405   0.135  16.252  2.2101 -0.2496 -0.1090
  298TMC3    C1 4538   2.177   0.061  16.275  0.8765 -0.2825 -0.1099
  298TMC3    C2 4539   2.203   0.042  16.141  0.2829 -0.1938  0.1120
  298TMC3    C3 4540   2.101   0.043  16.058 -0.7058 -1.2661  0.0387
  298TMC3    C4 4541   2.047   0.055  16.325  0.5562 -0.0010 -0.2450
  298TMC3    C5 4542   1.947   0.031  16.235 -0.1358  0.4699 -0.1900
  298TMC3    C6 4543   1.971   0.028  16.097  0.2188 -0.0813 -0.1460
  298TMC3     C 4544   2.281   0.031  16.376  1.2215  0.3257 -0.7647
  298TMC3     O 4545   2.239   4.714  16.477  0.6319 -0.1941  0.2237
  298TMC3     H 4546   2.306   0.037  16.106 -0.7306 -2.2050 -2.5728
  298TMC3    H1 4547   2.038   0.073  16.431 -0.4168 -0.0104 -0.3329
  298TMC3    H2 4548   1.891   0.021  16.024 -1.3043  0.9576  1.4295
  298TMC3    C7 4549   1.825   0.105  16.271 -0.2835 -0.4544  0.1485
  298TMC3    C8 4550   2.142   0.047  15.914  0.4240  0.6147  0.3273
  298TMC3    O1 4551   1.845   0.182  16.363 -0.1511 -0.5430 -0.2981
  298TMC3    O2 4552   2.059   0.004  15.835 -0.0227 -0.0630  0.4297
  299MPD2     C 4553   2.680   4.135  11.114 -0.1159 -0.2301 -0.1328
  299MPD2    C1 4554   2.712   4.261  11.059 -0.7562 -0.5107  0.2754
  299MPD2    C2 4555   2.617   4.322  10.980 -0.0352 -0.1684 -0.2183
  299MPD2    C3 4556   2.484   4.264  10.966  0.6338 -0.1487 -0.8697
  299MPD2    C4 4557   2.466   4.138  11.023  0.5631  0.4458 -0.0984
  299MPD2    C5 4558   2.559   4.075  11.096  0.3655 -0.0800  0.1916
  299MPD2     H 4559   2.643   4.417  10.937 -1.9310  1.4796  2.2400
  299MPD2    H1 4560   2.370   4.086  11.018  1.5480 -1.2329 -1.4372
  299MPD2    H2 4561   2.756   4.082  11.170 -0.0888 -2.1144 -1.9564
  299MPD2    H3 4562   2.544   3.974  11.134  0.4358 -0.0844  0.2077
  299MPD2     N 4563   2.377   4.319  10.893  0.2306  0.3725  0.2985
  299MPD2    H5 4564   2.286   4.274  10.895 -0.0785  1.0605  2.4030
  299MPD2    N1 4565   2.843   4.307  11.085 -0.0453 -0.0483  0.7884
  299MPD2    H7 4566   2.891   4.237  11.141 -0.6509 -1.5507 -0.5576
  300TMC3    C1 4567   2.234   4.469  10.794  0.1480  0.2466 -0.1863
  300TMC3    C2 4568   2.227   4.605  10.755 -0.5228 -0.5740  0.7297
  300TMC3    C3 4569   2.125   4.684  10.815 -0.5200 -0.2108 -0.0027
  300TMC3    C4 4570   2.140   4.419  10.890  0.6663  0.1116 -0.6050
  300TMC3    C5 4571   2.065   4.506  10.963 -0.4590 -0.2393 -0.1208
  300TMC3    C6 4572   2.047   4.637  10.918 -0.0996 -0.9240  0.3304
  300TMC3     C 4573   2.370   4.433  10.820 -0.6115  0.4682  0.5939
  300TMC3     O 4574   2.465   4.501  10.780 -0.1463 -0.1000 -0.6664
  300TMC3     H 4575   2.300   4.651  10.690 -1.1524 -1.2874 -0.4667
  300TMC3    H1 4576   2.141   4.316  10.924 -1.1308 -0.1342 -1.2664
  300TMC3    H2 4577   1.976   4.701  10.969  1.3263  2.8961 -2.5010
  300TMC3    C7 4578   2.031   4.460  11.095 -0.2161 -0.1327  0.4324
  300TMC3    C8 4579   2.125   0.078  10.786 -0.2243  0.0404  0.3153
  300TMC3    O1 4580   2.026   4.338  11.109  0.2777  0.2148 -0.2075
  300TMC3    O2 4581   2.228   0.139  10.749 -0.0453  1.0379 -0.3423
  301MPD2     C 4582   1.191   1.708   0.934 -0.1196 -0.3272 -0.1305
  301MPD2    C1 4583   1.065   1.690   0.876  0.0333  0.0312  0.3086
  301MPD2    C2 4584   1.013   1.567   0.895 -0.3683 -0.2370 -1.0473
  301MPD2    C3 4585   1.073   1.466   0.964 -0.0088 -0.1352  0.2224
  301MPD2    C4 4586   1.204   1.482   1.016 -0.0656  0.4172  0.2090
  301MPD2    C5 4587   1.256   1.602   0.989 -0.3966 -0.0526 -0.5525
  301MPD2     H 4588   0.916   1.557   0.848 -0.3215 -1.4954 -0.8625
  301MPD2    H1 4589   1.257   1.401   1.065 -2.2570 -1.6829 -0.8996
  301MPD2    H2 4590   1.235   1.807   0.932  2.3195 -1.4646 -2.1083
  301MPD2    H3 4591   1.356   1.616   1.029  0.3391 -0.4443 -2.2807
  301MPD2     N 4592   1.010   1.348   1.007 -0.2238 -0.6655 -0.7192
  301MPD2    H5 4593   1.076   1.290   1.059  0.7058  2.6316  1.7859
  301MPD2    N1 4594   0.984   1.786   0.801  0.1018  0.4429  0.0269
  301MPD2    H7 4595   0.897   1.751   0.764 -0.2258  0.3512  0.8930
  302TMC3    C1 4596   0.873   1.159   0.987 -0.2413  0.1209 -0.9151
  302TMC3    C2 4597   0.969   1.075   1.040 -0.1209  0.2069 -0.0337
  302TMC3    C3 4598   0.958   0.944   1.020  0.3428  0.4152  0.2121
  302TMC3    C4 4599   0.767   1.111   0.913  0.0887 -0.4349  0.0688
  302TMC3    C5 4600   0.770   0.976   0.885  0.1156  0.4549  0.2740
  302TMC3    C6 4601   0.859   0.893   0.941  0.6029  0.6405 -0.0869
  302TMC3     C 4602   0.884   1.302   0.977  0.3080  0.2211  0.2533
  302TMC3     O 4603   0.803   1.359   0.906 -1.0861 -0.6182  0.0390
  302TMC3     H 4604   1.053   1.115   1.095  1.2760 -0.5605 -1.6489
  302TMC3    H1 4605   0.675   1.166   0.896 -0.4702 -1.6279 -0.7839
  302TMC3    H2 4606   0.859   0.789   0.910 -0.0546  0.5035  0.3573
  302TMC3    C7 4607   0.678   0.920   0.794  0.1409  0.9009 -1.2190
  302TMC3    C8 4608   1.073   0.859   1.052 -0.1439  0.1138 -0.6078
  302TMC3    O1 4609   0.691   0.802   0.763 -0.1794 -0.0185 -0.1771
  302TMC3    O2 4610   1.176   0.913   1.092 -0.2885  0.5679 -0.0898
  303MPD2     C 4611   0.193   4.035  10.938 -0.0068  0.1521  1.0697
  303MPD2    C1 4612   0.146   3.903  10.928 -0.0851 -0.5324  0.4744
  303MPD2    C2 4613   0.088   3.865  10.811 -0.3221 -0.3644 -0.0621
  303MPD2    C3 4614   0.098   3.951  10.704 -0.1211  0.5523  0.1584
  303MPD2    C4 4615   0.151   4.072  10.714  0.5511  0.4953 -0.3305
  303MPD2    C5 4616   0.201   4.124  10.836  0.0332  0.1263  0.4283
  303MPD2     H 4617   0.033   3.772  10.802 -0.7282 -0.1731  0.4610
  303MPD2    H1 4618   0.158   4.143  10.632  3.2916  0.3647 -0.2195
  303MPD2    H2 4619   0.222   4.081  11.032 -2.7176 -0.0053  1.9799
  303MPD2    H3 4620   0.248   4.221  10.845 -1.1250  0.5808  1.6567
  303MPD2     N 4621   0.032   3.925  10.577 -0.7875  0.3665  0.2177
  303MPD2    H5 4622   0.047   3.996  10.506 -2.9974 -0.2555 -0.9134
  303MPD2    N1 4623   0.156   3.812  11.038  0.1951 -0.2422 -0.4131
  303MPD2    H7 4624   0.180   3.843  11.132 -2.8612 -0.1121  0.3329
  304TMC3    C1 4625   0.091   3.623  11.167 -0.5794 -0.4886  0.3008
  304TMC3    C2 4626   4.727   3.689  11.226 -0.7249  0.2624  0.6165
  304TMC3    C3 4627   4.633   3.619  11.302  0.0141 -0.1271  0.4789
  304TMC3    C4 4628   0.107   3.484  11.190  0.7663  0.3927  0.2999
  304TMC3    C5 4629   0.035   3.429  11.288 -0.0554  0.2300 -0.0329
  304TMC3    C6 4630   4.661   3.486  11.334 -0.1058  0.0788 -0.0773
  304TMC3     C 4631   0.131   3.678  11.033  0.3801 -0.0965 -0.1917
  304TMC3     O 4632   0.129   3.595  10.943 -0.4075 -0.0057 -0.2555
  304TMC3     H 4633   4.684   3.778  11.183 -0.3983  0.6524  1.1036
  304TMC3    H1 4634   0.178   3.429  11.129  0.1017  0.6078 -0.6749
  304TMC3    H2 4635   4.605   3.432  11.409 -0.0379 -0.4663 -0.4178
  304TMC3    C7 4636   0.005   3.288  11.283  0.5011  0.7913  0.0408
  304TMC3    C8 4637   4.504   3.616  11.236 -0.2986  0.3174  0.4120
  304TMC3    O1 4638   4.633   3.251  11.281  0.3240 -0.6625 -0.0158
  304TMC3    O2 4639   4.459   3.719  11.191 -0.2461 -0.0694 -0.0105
  305MPD2     C 4640   3.103   1.389  14.164  0.5727  0.2580 -0.1414
  305MPD2    C1 4641   3.237   1.385  14.117 -0.8193  0.1250  0.3704
  305MPD2    C2 4642   3.262   1.325  14.001 -0.2550  0.1971  0.1884
  305MPD2    C3 4643   3.167   1.257  13.918  0.5683 -0.0027  1.2510
  305MPD2    C4 4644   3.040   1.259  13.957 -0.2826  0.0831 -0.4648
  305MPD2    C5 4645   3.011   1.328  14.073  0.4605  0.0202  0.6226
  305MPD2     H 4646   3.362   1.337  13.964 -0.2921  1.8582  0.6352
  305MPD2    H1 4647   2.967   1.205  13.900 -1.9425 -0.8662  2.5400
  305MPD2    H2 4648   3.061   1.442  14.249 -1.2545 -3.5380  1.2980
  305MPD2    H3 4649   2.906   1.331  14.101  0.0382 -0.9688 -0.8399
  305MPD2     N 4650   3.194   1.183  13.796 -0.7871 -0.0090  0.3927
  305MPD2    H5 4651   3.115   1.126  13.768 -1.1486  0.6464  0.0777
  305MPD2    N1 4652   3.340   1.438  14.201 -0.3548 -0.1209 -0.2859
  305MPD2    H7 4653   3.297   1.485  14.280  0.4209  0.0842  0.0221
  306TMC3    C1 4654   3.556   1.448  14.305 -0.2245 -0.8725  0.6009
  306TMC3    C2 4655   3.684   1.421  14.274  0.1096  0.2295 -0.9128
  306TMC3    C3 4656   3.779   1.476  14.352 -0.0131  0.2764  0.2895
  306TMC3    C4 4657   3.525   1.535  14.410  0.1683  0.1443  0.5231
  306TMC3    C5 4658   3.627   1.583  14.493  0.9407  0.3338  0.3579
  306TMC3    C6 4659   3.755   1.547  14.467 -0.6845 -1.0815  0.2847
  306TMC3     C 4660   3.467   1.391  14.201  0.2202  0.2433  0.3798
  306TMC3     O 4661   3.523   1.323  14.116  0.0098  0.2215 -0.0896
  306TMC3     H 4662   3.716   1.356  14.193  0.0203  1.2369 -1.7479
  306TMC3    H1 4663   3.426   1.578  14.425  0.5709  1.3458 -0.2651
  306TMC3    H2 4664   3.836   1.583  14.529 -1.5489  1.9304 -0.3505
  306TMC3    C7 4665   3.598   1.702  14.564  0.2059  0.0245 -0.2301
  306TMC3    C8 4666   3.912   1.411  14.343  0.8115  0.8629 -0.4720
  306TMC3    O1 4667   3.499   1.757  14.524 -0.2956  0.2631  0.0741
  306TMC3    O2 4668   3.956   1.392  14.232  0.0222 -0.7070  0.7084
  307MPD2     C 4669   1.455   0.529  17.677  0.4154  0.0660  0.0487
  307MPD2    C1 4670   1.482   0.634  17.756  0.4840  0.0237 -0.3620
  307MPD2    C2 4671   1.489   0.622   0.132 -0.3535 -0.1513 -0.2681
  307MPD2    C3 4672   1.467   0.496   0.196  0.1281  0.4933 -0.2137
  307MPD2    C4 4673   1.427   0.395   0.113  0.1454 -0.1743 -0.1094
  307MPD2    C5 4674   1.415   0.408  17.738  0.3308  0.3047 -0.5160
  307MPD2     H 4675   1.528   0.705   0.190 -0.6641  0.5253 -1.0285
  307MPD2    H1 4676   1.406   0.302   0.165  0.6187  0.6826  1.6031
  307MPD2    H2 4677   1.453   0.530  17.568 -0.2953 -1.5316  0.0603
  307MPD2    H3 4678   1.377   0.326  17.678 -1.0434 -0.2143  1.0557
  307MPD2     N 4679   1.481   0.488   0.336  0.6865  0.0908 -0.2407
  307MPD2    H5 4680   1.484   0.578   0.383  0.7158  0.5395 -1.1063
  307MPD2    N1 4681   1.523   0.760  17.698  0.0428  0.1779 -0.1415
  307MPD2    H7 4682   1.541   0.840  17.757 -1.3996 -0.1383  0.7416
  308TMC3    C1 4683   1.549   0.332   0.760 -0.4467  0.0672  0.6257
  308TMC3    C2 4684   1.543   0.461   0.810  0.0502 -0.1024 -0.1904
  308TMC3    C3 4685   1.543   0.562   0.726  0.1454  0.0224 -0.6202
  308TMC3    C4 4686   1.550   0.309   0.627  0.1590 -0.0251 -0.5143
  308TMC3    C5 4687   1.530   0.416   0.545  0.7934  0.2679 -0.5483
  308TMC3    C6 4688   1.523   0.547   0.590 -0.7330 -0.0526 -0.1644
  308TMC3     C 4689   1.511   0.222   0.852  0.3170 -0.1451 -0.0508
  308TMC3     O 4690   1.586   0.121   0.844  0.6883 -0.3922 -0.5499
  308TMC3     H 4691   1.544   0.480   0.917 -1.3726 -2.2939  0.2123
  308TMC3    H1 4692   1.549   0.206   0.592  3.3240  0.3639 -1.6656
  308TMC3    H2 4693   1.545   0.636   0.532 -0.4717 -0.6003 -0.9048
  308TMC3    C7 4694   1.497   0.376   0.407  0.2796  0.2129 -0.0763
  308TMC3    C8 4695   1.523   0.698   0.778 -0.4947 -0.4917  0.1448
  308TMC3    O1 4696   1.501   0.260   0.370  0.0870  0.5225 -0.1099
  308TMC3    O2 4697   1.580   0.709   0.885 -0.3366  0.1338  0.8920
  309MPD2     C 4698   0.789   0.146  17.434  0.4166  0.1636 -0.5019
  309MPD2    C1 4699   0.734   0.259  17.375 -0.3433 -0.4960  0.8857
  309MPD2    C2 4700   0.666   0.351  17.446  0.3568  0.7394 -0.2505
  309MPD2    C3 4701   0.636   0.335  17.581 -0.1728  0.7762 -0.0985
  309MPD2    C4 4702   0.689   0.218  17.640 -0.2690 -0.7139  0.6451
  309MPD2    C5 4703   0.758   0.125  17.569 -0.5307 -0.0190 -0.2109
  309MPD2     H 4704   0.618   0.428  17.388 -0.5163  0.9070  0.6932
  309MPD2    H1 4705   0.647   0.193  17.737  0.4000  0.3815  1.2209
  309MPD2    H2 4706   0.849   0.074  17.380 -1.1848 -0.1604 -1.8462
  309MPD2    H3 4707   0.789   0.030  17.611 -1.1065 -0.6250 -1.1574
  309MPD2     N 4708   0.542   0.407  17.654 -0.2396 -0.1961 -0.1129
  309MPD2    H5 4709   0.531   0.388  17.753 -1.6361  1.6435  0.0959
  309MPD2    N1 4710   0.758   0.289  17.238 -0.1445 -0.1561 -0.1855
  309MPD2    H7 4711   0.733   0.383  17.211  0.5805  0.5905  1.7743
  310TMC3    C1 4712   0.837   0.267  17.023  0.2205  0.2560  0.3894
  310TMC3    C2 4713   0.748   0.356  16.968  0.4591  0.2001  0.1468
  310TMC3    C3 4714   0.774   0.407  16.843 -1.0069 -0.3149  0.4732
  310TMC3    C4 4715   0.951   0.241  16.954 -0.3366 -0.2764  0.3054
  310TMC3    C5 4716   0.972   0.282  16.820  0.3666 -0.3832  0.0556
  310TMC3    C6 4717   0.880   0.363  16.762 -0.3637  0.5782  0.9565
  310TMC3     C 4718   0.819   0.203  17.146 -0.2315 -0.1839  0.3455
  310TMC3     O 4719   0.839   0.083  17.147 -0.5067 -0.1119 -0.3372
  310TMC3     H 4720   0.649   0.378  17.005  0.3441  1.5062 -0.9127
  310TMC3    H1 4721   1.017   0.167  16.998 -1.4932 -0.6717  1.3560
  310TMC3    H2 4722   0.904   0.407  16.665 -2.6786  2.1482  1.0906
  310TMC3    C7 4723   1.035   0.184  16.739 -0.0968 -0.6581  0.0126
  310TMC3    C8 4724   0.669   0.469  16.770 -1.0466 -0.3233  0.1964
  310TMC3    O1 4725   0.996   0.188  16.624  0.7299  0.4986 -0.5694
  310TMC3    O2 4726   0.563   0.416  16.789 -0.1946  0.0127 -0.0282
  311MPD2     C 4727   2.598   0.901  12.988 -0.1390 -0.2099 -0.2896
  311MPD2    C1 4728   2.523   1.018  12.953  0.5188 -0.1231  0.1811
  311MPD2    C2 4729   2.411   1.047  13.036  0.2680 -0.4832  0.2600
  311MPD2    C3 4730   2.379   0.966  13.144 -0.0252 -0.6206  0.0424
  311MPD2    C4 4731   2.454   0.853  13.162  0.3554  0.2333  0.8030
  311MPD2    C5 4732   2.559   0.820  13.093 -0.1451  0.1319  0.4154
  311MPD2     H 4733   2.358   1.139  13.013  0.4929 -0.4124  0.0333
  311MPD2    H1 4734   2.429   0.790  13.247  0.9202  0.1938  0.9393
  311MPD2    H2 4735   2.679   0.871  12.923  0.9260  0.0756  0.9116
  311MPD2    H3 4736   2.616   0.730  13.110  1.3419  1.2512  1.3722
  311MPD2     N 4737   2.278   1.009  13.228  0.9345 -0.1071  0.0175
  311MPD2    H5 4738   2.221   1.081  13.185  0.1641 -2.6176 -3.1129
  311MPD2    N1 4739   2.563   1.106  12.861 -0.8031  0.5714 -0.2365
  311MPD2    H7 4740   2.512   1.193  12.869 -1.8801 -0.0782 -0.1368
  312TMC3    C1 4741   2.121   0.989  13.401 -0.0914 -0.2257 -0.5271
  312TMC3    C2 4742   2.018   1.000  13.306  0.1247  0.2245 -0.3161
  312TMC3    C3 4743   1.892   1.023  13.354  0.1960  0.1599 -0.1375
  312TMC3    C4 4744   2.103   1.002  13.535 -0.7131 -0.5765  0.6394
  312TMC3    C5 4745   1.973   1.015  13.582  0.2167 -0.2030 -0.5247
  312TMC3    C6 4746   1.871   1.036  13.488 -0.2607  0.2730  0.0688
  312TMC3     C 4747   2.245   0.947  13.348  0.4114 -0.9281  1.2256
  312TMC3     O 4748   2.301   0.868  13.421 -0.2340  0.0120 -0.4063
  312TMC3     H 4749   2.029   0.990  13.199  3.5187  1.1825 -0.0685
  312TMC3    H1 4750   2.190   0.991  13.600 -0.1180  0.5419  0.0291
  312TMC3    H2 4751   1.769   1.038  13.525 -0.7928  0.2165 -1.3974
  312TMC3    C7 4752   1.934   0.982  13.719 -0.0545 -0.1042 -0.2438
  312TMC3    C8 4753   1.778   1.029  13.264  0.5258 -0.1857  0.1523
  312TMC3    O1 4754   1.811   0.995  13.730 -0.8806  0.0192 -0.7844
  312TMC3    O2 4755   1.801   0.971  13.158 -0.1587 -0.1709  0.2827
  313MPD2     C 4756   1.874   0.690  11.473  0.1957  0.0565  0.5438
  313MPD2    C1 4757   1.743   0.686  11.422  0.5932 -0.0623 -0.0196
  313MPD2    C2 4758   1.701   0.566  11.382  0.4881 -0.9852  0.2414
  313MPD2    C3 4759   1.781   0.455  11.387  0.5017  0.7960  0.4127
  313MPD2    C4 4760   1.913   0.453  11.434  0.5326 -0.2583 -0.2285
  313MPD2    C5 4761   1.953   0.571  11.479  0.3906  0.4032 -0.0505
  313MPD2     H 4762   1.609   0.568  11.324  0.6122 -1.6833  0.0295
  313MPD2    H1 4763   1.979   0.367  11.437 -0.3355 -0.8251  2.7448
  313MPD2    H2 4764   1.924   0.783  11.495  0.5589  0.5044 -2.1815
  313MPD2    H3 4765   2.053   0.588  11.516  1.4329 -3.9816 -0.9176
  313MPD2     N 4766   1.726   0.341  11.327 -0.1397  0.1781  0.1033
  313MPD2    H5 4767   1.626   0.340  11.310  0.0184 -3.3799 -0.6689
  313MPD2    N1 4768   1.666   0.804  11.387  0.2268 -0.1671  0.0244
  313MPD2    H7 4769   1.570   0.793  11.357 -1.0208  2.1996  3.1435
  314TMC3    C1 4770   1.597   1.031  11.384 -0.2129  0.1064 -0.0366
  314TMC3    C2 4771   1.631   1.158  11.440  0.3922  0.2247  0.1115
  314TMC3    C3 4772   1.585   1.261  11.368  0.0996  0.1422  0.3739
  314TMC3    C4 4773   1.509   1.013  11.276 -0.5545 -0.4966  0.4482
  314TMC3    C5 4774   1.448   1.127  11.229 -0.2097  0.0403 -1.0377
  314TMC3    C6 4775   1.474   1.248  11.285 -0.1739  0.1170  0.0090
  314TMC3     C 4776   1.694   0.932  11.428 -0.0307  0.3393 -0.6747
  314TMC3     O 4777   1.777   0.969  11.511  0.1361 -0.7084 -0.6931
  314TMC3     H 4778   1.679   1.164  11.537  1.6202 -0.5948 -0.4556
  314TMC3    H1 4779   1.489   0.919  11.226  1.1385 -1.2362  1.1538
  314TMC3    H2 4780   1.438   1.334  11.231  1.4037  1.2650  0.8073
  314TMC3    C7 4781   1.442   1.131  11.087 -0.9295  0.1031 -0.3118
  314TMC3    C8 4782   1.690   1.343  11.312  0.4093  0.3135 -0.7194
  314TMC3    O1 4783   1.512   1.047  11.028 -0.4002 -0.3440  0.3337
  314TMC3    O2 4784   1.677   1.376  11.198  0.0215 -0.1220  1.0313
  315MPD2     C 4785   1.497   4.617   0.256  0.3028  0.0730  0.0364
  315MPD2    C1 4786   1.597   4.694   0.305 -0.2157 -0.0972 -0.9712
  315MPD2    C2 4787   1.656   0.039   0.220 -0.7805 -0.3679  0.4176
  315MPD2    C3 4788   1.618   0.060   0.092 -0.0026  0.8886 -0.4414
  315MPD2    C4 4789   1.515   4.719   0.044 -0.9943 -0.5586 -0.1019
  315MPD2    C5 4790   1.456   4.624   0.129  0.2177 -0.8436 -0.8000
  315MPD2     H 4791   1.735   0.101   0.261 -3.5787  2.8298  0.9786
  315MPD2    H1 4792   1.480   4.737  17.707 -0.2548 -1.3162 -0.4959
  315MPD2    H2 4793   1.455   4.536   0.315 -1.7587  0.5690 -0.7745
  315MPD2    H3 4794   1.388   4.551   0.086  0.0050 -0.7642 -0.5994
  315MPD2     N 4795   1.690   0.155   0.019  0.2227  0.7070  0.1975
  315MPD2    H5 4796   1.766   0.204   0.065  0.3587 -1.2985  2.0894
  315MPD2    N1 4797   1.668   4.675   0.427 -0.8371  0.3610  0.3596
  315MPD2    H7 4798   1.751   4.732   0.440  0.2593 -0.8295 -1.3560
  316TMC3    C1 4799   1.756   0.313  17.627  0.6514  0.4630 -0.1008
  316TMC3    C2 4800   1.827   0.376  17.726  0.8145  0.6835 -0.2719
  316TMC3    C3 4801   1.886   0.491  17.694  0.1061 -0.7396  0.2564
  316TMC3    C4 4802   1.743   0.363  17.497  0.1368  0.4416 -0.3189
  316TMC3    C5 4803   1.802   0.485  17.481  0.4764 -0.7491 -0.1713
  316TMC3    C6 4804   1.878   0.546  17.573  0.0952 -0.2942  0.1493
  316TMC3     C 4805   1.667   0.202  17.662  0.0873 -0.3916 -0.1455
  316TMC3     O 4806   1.589   0.161  17.577  0.1263 -0.0132 -0.0935
  316TMC3     H 4807   1.827   0.356   0.069 -0.8531  2.8308  0.1310
  316TMC3    H1 4808   1.700   0.308  17.414 -1.3367  0.1400  0.6357
  316TMC3    H2 4809   1.917   0.645  17.551 -1.1008 -0.2862 -1.9850
  316TMC3    C7 4810   1.865   0.485  17.347  0.1763  0.2957 -0.0842
  316TMC3    C8 4811   1.960   0.568   0.026  0.2189  0.4822  0.5755
  316TMC3    O1 4812   1.974   0.541  17.343  0.1811 -0.5488 -0.0422
  316TMC3    O2 4813   1.979   0.683  17.755 -0.4701 -0.1281  0.1246
  317MPD2     C 4814   2.862   3.005  13.300 -0.0016 -0.1482 -0.6963
  317MPD2    C1 4815   2.939   2.891  13.284  0.2582 -0.3719  0.4280
  317MPD2    C2 4816   2.997   2.831  13.397  0.5269 -0.3978 -0.1390
  317MPD2    C3 4817   2.961   2.872  13.525  0.0745  0.0487 -0.7573
  317MPD2    C4 4818   2.903   2.991  13.534  0.4153 -0.2988  0.4424
  317MPD2    C5 4819   2.860   3.056  13.424 -0.6169 -0.7400 -0.4311
  317MPD2     H 4820   3.045   2.734  13.382  0.2183 -1.0009  2.7574
  317MPD2    H1 4821   2.901   3.046  13.628 -2.3532  1.2445 -0.4964
  317MPD2    H2 4822   2.831   3.071  13.220 -3.4417 -2.0206 -0.8866
  317MPD2    H3 4823   2.825   3.158  13.431  2.5263  0.3327 -0.4221
  317MPD2     N 4824   3.024   2.794  13.626  0.0092  0.1192  0.3571
  317MPD2    H5 4825   3.070   2.712  13.588 -1.2544  0.5033 -2.0000
  317MPD2    N1 4826   2.980   2.849  13.154  0.0426  0.7585 -0.0144
  317MPD2    H7 4827   3.048   2.773  13.156  2.1753  2.5764 -2.9536
  318TMC3    C1 4828   3.088   2.726  13.833 -0.2621 -0.3607 -0.2294
  318TMC3    C2 4829   3.048   2.595  13.813 -0.1483  0.2436 -0.6652
  318TMC3    C3 4830   3.135   2.493  13.842  1.0711  0.0319 -0.0822
  318TMC3    C4 4831   3.214   2.755  13.872 -0.2453 -0.2499  0.0634
  318TMC3    C5 4832   3.304   2.654  13.874  0.7658 -0.3756 -0.0860
  318TMC3    C6 4833   3.268   2.523  13.864 -1.0739 -1.0578  0.1746
  318TMC3     C 4834   3.026   2.829  13.756  0.4084 -0.7684 -0.5829
  318TMC3     O 4835   3.012   2.936  13.813  0.9492  0.1433  0.0592
  318TMC3     H 4836   2.957   2.574  13.759 -0.3088  0.6827 -0.5637
  318TMC3    H1 4837   3.233   2.861  13.884  1.0786 -0.5743  0.8090
  318TMC3    H2 4838   3.344   2.446  13.864  0.5459  0.5363  0.9927
  318TMC3    C7 4839   3.418   2.693  13.801 -0.1977  0.4894 -0.3415
  318TMC3    C8 4840   3.082   2.357  13.846  1.2727  0.3763  0.6444
  318TMC3    O1 4841   3.402   2.786  13.720 -0.7496 -0.0809 -0.0068
  318TMC3    O2 4842   3.125   2.281  13.934  0.2629 -0.0622 -0.2419
  319MPD2     C 4843   4.646   4.273  16.786 -0.2840  0.3161  0.5528
  319MPD2    C1 4844   4.597   4.192  16.882 -0.3018 -0.4348 -0.1629
  319MPD2    C2 4845   4.492   4.110  16.846  0.1899  0.1781  0.3506
  319MPD2    C3 4846   4.428   4.116  16.725  0.7106  0.0052  0.2716
  319MPD2    C4 4847   4.476   4.209  16.640 -0.6515  0.0828  0.2280
  319MPD2    C5 4848   4.580   4.292  16.663 -0.2592  0.6605  0.1312
  319MPD2     H 4849   4.459   4.034  16.916  0.6717  1.2603  1.7587
  319MPD2    H1 4850   4.427   4.226  16.545  0.1655  0.0106 -0.2031
  319MPD2    H2 4851   4.733   4.333  16.811 -0.0622 -0.1516  0.9237
  319MPD2    H3 4852   4.617   4.373  16.601  2.3073 -0.0332  0.7437
  319MPD2     N 4853   4.317   4.051  16.686  0.3451  0.4865 -0.2866
  319MPD2    H5 4854   4.277   4.084  16.598 -1.6917 -0.7131  0.1754
  319MPD2    N1 4855   4.656   4.168  17.008  0.5336  0.0209 -0.2383
  319MPD2    H7 4856   4.616   4.094  17.065 -0.5939  0.8531  0.0543
  320TMC3    C1 4857   4.153   3.894  16.664 -1.0784 -0.0258 -0.5763
  320TMC3    C2 4858   4.080   3.982  16.584 -0.3080 -0.7286 -0.2987
  320TMC3    C3 4859   3.997   3.926  16.492 -0.2561 -0.4702  0.0678
  320TMC3    C4 4860   4.139   3.759  16.644  0.0250 -0.0656  0.1824
  320TMC3    C5 4861   4.061   3.709  16.547 -0.3249  0.2343 -0.9443
  320TMC3    C6 4862   3.991   3.792  16.467  0.2603 -0.0704 -0.8809
  320TMC3     C 4863   4.262   3.939  16.743 -0.4386  0.1780 -0.3564
  320TMC3     O 4864   4.300   3.879  16.839  0.1846 -0.2482 -0.1570
  320TMC3     H 4865   4.086   4.091  16.580  2.2559 -0.9563 -1.8748
  320TMC3    H1 4866   4.207   3.693  16.698  1.0944  0.2790 -0.7299
  320TMC3    H2 4867   3.941   3.759  16.377 -0.6083  0.5078 -0.6137
  320TMC3    C7 4868   4.090   3.576  16.490 -0.1446  0.2139  0.4568
  320TMC3    C8 4869   3.928   4.024  16.402 -0.3215  0.4264 -0.4024
  320TMC3    O1 4870   4.040   3.554  16.377  0.3063 -0.4282  0.3963
  320TMC3    O2 4871   3.923   4.141  16.445 -0.3384  0.0915  0.2234
  321TMC3    C1 4872   0.045   4.217  17.207 -0.4115 -0.1279 -0.2423
  321TMC3    C2 4873   0.034   4.090  17.245  0.0911 -0.0646  0.0647
  321TMC3    C3 4874   0.022   4.064  17.378 -0.3162 -0.8043  0.6350
  321TMC3    C4 4875   0.045   4.325  17.281 -0.9372 -0.0188 -0.0029
  321TMC3    C5 4876   0.028   4.303  17.416 -0.4083 -0.8672  0.2874
  321TMC3    C6 4877   0.018   4.175  17.462 -0.0781 -0.4481  0.4859
  321TMC3     C 4878   0.017   4.246  17.063 -0.1387  0.0259 -0.0145
  321TMC3     O 4879   0.069   4.347  17.019 -0.2964 -0.4472 -0.1954
  321TMC3     H 4880   0.031   4.005  17.177  0.2579 -2.1454  2.6838
  321TMC3    H1 4881   0.045   4.424  17.236  0.9454  0.5739  1.3022
  321TMC3    H2 4882   0.022   4.150  17.567 -1.9617  3.6435  1.5418
  321TMC3    C7 4883   0.124   4.370  17.502 -0.1631  0.6782  0.5221
  321TMC3    C8 4884   0.129   3.966  17.420 -0.1000 -0.3186  0.5928
  321TMC3    O1 4885   0.166   4.303  17.598 -0.9499 -0.5329  0.0606
  321TMC3    O2 4886   0.149   3.862  17.358 -0.0958 -0.2087  0.6513
  322MPD2     C 4887   3.229   0.899  14.058 -0.4137  0.1080  0.1957
  322MPD2    C1 4888   3.358   0.865  14.027  0.1304  0.3056  0.2247
  322MPD2    C2 4889   3.371   0.785  13.918  0.0451  0.6851 -0.5349
  322MPD2    C3 4890   3.267   0.732  13.845 -0.4875  0.4978  0.3962
  322MPD2    C4 4891   3.140   0.769  13.883 -0.0459  0.5117 -0.3164
  322MPD2    C5 4892   3.124   0.856  13.984  0.5990 -0.2912 -0.1877
  322MPD2     H 4893   3.471   0.764  13.883 -0.2640 -0.1045 -0.9284
  322MPD2    H1 4894   3.048   0.740  13.835 -0.7918  0.2353  1.2668
  322MPD2    H2 4895   3.199   0.971  14.133 -0.2831 -0.5975  0.9277
  322MPD2    H3 4896   3.025   0.896  14.004  1.8013  0.4199  4.5012
  322MPD2     N 4897   3.296   0.643  13.739  0.0043  0.2677 -0.0223
  322MPD2    H5 4898   3.392   0.610  13.736 -0.8780 -2.3497 -0.2088
  322MPD2    N1 4899   3.476   0.916  14.090  0.3677  0.3864  0.0457
  322MPD2    H7 4900   3.568   0.894  14.052 -0.5295 -3.8967  0.4344
  323TMC3    C1 4901   3.590   1.006  14.277 -0.0613 -0.1965  0.3396
  323TMC3    C2 4902   3.687   1.041  14.183  0.2034 -0.4138 -0.4565
  323TMC3    C3 4903   3.816   1.034  14.229 -0.1929  0.5372  0.3158
  323TMC3    C4 4904   3.620   0.961  14.406 -0.4152  0.0553  0.0622
  323TMC3    C5 4905   3.752   0.944  14.440  0.4269 -0.2441 -0.7257
  323TMC3    C6 4906   3.853   0.994  14.360 -0.0298 -0.1548 -0.3769
  323TMC3     C 4907   3.466   0.968  14.214  0.5151 -0.7181 -0.3172
  323TMC3     O 4908   3.373   0.950  14.290 -0.2025  0.2016  0.2607
  323TMC3     H 4909   3.663   1.071  14.082  2.2492 -1.1101 -1.1457
  323TMC3    H1 4910   3.539   0.921  14.466 -0.4684 -0.0081 -0.0520
  323TMC3    H2 4911   3.959   0.982  14.377 -0.0182  1.0201  0.4454
  323TMC3    C7 4912   3.780   0.838  14.531  0.7966  0.3705 -0.5081
  323TMC3    C8 4913   3.921   1.052  14.129 -0.4703 -0.2318 -0.7243
  323TMC3    O1 4914   3.683   0.776  14.577  0.1420  0.2869  0.1492
  323TMC3    O2 4915   4.027   0.998  14.148 -0.4693  0.4444  0.1993
  324MPD2     C 4916   0.217   1.944  14.839 -0.1349  0.9449 -0.1603
  324MPD2    C1 4917   0.268   1.937  14.710  0.9949 -0.2822 -0.3952
  324MPD2    C2 4918   0.180   1.906  14.608  0.1375  0.4517 -0.4358
  324MPD2    C3 4919   0.046   1.899  14.633 -0.2085  0.7333  0.3808
  324MPD2    C4 4920   4.741   1.912  14.762  0.0491 -0.1033  0.1626
  324MPD2    C5 4921   0.083   1.927  14.868 -0.3407  0.6837 -0.0874
  324MPD2     H 4922   0.214   1.875  14.510  0.1900 -0.6013 -0.0863
  324MPD2    H1 4923   4.636   1.897  14.786  0.4493 -0.6479  1.5776
  324MPD2    H2 4924   0.284   1.961  14.922 -1.9583  3.0904  0.8975
  324MPD2    H3 4925   0.049   1.930  14.971  4.5907  0.2816  1.5308
  324MPD2     N 4926   4.693   1.884  14.533  0.1779 -0.0284 -0.8506
  324MPD2    H5 4927   4.604   1.850  14.567  0.3891  0.9558  0.6913
  324MPD2    N1 4928   0.399   1.954  14.668  0.1233 -0.1321  0.2700
  324MPD2    H7 4929   0.420   1.926  14.573  1.9757 -1.5305  1.0747
  325TMC3    C1 4930   4.583   1.911  14.338 -0.1573 -0.2936 -0.0595
  325TMC3    C2 4931   4.493   1.829  14.401  0.4248  0.2679  1.0327
  325TMC3    C3 4932   4.365   1.859  14.420  0.1566  0.3133 -0.2278
  325TMC3    C4 4933   4.534   2.032  14.286  0.3222  0.3556  0.3991
  325TMC3    C5 4934   4.399   2.052  14.291 -0.1213 -0.6866 -0.0956
  325TMC3    C6 4935   4.311   1.964  14.346  0.3581 -0.3965  0.5034
  325TMC3     C 4936   4.712   1.924  14.399  0.1817  0.5216  0.1406
  325TMC3     O 4937   0.065   1.988  14.352 -0.6658 -0.4183 -0.1357
  325TMC3     H 4938   4.517   1.729  14.436 -0.7670 -0.6120 -0.7170
  325TMC3    H1 4939   4.591   2.111  14.240  0.9331  0.6790  1.7230
  325TMC3    H2 4940   4.203   1.974  14.343  0.2171 -2.4704 -2.1690
  325TMC3    C7 4941   4.349   2.181  14.260 -0.1112  1.0727  0.4725
  325TMC3    C8 4942   4.265   1.757  14.442  0.3492 -1.4561  0.7011
  325TMC3    O1 4943   4.405   2.258  14.184  0.0577 -0.0058 -0.0862
  325TMC3    O2 4944   4.275   1.646  14.391  0.0401 -0.0767 -0.0023
  326MPD2     C 4945   1.486   3.358  11.268  0.5391  0.4554 -0.5110
  326MPD2    C1 4946   1.465   3.287  11.159  0.6325 -0.4083  0.3819
  326MPD2    C2 4947   1.566   3.263  11.071 -0.7003  0.1958  0.2694
  326MPD2    C3 4948   1.692   3.315  11.095 -0.3224 -0.0542  0.0461
  326MPD2    C4 4949   1.715   3.382  11.207 -0.3354  0.1472  0.0308
  326MPD2    C5 4950   1.613   3.400  11.299  0.6771 -0.2912  0.2115
  326MPD2     H 4951   1.546   3.194  10.990 -0.7343  0.1921  0.2812
  326MPD2    H1 4952   1.813   3.426  11.227 -0.3124 -0.1862  0.6351
  326MPD2    H2 4953   1.408   3.393  11.335  0.4187  0.6163 -0.7371
  326MPD2    H3 4954   1.631   3.466  11.383 -1.0460 -2.0733  1.9563
  326MPD2     N 4955   1.808   3.291  11.017  0.0743 -0.4083 -0.3160
  326MPD2    H5 4956   1.901   3.320  11.047 -0.6523 -1.9263  3.3437
  326MPD2    N1 4957   1.340   3.219  11.127  0.3936 -0.4108 -0.2996
  326MPD2    H7 4958   1.342   3.157  11.047  1.0626  1.9841 -2.1334
  327TMC3    C1 4959   1.128   3.150  11.167  0.0137 -0.0098  0.3708
  327TMC3    C2 4960   1.006   3.205  11.165 -0.6004 -0.7076 -0.1153
  327TMC3    C3 4961   0.898   3.120  11.132  0.1669 -0.6744 -0.4205
  327TMC3    C4 4962   1.156   3.019  11.153  0.1371  0.1888 -0.6643
  327TMC3    C5 4963   1.048   2.933  11.135 -0.2730  0.4091  0.0824
  327TMC3    C6 4964   0.922   2.980  11.128  0.0296  0.4819  0.0447
  327TMC3     C 4965   1.235   3.228  11.216  0.8118  0.7617  0.3616
  327TMC3     O 4966   1.199   3.325  11.289  0.1465 -0.1939 -0.3143
  327TMC3     H 4967   1.003   3.312  11.155  0.8653 -0.7319 -0.8357
  327TMC3    H1 4968   1.257   2.983  11.166 -0.3643 -0.9583  0.0614
  327TMC3    H2 4969   0.845   2.905  11.144 -0.5133  0.9084 -0.5627
  327TMC3    C7 4970   1.067   2.789  11.158  0.8511  0.1294  0.1369
  327TMC3    C8 4971   0.773   3.188  11.099  0.0968  0.0407  0.1519
  327TMC3    O1 4972   0.979   2.715  11.118  0.2097  0.3637 -0.0579
  327TMC3    O2 4973   0.763   3.310  11.129  0.5519 -0.0003  0.1128
  328MPD2     C 4974   3.876   3.183  17.476  0.2304  0.0573 -0.2674
  328MPD2    C1 4975   3.816   3.060  17.444 -0.2315  0.4666  0.3355
  328MPD2    C2 4976   3.796   3.030  17.309 -0.5023 -0.0458 -0.5371
  328MPD2    C3 4977   3.812   3.127  17.215 -0.7053  0.0588 -0.3246
  328MPD2    C4 4978   3.867   3.250  17.247 -0.3198 -0.7846 -0.7283
  328MPD2    C5 4979   3.898   3.273  17.378  0.2377 -0.2722 -0.1625
  328MPD2     H 4980   3.752   2.934  17.283  1.5189 -1.0469 -0.2092
  328MPD2    H1 4981   3.868   3.340  17.186  1.2638 -0.0566  0.3714
  328MPD2    H2 4982   3.877   3.218  17.578  1.3151 -0.7981  0.0154
  328MPD2    H3 4983   3.927   3.371  17.415 -1.0151  0.5356 -1.2983
  328MPD2     N 4984   3.764   3.108  17.083 -0.2096 -0.0966  0.1400
  328MPD2    H5 4985   3.742   3.196  17.039  0.0699  0.2885  0.7730
  328MPD2    N1 4986   3.750   2.988  17.549 -0.2359  0.1030 -0.2484
  328MPD2    H7 4987   3.752   3.030  17.642  0.1893 -0.9576  0.2271
  329TMC3    C1 4988   3.623   2.798  17.639 -0.3223 -0.3211 -0.3432
  329TMC3    C2 4989   3.522   2.885  17.679  0.4303 -0.4881 -0.6472
  329TMC3    C3 4990   3.397   2.836  17.683  0.4879  0.6373 -0.5694
  329TMC3    C4 4991   3.608   2.660  17.621  0.3154  0.0048  0.0637
  329TMC3    C5 4992   3.482   2.612  17.650  0.2502  0.3395  0.5785
  329TMC3    C6 4993   3.377   2.695  17.670  0.6721  0.7623  0.3721
  329TMC3     C 4994   3.712   2.851  17.538  0.6738  0.7968  0.0622
  329TMC3     O 4995   3.738   2.774  17.448  0.4239  0.2377 -0.3726
  329TMC3     H 4996   3.543   2.991  17.690 -0.1935 -0.6495  2.0610
  329TMC3    H1 4997   3.693   2.596  17.602  0.6213  1.0222 -2.0386
  329TMC3    H2 4998   3.272   2.668  17.672  0.9496 -0.2923  0.8625
  329TMC3    C7 4999   3.459   2.471  17.635 -0.2274  0.2413  0.4627
  329TMC3    C8 5000   3.291   2.912  17.624  0.2347 -0.6535 -0.6218
  329TMC3    O1 5001   3.549   2.396  17.664  0.1502  0.3716  0.3885
  329TMC3    O2 5002   3.210   2.865  17.545  0.2988 -0.5563  0.0380
  330TMC3    C1 5003   1.956   2.021   9.766  0.4772 -0.8536 -0.1713
  330TMC3    C2 5004   1.933   1.895   9.716  0.8056 -0.0186 -0.6220
  330TMC3    C3 5005   2.027   1.835   9.637  0.5856  0.6755 -0.1784
  330TMC3    C4 5006   2.077   2.084   9.751  0.2824  0.3382 -0.4334
  330TMC3    C5 5007   2.170   2.021   9.678 -0.4508  0.6081  1.0430
  330TMC3    C6 5008   2.148   1.897   9.612 -0.3450  0.1085  0.4571
  330TMC3     C 5009   1.855   2.087   9.845 -0.5816  0.4091  0.0472
  330TMC3     O 5010   1.892   2.134   9.950  0.2406 -0.3794 -0.8481
  330TMC3     H 5011   1.838   1.846   9.732 -0.8614  2.8788 -1.6686
  330TMC3    H1 5012   2.085   2.187   9.783  0.3945 -0.1629  1.1579
  330TMC3    H2 5013   2.225   1.832   9.571  0.4404  1.9697 -1.0430
  330TMC3    C7 5014   2.311   2.062   9.689  0.0621 -0.3789  0.4431
  330TMC3    C8 5015   1.997   1.707   9.573  0.1190  0.1530  0.1891
  330TMC3    O1 5016   2.392   2.045   9.594 -0.0617  0.3844 -0.1296
  330TMC3    O2 5017   2.027   1.688   9.456 -0.8189  0.5261 -0.1128
  331MPD2     C 5018   4.320   1.319  12.995 -0.4208  0.0782 -0.2997
  331MPD2    C1 5019   4.409   1.379  12.917 -0.9835 -0.1149 -0.3868
  331MPD2    C2 5020   4.503   1.299  12.851  0.0712  0.6329 -0.3083
  331MPD2    C3 5021   4.502   1.166  12.861  0.2958 -0.9845  0.2208
  331MPD2    C4 5022   4.422   1.108  12.948 -0.0036  1.4412 -0.2087
  331MPD2    C5 5023   4.332   1.184  13.013  0.5983 -0.0232  0.2817
  331MPD2     H 5024   4.577   1.346  12.788  1.3357 -0.3025  0.4894
  331MPD2    H1 5025   4.429   1.004  12.979  0.6460  1.4119 -0.4502
  331MPD2    H2 5026   4.243   1.382  13.039  0.8155  1.9107 -0.7649
  331MPD2    H3 5027   4.271   1.133  13.087 -2.3336  1.1695 -1.3261
  331MPD2     N 5028   4.596   1.092  12.793 -0.4813 -0.0722 -0.1745
  331MPD2    H5 5029   4.665   1.141  12.737  0.1781 -0.6906  0.1000
  331MPD2    N1 5030   4.405   1.518  12.904 -0.2563 -0.5919  0.6627
  331MPD2    H7 5031   4.320   1.567  12.932 -0.3346 -0.5526  0.3592
  332TMC3    C1 5032   4.714   0.928  12.685  0.1311 -0.4237 -0.7904
  332TMC3    C2 5033   4.732   1.011  12.577  0.2701  0.0995  0.7499
  332TMC3    C3 5034   0.101   0.994  12.494 -0.1524  0.5483  0.5190
  332TMC3    C4 5035   0.052   0.818  12.706  0.7503 -0.0542 -0.5900
  332TMC3    C5 5036   0.148   0.786  12.613 -0.5219 -0.1873  0.7671
  332TMC3    C6 5037   0.181   0.879  12.515  0.1998 -0.3405  0.3091
  332TMC3     C 5038   4.619   0.957  12.791  0.6992 -0.2596 -0.9607
  332TMC3     O 5039   4.578   0.859  12.857 -0.2424 -0.8044 -0.0332
  332TMC3     H 5040   4.661   1.091  12.560 -0.3395 -1.0062 -1.7587
  332TMC3    H1 5041   0.033   0.757  12.794  1.0005 -0.0546 -0.5387
  332TMC3    H2 5042   0.270   0.852  12.459  0.8525 -0.2574  1.3002
  332TMC3    C7 5043   0.231   0.675  12.640  0.5133  0.2194  0.3643
  332TMC3    C8 5044   0.082   1.047  12.359 -0.0805  0.3689 -0.7574
  332TMC3    O1 5045   0.178   0.579  12.697  0.5234  0.3597  0.3949
  332TMC3    O2 5046   0.168   1.124  12.316  0.2860  0.1674  0.1198
  333MPD2     C 5047   4.338   1.396  11.069 -0.8339  0.2819  0.6425
  333MPD2    C1 5048   4.426   1.315  11.001 -0.5005 -0.3671 -0.8250
  333MPD2    C2 5049   4.471   1.196  11.060  0.4445  0.4794 -0.2830
  333MPD2    C3 5050   4.425   1.148  11.181  0.2345 -0.2115  0.3466
  333MPD2    C4 5051   4.340   1.229  11.248 -0.2047 -0.4761  0.3430
  333MPD2    C5 5052   4.307   1.356  11.198  0.3986 -0.9670  0.4241
  333MPD2     H 5053   4.552   1.136  11.020  1.1158 -0.2637  2.1988
  333MPD2    H1 5054   4.299   1.209  11.346 -0.2955 -1.1544  0.1615
  333MPD2    H2 5055   4.308   1.486  11.015 -1.1290 -1.2640 -1.7714
  333MPD2    H3 5056   4.252   1.429  11.256  1.4467 -0.0337  0.2405
  333MPD2     N 5057   4.467   1.021  11.223 -0.0707  0.7698  0.1399
  333MPD2    H5 5058   4.531   0.970  11.162 -1.5268 -2.2413  1.1738
  333MPD2    N1 5059   4.460   1.355  10.869  0.1698 -0.1634 -0.0041
  333MPD2    H7 5060   4.430   1.447  10.838  0.4848 -0.7302 -1.9930
  334TMC3    C1 5061   4.598   1.379  10.683 -0.1145  0.4861 -0.4450
  334TMC3    C2 5062   4.686   1.325  10.592 -0.1955  0.1041 -0.0431
  334TMC3    C3 5063   0.034   1.416  10.537  0.1428  0.3327 -0.4951
  334TMC3    C4 5064   4.600   1.511  10.707 -0.4202  0.7840 -0.4729
  334TMC3    C5 5065   4.684   1.595  10.642  0.1704 -0.4638 -0.7949
  334TMC3    C6 5066   0.030   1.550  10.549 -0.0052 -0.1689 -0.3280
  334TMC3     C 5067   4.543   1.289  10.781 -0.8585  0.3021 -0.4962
  334TMC3     O 5068   4.569   1.169  10.783 -0.1221  0.7852 -0.0884
  334TMC3     H 5069   4.705   1.219  10.581  3.7220  0.9470 -1.7041
  334TMC3    H1 5070   4.531   1.556  10.777  0.7972 -0.3509  1.4753
  334TMC3    H2 5071   0.092   1.626  10.503  2.2866  0.0389  3.1207
  334TMC3    C7 5072   4.653   1.735  10.651  0.5976 -0.1808  0.0617
  334TMC3    C8 5073   0.148   1.366  10.462 -0.2052  0.5085  0.6412
  334TMC3    O1 5074   4.735   1.818  10.689 -0.2012 -0.0373 -0.0286
  334TMC3    O2 5075   0.136   1.258  10.403 -0.1370  0.5102  0.7335
  335TMC3    C1 5076   4.653   3.330  17.601  0.0734  0.8115 -1.2408
  335TMC3    C2 5077   4.625   3.259  17.484  0.0041  0.1145 -0.2191
  335TMC3    C3 5078   4.725   3.236  17.400 -0.1226  0.1776 -0.5196
  335TMC3    C4 5079   0.040   3.353  17.644 -0.2182  0.3846 -1.2076
  335TMC3    C5 5080   0.135   3.325  17.547 -0.1753 -0.0806  0.8461
  335TMC3    C6 5081   0.116   3.259  17.433  0.1718  0.0038 -0.1975
  335TMC3     C 5082   4.542   3.353  17.691  0.5655  0.6658 -0.1027
  335TMC3     O 5083   4.426   3.356  17.649 -0.0320 -0.1581 -0.4197
  335TMC3     H 5084   4.521   3.239  17.461  0.2966 -1.5500 -0.0698
  335TMC3    H1 5085   0.063   3.399  17.739 -0.3907 -0.6410 -0.6795
  335TMC3    H2 5086   0.195   3.214  17.373  0.2957 -0.8057  0.5845
  335TMC3    C7 5087   0.271   3.343  17.575  0.1683 -0.1048 -0.1534
  335TMC3    C8 5088   4.703   3.146  17.293  0.5152 -0.2269  1.0254
  335TMC3    O1 5089   0.359   3.275  17.526  0.2051 -0.4244 -0.4178
  335TMC3    O2 5090   0.054   3.137  17.212 -0.4690  0.2494 -0.0466
  336MPD2     C 5091   4.508   0.597  16.321  0.6537  0.8260 -0.2526
  336MPD2    C1 5092   4.456   0.524  16.213  1.3044  0.4797  0.0498
  336MPD2    C2 5093   4.476   0.387  16.209 -0.6126 -0.6061  0.1113
  336MPD2    C3 5094   4.538   0.326  16.315 -0.2409  0.2959 -0.2364
  336MPD2    C4 5095   4.567   0.392  16.435  0.6724 -0.0091  0.4319
  336MPD2    C5 5096   4.559   0.528  16.432  0.0247 -1.1208  1.1733
  336MPD2     H 5097   4.437   0.330  16.126  0.8925 -2.5127  0.7348
  336MPD2    H1 5098   4.605   0.347  16.525  3.3073  2.5510  0.5992
  336MPD2    H2 5099   4.497   0.705  16.329 -1.0553  0.5441  1.2204
  336MPD2    H3 5100   4.586   0.587  16.519 -4.1097  0.0487  1.6685
  336MPD2     N 5101   4.558   0.182  16.319 -0.6150  0.1891 -0.3919
  336MPD2    H5 5102   4.588   0.150  16.410 -2.1609  1.5778  0.6178
  336MPD2    N1 5103   4.398   0.585  16.099 -0.1159 -0.1986  0.0611
  336MPD2    H7 5104   4.372   0.519  16.026 -0.9671 -1.0948  1.1816
  337TMC3    C1 5105   4.286   0.725  15.958  0.2698 -1.3028  0.0630
  337TMC3    C2 5106   4.185   0.635  15.931  0.4455  0.0131  0.0355
  337TMC3    C3 5107   4.103   0.667  15.823 -0.0980 -0.4758  0.1352
  337TMC3    C4 5108   4.299   0.845  15.894  0.5511  0.3635 -0.2306
  337TMC3    C5 5109   4.212   0.872  15.788  0.0630  0.4178 -1.2341
  337TMC3    C6 5110   4.120   0.785  15.748 -0.0285 -0.7649  0.0480
  337TMC3     C 5111   4.356   0.716  16.080 -0.1495  0.5009  0.3969
  337TMC3     O 5112   4.371   0.822  16.138 -0.4545 -0.5086 -0.1141
  337TMC3     H 5113   4.162   0.548  15.990  3.5662 -2.3018 -2.1825
  337TMC3    H1 5114   4.374   0.912  15.935  1.9533 -1.8638  0.8392
  337TMC3    H2 5115   4.047   0.821  15.677  1.9541  1.3620 -0.9192
  337TMC3    C7 5116   4.222   0.995  15.715  0.2056  0.7899 -0.3181
  337TMC3    C8 5117   4.003   0.571  15.793 -0.1407 -0.5319  0.0454
  337TMC3    O1 5118   4.145   1.007  15.618 -0.3212  0.3454 -0.0106
  337TMC3    O2 5119   4.004   0.461  15.852 -0.1989  0.6236 -0.0637
  338MPD2     C 5120   0.709   0.833   1.235  0.5710 -0.1056  0.4210
  338MPD2    C1 5121   0.612   0.792   1.151 -0.1473 -1.0317 -0.3242
  338MPD2    C2 5122   0.495   0.863   1.138  0.4895  0.4215  1.2091
  338MPD2    C3 5123   0.466   0.977   1.216 -0.1764  0.2436  0.0121
  338MPD2    C4 5124   0.571   1.022   1.288  0.1595  0.3003  0.7992
  338MPD2    C5 5125   0.689   0.953   1.298 -0.1832  0.4237  0.5522
  338MPD2     H 5126   0.421   0.821   1.070  2.1244  1.0350 -0.9654
  338MPD2    H1 5127   0.564   1.114   1.344 -0.0983  1.2323 -0.7457
  338MPD2    H2 5128   0.807   0.790   1.251  2.4410  3.6807 -0.8966
  338MPD2    H3 5129   0.767   0.989   1.364 -0.8105  1.2449  0.8441
  338MPD2     N 5130   0.337   1.021   1.207 -1.2022  0.8276 -0.4254
  338MPD2    H5 5131   0.271   0.986   1.138  0.0487 -0.5009 -0.9497
  338MPD2    N1 5132   0.615   0.673   1.076 -0.0537 -0.2094 -0.1512
  338MPD2    H7 5133   0.536   0.649   1.018  0.3336  0.6081 -1.0170
  339TMC3    C1 5134   0.144   1.142   1.260  0.1698 -0.0020  0.7112
  339TMC3    C2 5135   0.070   1.186   1.365 -0.0716 -0.7569  0.3699
  339TMC3    C3 5136   4.682   1.139   1.391 -0.0584  0.1187 -0.2481
  339TMC3    C4 5137   0.093   1.056   1.178  0.1274  1.0460 -0.5626
  339TMC3    C5 5138   4.702   1.022   1.186  0.5206  0.3161 -0.0026
  339TMC3    C6 5139   4.620   1.060   1.296  0.1486 -0.1590 -0.2848
  339TMC3     C 5140   0.291   1.123   1.288 -0.2316 -0.6919 -0.1050
  339TMC3     O 5141   0.351   1.187   1.372  0.5424 -0.4343 -0.6581
  339TMC3     H 5142   0.114   1.254   1.437  1.7529 -0.8742 -0.6427
  339TMC3    H1 5143   0.147   1.042   1.085  1.3674  1.5570  0.0762
  339TMC3    H2 5144   4.516   1.028   1.294  1.1793 -3.6340  0.4481
  339TMC3    C7 5145   4.656   0.906   1.111  0.1785 -0.1450 -0.0735
  339TMC3    C8 5146   4.614   1.196   1.507 -0.4146  0.0835 -0.8893
  339TMC3    O1 5147   4.714   0.881   1.009  0.1674 -0.3052  0.2352
  339TMC3    O2 5148   4.664   1.302   1.556  0.5078 -0.1632 -0.6632
  340MPD2     C 5149   0.196   1.765   9.747 -0.9139  0.0330 -0.1426
  340MPD2    C1 5150   0.070   1.739   9.776  0.4213 -1.0304 -0.4557
  340MPD2    C2 5151   4.734   1.845   9.813  0.0086  0.5491  0.0416
  340MPD2    C3 5152   0.045   1.973   9.848  0.3159 -0.5492  0.2113
  340MPD2    C4 5153   0.182   1.994   9.835  0.4496 -0.3580 -0.3385
  340MPD2    C5 5154   0.252   1.885   9.785  0.5248 -1.2692  0.0177
  340MPD2     H 5155   4.629   1.823   9.829  0.2133 -2.4265 -2.7273
  340MPD2    H1 5156   0.231   2.085   9.870  2.7534 -2.0320  0.8178
  340MPD2    H2 5157   0.268   1.693   9.710 -0.7290  0.3967 -0.4842
  340MPD2    H3 5158   0.356   1.901   9.760  0.7882 -0.5541  1.5986
  340MPD2     N 5159   4.709   2.070   9.916 -0.1263 -1.0975  0.3589
  340MPD2    H5 5160   0.013   2.149   9.959  0.2217 -2.4349  2.4398
  340MPD2    N1 5161   0.023   1.603   9.761  0.1429  0.1000 -0.5175
  340MPD2    H7 5162   0.096   1.540   9.730  0.8456  0.5372  0.2274
  341TMC3    C1 5163   4.629   1.408   9.829 -0.0558 -0.5431 -0.1639
  341TMC3    C2 5164   4.506   1.353   9.863 -0.3302 -1.0595  0.4115
  341TMC3    C3 5165   4.499   1.214   9.887  0.4127  0.2040  0.1683
  341TMC3    C4 5166   4.740   1.323   9.817  0.2744  0.0515  0.1469
  341TMC3    C5 5167   4.735   1.190   9.831  0.1198  0.0734 -0.3106
  341TMC3    C6 5168   4.609   1.135   9.865 -0.1226  0.6976 -0.2628
  341TMC3     C 5169   4.640   1.557   9.814  0.0922 -0.8034  0.0061
  341TMC3     O 5170   4.551   1.624   9.865  0.3283  0.1680  0.0210
  341TMC3     H 5171   4.431   1.431   9.869  0.8981  0.2992 -2.0723
  341TMC3    H1 5172   0.092   1.370   9.789  0.0762 -0.3063 -1.1393
  341TMC3    H2 5173   4.593   1.033   9.898  0.0433 -0.0996 -2.6376
  341TMC3    C7 5174   0.108   1.113   9.812  0.4951  0.9638  0.0117
  341TMC3    C8 5175   4.373   1.156   9.925 -0.5107 -0.2926 -0.4877
  341TMC3    O1 5176   0.207   1.172   9.790  0.2455  0.0066 -0.6658
  341TMC3    O2 5177   4.347   1.038   9.905 -0.3462 -0.5911 -0.1144
  342MPD2     C 5178   2.731   1.403  17.524  0.0794  0.0093 -0.2567
  342MPD2    C1 5179   2.861   1.367  17.573 -0.1831  0.2361  0.2873
  342MPD2    C2 5180   2.943   1.471  17.620  0.7062 -0.6750 -0.3983
  342MPD2    C3 5181   2.888   1.599  17.650  0.7055 -0.5466  0.2845
  342MPD2    C4 5182   2.754   1.625  17.614 -0.1556 -0.3579 -0.4192
  342MPD2    C5 5183   2.684   1.532  17.543 -0.4691  0.4325  0.4388
  342MPD2     H 5184   3.045   1.453  17.651  0.4766 -1.4294 -0.0619
  342MPD2    H1 5185   2.706   1.721  17.632  2.1952  1.0420 -1.6910
  342MPD2    H2 5186   2.665   1.332  17.477 -0.9333  1.7169 -1.3807
  342MPD2    H3 5187   2.586   1.556  17.504  0.9296  3.9696 -0.8370
  342MPD2     N 5188   2.967   1.703  17.707  0.7278 -0.3687  0.4513
  342MPD2    H5 5189   2.919   1.789  17.732 -0.2981 -0.8110 -0.0042
  342MPD2    N1 5190   2.912   1.238  17.565 -0.2373 -0.2969  0.0957
  342MPD2    H7 5191   3.011   1.225  17.582  0.0965 -1.3594 -2.6576
  343TMC3    C1 5192   2.897   1.005  17.513  0.4334 -0.0514 -0.1107
  343TMC3    C2 5193   3.015   1.011  17.447  0.1411 -0.0280  0.1515
  343TMC3    C3 5194   3.065   0.892  17.395 -0.4618 -0.4047  0.3289
  343TMC3    C4 5195   2.816   0.892  17.520  0.4931  0.2255 -0.4637
  343TMC3    C5 5196   2.875   0.777  17.469 -0.2419  0.2047  0.3961
  343TMC3    C6 5197   2.995   0.777  17.408 -0.1939  0.1316  0.3551
  343TMC3     C 5198   2.831   1.125  17.564  0.3073 -0.0531 -0.0454
  343TMC3     O 5199   2.711   1.118  17.586 -0.4360 -0.2824 -0.5148
  343TMC3     H 5200   3.065   1.103  17.420  0.8434 -0.7795 -1.1132
  343TMC3    H1 5201   2.712   0.903  17.551  1.1518 -1.2367  2.2473
  343TMC3    H2 5202   3.033   0.685  17.365  1.4931  0.8123  0.4015
  343TMC3    C7 5203   2.802   0.650  17.506 -0.4476  0.1139  0.2430
  343TMC3    C8 5204   3.206   0.892  17.360 -0.0898  0.0090 -0.0292
  343TMC3    O1 5205   2.823   0.549  17.438  0.7197 -0.1994  0.4814
  343TMC3    O2 5206   3.269   0.998  17.380 -0.2215 -0.5126  0.3907
  344MPD2     C 5207   3.431   0.226  11.114  0.5724 -0.6669 -0.6926
  344MPD2    C1 5208   3.347   0.156  11.037 -0.5392 -0.5241 -0.1807
  344MPD2    C2 5209   3.329   0.182  10.906 -0.5509 -0.5692  0.5131
  344MPD2    C3 5210   3.426   0.266  10.850 -0.2679 -0.4354  0.7570
  344MPD2    C4 5211   3.517   0.334  10.929 -0.6922  0.1886 -0.1807
  344MPD2    C5 5212   3.512   0.325  11.066 -0.1153  0.3012  0.9017
  344MPD2     H 5213   3.255   0.128  10.848  0.0898  2.4827 -3.1347
  344MPD2    H1 5214   3.587   0.407  10.889 -1.6953  0.9135 -0.6308
  344MPD2    H2 5215   3.448   0.203  11.219 -2.1697  0.0742 -0.0773
  344MPD2    H3 5216   3.587   0.376  11.126  1.1121  1.0733 -1.3071
  344MPD2     N 5217   3.423   0.309  10.719  0.4198 -0.2346  0.3788
  344MPD2    H5 5218   3.485   0.384  10.690  1.7963 -1.4774  0.1163
  344MPD2    N1 5219   3.257   0.052  11.088  0.8976  0.1300  0.2069
  344MPD2    H7 5220   3.195   4.740  11.029 -0.1779  0.9379  0.6152
  345TMC3    C1 5221   3.376   0.352  10.494 -0.2315  0.1980  0.4908
  345TMC3    C2 5222   3.480   0.438  10.505 -0.0380  0.0109 -0.4004
  345TMC3    C3 5223   3.489   0.551  10.425  0.1181  0.3842 -0.0020
  345TMC3    C4 5224   3.283   0.371  10.397  0.4675 -0.6549 -0.7380
  345TMC3    C5 5225   3.291   0.475  10.316 -0.1003  0.3088 -0.3019
  345TMC3    C6 5226   3.394   0.568  10.326 -0.2365  0.4777  0.1082
  345TMC3     C 5227   3.347   0.267  10.614  0.2928 -0.1226 -0.0635
  345TMC3     O 5228   3.245   0.195  10.613  0.8904 -0.0366 -0.2351
  345TMC3     H 5229   3.563   0.410  10.569 -2.0050 -0.4713  1.9508
  345TMC3    H1 5230   3.209   0.297  10.369  0.4146 -0.3105 -1.4900
  345TMC3    H2 5231   3.403   0.648  10.254  2.2701  0.0360 -0.0694
  345TMC3    C7 5232   3.220   0.467  10.183  0.2271 -0.6584 -0.0861
  345TMC3    C8 5233   3.593   0.642  10.440  0.4846 -0.8506 -0.4863
  345TMC3    O1 5234   3.272   0.522  10.087  0.0355  0.4148  0.1227
  345TMC3    O2 5235   3.696   0.601  10.493  0.6079  0.0527 -1.1036
  346MPD2     C 5236   3.045   2.293  14.835  0.2928  0.2486  0.3868
  346MPD2    C1 5237   3.123   2.270  14.722  0.5199  0.6649 -0.1797
  346MPD2    C2 5238   3.259   2.303  14.725 -0.4688 -0.5977  0.6384
  346MPD2    C3 5239   3.318   2.348  14.846 -0.7367  0.0430 -0.2860
  346MPD2    C4 5240   3.231   2.365  14.957 -0.4459 -0.8148  0.2157
  346MPD2    C5 5241   3.099   2.343  14.948 -0.2771 -0.4190  0.2467
  346MPD2     H 5242   3.313   2.297  14.632 -1.8309 -0.3388 -0.1635
  346MPD2    H1 5243   3.265   2.409  15.050 -3.4584 -0.5094  1.1761
  346MPD2    H2 5244   2.937   2.279  14.833  0.2542  0.4725  0.8691
  346MPD2    H3 5245   3.033   2.383  15.023  0.6207  1.3531  0.1107
  346MPD2     N 5246   3.461   2.370  14.850 -0.1201  0.1503  0.0009
  346MPD2    H5 5247   3.517   2.372  14.765 -1.6078  1.1905 -0.9519
  346MPD2    N1 5248   3.074   2.219  14.602  0.2338 -0.2693  0.0392
  346MPD2    H7 5249   3.144   2.201  14.531  1.7588  1.0811  1.1892
  347TMC3    C1 5250   3.672   2.399  14.958 -0.1900  0.1522 -0.0497
  347TMC3    C2 5251   3.727   2.393  14.830  0.1878 -0.4036 -0.3482
  347TMC3    C3 5252   3.862   2.380  14.832  0.4659 -0.3996 -0.7268
  347TMC3    C4 5253   3.740   2.405  15.076 -1.0915 -0.2281  0.4049
  347TMC3    C5 5254   3.880   2.397  15.065  0.2073  0.1291  0.5005
  347TMC3    C6 5255   3.941   2.371  14.944  0.2850 -0.1024  0.5890
  347TMC3     C 5256   3.527   2.386  14.971 -0.1619 -0.2840  0.8316
  347TMC3     O 5257   3.495   2.381  15.090  0.3247  0.1549  0.1465
  347TMC3     H 5258   3.677   2.373  14.736 -0.6589 -0.1758  0.0456
  347TMC3    H1 5259   3.694   2.418  15.173 -0.8027 -1.1059  0.6558
  347TMC3    H2 5260   4.047   2.361  14.929 -0.2954 -1.6586 -2.5368
  347TMC3    C7 5261   3.960   2.379  15.183  0.6949  0.0328 -0.2679
  347TMC3    C8 5262   3.919   2.334  14.709 -0.7318 -0.3243 -0.0142
  347TMC3    O1 5263   3.930   2.451  15.275  0.0758 -0.0184 -0.1043
  347TMC3    O2 5264   3.982   2.228  14.725  0.3216  0.2937  0.1410
  348MPD2     C 5265   1.672   1.446  12.206 -0.5428  0.3275 -0.3495
  348MPD2    C1 5266   1.783   1.504  12.148 -0.2743  0.9418 -0.4788
  348MPD2    C2 5267   1.765   1.600  12.043  0.2279 -0.2271  0.1148
  348MPD2    C3 5268   1.640   1.630  11.994  0.3843  0.0941  0.0988
  348MPD2    C4 5269   1.527   1.565  12.053  0.1783 -0.1670 -0.1171
  348MPD2    C5 5270   1.541   1.481  12.160 -0.0790 -0.3608  0.2067
  348MPD2     H 5271   1.850   1.639  11.989  0.4659 -1.0627 -0.1246
  348MPD2    H1 5272   1.425   1.574  12.017  0.5098  3.9164  0.0188
  348MPD2    H2 5273   1.674   1.370  12.284  1.1961  1.9089  1.1512
  348MPD2    H3 5274   1.455   1.427  12.199 -0.1145  0.5377  1.3984
  348MPD2     N 5275   1.629   1.722  11.885 -0.3228  1.0548  0.2005
  348MPD2    H5 5276   1.716   1.762  11.851  0.1974  1.2157  1.7146
  348MPD2    N1 5277   1.914   1.457  12.167  0.0357 -0.7058 -0.5762
  348MPD2    H7 5278   1.980   1.491  12.099  0.4310  2.1408  1.2538
  349TMC3    C1 5279   2.076   1.298  12.241 -0.0154  0.0272  0.7085
  349TMC3    C2 5280   2.091   1.182  12.309 -0.1067 -1.0175 -0.2873
  349TMC3    C3 5281   2.185   1.093  12.250 -0.3258  0.8379  0.3126
  349TMC3    C4 5282   2.152   1.338  12.133 -0.0141 -0.1786  0.1973
  349TMC3    C5 5283   2.249   1.254  12.083  0.3189  0.0109  0.4344
  349TMC3    C6 5284   2.262   1.130  12.139 -1.2697  0.0064 -0.3968
  349TMC3     C 5285   1.954   1.371  12.267 -0.1925 -0.3195  0.1232
  349TMC3     O 5286   1.885   1.332  12.361 -0.0105 -0.3657 -0.1210
  349TMC3     H 5287   2.029   1.160  12.394 -1.4786  0.7754 -0.8043
  349TMC3    H1 5288   2.144   1.436  12.086 -1.8255 -0.9654 -1.1346
  349TMC3    H2 5289   2.314   1.056  12.080 -1.0097  1.0059 -1.4241
  349TMC3    C7 5290   2.260   1.267  11.936 -0.2581 -0.4100 -0.0015
  349TMC3    C8 5291   2.243   0.988  12.328  0.1065 -0.1415  0.1211
  349TMC3    O1 5292   2.152   1.290  11.881 -0.3765 -0.2008  0.1996
  349TMC3    O2 5293   2.360   0.949  12.301 -0.2062  0.9000  0.3364
  350MPD2     C 5294   1.461   4.632  10.445 -0.3265 -0.2761  0.0990
  350MPD2    C1 5295   1.363   4.595  10.536 -0.2034 -0.2423 -0.0858
  350MPD2    C2 5296   1.394   4.612  10.669 -0.4773 -0.1397  0.1219
  350MPD2    C3 5297   1.517   4.663  10.709  0.0498  0.0844 -0.6331
  350MPD2    C4 5298   1.613   4.694  10.614  0.2412 -0.4173 -0.3450
  350MPD2    C5 5299   1.581   4.677  10.486 -0.2221  0.8617  0.4272
  350MPD2     H 5300   1.325   4.587  10.750 -0.0591 -0.8367  0.2573
  350MPD2    H1 5301   1.712   4.724  10.646  0.4039 -1.7327  0.4090
  350MPD2    H2 5302   1.454   4.621  10.337  2.1020  3.1229 -0.3995
  350MPD2    H3 5303   1.656   4.682  10.408  1.3989 -0.0504  1.9457
  350MPD2     N 5304   1.541   4.678  10.847 -0.3399  0.0923  0.2204
  350MPD2    H5 5305   1.459   4.670  10.907 -1.0490 -2.5366 -1.0741
  350MPD2    N1 5306   1.243   4.534  10.486 -0.5974  0.3146  0.0463
  350MPD2    H7 5307   1.179   4.514  10.562 -0.7717  1.3232  0.1651
  351TMC3    C1 5308   1.111   4.405  10.331 -0.4331  0.0752 -0.1987
  351TMC3    C2 5309   1.105   4.309  10.242  0.3464  0.4230  0.3861
  351TMC3    C3 5310   0.984   4.251  10.216 -0.8948 -0.0419 -0.5262
  351TMC3    C4 5311   0.999   4.437  10.400 -0.1323  0.2891  0.2943
  351TMC3    C5 5312   0.877   4.372  10.380  0.7302  0.4316 -0.5313
  351TMC3    C6 5313   0.868   4.282  10.283 -0.0929 -0.7264  0.0784
  351TMC3     C 5314   1.235   4.476  10.359  0.0946 -0.6467  0.0662
  351TMC3     O 5315   1.317   4.460  10.272 -0.0547  0.2672  0.1633
  351TMC3     H 5316   1.188   4.279  10.178  0.6772  1.3498  0.3879
  351TMC3    H1 5317   1.001   4.515  10.475  0.7152  0.6688 -0.1323
  351TMC3    H2 5318   0.772   4.238  10.260 -0.0202 -0.7783 -0.1272
  351TMC3    C7 5319   0.766   4.390  10.466 -0.3147  0.4312 -0.5986
  351TMC3    C8 5320   1.000   4.123  10.158  0.4916 -0.2182  0.6312
  351TMC3    O1 5321   0.801   4.422  10.579 -0.0878  0.2143  0.7972
  351TMC3    O2 5322   1.074   4.113  10.059 -0.3929 -0.0667 -0.0427
  352MPD2     C 5323   0.619   2.641   1.051 -0.6769 -0.6903 -0.1298
  352MPD2    C1 5324   0.530   2.545   1.009 -0.1537  0.3892  0.3148
  352MPD2    C2 5325   0.567   2.448   0.914 -0.4890  0.7563  0.1398
  352MPD2    C3 5326   0.701   2.445   0.877 -0.1259 -0.5265  0.0114
  352MPD2    C4 5327   0.791   2.539   0.928  0.5153  0.0752  0.1500
  352MPD2    C5 5328   0.749   2.638   1.012 -1.3113 -0.5651 -0.3649
  352MPD2     H 5329   0.493   2.379   0.874  0.2248  0.8990 -1.4426
  352MPD2    H1 5330   0.896   2.540   0.902  1.2947  0.7853  3.3459
  352MPD2    H2 5331   0.602   2.729   1.111 -3.3910 -0.5549 -1.1217
  352MPD2    H3 5332   0.823   2.707   1.050 -0.5920 -0.1114 -2.5846
  352MPD2     N 5333   0.755   2.337   0.799 -0.4090  0.1075 -0.4731
  352MPD2    H5 5334   0.855   2.343   0.779 -0.0979 -1.9153  0.4748
  352MPD2    N1 5335   0.391   2.556   1.058  0.1568  0.2805 -0.0425
  352MPD2    H7 5336   0.369   2.646   1.099 -1.3394 -0.7334  1.3401
  353TMC3    C1 5337   0.766   2.148   0.654  0.5049 -0.1065  0.3210
  353TMC3    C2 5338   0.870   2.101   0.733 -0.1501 -0.1875  0.7607
  353TMC3    C3 5339   0.910   1.970   0.705 -0.3036 -0.7443  0.4676
  353TMC3    C4 5340   0.699   2.075   0.559  0.3112  0.3017 -0.1519
  353TMC3    C5 5341   0.742   1.946   0.540 -0.3197  0.5120 -0.0269
  353TMC3    C6 5342   0.846   1.892   0.610 -0.2591 -0.2556 -0.0377
  353TMC3     C 5343   0.684   2.245   0.724  0.5922 -0.5068 -0.3392
  353TMC3     O 5344   0.562   2.236   0.716 -0.0419 -0.3345 -0.3189
  353TMC3     H 5345   0.915   2.148   0.820 -2.1224  0.0391  1.6436
  353TMC3    H1 5346   0.616   2.119   0.505 -0.0303  1.7173  1.5188
  353TMC3    H2 5347   0.872   1.790   0.585  0.9890  0.3541 -1.2879
  353TMC3    C7 5348   0.662   1.856   0.470 -0.1938  0.1272  0.0987
  353TMC3    C8 5349   1.017   1.912   0.776  0.5174  0.4213  0.1243
  353TMC3    O1 5350   0.653   1.740   0.512  0.5862  0.2882  0.2373
  353TMC3    O2 5351   1.116   1.977   0.808  0.1392  0.2382 -0.6735
  354TMC3    C1 5352   0.721   2.906  13.788  0.5475 -0.7680 -0.3408
  354TMC3    C2 5353   0.740   3.043  13.770  0.2129  0.6327 -0.3113
  354TMC3    C3 5354   0.767   3.080  13.644 -0.5819 -0.0055 -0.2613
  354TMC3    C4 5355   0.733   2.824  13.682 -0.2428  0.0549 -0.3880
  354TMC3    C5 5356   0.751   2.869  13.555  0.2561  0.1419 -0.6476
  354TMC3    C6 5357   0.781   3.001  13.535  0.5004 -0.2626  0.2629
  354TMC3     C 5358   0.775   2.859  13.920  1.0135  0.4955  0.1320
  354TMC3     O 5359   0.755   2.931  14.020 -0.2305  0.7715  0.5136
  354TMC3     H 5360   0.750   3.108  13.856  1.8360 -0.4425  0.3211
  354TMC3    H1 5361   0.703   2.722  13.702 -2.1932  0.4503 -1.3784
  354TMC3    H2 5362   0.784   3.034  13.432  0.9102  1.9614  0.9813
  354TMC3    C7 5363   0.794   2.766  13.463 -1.0459  0.4189  0.2806
  354TMC3    C8 5364   0.777   3.227  13.622 -0.3398  0.2895 -0.2180
  354TMC3    O1 5365   0.762   2.646  13.482 -0.2469 -0.1926  0.1893
  354TMC3    O2 5366   0.702   3.290  13.692  0.5272 -0.3053  0.3021
  355MPD2     C 5367   1.726   3.735  11.976  0.1284 -1.2063 -0.1028
  355MPD2    C1 5368   1.845   3.681  11.932 -0.6098 -1.0882 -0.4028
  355MPD2    C2 5369   1.923   3.636  12.043  0.2720  0.4380 -0.0297
  355MPD2    C3 5370   1.892   3.658  12.176 -0.2885  0.4042 -0.2599
  355MPD2    C4 5371   1.775   3.713  12.206 -0.5945  0.1842 -0.0976
  355MPD2    C5 5372   1.689   3.744  12.105 -0.4435 -0.1860 -0.3952
  355MPD2     H 5373   2.022   3.602  12.016 -0.8000 -2.1628 -0.6224
  355MPD2    H1 5374   1.743   3.741  12.306 -0.1802 -1.1193  0.3916
  355MPD2    H2 5375   1.665   3.776  11.896 -1.6250 -1.1348  1.2751
  355MPD2    H3 5376   1.590   3.783  12.127 -0.0004  0.1123  1.0593
  355MPD2     N 5377   1.975   3.624  12.287 -0.1808  0.0177 -0.6709
  355MPD2    H5 5378   1.951   3.663  12.377  0.0689 -0.0143 -0.5915
  355MPD2    N1 5379   1.892   3.696  11.801  0.2648  0.1799 -0.0558
  355MPD2    H7 5380   1.839   3.758  11.741 -0.2925  0.3095  0.5587
  356TMC3    C1 5381   2.194   3.593  12.361  0.0865  0.0530 -0.8403
  356TMC3    C2 5382   2.317   3.589  12.310 -0.5109 -1.0658 -0.3656
  356TMC3    C3 5383   2.394   3.704  12.325 -0.3292  0.6060 -0.2245
  356TMC3    C4 5384   2.164   3.693  12.445 -0.5332  0.6671 -0.7586
  356TMC3    C5 5385   2.243   3.797  12.478  0.0358 -0.0460 -0.1526
  356TMC3    C6 5386   2.352   3.812  12.401 -1.3477  0.3243 -0.2939
  356TMC3     C 5387   2.095   3.550  12.270  0.5312 -0.1726 -0.0382
  356TMC3     O 5388   2.125   3.470  12.186 -0.2361  0.1643 -0.0499
  356TMC3     H 5389   2.347   3.511  12.241 -0.0897 -0.8364 -0.4414
  356TMC3    H1 5390   2.082   3.677  12.515  0.0686  2.1241  0.2702
  356TMC3    H2 5391   2.431   3.879  12.433 -0.4483  0.0755 -1.9694
  356TMC3    C7 5392   2.199   3.900  12.570  0.3857 -0.2043  0.2128
  356TMC3    C8 5393   2.480   3.733  12.208 -0.7557  0.0953 -0.7337
  356TMC3    O1 5394   2.091   3.890  12.623 -0.6262  0.1362 -0.3873
  356TMC3    O2 5395   2.498   3.633  12.141  0.1996  0.3652  0.2657
  357MPD2     C 5396   2.366   3.322   1.069 -0.1154 -0.6074  0.2286
  357MPD2    C1 5397   2.332   3.387   0.956  0.1000 -0.6232 -0.0830
  357MPD2    C2 5398   2.339   3.525   0.954  0.2564 -0.8899  0.0908
  357MPD2    C3 5399   2.374   3.601   1.063 -0.2106 -0.5531 -0.3462
  357MPD2    C4 5400   2.417   3.540   1.177  0.7714  0.3332 -0.7659
  357MPD2    C5 5401   2.415   3.402   1.175  0.4191 -0.3122 -0.1940
  357MPD2     H 5402   2.305   3.577   0.865 -0.4025 -1.9596 -0.2835
  357MPD2    H1 5403   2.424   3.601   1.267 -0.9800  1.6749 -1.5559
  357MPD2    H2 5404   2.352   3.215   1.073 -0.6986 -0.5725 -0.9185
  357MPD2    H3 5405   2.438   3.353   1.269  0.5381  0.2574  0.0712
  357MPD2     N 5406   2.348   3.741   1.073 -0.0354 -0.3261 -0.1333
  357MPD2    H5 5407   2.359   3.790   1.161 -1.1256 -0.0081 -0.1715
  357MPD2    N1 5408   2.270   3.305   0.857  0.6580 -0.4889  0.3895
  357MPD2    H7 5409   2.237   3.214   0.885 -1.0381  0.7397  2.4204
  358TMC3    C1 5410   2.193   3.239   0.635 -0.1759 -0.1065  0.7092
  358TMC3    C2 5411   2.193   3.277   0.498 -0.7591  0.3492 -0.3303
  358TMC3    C3 5412   2.164   3.179   0.407 -0.1386 -0.3421  0.6347
  358TMC3    C4 5413   2.182   3.113   0.683 -0.1851 -0.3416  0.3443
  358TMC3    C5 5414   2.141   3.022   0.586  0.2231 -0.8106 -0.6774
  358TMC3    C6 5415   2.137   3.053   0.448 -0.2837 -0.4160 -0.5932
  358TMC3     C 5416   2.256   3.343   0.726  0.1692 -0.3259  0.1586
  358TMC3     O 5417   2.288   3.448   0.674  0.2176 -0.2141 -0.6435
  358TMC3     H 5418   2.220   3.376   0.464  1.2479  0.6994  2.2898
  358TMC3    H1 5419   2.185   3.084   0.788 -0.6093  0.4784  0.5809
  358TMC3    H2 5420   2.130   2.965   0.384  0.4916 -1.2586  0.4817
  358TMC3    C7 5421   2.137   2.878   0.611 -0.0344  0.4846 -0.1670
  358TMC3    C8 5422   2.152   3.206   0.265  0.8925  0.1292  0.0276
  358TMC3    O1 5423   2.068   2.805   0.541  0.0847 -0.1381  0.5230
  358TMC3    O2 5424   2.178   3.320   0.227  0.1273 -0.1913  1.0157
  359MPD2     C 5425   1.896   1.742  12.815  0.1550 -1.2124  0.4509
  359MPD2    C1 5426   1.826   1.794  12.714 -0.1025 -0.3805 -0.3768
  359MPD2    C2 5427   1.699   1.838  12.738  0.5981 -0.5192 -0.2274
  359MPD2    C3 5428   1.628   1.813  12.859 -0.1280 -0.1133 -0.0876
  359MPD2    C4 5429   1.705   1.757  12.961  0.4548 -0.6245  0.0828
  359MPD2    C5 5430   1.841   1.735  12.936  1.0789 -0.3344 -0.4802
  359MPD2     H 5431   1.640   1.877  12.656  1.1853 -0.9819 -0.8697
  359MPD2    H1 5432   1.661   1.728  13.055 -0.7316  0.8647 -0.0090
  359MPD2    H2 5433   1.996   1.701  12.809  0.6493  0.0627 -0.1085
  359MPD2    H3 5434   1.887   1.685  13.020 -0.9236  1.5281  1.7344
  359MPD2     N 5435   1.491   1.839  12.874 -0.1421  0.3936  0.2025
  359MPD2    H5 5436   1.460   1.850  12.970  0.3174 -0.8053  0.4823
  359MPD2    N1 5437   1.876   1.807  12.585 -0.0427  0.1890 -0.1034
  359MPD2    H7 5438   1.813   1.858  12.523  0.4289  2.0438  0.9444
  360TMC3    C1 5439   2.029   1.764  12.398  0.0849  0.3710 -0.8019
  360TMC3    C2 5440   2.140   1.700  12.349 -0.2793 -0.0686 -0.2815
  360TMC3    C3 5441   2.177   1.725  12.221 -0.5241  0.5345  0.3392
  360TMC3    C4 5442   1.948   1.839  12.313  0.8793 -0.4722  0.1625
  360TMC3    C5 5443   1.979   1.844  12.183 -0.3700  0.3548  0.8267
  360TMC3    C6 5444   2.104   1.805  12.146  1.0052  0.4461  0.0874
  360TMC3     C 5445   1.993   1.742  12.542 -0.1173 -0.3886  0.9216
  360TMC3     O 5446   2.051   1.653  12.597 -0.1038  0.5010  0.0751
  360TMC3     H 5447   2.213   1.650  12.410  1.1995 -0.3119 -2.2337
  360TMC3    H1 5448   1.855   1.885  12.345  1.6883  2.4946 -1.7442
  360TMC3    H2 5449   2.134   1.826  12.044 -1.3288 -0.6571 -0.8187
  360TMC3    C7 5450   1.917   1.949  12.100  0.5586  0.0992 -0.4482
  360TMC3    C8 5451   2.295   1.653  12.162 -0.2153 -0.2114  0.0684
  360TMC3    O1 5452   1.990   2.014  12.027 -0.0375  0.2322  0.3313
  360TMC3    O2 5453   2.313   1.555  12.228 -0.1630 -0.2539 -0.0006
  361MPD2     C 5454   3.861   1.229  16.520  0.5554  0.7664  0.1855
  361MPD2    C1 5455   3.844   1.314  16.628 -0.0942 -0.7968  0.5574
  361MPD2    C2 5456   3.926   1.300  16.735 -0.1154  0.2613  0.5539
  361MPD2    C3 5457   4.046   1.229  16.727  0.0967  0.4600  0.0246
  361MPD2    C4 5458   4.065   1.157  16.610  0.1809  0.5868  0.3715
  361MPD2    C5 5459   3.967   1.150  16.508  0.2277 -0.4030 -0.0489
  361MPD2     H 5460   3.904   1.363  16.821 -0.7384  1.1910 -0.2807
  361MPD2    H1 5461   4.149   1.091  16.594  0.7100  1.4339 -0.3766
  361MPD2    H2 5462   3.804   1.229  16.428 -0.5503  0.8793  0.8763
  361MPD2    H3 5463   3.996   1.085  16.426  0.2490 -1.4151  0.7656
  361MPD2     N 5464   4.146   1.207  16.825  0.7399  0.1966  0.4357
  361MPD2    H5 5465   4.201   1.126  16.800 -2.6273 -2.2593  0.9308
  361MPD2    N1 5466   3.737   1.409  16.633  0.6498 -0.2630 -0.0491
  361MPD2    H7 5467   3.734   1.472  16.713 -0.9234 -2.3872  1.5834
  362TMC3    C1 5468   3.528   1.506  16.579  0.4658 -0.3653 -0.6110
  362TMC3    C2 5469   3.493   1.514  16.713  0.1558  0.0246  0.8432
  362TMC3    C3 5470   3.378   1.590  16.747 -0.5833  0.4160  0.1701
  362TMC3    C4 5471   3.456   1.567  16.487 -0.3645  0.0223 -0.6981
  362TMC3    C5 5472   3.349   1.643  16.526 -0.4343 -1.2734  0.7281
  362TMC3    C6 5473   3.308   1.664  16.653  0.0712 -0.1051  0.9343
  362TMC3     C 5474   3.633   1.419  16.537 -0.1091  0.1863 -0.4462
  362TMC3     O 5475   3.607   1.356  16.437  0.4542 -0.0296 -1.1002
  362TMC3     H 5476   3.556   1.459  16.782  0.0327  1.5004  2.1321
  362TMC3    H1 5477   3.480   1.559  16.382 -0.3172  0.0996 -0.6936
  362TMC3    H2 5478   3.215   1.715  16.673 -0.2923 -0.3227 -0.1600
  362TMC3    C7 5479   3.263   1.707  16.426 -0.0956  0.2188  0.8039
  362TMC3    C8 5480   3.346   1.591  16.889  0.2204  0.3094 -0.1305
  362TMC3    O1 5481   3.174   1.778  16.468 -0.6874  0.5213  0.9085
  362TMC3    O2 5482   3.426   1.527  16.956 -0.4316  0.3906 -0.3273
  363TMC3    C1 5483   1.984   3.839   9.936 -0.6384  0.2625 -0.0967
  363TMC3    C2 5484   1.922   3.744  10.011 -0.3739 -0.7717  0.5156
  363TMC3    C3 5485   1.799   3.781  10.061  0.1439  0.2951  0.0109
  363TMC3    C4 5486   1.929   3.962   9.897 -0.2345 -0.3938 -1.1327
  363TMC3    C5 5487   1.806   3.992   9.951 -0.3766  0.1285  0.6810
  363TMC3    C6 5488   1.741   3.900  10.032  0.2763  0.1620 -0.6171
  363TMC3     C 5489   2.111   3.809   9.870 -0.2630  0.0847  0.2613
  363TMC3     O 5490   2.184   3.906   9.850 -0.3111 -0.5616 -0.5221
  363TMC3     H 5491   1.975   3.654  10.039  1.8526  0.7571  1.1430
  363TMC3    H1 5492   1.981   4.036   9.838 -0.0806  0.8033  0.4894
  363TMC3    H2 5493   1.640   3.928  10.057  0.7572 -0.0735  1.5416
  363TMC3    C7 5494   1.740   4.115   9.917 -0.4143 -1.2490 -0.1612
  363TMC3    C8 5495   1.737   3.700  10.165 -0.7520 -0.5303 -0.1029
  363TMC3    O1 5496   1.647   4.151   9.990  0.3931 -0.0341 -0.7615
  363TMC3    O2 5497   1.660   3.761  10.239  0.9568 -0.4364  0.4879
  364MPD2     C 5498   0.312   3.176  10.849 -0.1942 -0.2422  0.3145
  364MPD2    C1 5499   0.398   3.286  10.875  0.0327  0.2850  0.4582
  364MPD2    C2 5500   0.524   3.249  10.932  0.2753 -0.1169  0.1343
  364MPD2    C3 5501   0.554   3.128  10.986 -0.2401  0.3118  0.6309
  364MPD2    C4 5502   0.464   3.027  10.964 -0.4174  0.0282  0.1697
  364MPD2    C5 5503   0.343   3.050  10.901 -0.0614 -0.7901  0.0694
  364MPD2     H 5504   0.596   3.331  10.936 -1.8363  1.7748 -0.8398
  364MPD2    H1 5505   0.478   2.923  10.990  0.4585  0.4225  1.2826
  364MPD2    H2 5506   0.225   3.193  10.787  0.2106 -0.8298 -0.4130
  364MPD2    H3 5507   0.280   2.967  10.870 -1.0244  0.1960 -0.6435
  364MPD2     N 5508   0.676   3.096  11.054  0.3992  0.3629  0.1391
  364MPD2    H5 5509   0.693   2.997  11.059  1.1442  0.4083 -1.3357
  364MPD2    N1 5510   0.371   3.413  10.825 -0.3023 -0.2365  0.2936
  364MPD2    H7 5511   0.289   3.419  10.765  0.1742 -1.5126 -0.4561
  365TMC3    C1 5512   0.402   3.647  10.764 -0.1392 -0.0584 -0.3240
  365TMC3    C2 5513   0.395   3.629  10.631 -0.9157 -0.3834  0.3344
  365TMC3    C3 5514   0.429   3.738  10.547 -0.0840 -0.4949 -0.1215
  365TMC3    C4 5515   0.436   3.768  10.820 -0.0284 -0.1675 -0.4311
  365TMC3    C5 5516   0.462   3.872  10.734 -0.1603  0.0970  0.1863
  365TMC3    C6 5517   0.452   3.861  10.601 -0.2804 -0.2192  0.4573
  365TMC3     C 5518   0.438   3.533  10.857 -0.5254 -0.1305  1.2992
  365TMC3     O 5519   0.505   3.560  10.952  0.6641  0.5475  0.2099
  365TMC3     H 5520   0.392   3.528  10.593  1.8537 -0.5772  0.6834
  365TMC3    H1 5521   0.472   3.769  10.922  1.1873  2.5349 -0.8831
  365TMC3    H2 5522   0.489   3.940  10.537 -0.8716 -1.3142 -1.2406
  365TMC3    C7 5523   0.528   3.996  10.778  0.0963  0.3424 -0.3674
  365TMC3    C8 5524   0.457   3.719  10.407 -0.2404  0.0717 -0.0621
  365TMC3    O1 5525   0.592   4.058  10.698 -0.8164  0.0859 -0.0956
  365TMC3    O2 5526   0.422   3.805  10.326  0.0437  0.2873 -0.1390
  366MPD2     C 5527   3.855   4.302  15.728  0.4394 -0.4651  0.1914
  366MPD2    C1 5528   3.978   4.352  15.694 -0.1514  0.5544 -0.0789
  366MPD2    C2 5529   4.071   4.262  15.655 -0.9232  0.5776  0.6204
  366MPD2    C3 5530   4.051   4.129  15.651  0.5301 -0.1335 -0.1122
  366MPD2    C4 5531   3.918   4.084  15.677 -0.3754  0.3412  0.5371
  366MPD2    C5 5532   3.816   4.172  15.709 -0.2946 -0.1471  0.0026
  366MPD2     H 5533   4.165   4.305  15.624 -1.7760  1.2584 -0.9693
  366MPD2    H1 5534   3.902   3.977  15.673  0.9803  0.1677 -0.3460
  366MPD2    H2 5535   3.785   4.380  15.755  2.2219  1.2390 -0.1170
  366MPD2    H3 5536   3.717   4.136  15.734  0.3853 -2.5392 -0.6767
  366MPD2     N 5537   4.159   4.052  15.610 -0.5418  0.0854  0.1062
  366MPD2    H5 5538   4.247   4.101  15.602  0.8755 -2.2259  1.6813
  366MPD2    N1 5539   4.006   4.490  15.669  0.2266 -0.3825 -0.0527
  366MPD2    H7 5540   4.103   4.515  15.659  0.1509 -0.3044 -0.5995
  367TMC3    C1 5541   3.972   4.700  15.584 -0.1384 -0.0792  0.2475
  367TMC3    C2 5542   4.083   0.010  15.650  0.6668 -0.0629  0.2923
  367TMC3    C3 5543   4.117   0.140  15.625 -0.0201  0.1013  0.0887
  367TMC3    C4 5544   3.905   0.034  15.484 -0.8287 -0.1975  0.4333
  367TMC3    C5 5545   3.941   0.167  15.472  0.4197  0.0723  0.2290
  367TMC3    C6 5546   4.043   0.222  15.538 -0.2574 -0.3121  0.5116
  367TMC3     C 5547   3.909   4.578  15.625  0.0022 -0.9378 -0.2481
  367TMC3     O 5548   3.791   4.560  15.604 -0.3218  0.2001  0.2623
  367TMC3     H 5549   4.135   4.684  15.717 -0.6640 -1.3762  0.0264
  367TMC3    H1 5550   3.817   4.741  15.431  0.4149 -2.0688 -0.3641
  367TMC3    H2 5551   4.075   0.322  15.510 -1.0649 -0.7208 -1.8140
  367TMC3    C7 5552   3.892   0.249  15.358 -0.8322  0.0237 -0.2082
  367TMC3    C8 5553   4.221   0.190  15.705  0.6581 -0.6445 -0.0905
  367TMC3    O1 5554   3.977   0.320  15.304  0.0759 -0.4768  0.1956
  367TMC3    O2 5555   4.261   0.125  15.800  0.0845  0.5406 -0.0144
  368MPD2     C 5556   4.693   1.116  13.211  0.2100 -0.1494 -0.1580
  368MPD2    C1 5557   4.730   1.231  13.140 -0.4072  0.1129 -0.3565
  368MPD2    C2 5558   0.080   1.210  13.034  0.1729 -0.3178  0.4588
  368MPD2    C3 5559   0.132   1.088  13.005  0.4137  0.4390  0.0050
  368MPD2    C4 5560   0.121   0.985  13.099  0.4836 -0.0967  0.2772
  368MPD2    C5 5561   0.023   0.996  13.188  0.0409  0.3000  0.3920
  368MPD2     H 5562   0.119   1.284  12.965  0.0291 -0.5333  0.1484
  368MPD2    H1 5563   0.182   0.895  13.091  0.9419  0.0675  1.9190
  368MPD2    H2 5564   4.611   1.126  13.281 -0.8809 -4.0616 -0.9019
  368MPD2    H3 5565   4.737   0.911  13.250 -1.2745  1.7069  1.7429
  368MPD2     N 5566   0.213   1.074  12.890 -0.0160 -0.3609 -0.1450
  368MPD2    H5 5567   0.281   0.999  12.897 -0.7229 -1.0295 -0.4423
  368MPD2    N1 5568   4.676   1.356  13.174 -0.1124 -0.4649 -0.2477
  368MPD2    H7 5569   4.599   1.352  13.240 -0.1283 -0.6405 -0.2750
  369TMC3    C1 5570   4.660   1.595  13.196 -0.1646 -0.7374  0.0219
  369TMC3    C2 5571   4.729   1.713  13.188  0.1018  1.0933 -0.1605
  369TMC3    C3 5572   4.650   1.831  13.209 -0.0747 -0.6224  0.2299
  369TMC3    C4 5573   4.531   1.586  13.236  0.4761 -0.7623  0.2493
  369TMC3    C5 5574   4.460   1.707  13.256 -0.2243  0.0722  0.2128
  369TMC3    C6 5575   4.520   1.826  13.251 -0.1255 -0.3070 -0.7496
  369TMC3     C 5576   4.738   1.474  13.152  0.2713 -0.6492  0.4920
  369TMC3     O 5577   0.108   1.495  13.115 -0.8334  0.4193  0.8308
  369TMC3     H 5578   0.095   1.718  13.173 -0.1088  1.8388 -1.4323
  369TMC3    H1 5579   4.476   1.493  13.228  2.0016 -1.6140 -0.2530
  369TMC3    H2 5580   4.474   1.922  13.275  0.2831  0.3910 -2.7689
  369TMC3    C7 5581   4.326   1.695  13.304  0.3962  0.2670 -0.8368
  369TMC3    C8 5582   4.719   1.958  13.206 -0.0919  0.0234  0.3125
  369TMC3    O1 5583   4.301   1.590  13.363 -0.3655 -0.0483 -0.4964
  369TMC3    O2 5584   4.652   2.064  13.217  0.5161 -0.5032 -0.1225
  370TMC3    C1 5585   0.183   2.564  16.568  0.0043 -0.1210 -0.1585
  370TMC3    C2 5586   0.107   2.493  16.650  0.3336  0.9579 -0.0767
  370TMC3    C3 5587   0.032   2.388  16.601 -0.7500  0.3999 -0.2110
  370TMC3    C4 5588   0.199   2.525  16.442  0.2653  0.5774 -0.5934
  370TMC3    C5 5589   0.133   2.413  16.392 -0.4463 -1.0128 -0.4716
  370TMC3    C6 5590   0.050   2.344  16.470 -0.3440  0.4611  0.9731
  370TMC3     C 5591   0.270   2.658  16.631 -0.0675 -0.0969 -0.4545
  370TMC3     O 5592   0.301   2.628  16.745 -0.2330 -0.2267  0.4349
  370TMC3     H 5593   0.089   2.535  16.749 -1.0602  0.5802 -0.1662
  370TMC3    H1 5594   0.272   2.580  16.383  0.6952 -0.1819 -0.7628
  370TMC3    H2 5595   4.721   2.275  16.426  0.9361 -0.8238  0.9598
  370TMC3    C7 5596   0.159   2.376  16.252 -0.5002  0.0377 -0.3989
  370TMC3    C8 5597   4.713   2.296  16.699 -0.4053 -0.4945 -0.3815
  370TMC3    O1 5598   0.232   2.452  16.189  0.3026 -0.4164 -0.2278
  370TMC3    O2 5599   4.662   2.194  16.654 -0.6054 -0.3790 -0.6542
  371TMC3    C1 5600   1.087   0.550  15.848  0.0594  0.7140 -0.4818
  371TMC3    C2 5601   0.956   0.559  15.881  0.5740  0.2377 -0.2893
  371TMC3    C3 5602   0.904   0.683  15.900  0.4139  0.4943  0.4103
  371TMC3    C4 5603   1.162   0.658  15.838  0.5721  0.2234 -0.0254
  371TMC3    C5 5604   1.104   0.782  15.836  0.2798 -0.5577 -0.9860
  371TMC3    C6 5605   0.973   0.795  15.870  0.1639 -0.3408 -0.1357
  371TMC3     C 5606   1.126   0.449  15.760 -0.9278  0.3021  0.3789
  371TMC3     O 5607   1.197   0.476  15.662 -0.4476 -0.0306 -0.0750
  371TMC3     H 5608   0.889   0.474  15.873 -0.5471  1.0088  0.9266
  371TMC3    H1 5609   1.266   0.651  15.808 -0.4706  2.1062 -4.0854
  371TMC3    H2 5610   0.931   0.895  15.872 -0.0219 -0.4985  3.2242
  371TMC3    C7 5611   1.171   0.897  15.775  0.2670 -0.1793 -0.3325
  371TMC3    C8 5612   0.763   0.689  15.938  0.4438 -0.0389 -0.3524
  371TMC3    O1 5613   1.104   0.998  15.756 -0.6004 -0.5821 -0.6310
  371TMC3    O2 5614   0.715   0.579  15.962 -0.5331  0.6884 -0.2364
  372MPD2     C 5615   0.956   1.695  13.436 -0.1820  0.4267 -0.2030
  372MPD2    C1 5616   1.034   1.617  13.517 -0.6376  0.1787 -0.1031
  372MPD2    C2 5617   0.976   1.555  13.628 -0.0553 -0.3586  0.6993
  372MPD2    C3 5618   0.840   1.568  13.648  0.2177  0.4403  0.8227
  372MPD2    C4 5619   0.763   1.653  13.578 -0.3702 -0.4793  0.0968
  372MPD2    C5 5620   0.824   1.716  13.471  0.8148 -0.9191  0.8357
  372MPD2     H 5621   1.031   1.493  13.698 -0.1629 -1.8031 -0.4839
  372MPD2    H1 5622   0.657   1.668  13.593 -0.4689 -1.2420  0.1681
  372MPD2    H2 5623   0.990   1.742  13.345 -1.3371 -0.2191 -0.9646
  372MPD2    H3 5624   0.764   1.778  13.406  0.4000  0.4471  2.5349
  372MPD2     N 5625   0.781   1.503  13.759 -0.3246  0.0200  0.0439
  372MPD2    H5 5626   0.838   1.442  13.816 -1.5448  0.1179  1.3584
  372MPD2    N1 5627   1.175   1.594  13.494 -0.7313 -0.4980 -0.0500
  372MPD2    H7 5628   1.221   1.549  13.572 -0.4369  0.2863  0.2282
  373TMC3    C1 5629   0.626   1.433  13.915 -0.6248 -0.4966  1.1940
  373TMC3    C2 5630   0.608   1.481  14.044  0.0127  0.1571 -0.2093
  373TMC3    C3 5631   0.626   1.396  14.151 -0.1716 -0.1364  0.3808
  373TMC3    C4 5632   0.673   1.301  13.899 -0.5012 -0.7992  0.4679
  373TMC3    C5 5633   0.689   1.224  14.009  0.2437  0.6656 -0.3592
  373TMC3    C6 5634   0.666   1.266  14.136  0.3804 -0.3092 -0.2874
  373TMC3     C 5635   0.663   1.532  13.825  0.0477  0.2064  0.7232
  373TMC3     O 5636   0.582   1.620  13.812 -0.4120 -0.2989 -0.4536
  373TMC3     H 5637   0.571   1.582  14.056 -1.2502 -0.0668 -2.1748
  373TMC3    H1 5638   0.687   1.253  13.803 -1.3125 -1.3925  0.6492
  373TMC3    H2 5639   0.664   1.192  14.215  1.0099 -0.4447 -0.3923
  373TMC3    C7 5640   0.772   1.111  14.004 -0.2382  0.0044  0.4069
  373TMC3    C8 5641   0.670   1.472  14.269  0.1209 -0.8096  0.0290
  373TMC3    O1 5642   0.760   1.038  13.906  0.1777  0.5351  0.7879
  373TMC3    O2 5643   0.697   1.589  14.266  0.7810  0.0939  0.5114
  374TMC3    C1 5644   0.737   1.773   9.789 -0.0057  0.7976 -0.1264
  374TMC3    C2 5645   0.870   1.816   9.787  0.6042 -0.0261 -0.6209
  374TMC3    C3 5646   0.962   1.754   9.708 -0.6331  0.2224 -0.3034
  374TMC3    C4 5647   0.700   1.672   9.703 -0.1937  0.1493 -0.1597
  374TMC3    C5 5648   0.798   1.624   9.613 -0.1060  0.4551  0.2401
  374TMC3    C6 5649   0.925   1.659   9.616 -0.2276  0.1323 -0.7507
  374TMC3     C 5650   0.629   1.831   9.869 -0.5556 -0.6053  0.3619
  374TMC3     O 5651   0.526   1.762   9.883  0.6248 -1.1264  0.4504
  374TMC3     H 5652   0.896   1.906   9.843 -1.8646  0.1595  0.2165
  374TMC3    H1 5653   0.595   1.653   9.680 -0.5880  0.6113  1.2698
  374TMC3    H2 5654   0.995   1.613   9.547 -1.4628 -3.1233  0.1161
  374TMC3    C7 5655   0.767   1.516   9.531 -0.3138  0.6209 -0.0970
  374TMC3    C8 5656   1.099   1.805   9.720 -0.2823  0.0685  0.9929
  374TMC3    O1 5657   0.845   1.486   9.444 -0.1794  0.3491  0.6825
  374TMC3    O2 5658   1.169   1.781   9.619  0.5410  0.2457  0.0301
  375MPD2     C 5659   1.537   3.046  17.507  0.5699  0.6845  0.2038
  375MPD2    C1 5660   1.433   3.028  17.417 -0.3389 -0.6380 -0.2244
  375MPD2    C2 5661   1.463   2.957  17.302 -0.3216  0.7640  0.2771
  375MPD2    C3 5662   1.573   2.882  17.296  0.6487 -0.0670  0.2429
  375MPD2    C4 5663   1.667   2.894  17.395 -0.1415  0.6609 -0.2600
  375MPD2    C5 5664   1.654   2.979  17.501  0.3666 -0.1220 -0.2318
  375MPD2     H 5665   1.387   2.954  17.225 -2.1776  1.4665  2.0939
  375MPD2    H1 5666   1.757   2.834  17.387  1.1250  2.9685 -3.0462
  375MPD2    H2 5667   1.526   3.111  17.593  0.0213  0.9179 -0.0426
  375MPD2    H3 5668   1.725   2.995  17.581  1.1277 -0.5993 -0.8016
  375MPD2     N 5669   1.605   2.786  17.197  0.0163 -0.1908 -0.1103
  375MPD2    H5 5670   1.690   2.733  17.207  0.3817  0.4943  0.4437
  375MPD2    N1 5671   1.308   3.082  17.427 -0.6623 -0.2497  0.1617
  375MPD2    H7 5672   1.260   3.080  17.338 -0.5345  0.9775  0.0705
  376TMC3    C1 5673   1.573   2.649  17.006 -0.2153  0.6510 -0.3261
  376TMC3    C2 5674   1.703   2.606  17.016 -0.4321  0.4412 -0.3334
  376TMC3    C3 5675   1.760   2.553  16.910  0.5082 -0.1131 -0.4086
  376TMC3    C4 5676   1.495   2.628  16.892 -0.0426 -0.0434  0.4801
  376TMC3    C5 5677   1.552   2.551  16.795  1.0695  0.2281  0.6063
  376TMC3    C6 5678   1.683   2.512  16.803  0.4226 -0.0057  0.1450
  376TMC3     C 5679   1.524   2.751  17.099  0.8459 -0.7952 -0.1507
  376TMC3     O 5680   1.410   2.795  17.077  0.2148 -0.1118 -0.3303
  376TMC3     H 5681   1.754   2.613  17.112 -0.9781 -3.2931  0.2046
  376TMC3    H1 5682   1.393   2.662  16.880 -0.9034 -2.7068  0.4054
  376TMC3    H2 5683   1.726   2.455  16.721 -2.2971 -0.3435 -1.0501
  376TMC3    C7 5684   1.490   2.553  16.667 -0.3894 -0.0574  0.8352
  376TMC3    C8 5685   1.884   2.473  16.926  0.1964  0.0726  0.0774
  376TMC3    O1 5686   1.410   2.646  16.638 -0.1887 -0.0387  0.0763
  376TMC3    O2 5687   1.903   2.411  17.028  0.7790  0.3189 -0.7499
  377MPD2     C 5688   3.620   2.488  12.926  0.0441 -0.6930 -0.0821
  377MPD2    C1 5689   3.702   2.403  13.002 -0.2171  0.5206 -0.9034
  377MPD2    C2 5690   3.636   2.313  13.086  0.0117  0.4356 -0.1120
  377MPD2    C3 5691   3.506   2.283  13.085  1.0590 -0.3884 -0.0544
  377MPD2    C4 5692   3.435   2.362  12.993  0.3177 -0.0649 -0.3566
  377MPD2    C5 5693   3.489   2.463  12.919  0.0429 -0.3997  0.3546
  377MPD2     H 5694   3.698   2.251  13.150  0.6924  0.5269 -0.6761
  377MPD2    H1 5695   3.329   2.341  12.983  0.3194 -0.2161 -0.0445
  377MPD2    H2 5696   3.658   2.568  12.864 -0.5999  1.0560  1.7680
  377MPD2    H3 5697   3.421   2.515  12.852  1.5005 -0.0315 -0.8430
  377MPD2     N 5698   3.441   2.181  13.149 -0.2028  0.0803  0.0875
  377MPD2    H5 5699   3.345   2.163  13.122 -0.2790 -0.7785  0.9420
  377MPD2    N1 5700   3.843   2.425  12.989 -0.3418 -0.5581 -0.0743
  377MPD2    H7 5701   3.871   2.490  12.917  0.0348 -0.5341  0.0913
  378TMC3    C1 5702   4.146   2.549  12.843 -0.3660  0.4843  0.1281
  378TMC3    C2 5703   4.072   2.524  12.958  0.0579  0.0962 -0.9727
  378TMC3    C3 5704   4.066   2.399  13.011 -0.0685  0.4033 -0.6894
  378TMC3    C4 5705   4.243   2.459  12.812  0.0542 -0.8707  0.0762
  378TMC3    C5 5706   4.240   2.338  12.875  0.0659 -0.3249  0.6681
  378TMC3    C6 5707   4.157   2.305  12.977  0.0602 -0.3566  0.7642
  378TMC3     C 5708   4.045   2.589  12.740  0.3943  0.0737 -0.7686
  378TMC3     O 5709   3.939   2.615  12.800 -0.1062 -0.1829  0.2635
  378TMC3     H 5710   4.004   2.596  13.003  1.2787  0.3763  0.4412
  378TMC3    H1 5711   4.339   2.487  12.769 -0.1313  1.1454  0.9896
  378TMC3    H2 5712   4.143   2.205  13.016 -0.8412 -0.8907 -0.9054
  378TMC3    C7 5713   4.356   2.259  12.870 -0.4194 -0.0886 -0.0481
  378TMC3    C8 5714   3.940   2.339  13.037  0.8990  0.2574 -0.0496
  378TMC3    O1 5715   4.379   2.195  12.974  0.1182  0.2190 -0.2379
  378TMC3    O2 5716   3.926   2.229  13.091 -0.6355 -0.3361  0.2982
  379MPD2     C 5717   0.566   0.626  16.297  0.0281 -0.9332 -0.4047
  379MPD2    C1 5718   0.502   0.526  16.364 -0.5800  0.4766 -0.4428
  379MPD2    C2 5719   0.544   0.509  16.496 -0.3868  0.2875  0.0687
  379MPD2    C3 5720   0.651   0.575  16.551  0.8331  0.1366 -1.0658
  379MPD2    C4 5721   0.719   0.662  16.469 -0.2505  0.3487  0.0016
  379MPD2    C5 5722   0.672   0.694  16.341  0.0288 -0.1065 -0.1092
  379MPD2     H 5723   0.496   0.427  16.548  0.5908 -0.6591 -0.5075
  379MPD2    H1 5724   0.810   0.706  16.507  1.0047  0.3096 -2.9584
  379MPD2    H2 5725   0.535   0.648  16.195 -1.0862 -0.9991 -0.0791
  379MPD2    H3 5726   0.724   0.763  16.276 -0.0089 -2.5262 -2.7131
  379MPD2     N 5727   0.719   0.545  16.670 -0.1605  0.4027  0.0938
  379MPD2    H5 5728   0.816   0.574  16.680 -0.0755  0.4435 -0.8192
  379MPD2    N1 5729   0.399   0.456  16.303  0.6332  0.3788  0.3219
  379MPD2    H7 5730   0.368   0.492  16.213 -0.5081 -0.1446  0.5027
  380TMC3    C1 5731   0.231   0.296  16.275 -0.1161 -0.3451  0.2019
  380TMC3    C2 5732   0.247   0.165  16.237 -0.0962 -0.1088 -0.1471
  380TMC3    C3 5733   0.183   0.126  16.126  0.0397  0.1256  0.6057
  380TMC3    C4 5734   0.152   0.392  16.208  0.1542 -0.1581  0.3036
  380TMC3    C5 5735   0.099   0.354  16.088 -0.3470 -0.2305 -0.3110
  380TMC3    C6 5736   0.110   0.218  16.049  0.3310  0.5944 -0.1288
  380TMC3     C 5737   0.333   0.347  16.364  0.5114  0.1294  0.3580
  380TMC3     O 5738   0.351   0.292  16.468  0.0051  0.5506 -0.1779
  380TMC3     H 5739   0.326   0.107  16.284  0.1643 -0.0003 -0.4557
  380TMC3    H1 5740   0.138   0.494  16.241  0.9169  0.5769 -1.6921
  380TMC3    H2 5741   0.087   0.188  15.947  1.0154  2.1126 -0.7167
  380TMC3    C7 5742   0.006   0.437  16.021 -0.1563 -0.4340  0.5341
  380TMC3    C8 5743   0.236   0.015  16.053  0.7221  0.3945 -1.2752
  380TMC3    O1 5744   0.034   0.556  16.010 -0.2919 -0.7898  0.4188
  380TMC3    O2 5745   0.164   4.662  16.010  0.0374  0.3822  0.1194
  381TMC3    C1 5746   4.492   1.901  16.334  0.3374  0.0254  0.1865
  381TMC3    C2 5747   4.604   1.830  16.300 -0.2089  0.1964  0.8851
  381TMC3    C3 5748   4.642   1.726  16.375 -0.1121 -0.6608  0.1831
  381TMC3    C4 5749   4.422   1.871  16.445  0.6626  0.4230 -1.1799
  381TMC3    C5 5750   4.462   1.763  16.522  0.0034 -0.1838  0.5660
  381TMC3    C6 5751   4.579   1.698  16.491  0.2071  0.2407 -0.3487
  381TMC3     C 5752   4.486   2.031  16.286 -0.2208 -0.0323  0.1258
  381TMC3     O 5753   4.401   2.103  16.337  0.2459 -0.5957 -0.5023
  381TMC3     H 5754   4.667   1.851  16.214 -1.4245 -0.5426 -0.1937
  381TMC3    H1 5755   4.330   1.927  16.461 -1.1195 -3.3672  1.6906
  381TMC3    H2 5756   4.607   1.606  16.541 -3.1878  0.7010  2.3951
  381TMC3    C7 5757   4.399   1.725  16.646  0.4942 -0.0985  0.8674
  381TMC3    C8 5758   0.046   1.740  16.401 -0.1024 -0.4925  0.1604
  381TMC3    O1 5759   4.395   1.608  16.681 -0.1091  0.1323 -0.3260
  381TMC3    O2 5760   0.116   1.747  16.302  0.1628 -0.1038  0.1000
  382MPD2     C 5761   3.970   3.950  16.950 -0.2433 -0.4935 -0.6452
  382MPD2    C1 5762   3.996   3.942  17.084 -0.3021 -0.1115 -0.9094
  382MPD2    C2 5763   3.931   3.851  17.159  0.4217 -0.2338 -0.1818
  382MPD2    C3 5764   3.840   3.760  17.111 -0.2657  0.1479  0.2544
  382MPD2    C4 5765   3.827   3.765  16.970 -0.1907 -0.1470 -0.2461
  382MPD2    C5 5766   3.886   3.858  16.896  0.0643  0.3334 -0.1274
  382MPD2     H 5767   3.938   3.845  17.267  2.5557  0.6579 -0.2660
  382MPD2    H1 5768   3.764   3.693  16.920 -0.4289 -0.9089  1.1643
  382MPD2    H2 5769   4.014   4.027  16.888 -0.6061 -0.5523 -0.9717
  382MPD2    H3 5770   3.873   3.856  16.789 -0.5455  0.2280 -0.0528
  382MPD2     N 5771   3.759   3.676  17.182  0.4792  0.2634 -0.3097
  382MPD2    H5 5772   3.687   3.632  17.125  1.0131  0.9380 -1.5147
  382MPD2    N1 5773   4.097   4.020  17.146 -0.0333  0.4977 -0.3768
  382MPD2    H7 5774   4.106   4.010  17.246 -0.5388 -0.2674 -0.4107
  383TMC3    C1 5775   3.665   3.557  17.359 -0.2553  0.8201  0.1992
  383TMC3    C2 5776   3.607   3.462  17.278  0.3904  0.6208  0.5183
  383TMC3    C3 5777   3.539   3.360  17.332 -0.0682 -0.4208  0.4353
  383TMC3    C4 5778   3.655   3.546  17.498 -0.2030 -0.0507  0.6699
  383TMC3    C5 5779   3.574   3.444  17.543  0.6316  0.1323  0.6438
  383TMC3    C6 5780   3.521   3.347  17.464 -0.4981  0.2438 -0.3394
  383TMC3     C 5781   3.771   3.650  17.316  0.2554 -0.4569  0.5554
  383TMC3     O 5782   3.849   3.689  17.400  0.1217 -0.2001 -0.0602
  383TMC3     H 5783   3.623   3.463  17.171 -0.3310 -0.8326  0.3891
  383TMC3    H1 5784   3.703   3.614  17.567 -0.6679  0.6390  0.3190
  383TMC3    H2 5785   3.439   3.286  17.501 -0.6862  0.0878 -1.0121
  383TMC3    C7 5786   3.564   3.424  17.684 -0.0744 -1.0894 -0.0350
  383TMC3    C8 5787   3.469   3.274  17.244  0.1584  0.7265 -0.1804
  383TMC3    O1 5788   3.550   3.311  17.727 -0.6423 -0.2421  0.4438
  383TMC3    O2 5789   3.440   3.311  17.130 -0.4417 -0.5356 -0.1612
  384MPD2     C 5790   0.530   0.150  12.385 -0.1254  0.1941 -0.2034
  384MPD2    C1 5791   0.618   0.079  12.462  0.4326  1.1783 -0.6701
  384MPD2    C2 5792   0.750   0.089  12.433  0.3542 -0.1135 -0.1624
  384MPD2    C3 5793   0.798   0.149  12.319  0.1296  0.2761  0.6400
  384MPD2    C4 5794   0.710   0.208  12.232  0.1625 -0.0261 -0.4070
  384MPD2    C5 5795   0.583   0.207  12.270  0.5201 -0.0165 -0.3528
  384MPD2     H 5796   0.814   0.035  12.502 -0.3396  0.2174  0.7432
  384MPD2    H1 5797   0.743   0.240  12.133 -0.8722 -0.0549 -0.7552
  384MPD2    H2 5798   0.423   0.148  12.406 -0.2268 -1.5300 -0.9164
  384MPD2    H3 5799   0.514   0.249  12.197 -0.5322  2.5022  2.0870
  384MPD2     N 5800   0.935   0.143  12.282  0.1818  0.0280 -0.0629
  384MPD2    H5 5801   0.963   0.170  12.188  0.2070  2.5827  0.6933
  384MPD2    N1 5802   0.564   4.739  12.564 -0.0598 -0.4355 -0.2666
  384MPD2    H7 5803   0.465   0.008  12.586  0.4493  4.0034 -0.0301
  385TMC3    C1 5804   1.161   0.082  12.308  0.0241  0.2549  0.0505
  385TMC3    C2 5805   1.168   4.730  12.208  0.3390 -0.8497  0.2407
  385TMC3    C3 5806   1.265   4.639  12.215 -0.0571 -0.8594  0.9632
  385TMC3    C4 5807   1.256   0.081  12.405 -0.4896 -0.1663  0.3445
  385TMC3    C5 5808   1.355   4.729  12.419  0.1255 -0.4656  0.1637
  385TMC3    C6 5809   1.362   4.639  12.319 -0.2095 -0.8527 -1.5962
  385TMC3     C 5810   1.034   0.107  12.369  0.6213  0.5355  0.0176
  385TMC3     O 5811   1.029   0.087  12.490  0.3306  0.7017 -0.0669
  385TMC3     H 5812   1.091   4.723  12.132  0.3397  1.8395  0.0183
  385TMC3    H1 5813   1.258   0.160  12.480 -0.6500 -0.7956  1.0204
  385TMC3    H2 5814   1.433   4.558  12.327 -1.3401 -1.6697  0.0417
  385TMC3    C7 5815   1.363   4.677  12.554 -1.2872  0.1392 -0.2812
  385TMC3    C8 5816   1.280   4.539  12.108  0.6248  0.0418 -0.3532
  385TMC3    O1 5817   1.456   4.608  12.591  0.2982  0.3631 -0.1555
  385TMC3    O2 5818   1.394   4.502  12.087 -0.1039  0.2133 -0.0990
  386TMC3    C1 5819   0.659   2.354  11.806  0.4284  0.2881  0.0818
  386TMC3    C2 5820   0.634   2.404  11.677  0.8065 -0.2761 -0.0479
  386TMC3    C3 5821   0.529   2.490  11.662 -0.6484  0.3995  0.3262
  386TMC3    C4 5822   0.582   2.386  11.907 -0.1099 -0.0652  0.4607
  386TMC3    C5 5823   0.482   2.480  11.884 -0.0093  0.1159 -0.4724
  386TMC3    C6 5824   0.447   2.531  11.767  0.0403 -0.2824 -0.2645
  386TMC3     C 5825   0.765   2.258  11.819 -0.5441 -0.8603  0.1122
  386TMC3     O 5826   0.867   2.280  11.756 -0.1332 -0.3071  0.4806
  386TMC3     H 5827   0.687   2.372  11.588  1.3195  1.2805 -0.2941
  386TMC3    H1 5828   0.598   2.344  12.006  0.9773 -0.9557 -0.0941
  386TMC3    H2 5829   0.358   2.593  11.758  1.0959  1.1248 -1.0053
  386TMC3    C7 5830   0.393   2.502  11.998 -0.4071 -0.2171  0.7504
  386TMC3    C8 5831   0.455   2.493  11.533  0.6513  0.6121  1.0931
  386TMC3    O1 5832   0.436   2.565  12.093 -0.1226  0.3549  0.0952
  386TMC3    O2 5833   0.355   2.567  11.537 -0.2155  0.0927  0.1082
  387MPD2     C 5834   2.793   1.510   9.311 -0.8014 -0.3585  0.2680
  387MPD2    C1 5835   2.904   1.460   9.374 -0.3429  0.2449 -0.5721
  387MPD2    C2 5836   2.910   1.322   9.401 -0.4257  0.5118  0.1429
  387MPD2    C3 5837   2.804   1.241   9.368 -0.4883 -0.5905  0.2848
  387MPD2    C4 5838   2.700   1.289   9.305 -0.4189  0.4099 -0.3163
  387MPD2    C5 5839   2.691   1.423   9.281 -0.3620  0.6942 -0.6522
  387MPD2     H 5840   2.996   1.274   9.448  1.6187  1.0678 -3.0400
  387MPD2    H1 5841   2.624   1.222   9.265  0.2032  0.7866 -2.1142
  387MPD2    H2 5842   2.782   1.614   9.282  1.3866  0.9356  4.0626
  387MPD2    H3 5843   2.609   1.466   9.224 -1.6463 -0.5479  0.2782
  387MPD2     N 5844   2.828   1.102   9.376  0.7091 -0.0194 -0.4912
  387MPD2    H5 5845   2.924   1.078   9.400  1.1332  2.1902  0.0577
  387MPD2    N1 5846   3.015   1.540   9.420 -0.1719 -0.0883  0.6257
  387MPD2    H7 5847   3.080   1.490   9.479  0.4565  1.1160  0.9435
  388TMC3    C1 5848   3.155   1.710   9.475  0.5515 -0.0349 -0.0299
  388TMC3    C2 5849   3.166   1.826   9.531 -0.0574 -0.3335  0.3876
  388TMC3    C3 5850   3.266   1.843   9.621  0.8918 -0.5132 -0.7918
  388TMC3    C4 5851   3.254   1.616   9.479 -0.2560 -0.1406 -0.3400
  388TMC3    C5 5852   3.361   1.637   9.561  0.2647  0.2519 -0.3562
  388TMC3    C6 5853   3.360   1.750   9.642  0.0090  0.2381  0.9826
  388TMC3     C 5854   3.034   1.676   9.407 -0.3056  0.3456 -0.3919
  388TMC3     O 5855   2.963   1.755   9.352 -0.0496  0.2621  0.4684
  388TMC3     H 5856   3.090   1.901   9.513  0.8623  0.8246  1.2921
  388TMC3    H1 5857   3.268   1.541   9.401  0.7083 -0.0188 -0.2847
  388TMC3    H2 5858   3.440   1.771   9.712 -1.8138  1.3408  2.7045
  388TMC3    C7 5859   3.430   1.527   9.624  0.2232 -0.1677  0.1442
  388TMC3    C8 5860   3.270   1.966   9.688 -0.2800  0.0391  0.5994
  388TMC3    O1 5861   3.535   1.550   9.687  0.4418  0.0147 -0.2146
  388TMC3    O2 5862   3.217   2.060   9.634  0.5412 -0.3664 -0.5631
  389MPD2     C 5863   2.800   0.663  11.203  0.1446 -0.4274 -0.1327
  389MPD2    C1 5864   2.676   0.609  11.183 -0.7885  0.5571 -0.6415
  389MPD2    C2 5865   2.631   0.506  11.273 -0.1525 -0.6442 -0.4586
  389MPD2    C3 5866   2.715   0.475  11.384  0.1998  0.9820 -0.0243
  389MPD2    C4 5867   2.839   0.538  11.403  0.3688 -0.4573 -0.0852
  389MPD2    C5 5868   2.883   0.632  11.313  0.2990  0.3679 -0.5351
  389MPD2     H 5869   2.534   0.460  11.260 -0.5787  0.3805 -0.9774
  389MPD2    H1 5870   2.902   0.520  11.489 -0.3309 -0.9073  0.3324
  389MPD2    H2 5871   2.836   0.737  11.133 -4.0574  1.8014  0.1103
  389MPD2    H3 5872   2.987   0.662  11.314  0.7674 -1.2657  2.6308
  389MPD2     N 5873   2.685   0.378  11.469  0.3968  0.4599 -0.0498
  389MPD2    H5 5874   2.749   0.361  11.546 -0.4017  0.4484  0.6042
  389MPD2    N1 5875   2.588   0.658  11.081 -0.8944 -0.9458  0.0684
  389MPD2    H7 5876   2.624   0.730  11.020 -0.5880 -1.2737 -0.1431
  390TMC3    C1 5877   2.573   0.204  11.583  0.1566 -0.1239  0.1529
  390TMC3    C2 5878   2.535   0.071  11.578 -0.1927 -0.9022  1.0116
  390TMC3    C3 5879   2.572   4.727  11.678  0.2946  0.1019 -0.4301
  390TMC3    C4 5880   2.619   0.248  11.706 -0.6304 -0.2727  0.6565
  390TMC3    C5 5881   2.635   0.167  11.809 -0.1093  0.3250 -0.3807
  390TMC3    C6 5882   2.626   0.031  11.795  0.2149 -0.6200  0.1794
  390TMC3     C 5883   2.587   0.282  11.460  0.2342  0.6520  0.3590
  390TMC3     O 5884   2.523   0.253  11.359  0.1720 -0.4636  0.0669
  390TMC3     H 5885   2.486   0.029  11.491 -1.1785  2.1957  0.0825
  390TMC3    H1 5886   2.654   0.347  11.732  2.3908 -1.7404  2.1545
  390TMC3    H2 5887   2.654   4.703  11.873 -1.5354 -1.4518  0.0573
  390TMC3    C7 5888   2.528   0.196  11.911 -0.2655  0.0552 -0.1688
  390TMC3    C8 5889   2.496   4.606  11.687 -0.2819 -0.2451 -0.5850
  390TMC3    O1 5890   2.464   0.101  11.957  1.5449 -0.2347 -0.8634
  390TMC3    O2 5891   2.475   4.535  11.589 -0.7256  0.4158 -0.0468
  391MPD2     C 5892   1.160   2.023  11.219  0.1177  0.1308 -0.3845
  391MPD2    C1 5893   1.301   2.020  11.220 -0.1170 -0.0707  0.0361
  391MPD2    C2 5894   1.367   2.040  11.096  0.3640 -0.0285  0.0576
  391MPD2    C3 5895   1.293   2.081  10.985  0.6909  0.2604 -0.7908
  391MPD2    C4 5896   1.153   2.090  10.996  0.5360 -0.5522 -0.2937
  391MPD2    C5 5897   1.086   2.057  11.110 -0.6182 -0.0268  0.4347
  391MPD2     H 5898   1.474   2.033  11.085  0.4664 -2.8856  2.6899
  391MPD2    H1 5899   1.096   2.129  10.913  0.0964 -2.5246 -0.9183
  391MPD2    H2 5900   1.105   2.010  11.311  0.3274 -0.2357 -0.3130
  391MPD2    H3 5901   0.979   2.065  11.120 -0.8153  0.5230 -2.1525
  391MPD2     N 5902   1.363   2.102  10.863  0.7572  0.6565  0.4950
  391MPD2    H5 5903   1.458   2.065  10.856  0.8546  0.9884  0.0310
  391MPD2    N1 5904   1.375   2.002  11.335 -0.3301 -0.5727 -0.0144
  391MPD2    H7 5905   1.476   2.006  11.322 -0.5005 -2.9938 -2.1528
  392TMC3    C1 5906   1.397   2.160  10.635 -0.0745 -0.2124 -0.4255
  392TMC3    C2 5907   1.332   2.127  10.516  0.3012  0.1476  0.1707
  392TMC3    C3 5908   1.411   2.068  10.420 -0.1721 -0.3286  0.1686
  392TMC3    C4 5909   1.532   2.145  10.647 -0.0144  0.6339  0.0264
  392TMC3    C5 5910   1.607   2.081  10.553  0.1463  0.5257  0.0347
  392TMC3    C6 5911   1.550   2.049  10.438  0.3201 -0.0918 -0.3149
  392TMC3     C 5912   1.311   2.169  10.757  0.0382  0.1435 -0.2961
  392TMC3     O 5913   1.193   2.189  10.732  0.0935 -1.0574  0.1903
  392TMC3     H 5914   1.225   2.136  10.508 -0.0900 -2.8066  2.0973
  392TMC3    H1 5915   1.578   2.192  10.733 -1.2755  0.3640  0.8589
  392TMC3    H2 5916   1.599   1.991  10.361  1.2565  2.0935 -1.3495
  392TMC3    C7 5917   1.732   2.036  10.593 -0.2632  0.1135 -0.0515
  392TMC3    C8 5918   1.346   2.027  10.286 -0.1134 -0.0253  0.6143
  392TMC3    O1 5919   1.757   2.059  10.714  0.2013 -0.2380 -0.3118
  392TMC3    O2 5920   1.222   2.034  10.275  0.0122 -0.3799 -0.0224
  393TMC3    C1 5921   0.544   0.041  11.067 -1.0723 -0.4064 -0.2165
  393TMC3    C2 5922   0.429   4.702  11.051 -0.2412 -0.0885 -0.0267
  393TMC3    C3 5923   0.396   4.618  11.149  0.4238  0.0747 -0.3875
  393TMC3    C4 5924   0.629   0.029  11.168  0.0873  0.8069  0.5377
  393TMC3    C5 5925   0.595   4.669  11.252  0.0175 -0.1163  0.3962
  393TMC3    C6 5926   0.476   4.602  11.257  0.0309 -0.4065 -0.2199
  393TMC3     C 5927   0.574   0.141  10.970 -0.1010  0.6723  0.6899
  393TMC3     O 5928   0.572   0.114  10.852 -0.2843  0.3052  0.3921
  393TMC3     H 5929   0.367   4.708  10.962 -0.9064 -0.9036  0.3796
  393TMC3    H1 5930   0.724   0.079  11.159  0.9307 -0.6638  1.2745
  393TMC3    H2 5931   0.461   4.526  11.332 -1.8489  0.6302  0.4414
  393TMC3    C7 5932   0.704   4.603  11.311 -0.4365  0.0597 -0.7113
  393TMC3    C8 5933   0.286   4.530  11.119  0.2137 -0.5719  0.0973
  393TMC3    O1 5934   0.674   4.532  11.405  0.1105 -0.1125  0.1808
  393TMC3    O2 5935   0.235   4.526  11.012  0.7623 -0.4969  0.8783
  394TMC3    C1 5936   2.408   0.685  10.933 -0.3321  0.2440 -0.0101
  394TMC3    C2 5937   2.280   0.727  10.927  0.3162  0.5407  0.4730
  394TMC3    C3 5938   2.236   0.785  10.809  0.2368 -0.2824 -0.1985
  394TMC3    C4 5939   2.487   0.698  10.828 -0.0175  0.0556  0.8264
  394TMC3    C5 5940   2.440   0.760  10.716 -0.6707  1.1507 -0.9381
  394TMC3    C6 5941   2.312   0.809  10.700 -0.2165  0.2361 -0.2706
  394TMC3     C 5942   2.456   0.633  11.063 -0.3315 -0.4094 -0.0216
  394TMC3     O 5943   2.375   0.590  11.147  0.4796  0.3328 -0.3805
  394TMC3     H 5944   2.215   0.724  11.013 -0.0305 -1.1651  0.1415
  394TMC3    H1 5945   2.584   0.650  10.832 -0.9151 -1.5942  2.6807
  394TMC3    H2 5946   2.271   0.845  10.606 -1.2239  0.4612  0.2478
  394TMC3    C7 5947   2.521   0.764  10.598  0.2323  0.0176  0.5631
  394TMC3    C8 5948   2.106   0.727  10.767 -0.0658 -0.4145  0.2934
  394TMC3    O1 5949   2.472   0.775  10.487  0.7459  0.3048 -0.2853
  394TMC3    O2 5950   2.035   0.783  10.685 -0.1499 -0.3381 -0.4635
  395TMC3    C1 5951   2.196   2.450  15.171  0.4446 -0.1817 -0.2924
  395TMC3    C2 5952   2.126   2.413  15.063 -0.3459 -0.1739 -0.4643
  395TMC3    C3 5953   2.097   2.509  14.973 -0.1673 -0.1010 -0.2681
  395TMC3    C4 5954   2.255   2.573  15.180 -0.0183 -0.5340  0.1551
  395TMC3    C5 5955   2.233   2.668  15.086  0.4026 -0.5555 -0.5463
  395TMC3    C6 5956   2.149   2.638  14.979  0.5654  0.4156 -0.1018
  395TMC3     C 5957   2.168   2.349  15.274 -0.1014  0.0309 -0.1461
  395TMC3     O 5958   2.139   2.232  15.246 -0.6368  0.5439  0.1792
  395TMC3     H 5959   2.062   2.325  15.057 -0.2715 -0.2670  0.1147
  395TMC3    H1 5960   2.329   2.599  15.255 -0.8238  1.2751  0.3255
  395TMC3    H2 5961   2.138   2.700  14.891  0.5422 -0.1903 -0.5295
  395TMC3    C7 5962   2.306   2.800  15.098 -0.6551  0.4253  0.4023
  395TMC3    C8 5963   2.007   2.473  14.861 -0.3664  0.0754  0.2632
  395TMC3    O1 5964   2.386   2.807  15.189 -0.2039 -0.4379  0.3884
  395TMC3    O2 5965   1.956   2.567  14.804 -0.2423 -0.1613  1.2611
  396MPD2     C 5966   2.449   3.786  17.735 -0.6624 -0.4562 -0.7204
  396MPD2    C1 5967   2.417   3.718  17.624  0.0603 -0.0716  0.5010
  396MPD2    C2 5968   2.406   3.795  17.508 -0.0686 -0.7766  0.1414
  396MPD2    C3 5969   2.436   3.930  17.510 -0.0930  0.2223 -0.2327
  396MPD2    C4 5970   2.475   3.992  17.624 -0.6657  0.0403 -0.0331
  396MPD2    C5 5971   2.480   3.918  17.736 -0.0114  0.0745  0.7418
  396MPD2     H 5972   2.401   3.742  17.414 -1.6276 -2.4322  1.1560
  396MPD2    H1 5973   2.486   4.100  17.628  0.9542 -0.1168 -0.1684
  396MPD2    H2 5974   2.473   3.735   0.064 -0.1234 -0.3903 -0.8241
  396MPD2    H3 5975   2.499   3.967   0.067  0.2889  1.9352 -0.2861
  396MPD2     N 5976   2.432   4.006  17.390 -0.2066  0.5092 -0.6600
  396MPD2    H5 5977   2.466   4.100  17.406  0.1491  0.2258  0.2742
  396MPD2    N1 5978   2.415   3.574  17.634  0.1753  0.0911  0.1968
  396MPD2    H7 5979   2.419   3.536  17.728  2.8214  0.8155  0.3636
  397TMC3    C1 5980   2.399   3.344  17.544  0.4078  0.6284 -0.3204
  397TMC3    C2 5981   2.372   3.277  17.427  0.4220  0.3873  0.3277
  397TMC3    C3 5982   2.368   3.142  17.424  0.5103  0.0432 -0.3331
  397TMC3    C4 5983   2.452   3.276  17.650  0.0606 -0.3329  0.0401
  397TMC3    C5 5984   2.463   3.141  17.637 -0.3061 -0.8158 -0.2106
  397TMC3    C6 5985   2.421   3.071  17.526  0.3949 -0.1856 -0.2146
  397TMC3     C 5986   2.425   3.489  17.521 -0.4784 -0.7133  0.4218
  397TMC3     O 5987   2.456   3.521  17.405  0.3156  0.1501  0.0934
  397TMC3     H 5988   2.313   3.326  17.351  1.0219  0.0086 -0.3837
  397TMC3    H1 5989   2.491   3.321  17.741 -1.0003 -0.7985  0.7186
  397TMC3    H2 5990   2.413   2.963  17.522  2.5954 -0.3401 -0.5647
  397TMC3    C7 5991   2.468   3.060  17.760 -0.5633 -0.0776 -0.4185
  397TMC3    C8 5992   2.299   3.080  17.314 -0.3887  0.7631  0.4653
  397TMC3    O1 5993   2.489   2.942  17.737 -0.1261  0.2867  0.0233
  397TMC3    O2 5994   2.240   3.159  17.246  0.8684 -0.2807 -0.7170
  398MPD2     C 5995   0.617   0.622   0.135 -0.1002 -0.4370  0.1647
  398MPD2    C1 5996   0.626   0.623   0.269 -0.4883 -1.1471 -0.6742
  398MPD2    C2 5997   0.631   0.740   0.341 -0.1585 -0.3792 -0.6225
  398MPD2    C3 5998   0.632   0.859   0.272 -0.2415  0.6051  0.5067
  398MPD2    C4 5999   0.607   0.862   0.134  0.1076 -0.3533  0.1257
  398MPD2    C5 6000   0.600   0.739   0.070 -0.0910  0.9970  0.2156
  398MPD2     H 6001   0.642   0.737   0.449 -3.4472  1.7350 -0.2335
  398MPD2    H1 6002   0.609   0.954   0.078 -1.2760 -0.5561 -0.2701
  398MPD2    H2 6003   0.607   0.531   0.077 -0.0018 -0.7354  0.6162
  398MPD2    H3 6004   0.599   0.736  17.726 -1.3785  0.7992  0.2336
  398MPD2     N 6005   0.664   0.979   0.346 -0.1593 -0.1458 -0.0126
  398MPD2    H5 6006   0.685   0.970   0.444 -0.3618 -1.6106 -0.1004
  398MPD2    N1 6007   0.643   0.503   0.340 -0.5453 -0.5302 -0.1923
  398MPD2    H7 6008   0.672   0.510   0.437 -0.8882 -0.6279 -0.0851
  399TMC3    C1 6009   0.644   0.274   0.374 -0.2194  0.9183  0.3929
  399TMC3    C2 6010   0.748   0.281   0.465  0.6484 -0.0217 -0.3386
  399TMC3    C3 6011   0.766   0.174   0.539 -0.5187  0.3592  0.1076
  399TMC3    C4 6012   0.561   0.162   0.357  0.1032 -0.6262 -0.5480
  399TMC3    C5 6013   0.581   0.057   0.439 -0.6610  0.3291  0.0605
  399TMC3    C6 6014   0.686   0.064   0.532  0.2105  0.4440 -0.3863
  399TMC3     C 6015   0.624   0.379   0.284  0.3495  0.4063 -0.3430
  399TMC3     O 6016   0.570   0.338   0.179  0.7033 -0.2596 -0.0977
  399TMC3     H 6017   0.807   0.370   0.480  1.2627 -0.4770 -0.0639
  399TMC3    H1 6018   0.480   0.152   0.286  0.1607  0.1773 -0.7176
  399TMC3    H2 6019   0.706   4.711   0.582 -1.9337 -0.3833 -1.1122
  399TMC3    C7 6020   0.491   4.692   0.441 -0.0711  0.4826  0.0285
  399TMC3    C8 6021   0.898   0.161   0.596  0.7476  0.2456  0.6131
  399TMC3    O1 6022   0.507   4.604   0.529  0.6885 -0.1666  0.1969
  399TMC3    O2 6023   0.964   0.258   0.613  0.5031  0.4983 -0.3210
  400TMC3    C1 6024   3.619   3.003  16.926 -0.1728 -0.8066 -0.5636
  400TMC3    C2 6025   3.562   2.883  16.887  0.2437 -0.4488  0.0973
  400TMC3    C3 6026   3.467   2.888  16.788  0.0741  0.2056  0.5794
  400TMC3    C4 6027   3.575   3.120  16.872  0.2289 -0.5980 -0.6834
  400TMC3    C5 6028   3.486   3.120  16.772  0.2103 -0.9233 -0.1616
  400TMC3    C6 6029   3.430   3.003  16.724  0.5418  0.3038  0.3262
  400TMC3     C 6030   3.714   2.990  17.037  0.6936 -0.4138 -0.0297
  400TMC3     O 6031   3.745   2.876  17.062  0.0493 -0.2605 -0.0604
  400TMC3     H 6032   3.596   2.793  16.937 -1.2088  0.9828  3.6995
  400TMC3    H1 6033   3.606   3.217  16.910 -0.1937 -0.9968  0.6938
  400TMC3    H2 6034   3.338   3.011  16.667  1.0913  0.7170 -0.4955
  400TMC3    C7 6035   3.419   3.250  16.736  0.2655  0.1948 -0.7289
  400TMC3    C8 6036   3.381   2.769  16.786  0.1590 -0.1191  0.1776
  400TMC3    O1 6037   3.371   3.262  16.624 -0.0063  0.0183  0.1647
  400TMC3    O2 6038   3.402   2.684  16.872 -0.2890 -0.3907  0.2308
  401MPD2     C 6039   2.173   2.495   0.063 -1.1393  0.5108  0.1284
  401MPD2    C1 6040   2.194   2.383   0.142  0.0131  0.6406  0.0353
  401MPD2    C2 6041   2.126   2.267   0.122 -1.0339  0.2924 -0.2532
  401MPD2    C3 6042   2.034   2.253   0.030  0.1989 -0.0154  0.8153
  401MPD2    C4 6043   2.017   2.355  17.710 -0.5661  0.0111 -0.8610
  401MPD2    C5 6044   2.076   2.479  17.727 -0.7105  0.1878  0.5009
  401MPD2     H 6045   2.149   2.179   0.181 -0.5305  0.8321  0.3563
  401MPD2    H1 6046   1.948   2.337  17.628 -1.5947  0.7487 -0.1664
  401MPD2    H2 6047   2.226   2.589   0.070 -0.9373  0.3214  1.1399
  401MPD2    H3 6048   2.054   2.559  17.658 -0.1978 -0.6703 -0.6526
  401MPD2     N 6049   1.981   2.121   0.014 -1.0457 -0.1231  0.4451
  401MPD2    H5 6050   2.021   2.051   0.076  0.5843  2.0453  1.8498
  401MPD2    N1 6051   2.304   2.371   0.232  0.5777 -0.6132  0.1919
  401MPD2    H7 6052   2.332   2.284   0.276  0.9647  0.4443  2.0442
  402TMC3    C1 6053   1.848   1.945  17.724 -0.1729  0.6772 -0.2330
  402TMC3    C2 6054   1.831   1.933   0.093  0.4137 -0.7352  0.3031
  402TMC3    C3 6055   1.868   1.818   0.162  0.3207  0.1246 -0.0938
  402TMC3    C4 6056   1.903   1.855  17.649  0.2392 -0.8643  0.2744
  402TMC3    C5 6057   1.933   1.739  17.720  0.3126 -0.1280 -0.1317
  402TMC3    C6 6058   1.921   1.714   0.091 -0.8798 -0.5488  0.3263
  402TMC3     C 6059   1.893   2.076  17.684  0.0098  0.1616  0.0128
  402TMC3     O 6060   1.848   2.128  17.584  0.7062  0.5580  0.2900
  402TMC3     H 6061   1.785   2.017   0.146 -0.8010 -2.5112  2.0571
  402TMC3    H1 6062   1.923   1.869  17.543 -0.3934  0.1929  0.2906
  402TMC3    H2 6063   1.965   1.624   0.134  0.6192  0.0232  0.0062
  402TMC3    C7 6064   2.011   1.638  17.645 -0.5870 -0.2209  0.3954
  402TMC3    C8 6065   1.940   1.845   0.281 -0.5479 -0.6209  0.1323
  402TMC3    O1 6066   2.011   1.645  17.523 -0.0394  0.3977  0.0836
  402TMC3    O2 6067   2.009   1.753   0.324 -0.1648  0.0453 -0.4908
  403MPD2     C 6068   0.582   4.467  13.359  0.3127  0.6625 -0.8533
  403MPD2    C1 6069   0.477   4.494  13.446 -0.7712  0.0650 -0.1965
  403MPD2    C2 6070   0.505   4.535  13.571 -0.1158 -0.0934  0.0589
  403MPD2    C3 6071   0.638   4.546  13.614  0.4008 -0.1527  0.1201
  403MPD2    C4 6072   0.739   4.516  13.523  0.1841 -0.1316  0.1617
  403MPD2    C5 6073   0.711   4.472  13.397 -0.1478 -0.2275 -0.2431
  403MPD2     H 6074   0.425   4.554  13.641  0.6522  1.2965  0.5646
  403MPD2    H1 6075   0.844   4.534  13.538  0.4466 -1.0472 -0.5533
  403MPD2    H2 6076   0.561   4.428  13.260 -1.4236 -1.6343  0.4180
  403MPD2    H3 6077   0.792   4.446  13.330  0.6462 -1.0194  1.0170
  403MPD2     N 6078   0.664   4.569  13.749 -0.0565 -0.5195 -0.3154
  403MPD2    H5 6079   0.588   4.603  13.808 -1.5821  1.3612 -3.3435
  403MPD2    N1 6080   0.345   4.478  13.393  0.2551  0.2099 -0.2864
  403MPD2    H7 6081   0.331   4.438  13.300 -1.3228  1.9649 -0.8009
  404TMC3    C1 6082   0.096   4.469  13.393 -0.5726 -0.2314 -0.2284
  404TMC3    C2 6083   4.729   4.452  13.478 -0.4658 -0.0051  0.2586
  404TMC3    C3 6084   4.610   4.387  13.431  0.0720  0.1570  0.4821
  404TMC3    C4 6085   0.086   4.443  13.260  0.3676 -0.1299  0.3970
  404TMC3    C5 6086   4.711   4.383  13.214 -0.0135  0.4332 -0.3095
  404TMC3    C6 6087   4.602   4.356  13.299  0.3635  0.1756 -0.3624
  404TMC3     C 6088   0.223   4.512  13.457 -0.3210  0.5430 -0.2893
  404TMC3     O 6089   0.211   4.555  13.576  0.1610 -0.2039 -0.0930
  404TMC3     H 6090   0.011   4.443  13.584  0.7658  0.2878  0.0143
  404TMC3    H1 6091   0.173   4.466  13.199 -0.4812  1.2871 -0.2724
  404TMC3    H2 6092   4.522   4.294  13.259 -1.3656  1.1719  1.5963
  404TMC3    C7 6093   4.723   4.331  13.077  0.9114  0.1510 -0.1156
  404TMC3    C8 6094   4.583   4.266  13.504  0.5385 -0.0290 -0.0649
  404TMC3    O1 6095   0.090   4.354  13.020  0.4534 -0.1866 -0.1324
  404TMC3    O2 6096   4.614   4.161  13.445 -0.0674 -0.3529 -0.7116
  405MPD2     C 6097   0.528   0.497  14.780 -0.4148 -0.1764  0.0210
  405MPD2    C1 6098   0.421   0.426  14.733 -0.6692 -0.0088 -0.2436
  405MPD2    C2 6099   0.299   0.444  14.801 -0.4265 -0.2370 -0.2675
  405MPD2    C3 6100   0.297   0.527  14.915  0.0491 -0.4900  0.0970
  405MPD2    C4 6101   0.407   0.596  14.969 -0.2088  0.4305  0.0325
  405MPD2    C5 6102   0.518   0.576  14.895  0.3010  0.5294  0.2970
  405MPD2     H 6103   0.207   0.413  14.752 -0.8611 -4.3630  3.1669
  405MPD2    H1 6104   0.408   0.655  15.060  2.9538 -0.4551  0.5758
  405MPD2    H2 6105   0.619   0.508  14.722  0.5773  0.3772  1.6877
  405MPD2    H3 6106   0.605   0.632  14.929  0.0777 -0.8139  3.1441
  405MPD2     N 6107   0.166   0.549  14.962  0.4935 -0.3532 -0.8897
  405MPD2    H5 6108   0.097   0.501  14.904  0.3406 -1.0716 -0.1201
  405MPD2    N1 6109   0.440   0.339  14.621  0.3204 -0.4679 -0.0011
  405MPD2    H7 6110   0.535   0.318  14.591  0.4378  0.8095 -0.5117
  406TMC3    C1 6111   4.535   0.700  15.054  0.7482 -0.6744 -0.0318
  406TMC3    C2 6112   4.471   0.582  15.029 -0.1926  0.3036 -0.5247
  406TMC3    C3 6113   4.557   0.475  15.018  0.1927  0.5520  0.1517
  406TMC3    C4 6114   4.664   0.729  15.062 -0.4076 -0.2581  0.0543
  406TMC3    C5 6115   4.733   0.609  15.072 -0.7508  0.6071  0.3267
  406TMC3    C6 6116   4.687   0.484  15.066  0.5482 -0.0201 -1.1617
  406TMC3     C 6117   4.459   0.811  15.000 -0.4782 -0.3339 -0.0581
  406TMC3     O 6118   4.337   0.816  14.996 -0.5596 -0.0863  0.2026
  406TMC3     H 6119   4.362   0.576  15.031 -0.1386 -1.1436 -1.6567
  406TMC3    H1 6120   4.708   0.825  15.086 -0.8968  0.2120 -0.9513
  406TMC3    H2 6121   0.013   0.403  15.092 -1.6451 -1.7686 -0.8792
  406TMC3    C7 6122   0.130   0.623  15.069  0.3350  0.0010  0.1998
  406TMC3    C8 6123   4.514   0.349  14.976 -0.7888  0.1453  0.9515
  406TMC3    O1 6124   0.196   0.679  15.157  0.2828  0.3340 -0.1924
  406TMC3    O2 6125   4.416   0.303  15.031 -0.3707 -0.6341 -0.3681
  407MPD2     C 6126   2.795   1.988   9.578 -0.0835 -0.0117  0.1307
  407MPD2    C1 6127   2.894   2.081   9.607  1.4304  1.7273  0.1408
  407MPD2    C2 6128   2.914   2.123   9.734  0.3022  0.4855 -0.1654
  407MPD2    C3 6129   2.836   2.068   9.842  0.1949 -0.1038  0.4484
  407MPD2    C4 6130   2.743   1.973   9.805  0.3463 -0.5166  0.7107
  407MPD2    C5 6131   2.731   1.925   9.679 -0.1514  1.1054 -0.2938
  407MPD2     H 6132   2.992   2.196   9.755 -0.1548  0.1100  2.8451
  407MPD2    H1 6133   2.679   1.923   9.877  0.0022 -0.9752  0.0891
  407MPD2    H2 6134   2.786   1.951   9.476  1.6398 -0.3366  0.0869
  407MPD2    H3 6135   2.656   1.851   9.652 -1.6811  3.3165 -2.0919
  407MPD2     N 6136   2.849   2.109   9.979 -0.1252 -0.0943 -0.0984
  407MPD2    H5 6137   2.915   2.184  10.000  1.0363 -0.9969 -0.4767
  407MPD2    N1 6138   2.983   2.138   9.512 -0.2369 -0.5894  0.4684
  407MPD2    H7 6139   3.070   2.166   9.555 -1.0355  1.7518  0.5588
  408TMC3    C1 6140   3.095   2.194   9.312 -0.1658  0.2293 -0.3361
  408TMC3    C2 6141   3.127   2.117   9.199  1.0466 -0.5672  1.2042
  408TMC3    C3 6142   3.262   2.104   9.162  0.8985 -0.3352  0.1513
  408TMC3    C4 6143   3.197   2.258   9.380 -0.0704 -0.0061  0.5735
  408TMC3    C5 6144   3.328   2.232   9.344 -0.8082 -0.2289 -0.4891
  408TMC3    C6 6145   3.366   2.159   9.238  0.0912  0.1554  0.2419
  408TMC3     C 6146   2.969   2.155   9.380 -0.5891  0.7120  0.0428
  408TMC3     O 6147   2.878   2.124   9.301  0.1930  0.4406 -0.0418
  408TMC3     H 6148   3.048   2.062   9.148 -0.3159  0.7474  1.9134
  408TMC3    H1 6149   3.177   2.300   9.478  0.8427  2.3581 -0.2517
  408TMC3    H2 6150   3.470   2.144   9.210 -0.5165 -1.7741 -1.0201
  408TMC3    C7 6151   3.438   2.251   9.433 -0.4952 -0.0835  0.5266
  408TMC3    C8 6152   3.285   1.963   9.129 -0.0717  0.0975 -0.2878
  408TMC3    O1 6153   3.542   2.189   9.409 -0.0239 -0.7038 -0.5224
  408TMC3    O2 6154   3.232   1.912   9.031  0.2330 -0.2010  0.2915
  409MPD2     C 6155   2.622   2.213  16.734 -0.2576  0.1467 -0.6753
  409MPD2    C1 6156   2.626   2.285  16.850 -0.9240 -0.3229  0.3982
  409MPD2    C2 6157   2.664   2.419  16.851  0.6135  0.3310  0.1714
  409MPD2    C3 6158   2.672   2.495  16.734  0.2161  0.0665 -0.2752
  409MPD2    C4 6159   2.672   2.421  16.616 -0.2617 -0.6313 -0.4253
  409MPD2    C5 6160   2.647   2.289  16.623  0.1643 -0.0606 -0.0442
  409MPD2     H 6161   2.658   2.470  16.946 -0.2170  0.9227 -0.1988
  409MPD2    H1 6162   2.693   2.469  16.521  0.6795 -1.3944 -0.6012
  409MPD2    H2 6163   2.584   2.112  16.719 -3.4280  0.9103  2.4273
  409MPD2    H3 6164   2.642   2.233  16.530 -0.9404  0.5998 -0.3908
  409MPD2     N 6165   2.706   2.635  16.715 -0.1113  0.0287 -0.4776
  409MPD2    H5 6166   2.723   2.674  16.623  0.4611  2.3223  0.5887
  409MPD2    N1 6167   2.619   2.215  16.972  0.2492  0.2100 -0.3311
  409MPD2    H7 6168   2.629   2.266  17.060  1.0499 -3.2588  1.5874
  410TMC3    C1 6169   2.839   2.820  16.784 -0.9389  0.8478  0.0135
  410TMC3    C2 6170   2.907   2.882  16.882 -0.5307  0.3346 -0.1731
  410TMC3    C3 6171   2.965   3.003  16.850 -0.0101 -0.4683 -0.2837
  410TMC3    C4 6172   2.830   2.874  16.658 -0.4955 -0.0515  1.2357
  410TMC3    C5 6173   2.901   2.983  16.624 -0.2393 -0.7603 -0.2291
  410TMC3    C6 6174   2.962   3.055  16.725  0.0630  0.0782  0.3287
  410TMC3     C 6175   2.764   2.704  16.819  0.1366 -0.2695  0.1429
  410TMC3     O 6176   2.768   2.661  16.934  0.3084 -0.0897  0.3544
  410TMC3     H 6177   2.891   2.848  16.984 -1.5131  0.6246 -0.2276
  410TMC3    H1 6178   2.759   2.835  16.586  0.2400  1.8806 -0.5486
  410TMC3    H2 6179   3.028   3.138  16.700  2.2716 -1.6316  0.4929
  410TMC3    C7 6180   2.909   3.028  16.488 -0.1630  0.2383  0.1959
  410TMC3    C8 6181   3.072   3.042  16.938 -0.4403  0.0905  0.3386
  410TMC3    O1 6182   2.922   2.944  16.406  0.4575  0.0274 -0.1826
  410TMC3    O2 6183   3.107   3.158  16.929  0.0313  0.2518 -0.1330
  411MPD2     C 6184   2.652   4.087  14.374 -0.7403  1.4168 -0.1780
  411MPD2    C1 6185   2.627   4.007  14.482 -0.4237 -0.0505 -0.3969
  411MPD2    C2 6186   2.658   3.871  14.481 -0.5918 -0.9104  0.6949
  411MPD2    C3 6187   2.710   3.811  14.363  0.4566 -0.5368  0.4596
  411MPD2    C4 6188   2.721   3.893  14.249 -0.3347  0.5336 -0.5834
  411MPD2    C5 6189   2.706   4.027  14.264  0.3803 -0.4389 -0.3086
  411MPD2     H 6190   2.640   3.823  14.576  0.7851 -1.3383  0.7466
  411MPD2    H1 6191   2.777   3.861  14.161  0.5385 -0.5871  0.3639
  411MPD2    H2 6192   2.616   4.189  14.362 -3.6321  0.4273  0.1300
  411MPD2    H3 6193   2.732   4.085  14.177  0.7622  1.3598  1.0247
  411MPD2     N 6194   2.735   3.673  14.351 -0.3453 -0.5867  0.7436
  411MPD2    H5 6195   2.793   3.636  14.276 -0.8097 -0.9461  0.5603
  411MPD2    N1 6196   2.571   4.072  14.593 -0.1079  0.1848  0.3200
  411MPD2    H7 6197   2.523   4.159  14.574 -1.3459 -0.6290 -0.3318
  412TMC3    C1 6198   2.736   3.437  14.413  0.1411  0.5677 -0.7204
  412TMC3    C2 6199   2.682   3.351  14.498  0.5156  0.6689  0.0013
  412TMC3    C3 6200   2.660   3.220  14.465  0.1542  0.0517 -0.2987
  412TMC3    C4 6201   2.759   3.406  14.283 -0.1644  0.1882  0.1324
  412TMC3    C5 6202   2.731   3.278  14.244 -0.7541 -0.0868  0.2312
  412TMC3    C6 6203   2.696   3.187  14.342  0.6191 -0.0489  0.0737
  412TMC3     C 6204   2.722   3.581  14.455  0.2310  0.5074 -0.7995
  412TMC3     O 6205   2.690   3.590  14.577  0.2539  0.4271 -0.3165
  412TMC3     H 6206   2.643   3.382  14.594  0.2126 -1.3251  0.5081
  412TMC3    H1 6207   2.794   3.478  14.209  2.1051 -1.4429 -0.3914
  412TMC3    H2 6208   2.689   3.083  14.312  0.9602 -0.8023  2.5981
  412TMC3    C7 6209   2.626   3.272  14.145  0.2082  0.5183  0.8378
  412TMC3    C8 6210   2.517   3.201  14.481 -0.5255  0.2129  0.6351
  412TMC3    O1 6211   2.556   3.172  14.135  0.2890  0.3004  0.2749
  412TMC3    O2 6212   2.436   3.295  14.460 -1.1935 -0.7066 -0.0022
  413MPD2     C 6213   4.537   1.950  15.657 -0.4527 -0.2441  0.1463
  413MPD2    C1 6214   4.483   1.873  15.556 -0.2184  0.0328 -0.1804
  413MPD2    C2 6215   4.557   1.758  15.517 -0.2033 -0.7725 -1.0984
  413MPD2    C3 6216   4.679   1.725  15.571 -0.1150 -0.5823  0.2011
  413MPD2    C4 6217   4.729   1.801  15.672  0.8454 -1.1855 -0.1432
  413MPD2    C5 6218   4.660   1.914  15.710 -0.0790  0.0983 -0.0574
  413MPD2     H 6219   4.520   1.701  15.433 -0.8522 -0.9824 -0.6671
  413MPD2    H1 6220   0.080   1.774  15.722  0.1495 -0.7342  1.3914
  413MPD2    H2 6221   4.481   2.035  15.695 -3.4396 -1.1220 -2.2726
  413MPD2    H3 6222   4.696   1.970  15.795 -0.8366  2.5251 -1.3347
  413MPD2     N 6223   0.002   1.618  15.507  0.5171  0.6092 -0.1571
  413MPD2    H5 6224   4.692   1.579  15.429  0.9061 -0.1198 -0.0544
  413MPD2    N1 6225   4.353   1.901  15.510  1.1277 -0.1890  0.0462
  413MPD2    H7 6226   4.298   1.970  15.559  1.0402 -0.2978  0.1000
  414TMC3    C1 6227   0.143   1.449  15.454  0.3739 -0.3492 -0.4279
  414TMC3    C2 6228   0.223   1.350  15.507  0.4977  0.7412  0.7223
  414TMC3    C3 6229   0.221   1.232  15.438 -0.5851 -0.0735  0.6002
  414TMC3    C4 6230   0.084   1.445  15.328 -1.2084 -0.0733 -0.6058
  414TMC3    C5 6231   0.103   1.328  15.254  0.5537  0.5567 -0.1777
  414TMC3    C6 6232   0.164   1.223  15.309 -0.5933 -0.2168  0.0803
  414TMC3     C 6233   0.121   1.559  15.542 -0.3013  0.2545  0.2997
  414TMC3     O 6234   0.195   1.586  15.636  0.3744 -0.0391 -0.4587
  414TMC3     H 6235   0.267   1.360  15.605  1.1932 -1.8003  0.6585
  414TMC3    H1 6236   0.034   1.531  15.284  0.7042  2.0582  1.4204
  414TMC3    H2 6237   0.180   1.132  15.253 -2.4980 -1.5816  1.7325
  414TMC3    C7 6238   0.019   1.308  15.144  0.2172  0.1219  0.5075
  414TMC3    C8 6239   0.320   1.135  15.475 -0.3674 -0.0289 -0.4220
  414TMC3    O1 6240   4.642   1.341  15.154 -0.0155  0.2317 -0.1932
  414TMC3    O2 6241   0.311   1.019  15.432 -0.3703 -0.0795  0.1938
  415TMC3    C1 6242   4.646   3.810  10.411  0.0269 -0.1339 -0.2105
  415TMC3    C2 6243   4.609   3.933  10.344 -0.3131 -0.2829  0.2312
  415TMC3    C3 6244   4.525   3.923  10.235  0.8102  0.3591 -0.3530
  415TMC3    C4 6245   4.597   3.690  10.362  0.5218 -0.3846 -0.3523
  415TMC3    C5 6246   4.530   3.685  10.241  0.2121  0.5047 -0.6336
  415TMC3    C6 6247   4.494   3.800  10.176  0.3521  0.0224  0.3981
  415TMC3     C 6248   4.731   3.802  10.529 -0.2012 -0.5083 -0.1639
  415TMC3     O 6249   0.001   3.693  10.586  0.4752 -0.5486 -0.0702
  415TMC3     H 6250   4.635   4.031  10.383 -2.8473  1.0369 -1.4398
  415TMC3    H1 6251   4.639   3.602  10.409  0.6854 -0.4239 -0.5745
  415TMC3    H2 6252   4.439   3.790  10.083  0.8358 -0.4707  0.1636
  415TMC3    C7 6253   4.531   3.558  10.170 -0.0097 -0.2952  0.4126
  415TMC3    C8 6254   4.523   4.029  10.133  0.1011 -0.7827 -0.9423
  415TMC3    O1 6255   4.548   3.552  10.049 -0.8244 -0.6965 -0.1533
  415TMC3    O2 6256   4.492   4.001  10.020  0.1135  0.4894 -0.0631
  416MPD2     C 6257   2.046   3.069  12.013  1.1663 -0.1429 -0.4618
  416MPD2    C1 6258   2.000   3.095  11.890  0.1063 -0.2015  0.5835
  416MPD2    C2 6259   2.011   3.002  11.789 -0.4254  0.6373  0.2320
  416MPD2    C3 6260   2.074   2.883  11.815  1.1674 -0.3529  0.7876
  416MPD2    C4 6261   2.140   2.868  11.933 -0.5968 -0.4751  0.3679
  416MPD2    C5 6262   2.121   2.961  12.032 -0.2886  0.8204  0.5224
  416MPD2     H 6263   1.955   3.018  11.697 -1.3364  0.5005  0.7611
  416MPD2    H1 6264   2.169   2.772  11.972 -0.5435 -0.6943 -0.2177
  416MPD2    H2 6265   2.036   3.142  12.093  0.6671  0.2607 -0.8951
  416MPD2    H3 6266   2.149   2.933  12.133 -1.3789  1.0845  0.9011
  416MPD2     N 6267   2.055   2.766  11.731 -0.5665 -0.1976 -0.7676
  416MPD2    H5 6268   2.094   2.678  11.763 -0.8798  0.0064  0.1623
  416MPD2    N1 6269   1.920   3.211  11.884 -0.6863  0.4528  0.2107
  416MPD2    H7 6270   1.893   3.251  11.973  0.4694  1.0910  0.2796
  417TMC3    C1 6271   1.731   3.333  11.809  0.2268  0.5857 -0.1701
  417TMC3    C2 6272   1.675   3.309  11.932 -0.1100 -0.1384 -0.2018
  417TMC3    C3 6273   1.550   3.367  11.948  0.3806 -0.0341 -0.5741
  417TMC3    C4 6274   1.666   3.400  11.709 -0.0849 -0.1436 -0.8960
  417TMC3    C5 6275   1.539   3.451  11.729 -0.1887  0.7057  0.2566
  417TMC3    C6 6276   1.481   3.438  11.850  0.2922  0.0948  0.3653
  417TMC3     C 6277   1.859   3.269  11.773 -0.2499  0.0510  0.4451
  417TMC3     O 6278   1.886   3.257  11.654  0.2831 -0.1387 -0.2769
  417TMC3     H 6279   1.723   3.256  12.013 -0.5363  0.1974  0.2712
  417TMC3    H1 6280   1.706   3.400  11.608 -1.3848 -1.1483 -1.4156
  417TMC3    H2 6281   1.406   3.507  11.886 -0.3411 -0.8491  0.8823
  417TMC3    C7 6282   1.507   3.565  11.643  0.7779  0.1247  0.2596
  417TMC3    C8 6283   1.494   3.365  12.081 -0.0511 -0.4838  0.6524
  417TMC3    O1 6284   1.599   3.609  11.573  0.0007 -0.0675 -0.4338
  417TMC3    O2 6285   1.428   3.459  12.121 -0.0087 -0.1573 -0.0428
  418TMC3    C1 6286   0.949   1.327   0.356  0.4812 -0.5120 -0.1875
  418TMC3    C2 6287   0.829   1.277   0.314  0.3622 -0.6083 -0.2819
  418TMC3    C3 6288   0.764   1.187   0.388 -0.1635  0.5769  0.5310
  418TMC3    C4 6289   1.013   1.268   0.466  0.2898 -0.7617 -0.1790
  418TMC3    C5 6290   0.933   1.174   0.535 -0.0933 -0.5363 -0.4024
  418TMC3    C6 6291   0.810   1.136   0.503 -0.2999 -0.0098  0.5180
  418TMC3     C 6292   1.045   1.344   0.255 -0.3306 -0.4780  0.1350
  418TMC3     O 6293   1.131   1.259   0.252 -0.2108  0.1665 -0.6820
  418TMC3     H 6294   0.790   1.315   0.221  1.1266  1.2702  0.1658
  418TMC3    H1 6295   1.115   1.290   0.492 -0.2723  0.3370  1.1118
  418TMC3    H2 6296   0.757   1.055   0.551  0.1075 -0.0704  0.8602
  418TMC3    C7 6297   1.017   1.082   0.623  0.4598 -0.4875  0.1815
  418TMC3    C8 6298   0.675   1.102   0.302  0.3723  0.2990  0.5998
  418TMC3    O1 6299   0.984   0.966   0.618  0.2013  0.4069  0.2107
  418TMC3    O2 6300   0.633   1.158   0.200  0.2477  0.1621 -0.1928
  419MPD2     C 6301   4.324   2.846  12.926 -0.0613 -0.1296  0.2063
  419MPD2    C1 6302   4.211   2.911  12.892  0.1230 -0.0956 -0.3660
  419MPD2    C2 6303   4.124   2.962  12.989 -0.5255 -0.7069 -0.1845
  419MPD2    C3 6304   4.163   2.956  13.121 -0.3410  0.0671 -0.5270
  419MPD2    C4 6305   4.275   2.885  13.160  0.6164 -0.0190 -0.2990
  419MPD2    C5 6306   4.357   2.831  13.063 -0.6414 -0.5952  1.3216
  419MPD2     H 6307   4.029   3.010  12.967 -0.0090 -0.5365 -2.0645
  419MPD2    H1 6308   4.312   2.885  13.262 -0.4339 -0.9068  0.0765
  419MPD2    H2 6309   4.392   2.818  12.846 -0.2457 -3.1284  1.1268
  419MPD2    H3 6310   4.453   2.784  13.082 -1.5323 -2.3907  1.2964
  419MPD2     N 6311   4.066   3.011  13.208 -0.1933  0.2491 -0.3120
  419MPD2    H5 6312   3.991   3.068  13.170 -1.7692 -1.2322  0.6152
  419MPD2    N1 6313   4.169   2.945  12.764  0.0407  0.1817  0.5947
  419MPD2    H7 6314   4.087   3.005  12.758 -0.2877 -0.1460  1.8534
  420TMC3    C1 6315   3.944   3.057  13.408 -0.1960 -0.7967  0.2789
  420TMC3    C2 6316   3.843   3.110  13.327  0.7057  0.6169  0.3932
  420TMC3    C3 6317   3.736   3.166  13.392  0.4767  0.3637 -0.1029
  420TMC3    C4 6318   3.943   3.067  13.548  0.6752 -0.9954 -0.1299
  420TMC3    C5 6319   3.831   3.122  13.596  0.2007 -0.0336 -0.0543
  420TMC3    C6 6320   3.728   3.177  13.526 -0.8183  0.2173  0.2696
  420TMC3     C 6321   4.059   2.994  13.348  0.2500  0.0805  0.0035
  420TMC3     O 6322   4.135   2.939  13.424  0.1700  0.0661  0.6549
  420TMC3     H 6323   3.837   3.104  13.219 -0.7947  1.3864  0.4421
  420TMC3    H1 6324   4.020   3.015  13.605  0.6914 -1.5940 -0.7018
  420TMC3    H2 6325   3.640   3.212  13.578 -0.1857  1.0569  0.7728
  420TMC3    C7 6326   3.814   3.117  13.737 -0.2915  0.9721  0.4260
  420TMC3    C8 6327   3.635   3.229  13.309 -0.1638 -0.6278 -0.4367
  420TMC3    O1 6328   3.848   3.018  13.797 -0.3099 -0.4148  0.6143
  420TMC3    O2 6329   3.665   3.274  13.200  0.3895  0.2775 -0.0224
  421TMC3    C1 6330   0.811   4.633  13.927  0.5122  0.2092 -0.0190
  421TMC3    C2 6331   0.740   0.007  13.958  0.9633  0.1722  0.2378
  421TMC3    C3 6332   0.770   0.082  14.072  0.0258  0.4973  0.1556
  421TMC3    C4 6333   0.911   4.580  14.011  0.1420  0.6855 -0.0585
  421TMC3    C5 6334   0.929   4.659  14.120 -0.1054 -0.3404  0.0810
  421TMC3    C6 6335   0.875   0.037  14.156  0.1996 -0.4591  0.0960
  421TMC3     C 6336   0.789   4.558  13.805 -0.3103 -0.3934 -0.1515
  421TMC3     O 6337   0.880   4.491  13.755 -0.3543  0.3530  0.3679
  421TMC3     H 6338   0.659   0.042  13.896  2.2644 -1.0429 -2.1468
  421TMC3    H1 6339   0.983   4.503  13.982  0.6897  1.0387  0.3752
  421TMC3    H2 6340   0.920   0.099  14.233 -0.7912 -0.1637  0.4484
  421TMC3    C7 6341   1.037   4.613  14.197  0.7586  0.0685 -0.2916
  421TMC3    C8 6342   0.672   0.171  14.129 -0.5956 -0.2539 -0.2858
  421TMC3    O1 6343   1.103   4.698  14.260  0.2646  0.0515  0.1500
  421TMC3    O2 6344   0.719   0.231  14.225  0.5663 -0.0665 -0.9987
  422TMC3    C1 6345   2.777   1.313  12.501  0.7460  0.1631  0.1598
  422TMC3    C2 6346   2.773   1.432  12.557  0.3014  0.3149  0.1476
  422TMC3    C3 6347   2.732   1.436  12.686  0.1411  0.3098  0.3687
  422TMC3    C4 6348   2.741   1.192  12.561 -0.2186  0.9875  0.0668
  422TMC3    C5 6349   2.703   1.207  12.697  0.4212  0.7130 -0.0875
  422TMC3    C6 6350   2.701   1.329  12.761  0.4504  0.1190  0.7029
  422TMC3     C 6351   2.817   1.306  12.363 -0.2573 -0.1145  0.0128
  422TMC3     O 6352   2.808   1.410  12.299  0.1690  0.0036  0.2186
  422TMC3     H 6353   2.820   1.510  12.498  0.6683 -1.4938 -1.9353
  422TMC3    H1 6354   2.745   1.092  12.520  1.5770  1.0433  0.1110
  422TMC3    H2 6355   2.661   1.341  12.861  0.1134 -1.0132  0.7060
  422TMC3    C7 6356   2.657   1.085  12.762  0.1707  0.3245 -0.4841
  422TMC3    C8 6357   2.685   1.562  12.750 -0.0735 -0.5569  0.8528
  422TMC3    O1 6358   2.707   0.983  12.715 -0.0713 -0.3336  0.0037
  422TMC3    O2 6359   2.668   1.560  12.872  0.1985 -0.0003  0.4424
  423MPD2     C 6360   4.347   2.186   0.886 -0.0593  0.5573  0.1296
  423MPD2    C1 6361   4.474   2.213   0.826  0.7275 -1.0561  0.0305
  423MPD2    C2 6362   4.495   2.150   0.697 -0.7714  0.5049  0.0957
  423MPD2    C3 6363   4.397   2.086   0.620 -0.0261 -0.3372 -0.9972
  423MPD2    C4 6364   4.280   2.045   0.690 -0.1761 -0.2562  0.2110
  423MPD2    C5 6365   4.263   2.106   0.811  0.1567 -0.0455  0.1891
  423MPD2     H 6366   4.591   2.175   0.655 -0.1905  1.0985  1.7659
  423MPD2    H1 6367   4.202   1.979   0.653 -1.1128 -0.1388  1.9639
  423MPD2    H2 6368   4.312   2.209   0.986  2.0622 -0.8650  1.1984
  423MPD2    H3 6369   4.166   2.087   0.857  0.0689 -0.0906 -0.0135
  423MPD2     N 6370   4.408   2.049   0.487  0.2359  0.6452  0.3990
  423MPD2    H5 6371   4.346   1.979   0.448  0.2490  0.6473  0.3741
  423MPD2    N1 6372   4.575   2.296   0.885  0.6332 -0.1542 -0.4581
  423MPD2    H7 6373   4.669   2.291   0.848  0.9956  0.9455  0.3212
  424TMC3    C1 6374   4.676   2.451   1.053  0.7637  0.6706  0.0029
  424TMC3    C2 6375   0.059   2.426   1.014  0.3187 -0.0657  0.4823
  424TMC3    C3 6376   0.161   2.487   1.083 -0.4759  0.0560 -0.0523
  424TMC3    C4 6377   4.653   2.553   1.144  0.8171  0.2083 -0.4033
  424TMC3    C5 6378   0.019   2.613   1.211 -0.2438 -0.5139 -0.4650
  424TMC3    C6 6379   0.145   2.578   1.181 -0.2740  0.6063 -0.4479
  424TMC3     C 6380   4.559   2.377   0.998  0.4394 -0.2575  0.7725
  424TMC3     O 6381   4.454   2.401   1.051  0.8667 -0.2669  0.0097
  424TMC3     H 6382   0.068   2.346   0.941 -2.9914 -1.4788  1.6335
  424TMC3    H1 6383   4.551   2.575   1.172  0.7765  0.4710 -0.7719
  424TMC3    H2 6384   0.229   2.628   1.227  1.1873 -1.4471 -0.8504
  424TMC3    C7 6385   0.003   2.722   1.304  0.2516  0.0998  0.4335
  424TMC3    C8 6386   0.294   2.462   1.036  0.4508 -0.4711 -0.0545
  424TMC3    O1 6387   0.100   2.771   1.358  0.2899  0.2036 -0.1205
  424TMC3    O2 6388   0.307   2.358   0.972  0.2644 -0.2599  0.0423
  425MPD2     C 6389   3.960   1.671   0.050 -0.0732 -0.1697  0.2348
  425MPD2    C1 6390   3.859   1.604  17.747 -0.2848 -0.4122  0.5077
  425MPD2    C2 6391   3.724   1.635  17.761  0.0826  0.5533  0.0814
  425MPD2    C3 6392   3.695   1.745   0.075  0.2335  0.2076  0.1254
  425MPD2    C4 6393   3.792   1.814   0.147  0.2237  0.5382 -0.9663
  425MPD2    C5 6394   3.922   1.772   0.131 -0.2003  0.7372 -0.0718
  425MPD2     H 6395   3.641   1.604  17.699 -0.4027 -0.9075  1.4582
  425MPD2    H1 6396   3.781   1.901   0.210  0.1502 -2.5525  3.3123
  425MPD2    H2 6397   4.064   1.644   0.049 -0.2719 -0.9096 -0.6374
  425MPD2    H3 6398   4.004   1.822   0.180  0.6619  0.2842 -1.0561
  425MPD2     N 6399   3.558   1.787   0.075  0.2167 -0.3974  0.3046
  425MPD2    H5 6400   3.501   1.724   0.020  1.3234 -0.6350 -0.5571
  425MPD2    N1 6401   3.902   1.496  17.663 -0.3087 -0.6450  1.0829
  425MPD2    H7 6402   4.000   1.473  17.675  0.0481 -1.4837 -3.3927
  426TMC3    C1 6403   3.890   1.327  17.499  0.0236 -0.0052  0.1440
  426TMC3    C2 6404   3.857   1.298  17.367 -0.3015 -0.3807 -0.2999
  426TMC3    C3 6405   3.909   1.179  17.327  0.7140  0.4511  0.7385
  426TMC3    C4 6406   3.964   1.249  17.582  0.1662  0.4563 -0.4229
  426TMC3    C5 6407   4.018   1.136  17.533 -0.2788 -0.8131  0.5279
  426TMC3    C6 6408   4.000   1.111  17.401  0.2610 -0.1885  0.1208
  426TMC3     C 6409   3.826   1.444  17.563 -0.3843 -0.4632  0.1505
  426TMC3     O 6410   3.738   1.502  17.500 -0.1600  0.4410  0.1536
  426TMC3     H 6411   3.805   1.373  17.308 -0.8198 -0.3133  0.2374
  426TMC3    H1 6412   3.956   1.264  17.689 -1.5460  0.5557 -0.5750
  426TMC3    H2 6413   4.032   1.017  17.358  1.0661  0.9878 -1.8571
  426TMC3    C7 6414   4.046   1.019  17.617 -0.3305  0.0764 -0.5988
  426TMC3    C8 6415   3.878   1.135  17.187  0.3137 -0.4549  0.1859
  426TMC3    O1 6416   4.129   0.945  17.570  0.1891 -0.3418  0.0476
  426TMC3    O2 6417   3.949   1.043  17.144 -0.3505  0.2817 -0.4127
  427MPD2     C 6418   1.775   3.393  14.828 -0.6583 -0.1481 -0.2779
  427MPD2    C1 6419   1.755   3.398  14.970 -0.2125 -0.5263 -0.8709
  427MPD2    C2 6420   1.629   3.442  15.022  0.3157  0.7177 -0.5373
  427MPD2    C3 6421   1.535   3.480  14.927  0.7020 -0.1107 -0.7973
  427MPD2    C4 6422   1.560   3.480  14.790  0.2069 -0.5911  0.4099
  427MPD2    C5 6423   1.681   3.439  14.745  0.6870 -0.2620 -0.4280
  427MPD2     H 6424   1.596   3.433  15.124  1.3760 -0.2370 -0.2748
  427MPD2    H1 6425   1.477   3.514  14.729  0.6221 -1.1551 -0.4723
  427MPD2    H2 6426   1.856   3.342  14.779  0.3447  1.9954 -0.8742
  427MPD2    H3 6427   1.698   3.432  14.638  0.9782 -0.4030 -0.3724
  427MPD2     N 6428   1.404   3.514  14.962  0.4562  0.2461 -0.0858
  427MPD2    H5 6429   1.342   3.521  14.882 -0.9576 -1.4444  0.8841
  427MPD2    N1 6430   1.851   3.344  15.057 -0.2408  0.3317  0.1072
  427MPD2    H7 6431   1.829   3.333  15.155 -2.1750  1.5332 -0.1716
  428TMC3    C1 6432   2.055   3.277  15.148  0.2036 -0.2659 -0.2112
  428TMC3    C2 6433   1.996   3.196  15.239 -0.2552 -0.3031  0.2144
  428TMC3    C3 6434   2.074   3.135  15.328 -0.0361 -0.7930  0.2793
  428TMC3    C4 6435   2.188   3.300  15.142 -0.3933  0.5421  0.6050
  428TMC3    C5 6436   2.265   3.235  15.238  0.9073  0.3949 -0.1625
  428TMC3    C6 6437   2.211   3.148  15.328 -0.5159 -0.0322 -0.3510
  428TMC3     C 6438   1.984   3.315  15.027  0.6642  0.1598 -0.6103
  428TMC3     O 6439   2.050   3.332  14.930 -0.5003 -0.3669  0.1621
  428TMC3     H 6440   1.891   3.171  15.242 -0.4875  0.4162 -2.3826
  428TMC3    H1 6441   2.229   3.378  15.078  1.6056  0.6066  1.9895
  428TMC3    H2 6442   2.272   3.113  15.410 -0.9432 -0.2915 -0.1446
  428TMC3    C7 6443   2.385   3.302  15.289 -0.0932 -0.5236  1.2266
  428TMC3    C8 6444   2.020   3.092  15.454  0.2599 -0.3601 -0.3006
  428TMC3    O1 6445   2.456   3.237  15.367 -0.3759  0.3186 -0.2881
  428TMC3    O2 6446   2.076   3.017  15.529 -0.0316 -0.3943  1.0392
  429MPD2     C 6447   2.765   3.295   0.153 -0.1528 -0.1914  0.0915
  429MPD2    C1 6448   2.801   3.214   0.047 -0.0131 -0.7024 -0.1224
  429MPD2    C2 6449   2.802   3.275  17.684  0.2788  0.6575 -0.1512
  429MPD2    C3 6450   2.797   3.413  17.668  0.2184 -0.3365 -0.3585
  429MPD2    C4 6451   2.778   3.490   0.015 -0.1034 -0.6643  0.3978
  429MPD2    C5 6452   2.758   3.432   0.134  0.1617 -0.1862  0.2310
  429MPD2     H 6453   2.825   3.219  17.595 -0.0403 -0.9834  0.7921
  429MPD2    H1 6454   2.766   3.597   0.005 -0.0175 -0.4561  2.4152
  429MPD2    H2 6455   2.746   3.256   0.252  0.4604 -1.1682 -0.1721
  429MPD2    H3 6456   2.728   3.488   0.222  0.9625  0.0611  0.3459
  429MPD2     N 6457   2.788   3.470  17.537 -0.2354 -0.4265 -1.1210
  429MPD2    H5 6458   2.795   3.407  17.458 -0.2961 -0.3978 -1.1491
  429MPD2    N1 6459   2.814   3.077   0.064  0.3161  0.6193 -1.0178
  429MPD2    H7 6460   2.815   3.014  17.747  2.2599 -2.1957  1.1910
  430TMC3    C1 6461   2.799   3.635  17.363 -0.3497 -0.0162  0.2676
  430TMC3    C2 6462   2.726   3.739  17.314  0.1647 -0.0500 -0.4355
  430TMC3    C3 6463   2.755   3.802  17.193  0.6716  1.1197  0.1868
  430TMC3    C4 6464   2.913   3.606  17.307  0.7775 -0.0779  0.3868
  430TMC3    C5 6465   2.954   3.674  17.194  0.1293  0.3214 -0.3726
  430TMC3    C6 6466   2.875   3.774  17.133 -0.2684  0.3463  0.6095
  430TMC3     C 6467   2.786   3.602  17.505  0.0029  0.0979 -0.6574
  430TMC3     O 6468   2.778   3.695  17.582 -0.3325  0.0184 -0.8661
  430TMC3     H 6469   2.636   3.757  17.371  1.0673 -0.0366  0.9951
  430TMC3    H1 6470   2.974   3.525  17.347  1.8789  2.3069  3.5229
  430TMC3    H2 6471   2.893   3.807  17.031  0.5667  0.4958  0.8091
  430TMC3    C7 6472   3.064   3.604  17.130 -0.2490 -0.3061 -0.3417
  430TMC3    C8 6473   2.656   3.827  17.099  0.9758 -0.2387  0.0291
  430TMC3    O1 6474   3.117   3.510  17.186 -0.2951  0.2553  0.0121
  430TMC3    O2 6475   2.684   3.915  17.016 -0.9989 -0.1969  0.4079
  431MPD2     C 6476   3.690   3.473  12.816 -0.7582 -0.1814  0.8810
  431MPD2    C1 6477   3.771   3.494  12.706  0.5554  0.7541 -0.9291
  431MPD2    C2 6478   3.802   3.383  12.628  0.1834  0.0229 -0.1280
  431MPD2    C3 6479   3.762   3.257  12.656 -0.3240 -0.7263 -0.1746
  431MPD2    C4 6480   3.691   3.239  12.770 -0.2517  0.0148 -0.5662
  431MPD2    C5 6481   3.656   3.346  12.846 -0.1337 -0.1819  0.2598
  431MPD2     H 6482   3.873   3.390  12.547  1.3980 -1.1386  0.8329
  431MPD2    H1 6483   3.658   3.141  12.804  0.8984 -0.6188 -1.2741
  431MPD2    H2 6484   3.656   3.557  12.876 -0.4644  1.2147 -0.8871
  431MPD2    H3 6485   3.591   3.331  12.931 -0.0641  1.9788  0.6924
  431MPD2     N 6486   3.800   3.146  12.580  0.3204 -0.0296 -0.3774
  431MPD2    H5 6487   3.777   3.057  12.622  0.9539 -0.5159 -1.0779
  431MPD2    N1 6488   3.827   3.619  12.670  0.1917  0.1195 -0.1913
  431MPD2    H7 6489   3.870   3.620  12.578 -2.4712  0.5072 -1.4198
  432TMC3    C1 6490   3.952   3.027  12.433  0.3078  0.3349  0.2541
  432TMC3    C2 6491   4.017   3.060  12.318 -0.0803  0.3862  0.3654
  432TMC3    C3 6492   4.151   3.024  12.306 -0.1162 -1.1966  0.7516
  432TMC3    C4 6493   4.005   2.967  12.547  0.2914 -0.0975 -0.2436
  432TMC3    C5 6494   4.143   2.939  12.521  0.9857 -0.3373  0.2608
  432TMC3    C6 6495   4.215   2.962  12.409  0.9288 -0.7628  0.0060
  432TMC3     C 6496   3.870   3.150  12.456  0.5020 -0.5316  0.4505
  432TMC3     O 6497   3.882   3.233  12.364  0.4785 -0.1848 -0.6918
  432TMC3     H 6498   3.956   3.096  12.235 -0.2374  0.7115  0.6228
  432TMC3    H1 6499   3.943   2.929  12.628 -0.4694  0.6723 -0.4686
  432TMC3    H2 6500   4.319   2.930  12.403  0.6488 -1.9764  1.8501
  432TMC3    C7 6501   4.217   2.896  12.642  0.5623  0.1535  0.0353
  432TMC3    C8 6502   4.223   3.054  12.185 -0.2445  0.0870  0.1378
  432TMC3    O1 6503   4.317   2.829  12.617  0.0786 -0.5349 -0.1244
  432TMC3    O2 6504   4.150   3.091  12.094  0.0323  0.7118  1.0050
  433MPD2     C 6505   2.458   1.866  10.615 -0.1540 -0.1124 -0.1962
  433MPD2    C1 6506   2.596   1.877  10.633 -0.1914 -0.2976  0.0219
  433MPD2    C2 6507   2.642   1.897  10.757 -0.6586  0.6473 -0.4626
  433MPD2    C3 6508   2.555   1.903  10.859  1.0479  0.3420  0.6128
  433MPD2    C4 6509   2.422   1.887  10.841  0.3163  0.2159 -0.2791
  433MPD2    C5 6510   2.369   1.862  10.716  0.2338 -0.4213 -0.4411
  433MPD2     H 6511   2.747   1.907  10.781 -0.5396 -0.4639 -0.5144
  433MPD2    H1 6512   2.347   1.896  10.918 -0.5820 -0.8826 -1.0399
  433MPD2    H2 6513   2.405   1.862  10.520  0.5038  0.8612 -0.6051
  433MPD2    H3 6514   2.261   1.858  10.703  0.5085  0.2376 -2.9993
  433MPD2     N 6515   2.608   1.923  10.989  0.5000 -0.1617  0.1301
  433MPD2    H5 6516   2.709   1.934  10.986  0.5702 -1.0802 -0.7006
  433MPD2    N1 6517   2.680   1.857  10.517 -0.1101  0.1588 -0.3353
  433MPD2    H7 6518   2.642   1.803  10.440 -1.2397 -1.6081  1.4316
  434TMC3    C1 6519   2.899   1.845  10.410 -0.1287  0.5790 -0.2806
  434TMC3    C2 6520   3.029   1.864  10.433  0.4051  0.6197 -0.1832
  434TMC3    C3 6521   3.105   1.825  10.333 -0.2559  0.2192 -0.3496
  434TMC3    C4 6522   2.843   1.792  10.300 -0.5099 -0.0364 -0.0632
  434TMC3    C5 6523   2.929   1.749  10.202  0.4589 -0.2881 -0.6594
  434TMC3    C6 6524   3.067   1.773  10.213 -0.4635 -0.4128 -0.3006
  434TMC3     C 6525   2.813   1.891  10.522  0.5972 -0.2152 -0.7298
  434TMC3     O 6526   2.877   1.948  10.607 -0.3820 -0.1154  0.3248
  434TMC3     H 6527   3.068   1.902  10.526  0.5241 -0.4008  0.1836
  434TMC3    H1 6528   2.738   1.765  10.294 -0.5897 -0.1020  1.6040
  434TMC3    H2 6529   3.130   1.730  10.136 -2.1466 -0.4908 -1.6203
  434TMC3    C7 6530   2.908   1.614  10.172 -0.0998  0.2270 -0.0433
  434TMC3    C8 6531   3.235   1.781  10.365  0.1205  0.3033 -0.2218
  434TMC3    O1 6532   2.997   1.529  10.187  0.3590  0.1864  0.0706
  434TMC3    O2 6533   3.328   1.812  10.292 -0.4715  0.6149  0.2739
  435MPD2     C 6534   0.456   2.507  15.718  0.2259  0.5583  0.6933
  435MPD2    C1 6535   0.414   2.495  15.853 -0.1408  0.7358  0.3862
  435MPD2    C2 6536   0.473   2.397  15.932  0.7215  0.7482  0.5098
  435MPD2    C3 6537   0.578   2.322  15.880  0.1559 -0.9488 -0.0671
  435MPD2    C4 6538   0.626   2.341  15.753 -0.3028  0.2900  0.0095
  435MPD2    C5 6539   0.564   2.434  15.677 -0.2400  0.1955  1.1628
  435MPD2     H 6540   0.451   2.390  16.037 -0.5639  1.1664  0.2652
  435MPD2    H1 6541   0.696   2.278  15.698  0.8801  1.9345 -0.3804
  435MPD2    H2 6542   0.418   2.585  15.653  2.2778  1.1792  0.2416
  435MPD2    H3 6543   0.605   2.457  15.579 -0.1871 -1.3688  0.8085
  435MPD2     N 6544   0.645   2.235  15.972  0.2301  0.4676  0.2062
  435MPD2    H5 6545   0.631   2.245  16.072 -2.7329 -0.2859 -0.1437
  435MPD2    N1 6546   0.306   2.569  15.908 -0.1437  0.2563  0.2073
  435MPD2    H7 6547   0.287   2.544  16.005 -0.9290  0.8066  0.1982
  436TMC3    C1 6548   0.012   2.742  16.136 -0.2634  0.5800 -0.4602
  436TMC3    C2 6549   0.123   2.695  16.063  1.2556 -0.0832 -0.0002
  436TMC3    C3 6550   0.104   2.687  15.929  0.4987 -0.0552  0.0081
  436TMC3    C4 6551   4.632   2.775  16.079 -0.0035  0.3111  0.1179
  436TMC3    C5 6552   4.622   2.740  15.949  0.0038 -0.3480 -0.4052
  436TMC3    C6 6553   4.731   2.710  15.867 -0.2761 -0.0572  0.7342
  436TMC3     C 6554   0.043   2.779  16.270 -0.0407 -0.3590  0.2145
  436TMC3     O 6555   0.156   2.811  16.308  0.2059 -0.8423  0.1026
  436TMC3     H 6556   0.221   2.684  16.109  1.1834 -0.3627  0.0865
  436TMC3    H1 6557   4.555   2.823  16.138 -2.1641 -0.9958 -1.6633
  436TMC3    H2 6558   4.722   2.702  15.759 -0.5759  2.8105  0.5428
  436TMC3    C7 6559   4.494   2.756  15.881  0.0801  0.3746  0.0099
  436TMC3    C8 6560   0.221   2.651  15.839  1.0018  1.0849  0.1313
  436TMC3    O1 6561   4.503   2.767  15.761 -0.3092  0.2872  0.0906
  436TMC3    O2 6562   0.216   2.689  15.722  0.5508  0.0163 -0.1038
  437TMC3    C1 6563   3.483   0.254  12.654 -0.4791 -0.0282  0.1567
  437TMC3    C2 6564   3.420   0.302  12.544 -0.0325 -0.4830 -0.0048
  437TMC3    C3 6565   3.497   0.328  12.430 -0.3843 -0.9306 -0.2102
  437TMC3    C4 6566   3.613   0.204  12.653 -0.2313 -0.4993  0.2912
  437TMC3    C5 6567   3.683   0.225  12.537  0.5299 -0.1177  0.5000
  437TMC3    C6 6568   3.632   0.297  12.433  0.4081  0.5746 -0.1070
  437TMC3     C 6569   3.399   0.212  12.767 -1.0874 -1.0167 -0.3259
  437TMC3     O 6570   3.294   0.273  12.782  0.0272 -0.2511  0.1644
  437TMC3     H 6571   3.318   0.337  12.551 -0.7515 -2.5199 -0.2153
  437TMC3    H1 6572   3.656   0.170  12.746  0.8785  0.8928  0.2872
  437TMC3    H2 6573   3.694   0.337  12.354 -0.2638 -1.6026 -1.7194
  437TMC3    C7 6574   3.818   0.182  12.518  0.2276 -0.3366 -0.4126
  437TMC3    C8 6575   3.425   0.371  12.305 -0.0597  0.1774 -0.0891
  437TMC3    O1 6576   3.871   0.211  12.411  0.0406 -0.2641 -0.0739
  437TMC3    O2 6577   3.324   0.436  12.322 -0.1571 -0.0229  0.1675
  438MPD2     C 6578   1.212   0.464  16.914  0.5330  0.3959 -0.8371
  438MPD2    C1 6579   1.298   0.384  16.979 -0.2589 -0.3985  0.3370
  438MPD2    C2 6580   1.276   0.368  17.112  0.1769  1.2817  0.2686
  438MPD2    C3 6581   1.168   0.422  17.182 -0.2172  0.6216  0.2221
  438MPD2    C4 6582   1.083   0.502  17.115 -0.2888 -0.2683 -0.1660
  438MPD2    C5 6583   1.113   0.527  16.981  0.6398 -0.2305  0.5863
  438MPD2     H 6584   1.342   0.299  17.163 -1.1238 -1.2104 -1.4242
  438MPD2    H1 6585   0.995   0.555  17.150  0.0004 -0.6969  1.2424
  438MPD2    H2 6586   1.216   0.492  16.809  2.8982  3.5360  0.0859
  438MPD2    H3 6587   1.049   0.595  16.926  1.3979  1.5788  1.9416
  438MPD2     N 6588   1.138   0.372  17.314  0.2061 -0.4120  0.1485
  438MPD2    H5 6589   1.200   0.301  17.352  2.4118  1.0499 -0.7301
  438MPD2    N1 6590   1.398   0.308  16.910 -0.0020 -0.8517  0.2144
  438MPD2    H7 6591   1.470   0.268  16.969  0.2626 -0.1189  0.3930
  439TMC3    C1 6592   1.524   0.215  16.728  0.4734 -0.2394 -0.9783
  439TMC3    C2 6593   1.507   0.145  16.612  0.5522 -0.1458 -0.5820
  439TMC3    C3 6594   1.602   0.063  16.570 -0.4372 -0.6557  0.8874
  439TMC3    C4 6595   1.631   0.196  16.815 -0.2719 -0.2146 -0.5463
  439TMC3    C5 6596   1.732   0.119  16.767 -0.5039  0.3205 -0.9501
  439TMC3    C6 6597   1.721   0.055  16.638 -0.5458  0.0005 -0.7713
  439TMC3     C 6598   1.407   0.293  16.769  0.0805 -0.7651  0.5332
  439TMC3     O 6599   1.336   0.333  16.679 -0.6040  0.0748 -0.3176
  439TMC3     H 6600   1.406   0.135  16.574  0.5578  1.5098 -1.0518
  439TMC3    H1 6601   1.654   0.265  16.895 -0.6952  1.9012 -2.2493
  439TMC3    H2 6602   1.808   0.011  16.590  1.5944  0.9286  2.2197
  439TMC3    C7 6603   1.841   0.080  16.854 -0.1172  0.3577  0.6672
  439TMC3    C8 6604   1.576   4.700  16.469 -0.7454  0.3134  0.0305
  439TMC3    O1 6605   1.862   0.155  16.951  0.1628  0.3022  0.0605
  439TMC3    O2 6606   1.671   4.625  16.448 -0.4751  0.7542  0.5117
  440MPD2     C 6607   4.607   0.459  15.429 -0.5173 -0.3774  0.5616
  440MPD2    C1 6608   4.688   0.573  15.418  0.2297  0.8649 -0.4969
  440MPD2    C2 6609   0.082   0.550  15.405  0.2065 -0.6113  0.1527
  440MPD2    C3 6610   0.141   0.431  15.420  0.4478  0.1283  0.0145
  440MPD2    C4 6611   0.064   0.323  15.449 -0.5896  0.6768 -0.7626
  440MPD2    C5 6612   4.666   0.336  15.450  0.0597  0.6928  0.6779
  440MPD2     H 6613   0.147   0.635  15.387 -1.8770  0.9332 -0.0253
  440MPD2    H1 6614   0.107   0.225  15.465  0.0173  0.7114 -2.1410
  440MPD2    H2 6615   4.499   0.454  15.438 -0.6544  2.1303  0.3914
  440MPD2    H3 6616   4.612   0.244  15.466  1.0337  0.2358  1.2997
  440MPD2     N 6617   0.283   0.412  15.416 -0.3556  0.6795 -0.0894
  440MPD2    H5 6618   0.316   0.316  15.403  0.7942  0.9887  0.4858
  440MPD2    N1 6619   4.635   0.702  15.414  0.3475 -0.2575 -0.1085
  440MPD2    H7 6620   4.702   0.778  15.410 -0.6096  0.5600 -0.5938
  441TMC3    C1 6621   0.522   0.451  15.430  1.1617 -0.7524  0.4149
  441TMC3    C2 6622   0.614   0.551  15.409 -0.1077  0.0755 -0.6232
  441TMC3    C3 6623   0.728   0.553  15.484  0.3906 -0.3164 -0.1550
  441TMC3    C4 6624   0.550   0.350  15.517 -0.3644 -0.1379 -0.7552
  441TMC3    C5 6625   0.674   0.341  15.576 -0.2399 -0.0149 -0.4876
  441TMC3    C6 6626   0.763   0.447  15.567  0.0317 -0.2774  0.6790
  441TMC3     C 6627   0.385   0.504  15.419 -0.1803 -0.5057 -0.2498
  441TMC3     O 6628   0.380   0.624  15.403 -0.6132 -0.1479 -0.9819
  441TMC3     H 6629   0.598   0.631  15.338 -1.8678 -0.3372 -0.6849
  441TMC3    H1 6630   0.475   0.273  15.535 -1.5570  1.1545 -0.1827
  441TMC3    H2 6631   0.846   0.455  15.637 -0.1765  2.3647  0.6390
  441TMC3    C7 6632   0.687   0.240  15.668 -0.7656 -0.1485  0.4438
  441TMC3    C8 6633   0.771   0.679  15.531 -1.1943  0.8206 -0.5300
  441TMC3    O1 6634   0.738   0.264  15.777 -0.0650  0.1242 -0.0133
  441TMC3    O2 6635   0.884   0.684  15.580  0.8337  0.1762  0.5145
  442MPD2     C 6636   3.188   1.062  17.038 -0.5507 -0.8923 -0.0935
  442MPD2    C1 6637   3.052   1.038  17.002  0.4760  0.0156  0.6860
  442MPD2    C2 6638   3.026   0.929  16.916 -0.4486  0.2522 -0.1557
  442MPD2    C3 6639   3.138   0.873  16.856  0.0494 -0.3762 -0.1193
  442MPD2    C4 6640   3.266   0.907  16.889  0.1471  0.2233 -0.4107
  442MPD2    C5 6641   3.286   0.989  16.989  0.3782 -0.3816 -0.2467
  442MPD2     H 6642   2.926   0.905  16.883 -0.4027 -1.9406  1.3200
  442MPD2    H1 6643   3.357   0.869  16.844  0.5234 -0.3432  0.8426
  442MPD2    H2 6644   3.211   1.140  17.109 -2.4166 -0.8573  0.4611
  442MPD2    H3 6645   3.386   1.028  17.003  0.1503  0.2312 -0.3306
  442MPD2     N 6646   3.112   0.764  16.761  0.4353  0.5530 -0.4089
  442MPD2    H5 6647   3.015   0.732  16.754  1.1775 -0.9962 -3.4937
  442MPD2    N1 6648   2.940   1.108  17.059  0.1636  0.4349 -1.2153
  442MPD2    H7 6649   2.846   1.074  17.042 -0.4159  1.1968  0.5187
  443TMC3    C1 6650   2.828   1.270  17.177 -0.0802 -0.2686 -0.7555
  443TMC3    C2 6651   2.794   1.400  17.165 -0.6203  0.1088  0.0540
  443TMC3    C3 6652   2.662   1.437  17.184 -0.1869 -0.6555  0.5098
  443TMC3    C4 6653   2.738   1.176  17.220 -0.0970 -0.7295  0.1127
  443TMC3    C5 6654   2.610   1.215  17.237  0.2907  0.0632  0.5496
  443TMC3    C6 6655   2.570   1.340  17.208 -0.1112  0.2161  0.2255
  443TMC3     C 6656   2.950   1.230  17.122  0.0811 -0.3372 -0.2796
  443TMC3     O 6657   3.047   1.307  17.131  0.3451  0.0200  0.3601
  443TMC3     H 6658   2.872   1.473  17.148 -1.8651  1.3057 -0.6009
  443TMC3    H1 6659   2.759   1.072  17.245  0.4601 -0.7720 -0.5379
  443TMC3    H2 6660   2.473   1.386  17.224  0.5679  2.0033 -0.8795
  443TMC3    C7 6661   2.523   1.117  17.290  0.0497  0.5817 -0.3557
  443TMC3    C8 6662   2.623   1.513  17.074  0.7338 -0.4540 -0.2335
  443TMC3    O1 6663   2.571   1.020  17.350 -0.1695  0.2985  0.1628
  443TMC3    O2 6664   2.667   1.626  17.066  0.5294 -0.3264 -0.3931
  444MPD2     C 6665   3.476   0.868  17.232  0.3477  0.3886  1.0544
  444MPD2    C1 6666   3.371   0.778  17.204 -0.3043 -0.3729  0.1678
  444MPD2    C2 6667   3.391   0.675  17.112 -0.1949  0.5189 -0.3193
  444MPD2    C3 6668   3.514   0.662  17.053  0.2125  0.1850 -0.0469
  444MPD2    C4 6669   3.603   0.769  17.059  0.4894  0.2259  0.4563
  444MPD2    C5 6670   3.588   0.868  17.152 -0.1349  0.6414 -0.3270
  444MPD2     H 6671   3.313   0.600  17.112 -0.5614  0.8925  0.4835
  444MPD2    H1 6672   3.696   0.767  17.004 -0.2094  0.9792 -0.7716
  444MPD2    H2 6673   3.474   0.958  17.293  0.6711  2.9892 -2.7953
  444MPD2    H3 6674   3.653   0.955  17.155  0.9195 -0.1947  1.2305
  444MPD2     N 6675   3.538   0.553  16.967  0.5168 -0.0076 -0.1716
  444MPD2    H5 6676   3.462   0.486  16.956  0.5826  0.1009 -1.2533
  444MPD2    N1 6677   3.238   0.802  17.263  0.2229 -0.1806  0.1934
  444MPD2    H7 6678   3.162   0.743  17.231  2.8887 -1.8310 -3.0248
  445TMC3    C1 6679   3.635   0.401  16.812  0.3141 -0.0382  0.2527
  445TMC3    C2 6680   3.510   0.353  16.781  0.4929 -0.1901 -0.0133
  445TMC3    C3 6681   3.507   0.238  16.704 -0.6154 -0.8073  0.5125
  445TMC3    C4 6682   3.751   0.338  16.778  0.3866 -0.2782 -0.2125
  445TMC3    C5 6683   3.745   0.229  16.696  0.2861  0.3065  0.6634
  445TMC3    C6 6684   3.624   0.182  16.659 -0.6072  0.6841 -0.3619
  445TMC3     C 6685   3.652   0.520  16.902 -0.1626  0.1080 -0.1676
  445TMC3     O 6686   3.761   0.573  16.922  0.0877 -0.6811  0.2672
  445TMC3     H 6687   3.416   0.401  16.804 -0.5096 -1.3149 -1.7428
  445TMC3    H1 6688   3.844   0.378  16.816  0.1573 -1.5394  1.6700
  445TMC3    H2 6689   3.624   0.109  16.579 -0.2731 -1.5876  1.6966
  445TMC3    C7 6690   3.871   0.162  16.662  0.3062 -0.1936  0.5305
  445TMC3    C8 6691   3.374   0.198  16.642  0.4584 -0.2441  0.1821
  445TMC3    O1 6692   3.977   0.221  16.657 -0.3889  0.0241  0.0811
  445TMC3    O2 6693   3.287   0.282  16.639 -0.4822 -0.3595 -0.3017
  446MPD2     C 6694   2.673   1.460  10.565 -0.0190 -0.1511  0.2548
  446MPD2    C1 6695   2.626   1.509  10.685 -0.4213  0.5627 -0.7021
  446MPD2    C2 6696   2.714   1.517  10.787  0.2864 -0.4420  0.9836
  446MPD2    C3 6697   2.851   1.487  10.766  1.0077  0.3018  0.2220
  446MPD2    C4 6698   2.890   1.440  10.641 -0.1831 -0.4649 -0.0823
  446MPD2    C5 6699   2.801   1.427  10.544  0.1079 -0.2831  0.1536
  446MPD2     H 6700   2.694   1.557  10.886 -2.1494  1.2813 -0.1884
  446MPD2    H1 6701   2.997   1.436  10.621 -0.0520  0.4672  0.4502
  446MPD2    H2 6702   2.621   1.430  10.475  2.3475 -0.1345 -1.0998
  446MPD2    H3 6703   2.843   1.383  10.455  1.6027  3.4918 -1.0170
  446MPD2     N 6704   2.950   1.513  10.867  0.4266 -0.2176 -0.6452
  446MPD2    H5 6705   2.916   1.573  10.942 -1.8373 -1.6906 -0.5182
  446MPD2    N1 6706   2.490   1.535  10.719  0.0035  0.1130  0.0456
  446MPD2    H7 6707   2.476   1.559  10.817 -0.1741 -0.0587  0.0617
  447TMC3    C1 6708   3.164   1.526  10.967  0.1703  0.4093  0.3997
  447TMC3    C2 6709   3.136   1.665  10.962 -0.0623 -0.2539  1.1592
  447TMC3    C3 6710   3.242   1.748  10.944 -0.9792 -0.4571 -0.1024
  447TMC3    C4 6711   3.297   1.484  10.968  0.6458  0.7181  0.5170
  447TMC3    C5 6712   3.397   1.581  10.982  1.1257  0.1768 -0.4008
  447TMC3    C6 6713   3.370   1.709  10.955 -0.2561 -0.0240 -0.3160
  447TMC3     C 6714   3.080   1.459  10.873  0.9179 -0.1229 -0.0162
  447TMC3     O 6715   3.130   1.370  10.807  0.0526  0.3185 -0.0145
  447TMC3     H 6716   3.036   1.705  10.970 -0.4427 -0.7940 -0.8340
  447TMC3    H1 6717   3.321   1.384  11.001 -0.0991  0.4024  0.0938
  447TMC3    H2 6718   3.441   1.790  10.971 -0.6560  0.5502 -1.4511
  447TMC3    C7 6719   3.531   1.536  11.035 -0.0610 -0.0309  0.6372
  447TMC3    C8 6720   3.215   1.874  10.877  0.1477  0.7465  0.1945
  447TMC3    O1 6721   3.547   1.415  11.056 -0.2329 -0.6849  0.0717
  447TMC3    O2 6722   3.094   1.898  10.871 -0.1829  0.0909  0.0567
  448TMC3    C1 6723   1.132   1.825  16.850 -0.3830  0.2678  0.0093
  448TMC3    C2 6724   1.112   1.711  16.781  0.4385 -0.4860 -0.1837
  448TMC3    C3 6725   1.134   1.593  16.840  0.0720  0.0816  0.3485
  448TMC3    C4 6726   1.204   1.816  16.970  0.0446 -0.6282 -0.2405
  448TMC3    C5 6727   1.235   1.694  17.022 -0.3517 -0.3030 -0.9529
  448TMC3    C6 6728   1.197   1.581  16.961 -0.3943  0.3388 -0.9479
  448TMC3     C 6729   1.127   1.945  16.773 -0.2726  0.0487 -0.1298
  448TMC3     O 6730   1.104   1.945  16.653  0.1345 -0.7436 -0.7235
  448TMC3     H 6731   1.047   1.722  16.695 -0.2800 -0.6470  0.3305
  448TMC3    H1 6732   1.233   1.899  17.034  2.6725 -1.1298 -0.8033
  448TMC3    H2 6733   1.215   1.488  17.014 -0.7423  1.7263  1.5765
  448TMC3    C7 6734   1.311   1.688  17.141 -0.5926 -0.7694  0.9963
  448TMC3    C8 6735   1.105   1.472  16.768  0.6109 -0.7900  0.3452
  448TMC3    O1 6736   1.289   1.778  17.226  0.3339 -0.4962  0.1150
  448TMC3    O2 6737   1.082   1.370  16.831  0.3279  0.2164  0.8504
  449MPD2     C 6738   2.808   4.444  13.862  0.2056 -0.0395 -0.2659
  449MPD2    C1 6739   2.684   4.495  13.817  0.4472 -0.3307  0.0870
  449MPD2    C2 6740   2.574   4.510  13.898  0.2356 -0.6748  0.4410
  449MPD2    C3 6741   2.582   4.473  14.032 -0.6863 -1.0291 -0.3113
  449MPD2    C4 6742   2.703   4.412  14.077 -0.2249 -0.5857  0.4545
  449MPD2    C5 6743   2.817   4.400  13.992  0.0371  0.6318 -0.1268
  449MPD2     H 6744   2.480   4.538  13.852 -0.1536 -1.5558  0.7170
  449MPD2    H1 6745   2.715   4.388  14.182 -2.3201 -0.2638  0.7598
  449MPD2    H2 6746   2.894   4.426  13.798  0.7807  0.0742  0.4793
  449MPD2    H3 6747   2.905   4.367  14.046  0.6189 -0.1868 -1.5867
  449MPD2     N 6748   2.479   4.509  14.123  0.1714  0.0088 -0.8677
  449MPD2    H5 6749   2.402   4.559  14.081 -1.9015 -1.9517  0.6039
  449MPD2    N1 6750   2.666   4.530  13.681 -0.1621 -0.0674  0.3585
  449MPD2    H7 6751   2.572   4.562  13.659 -0.0641 -0.3126 -0.3975
  450TMC3    C1 6752   2.706   4.593  13.466  1.2011 -0.2107 -0.2081
  450TMC3    C2 6753   2.779   4.705  13.426  0.3638  0.2412  0.0416
  450TMC3    C3 6754   2.711   0.082  13.414 -0.9913 -0.2196  0.2827
  450TMC3    C4 6755   2.569   4.600  13.474 -0.0079 -0.1015 -0.1732
  450TMC3    C5 6756   2.504   4.717  13.462 -0.5361  0.0048  0.5528
  450TMC3    C6 6757   2.575   0.096  13.442 -0.7965 -0.1725  0.3483
  450TMC3     C 6758   2.760   4.534  13.591  0.5926 -0.2642 -0.9806
  450TMC3     O 6759   2.884   4.535  13.599 -0.1989 -0.6487 -0.6345
  450TMC3     H 6760   2.883   4.682  13.407  0.2886 -0.2009  0.1611
  450TMC3    H1 6761   2.515   4.510  13.501 -0.1282 -0.2221 -0.8233
  450TMC3    H2 6762   2.529   0.193  13.449 -0.8842 -0.2437  0.7798
  450TMC3    C7 6763   2.403   4.728  13.561 -0.8266 -0.8999 -0.3950
  450TMC3    C8 6764   2.780   0.209  13.395  0.2484  0.5441  0.3670
  450TMC3    O1 6765   2.407   4.636  13.641  0.0020  0.4086 -0.0325
  450TMC3    O2 6766   2.722   0.314  13.424 -0.4059  0.0083 -0.1137
  451MPD2     C 6767   4.075   3.282   1.107 -0.1691 -0.6106 -0.1547
  451MPD2    C1 6768   4.130   3.380   1.184 -0.8298  0.0071  0.0063
  451MPD2    C2 6769   4.267   3.358   1.218 -0.0699 -0.3870 -0.0526
  451MPD2    C3 6770   4.336   3.241   1.178 -0.2456 -0.1999 -0.4287
  451MPD2    C4 6771   4.269   3.140   1.112 -0.8362  0.0415 -0.2506
  451MPD2    C5 6772   4.141   3.166   1.069 -0.3835  0.0174 -0.1082
  451MPD2     H 6773   4.323   3.427   1.280 -1.4801 -0.5472  1.3949
  451MPD2    H1 6774   4.317   3.058   1.060  0.6915 -0.2036  1.5761
  451MPD2    H2 6775   3.974   3.307   1.075  0.3611  2.9417  1.0184
  451MPD2    H3 6776   4.106   3.089   1.002 -1.3771  0.6376 -0.2939
  451MPD2     N 6777   4.476   3.223   1.189  0.4784  0.1997 -0.1123
  451MPD2    H5 6778   4.517   3.141   1.145  1.2332  0.2331  0.5244
  451MPD2    N1 6779   4.073   3.507   1.203 -0.2174 -0.2257 -0.5233
  451MPD2    H7 6780   3.987   3.533   1.154  0.9429  1.9666 -1.3603
  452TMC3    C1 6781   4.696   3.273   1.236 -0.1055  0.1396 -0.4433
  452TMC3    C2 6782   4.721   3.140   1.210  0.1582 -0.2951  0.6696
  452TMC3    C3 6783   0.071   3.107   1.113 -0.1027 -0.1000 -1.2735
  452TMC3    C4 6784   0.028   3.368   1.170 -0.1159  0.7353  0.0532
  452TMC3    C5 6785   0.118   3.326   1.082  0.4112 -0.5812 -0.3689
  452TMC3    C6 6786   0.138   3.198   1.041 -0.2744  0.5102 -0.1027
  452TMC3     C 6787   4.563   3.314   1.241  0.0818  0.2333  0.3613
  452TMC3     O 6788   4.548   3.414   1.309  0.0849 -1.0165 -0.4779
  452TMC3     H 6789   4.659   3.060   1.250 -0.9572 -0.7269 -1.9411
  452TMC3    H1 6790   0.005   3.473   1.182  0.5917  0.6023  2.3930
  452TMC3    H2 6791   0.200   3.169   0.956  1.4242  2.2831  0.5219
  452TMC3    C7 6792   0.179   3.428   0.992  0.4275  0.3711 -0.2024
  452TMC3    C8 6793   0.036   2.990   1.034  0.3325  0.2178  0.4062
  452TMC3    O1 6794   0.210   3.394   0.875 -0.3696  0.1343  0.1682
  452TMC3    O2 6795   4.658   2.956   1.038 -0.1463  0.2286  0.5831
  453TMC3    C1 6796   0.252   0.957  11.976  0.4514 -0.5781  0.1533
  453TMC3    C2 6797   0.166   0.850  11.952 -0.0088 -0.1153  0.0829
  453TMC3    C3 6798   0.079   0.861  11.848 -0.0961  0.2537 -0.3614
  453TMC3    C4 6799   0.245   1.065  11.892 -0.0659  0.2288 -0.0844
  453TMC3    C5 6800   0.155   1.066  11.786  0.5287 -0.2227 -0.7621
  453TMC3    C6 6801   0.070   0.969  11.766 -0.2707 -0.4278  0.4527
  453TMC3     C 6802   0.367   0.947  12.064 -0.5372  0.0773  0.4509
  453TMC3     O 6803   0.450   1.035  12.041  0.0490  0.0393  0.2082
  453TMC3     H 6804   0.162   0.759  12.011  0.4974  0.3112  0.7790
  453TMC3    H1 6805   0.296   1.155  11.924  1.3124 -0.7600  0.5051
  453TMC3    H2 6806   4.727   0.981  11.699 -0.3756  1.1739  0.8750
  453TMC3    C7 6807   0.142   1.187  11.708  0.3569  0.3475  1.5862
  453TMC3    C8 6808   4.731   0.752  11.825 -0.3962  0.0320 -0.8472
  453TMC3    O1 6809   0.047   1.194  11.636  0.4711 -0.2747 -0.1141
  453TMC3    O2 6810   4.623   0.783  11.774 -0.1821 -0.5614  0.4508
  454MPD2     C 6811   4.211   0.173  16.290 -0.3897 -0.6763  0.1526
  454MPD2    C1 6812   4.140   0.246  16.196  0.4466  0.0656 -0.0874
  454MPD2    C2 6813   4.119   0.380  16.228  0.5826  0.5615  0.2911
  454MPD2    C3 6814   4.155   0.439  16.341 -0.1183  0.8205 -0.7323
  454MPD2    C4 6815   4.219   0.365  16.437  0.1387  0.8498 -0.2610
  454MPD2    C5 6816   4.246   0.232  16.403 -0.2628  0.6643 -0.3868
  454MPD2     H 6817   4.069   0.436  16.149  1.2484  0.0450 -0.4907
  454MPD2    H1 6818   4.246   0.406  16.533 -0.4631  0.0979  0.2282
  454MPD2    H2 6819   4.254   0.076  16.271 -1.3287 -1.1031  0.1847
  454MPD2    H3 6820   4.296   0.173  16.478 -2.8942  0.3419  1.1248
  454MPD2     N 6821   4.113   0.570  16.387 -0.3654  0.2077 -0.3814
  454MPD2    H5 6822   4.136   0.596  16.482 -0.0131 -0.8588 -0.1760
  454MPD2    N1 6823   4.081   0.194  16.087  1.4403  0.5732 -0.3721
  454MPD2    H7 6824   4.019   0.257  16.036 -2.5128 -2.6903  0.4067
  455TMC3    C1 6825   3.937   0.735  16.386 -0.0576 -0.3429 -0.1634
  455TMC3    C2 6826   3.960   0.778  16.516 -0.1907 -0.3582 -0.1710
  455TMC3    C3 6827   3.850   0.775  16.599  0.9441  0.3461  0.2597
  455TMC3    C4 6828   3.816   0.678  16.354 -0.0300 -0.4530 -0.8554
  455TMC3    C5 6829   3.720   0.659  16.442 -0.2801  0.3409 -0.0336
  455TMC3    C6 6830   3.733   0.715  16.564 -1.3359  0.0917  0.3674
  455TMC3     C 6831   4.035   0.657  16.309 -0.7829 -0.5497 -0.2281
  455TMC3     O 6832   4.016   0.657  16.190 -0.3181 -0.2324 -0.1282
  455TMC3     H 6833   4.059   0.811  16.545 -0.2016 -0.0847 -0.4365
  455TMC3    H1 6834   3.793   0.647  16.253  2.9792 -0.5467 -1.5007
  455TMC3    H2 6835   3.656   0.716  16.640 -0.8708 -1.2842  0.8536
  455TMC3    C7 6836   3.648   0.535  16.422 -0.4974 -0.8917 -0.7686
  455TMC3    C8 6837   3.856   0.874  16.709  0.6584 -0.6994  0.4567
  455TMC3    O1 6838   3.529   0.521  16.455 -0.2172 -0.1064 -0.5120
  455TMC3    O2 6839   3.956   0.881  16.775  0.0199  0.3326  0.2242
  456MPD2     C 6840   1.525   0.186  16.071  0.1765 -0.0915  0.8271
  456MPD2    C1 6841   1.622   0.206  16.170 -0.2854  0.3993 -0.4446
  456MPD2    C2 6842   1.598   0.301  16.271 -0.5153  0.5256  0.3390
  456MPD2    C3 6843   1.485   0.384  16.261  0.1561 -0.0439  0.6294
  456MPD2    C4 6844   1.402   0.379  16.151  0.4065 -0.5486 -0.9466
  456MPD2    C5 6845   1.425   0.281  16.059 -0.2311 -0.3528 -0.6020
  456MPD2     H 6846   1.680   0.319  16.339  0.0319 -2.6805  0.5413
  456MPD2    H1 6847   1.309   0.435  16.143 -0.6777 -2.1694  0.5578
  456MPD2    H2 6848   1.522   0.101  16.003  0.1601 -1.4249  2.4716
  456MPD2    H3 6849   1.365   0.268  15.969 -1.6444 -2.6112  0.6603
  456MPD2     N 6850   1.460   0.469  16.368  0.0624  0.3451  0.0739
  456MPD2    H5 6851   1.528   0.467  16.444 -0.1142 -2.2135  0.1858
  456MPD2    N1 6852   1.718   0.107  16.179  1.0745  0.2333  0.1079
  456MPD2    H7 6853   1.724   0.035  16.108  1.0497  0.1094  0.2326
  457TMC3    C1 6854   1.372   0.658  16.483 -1.1695  0.9609 -0.2585
  457TMC3    C2 6855   1.284   0.763  16.498  0.5554  0.5343 -0.2057
  457TMC3    C3 6856   1.270   0.821  16.619  0.3007  0.6361 -0.2164
  457TMC3    C4 6857   1.440   0.612  16.593  0.0416  0.2684 -0.4313
  457TMC3    C5 6858   1.426   0.676  16.711  0.3480  0.1101  0.1681
  457TMC3    C6 6859   1.340   0.784  16.727  0.5499  0.0569 -0.5574
  457TMC3     C 6860   1.370   0.572  16.365 -0.0523  0.0488 -0.5152
  457TMC3     O 6861   1.292   0.603  16.274 -1.1491  0.4449  0.1627
  457TMC3     H 6862   1.209   0.784  16.422  1.1117  3.0435 -0.0434
  457TMC3    H1 6863   1.486   0.514  16.597 -1.9131 -0.7228 -2.1439
  457TMC3    H2 6864   1.333   0.835  16.823  0.1246  0.0963 -0.6067
  457TMC3    C7 6865   1.500   0.632  16.828 -0.1971 -0.6630  0.5170
  457TMC3    C8 6866   1.220   0.957  16.619  0.7597  0.6927  0.6463
  457TMC3    O1 6867   1.461   0.673  16.936 -0.1677  0.3810  0.0972
  457TMC3    O2 6868   1.234   1.009  16.726 -0.5376  0.4132 -0.0649
  458MPD2     C 6869   4.251   4.688  12.648  0.1074 -0.7513  0.1853
  458MPD2    C1 6870   4.176   4.702  12.761 -0.0903 -0.1500  0.6181
  458MPD2    C2 6871   4.050   0.013  12.756 -0.0559  0.0042  0.2201
  458MPD2    C3 6872   3.998   0.066  12.638  0.2450  0.1191  0.5089
  458MPD2    C4 6873   4.077   0.063  12.528  0.7089 -1.1010 -0.4874
  458MPD2    C5 6874   4.200   0.007  12.535 -0.4867 -0.0910 -0.1660
  458MPD2     H 6875   3.988   0.025  12.844 -2.0664  0.2910 -1.2308
  458MPD2    H1 6876   4.063   0.119  12.437 -1.9015 -0.2706  0.4226
  458MPD2    H2 6877   4.352   4.650  12.646  0.2117 -0.6938  3.5402
  458MPD2    H3 6878   4.260   0.004  12.445 -0.6927  0.1652 -0.3147
  458MPD2     N 6879   3.871   0.129  12.633  0.0189 -0.3294  0.6469
  458MPD2    H5 6880   3.808   0.117  12.712  0.7238 -1.7964  0.9840
  458MPD2    N1 6881   4.232   4.660  12.886  0.0131 -0.0920 -0.3490
  458MPD2    H7 6882   4.331   4.636  12.882  0.0293 -0.4962  3.1922
  459TMC3    C1 6883   4.262   4.649  13.122  0.1069 -0.6458 -0.1482
  459TMC3    C2 6884   4.385   4.710  13.104  0.1927 -0.2385  0.0106
  459TMC3    C3 6885   4.462   4.710  13.219 -0.1988  0.8149 -0.0852
  459TMC3    C4 6886   4.214   4.594  13.235  0.1730 -0.7846  0.2108
  459TMC3    C5 6887   4.304   4.594  13.340 -0.0145  0.2191  0.2749
  459TMC3    C6 6888   4.426   4.649  13.336 -0.4254  0.6448  0.0236
  459TMC3     C 6889   4.165   4.658  13.008 -0.5521  0.1842 -0.0478
  459TMC3     O 6890   4.048   4.649  13.034  0.4517  0.4740  0.1503
  459TMC3     H 6891   4.414   0.020  13.013  0.9434 -0.6594  0.0160
  459TMC3    H1 6892   4.121   4.539  13.231 -0.8936  0.9697  0.9821
  459TMC3    H2 6893   4.497   4.636  13.417  1.6522  1.1428 -1.6971
  459TMC3    C7 6894   4.271   4.520  13.463  0.4457  0.6675 -0.4492
  459TMC3    C8 6895   4.604   0.005  13.197 -0.2131 -0.3761 -1.0574
  459TMC3    O1 6896   4.366   4.490  13.536 -0.3341  0.0899 -0.7293
  459TMC3    O2 6897   4.645   4.737  13.080 -0.3306  0.1438 -0.5960
  460MPD2     C 6898   3.426   2.080  10.663 -0.1760  0.1263  0.1676
  460MPD2    C1 6899   3.311   2.036  10.728 -0.1860  0.2830 -0.4729
  460MPD2    C2 6900   3.186   2.073  10.680  0.2225 -0.2667  0.2992
  460MPD2    C3 6901   3.181   2.179  10.583 -0.1651 -0.4961 -0.4502
  460MPD2    C4 6902   3.294   2.227  10.523  0.0724 -0.0539 -0.6509
  460MPD2    C5 6903   3.412   2.172  10.558  0.0138  0.0159 -0.5952
  460MPD2     H 6904   3.091   2.030  10.709  1.2168 -2.2339  0.6191
  460MPD2    H1 6905   3.292   2.310  10.454 -1.3153  1.0470  0.7158
  460MPD2    H2 6906   3.528   2.053  10.688 -0.6320 -0.6877  1.1269
  460MPD2    H3 6907   3.505   2.209  10.516  0.4446 -2.3902 -1.7206
  460MPD2     N 6908   3.060   2.202  10.528  0.3296 -0.2978 -0.1138
  460MPD2    H5 6909   2.992   2.134  10.559 -0.3771  0.3375 -0.2721
  460MPD2    N1 6910   3.323   1.926  10.812 -0.2816 -0.3587 -0.6927
  460MPD2    H7 6911   3.415   1.886  10.824 -0.0656 -0.3529 -2.3189
  461TMC3    C1 6912   2.902   2.261  10.370  0.0840 -0.1610  0.1895
  461TMC3    C2 6913   2.896   2.213  10.242 -0.1627  0.8895 -0.3177
  461TMC3    C3 6914   2.778   2.160  10.198 -0.2217  0.5660 -0.4687
  461TMC3    C4 6915   2.795   2.263  10.451 -0.1314 -0.2392  0.1439
  461TMC3    C5 6916   2.679   2.209  10.407  0.0670 -0.3835 -0.0236
  461TMC3    C6 6917   2.671   2.151  10.283  0.6193 -0.1163  0.6059
  461TMC3     C 6918   3.027   2.296  10.436  0.0105 -0.3856  0.0124
  461TMC3     O 6919   3.091   2.389  10.394 -0.3285 -0.4295  0.1397
  461TMC3     H 6920   2.982   2.226  10.178 -0.7131 -0.1776 -1.2882
  461TMC3    H1 6921   2.810   2.310  10.547 -0.7485 -0.0600  0.1523
  461TMC3    H2 6922   2.573   2.119  10.250  0.4237 -0.6113  1.6741
  461TMC3    C7 6923   2.558   2.279  10.441 -0.1122 -0.3499  0.2756
  461TMC3    C8 6924   2.769   2.072  10.085 -0.3577  0.0079 -0.1809
  461TMC3    O1 6925   2.462   2.278  10.361 -0.5271  0.2275 -0.0289
  461TMC3    O2 6926   2.688   1.980  10.096  0.1315 -0.3079  0.3995
  462TMC3    C1 6927   3.124   3.887   0.205  0.2896 -0.5172  0.7083
  462TMC3    C2 6928   3.101   3.816   0.089 -0.7420  0.7255 -0.6799
  462TMC3    C3 6929   3.089   3.685   0.083  0.3002  0.2574 -0.0150
  462TMC3    C4 6930   3.124   3.818   0.325  0.4708 -0.7583 -0.1372
  462TMC3    C5 6931   3.105   3.681   0.322 -0.2262 -0.2405 -0.2053
  462TMC3    C6 6932   3.095   3.612   0.202 -0.4953  0.1028  0.7148
  462TMC3     C 6933   3.100   4.035   0.213  0.2740  0.0192  0.1371
  462TMC3     O 6934   3.063   4.080   0.320  0.0695  0.4805  0.6279
  462TMC3     H 6935   3.099   3.867  17.757  1.8385 -0.0830 -1.1543
  462TMC3    H1 6936   3.140   3.860   0.424 -0.8985  1.9510 -1.0446
  462TMC3    H2 6937   3.067   3.508   0.206  2.2887 -0.6548  0.7493
  462TMC3    C7 6938   3.141   3.593   0.427 -0.3547  0.0100 -0.5767
  462TMC3    C8 6939   3.111   3.611  17.720  0.0395  0.2280 -0.0217
  462TMC3    O1 6940   3.110   3.475   0.413 -0.1034 -0.2735  0.7217
  462TMC3    O2 6941   3.125   3.669  17.616  0.3232  0.3531  0.6195
  463MPD2     C 6942   0.320   2.244   1.301  0.2149 -1.1974 -0.2935
  463MPD2    C1 6943   0.222   2.240   1.394 -0.1088 -0.5816  0.2016
  463MPD2    C2 6944   0.212   2.333   1.498  0.5624 -0.2154  0.8178
  463MPD2    C3 6945   0.320   2.418   1.517  0.0835  0.0404  0.3343
  463MPD2    C4 6946   0.427   2.414   1.432 -0.5699 -0.1902 -0.7419
  463MPD2    C5 6947   0.422   2.334   1.320  0.5141  0.6041  0.2201
  463MPD2     H 6948   0.135   2.320   1.574 -0.5466 -2.5005 -0.7010
  463MPD2    H1 6949   0.521   2.468   1.436 -0.9934  0.4739  0.2946
  463MPD2    H2 6950   0.328   2.200   1.202 -0.0858  1.0240 -1.3146
  463MPD2    H3 6951   0.502   2.351   1.248  1.2934 -0.2434  0.8989
  463MPD2     N 6952   0.327   2.521   1.615 -0.6866 -0.6434  0.1496
  463MPD2    H5 6953   0.416   2.568   1.620 -0.2351 -1.8013  3.4825
  463MPD2    N1 6954   0.103   2.168   1.368 -0.1445 -0.2834 -0.3173
  463MPD2    H7 6955   0.027   2.179   1.435  1.0217 -3.4261  1.4987
  464TMC3    C1 6956   4.655   2.109   1.244  0.1967  0.1187 -0.2438
  464TMC3    C2 6957   4.573   2.198   1.314 -0.5418  0.4856 -0.7803
  464TMC3    C3 6958   4.438   2.160   1.311 -0.1605  1.0354 -0.1835
  464TMC3    C4 6959   4.619   2.002   1.164  0.2329 -0.0773 -0.1688
  464TMC3    C5 6960   4.486   1.974   1.160 -0.3938  0.0213  0.6068
  464TMC3    C6 6961   4.400   2.050   1.236  0.3620 -0.4453  0.1542
  464TMC3     C 6962   0.055   2.125   1.247 -0.2288  0.0072 -0.8748
  464TMC3     O 6963   0.113   2.110   1.142 -0.7841  0.5719  0.3127
  464TMC3     H 6964   4.616   2.290   1.350  2.8103 -0.9501 -1.1444
  464TMC3    H1 6965   4.690   1.944   1.106 -0.4651 -0.5558 -0.5425
  464TMC3    H2 6966   4.295   2.022   1.242  0.1795  0.0642 -0.5741
  464TMC3    C7 6967   4.444   1.864   1.070 -0.0234  0.0310  0.5305
  464TMC3    C8 6968   4.338   2.252   1.365 -0.3031 -0.5131 -0.1610
  464TMC3    O1 6969   4.529   1.816   0.994 -0.0571  0.4927 -0.0171
  464TMC3    O2 6970   4.227   2.219   1.327 -0.5228  0.8267  0.3098
  465MPD2     C 6971   0.769   1.316  16.538 -0.5901 -0.2049  0.7340
  465MPD2    C1 6972   0.705   1.253  16.646 -0.5651 -0.4713  0.2522
  465MPD2    C2 6973   0.624   1.147  16.626  0.1569 -0.5152  0.0503
  465MPD2    C3 6974   0.586   1.116  16.492 -0.0943 -0.3708 -0.1092
  465MPD2    C4 6975   0.634   1.189  16.390 -0.5000  0.6768 -0.4863
  465MPD2    C5 6976   0.732   1.279  16.414 -0.2440  0.6900  0.0282
  465MPD2     H 6977   0.591   1.092  16.713 -1.8921 -0.9267 -1.0007
  465MPD2    H1 6978   0.612   1.165  16.286  1.6458  0.4014 -0.8801
  465MPD2    H2 6979   0.839   1.398  16.553 -2.6369  1.2201  2.5481
  465MPD2    H3 6980   0.765   1.339  16.330 -2.3145 -0.0437 -1.3276
  465MPD2     N 6981   0.494   1.003  16.481 -0.0913 -0.5679  0.3722
  465MPD2    H5 6982   0.475   0.955  16.568 -0.5696  0.8418  1.0426
  465MPD2    N1 6983   0.731   1.286  16.783  0.2315 -0.3795 -0.3307
  465MPD2    H7 6984   0.703   1.222  16.857  0.4307  0.6317  0.6209
  466TMC3    C1 6985   0.254   0.741  16.581 -0.0390 -0.4180 -0.3782
  466TMC3    C2 6986   0.126   0.770  16.555  0.2428  0.1087 -0.3397
  466TMC3    C3 6987   0.103   0.860  16.450  0.3721 -0.0253 -0.5650
  466TMC3    C4 6988   0.354   0.794  16.510 -0.7364 -0.2248  0.7859
  466TMC3    C5 6989   0.329   0.880  16.403  0.1218  0.1899  0.3048
  466TMC3    C6 6990   0.203   0.918  16.378 -0.0779 -0.0209 -0.2954
  466TMC3     C 6991   0.299   0.719  16.714 -0.1472 -0.3253  0.0680
  466TMC3     O 6992   0.385   0.798  16.750 -0.5917  0.1174 -0.2932
  466TMC3     H 6993   0.039   0.739  16.613  0.9382  2.2046  1.8328
  466TMC3    H1 6994   0.458   0.774  16.535 -0.2924  1.3063  0.2011
  466TMC3    H2 6995   0.184   1.001  16.310 -2.0997  0.0497  0.3741
  466TMC3    C7 6996   0.421   0.975  16.372 -0.4847  0.3051  0.0894
  466TMC3    C8 6997   4.715   0.921  16.434 -0.1953  0.2334 -0.3791
  466TMC3    O1 6998   0.402   1.039  16.271  0.5823  0.6564 -0.1399
  466TMC3    O2 6999   4.681   0.931  16.315 -0.1468  0.0864 -0.2672
  467TMC3    C1 7000   1.242   4.179  14.096 -0.2011 -0.3346 -0.4388
  467TMC3    C2 7001   1.226   4.303  14.044  0.5263  0.2533 -0.6589
  467TMC3    C3 7002   1.145   4.316  13.930 -0.5826 -0.3882 -0.0957
  467TMC3    C4 7003   1.165   4.079  14.052 -0.0467 -0.0001  0.6440
  467TMC3    C5 7004   1.067   4.102  13.957  0.4058 -0.3125 -0.3367
  467TMC3    C6 7005   1.060   4.219  13.885  0.0428  0.2473 -0.3371
  467TMC3     C 7006   1.379   4.137  14.100  0.1844 -0.1229  0.2398
  467TMC3     O 7007   1.457   4.199  14.170  0.2888 -0.3019  0.5860
  467TMC3     H 7008   1.299   4.381  14.064 -0.4793  0.5471  1.9206
  467TMC3    H1 7009   1.168   3.985  14.106  1.7103  0.8808  2.1076
  467TMC3    H2 7010   0.998   4.232  13.798 -2.8309 -1.5651  1.4414
  467TMC3    C7 7011   1.034   3.989  13.876  0.1544 -0.3477  0.7761
  467TMC3    C8 7012   1.237   4.347  13.825  0.0478 -0.1897  0.1598
  467TMC3    O1 7013   1.069   3.974  13.764  0.4550  0.0814 -0.2248
  467TMC3    O2 7014   1.313   4.443  13.832  0.0206  0.2679  0.1248
  468MPD2     C 7015   4.287   2.088  10.669  0.5498  0.6140  0.0807
  468MPD2    C1 7016   4.406   2.086  10.731  0.3411 -0.1280  0.2503
  468MPD2    C2 7017   4.501   1.989  10.702  0.1854  0.2301  0.9549
  468MPD2    C3 7018   4.461   1.879  10.621  0.0488  0.0989  0.3323
  468MPD2    C4 7019   4.334   1.887  10.563 -0.0669 -0.0374 -0.3648
  468MPD2    C5 7020   4.247   1.984  10.587  0.0171 -0.6821  0.2953
  468MPD2     H 7021   4.597   1.999  10.752  0.1274 -0.0288  1.1165
  468MPD2    H1 7022   4.313   1.801  10.500  0.4239  0.2494 -0.9257
  468MPD2    H2 7023   4.214   2.167  10.671 -1.2794 -1.1228  1.6504
  468MPD2    H3 7024   4.158   1.976  10.525 -3.0882  1.5671  4.4367
  468MPD2     N 7025   4.527   1.757  10.608  0.0468  0.0925 -0.3596
  468MPD2    H5 7026   4.472   1.688  10.557 -0.6272  0.4156 -0.0684
  468MPD2    N1 7027   4.436   2.195  10.821 -0.3439  0.0854 -0.3118
  468MPD2    H7 7028   4.535   2.204  10.843 -0.2237 -0.2550 -0.7112
  469TMC3    C1 7029   4.415   2.393  10.954 -0.3167 -0.1485 -0.3575
  469TMC3    C2 7030   4.551   2.398  10.944 -0.1742 -0.2755 -0.4820
  469TMC3    C3 7031   4.625   2.448  11.047  0.0966 -0.0362 -0.2918
  469TMC3    C4 7032   4.351   2.442  11.059  0.0018  0.3088 -0.7676
  469TMC3    C5 7033   4.427   2.483  11.167  0.2779 -0.0260  0.8959
  469TMC3    C6 7034   4.563   2.490  11.166 -0.2831 -0.0158  0.0428
  469TMC3     C 7035   4.351   2.294  10.871 -0.4398  1.1238  0.2535
  469TMC3     O 7036   4.232   2.297  10.863 -0.3003  0.4587  0.2554
  469TMC3     H 7037   4.585   2.399  10.841  1.7897  1.6847  0.1820
  469TMC3    H1 7038   4.246   2.419  11.071  0.2818  0.5137  2.2591
  469TMC3    H2 7039   4.620   2.510  11.255  0.6163  0.1170 -0.5629
  469TMC3    C7 7040   4.351   2.525  11.289 -0.3393  0.3123 -0.4530
  469TMC3    C8 7041   0.027   2.436  11.038 -0.3131 -0.1286 -0.3919
  469TMC3    O1 7042   4.228   2.525  11.279  0.2230 -0.0819 -0.4638
  469TMC3    O2 7043   0.074   2.426  10.928 -0.1160  0.3613  0.2034
  470TMC3    C1 7044   3.172   3.439   1.047 -0.4359  0.3079  0.4239
  470TMC3    C2 7045   3.164   3.572   1.072  0.4638 -0.0621  0.3689
  470TMC3    C3 7046   3.222   3.624   1.184 -0.1806  0.4121 -0.7833
  470TMC3    C4 7047   3.226   3.348   1.125  0.7868  0.0972 -0.0112
  470TMC3    C5 7048   3.285   3.409   1.239 -0.0487 -0.0044  0.2451
  470TMC3    C6 7049   3.279   3.545   1.270  0.1904 -0.1613 -0.3482
  470TMC3     C 7050   3.107   3.397   0.927 -0.1030 -0.5407  0.2553
  470TMC3     O 7051   3.087   3.493   0.852 -0.2114 -0.0381  0.1597
  470TMC3     H 7052   3.111   3.640   1.007 -0.3809 -0.4735  0.6316
  470TMC3    H1 7053   3.249   3.246   1.095 -0.3909 -0.6379  1.5886
  470TMC3    H2 7054   3.319   3.587   1.361 -2.5311 -2.1330  1.7453
  470TMC3    C7 7055   3.372   3.324   1.320  1.1633 -0.7565 -0.3863
  470TMC3    C8 7056   3.163   3.747   1.238 -0.1576  0.8486 -0.2240
  470TMC3    O1 7057   3.411   3.222   1.271 -0.0836 -0.0094 -0.4296
  470TMC3    O2 7058   3.176   3.768   1.356 -0.5659 -0.3376  0.3317
  471MPD2     C 7059   2.271   3.640  16.825  0.0316  0.7338  0.5624
  471MPD2    C1 7060   2.382   3.715  16.794 -0.0935 -0.0035 -0.4566
  471MPD2    C2 7061   2.472   3.751  16.891  0.1321  0.5886  0.3862
  471MPD2    C3 7062   2.459   3.705  17.018 -0.1312  0.0460  0.5536
  471MPD2    C4 7063   2.347   3.630  17.044 -0.0619  0.0169 -0.1316
  471MPD2    C5 7064   2.246   3.601  16.955  0.0304 -0.0203 -0.0996
  471MPD2     H 7065   2.557   3.813  16.864 -1.2772  1.5493 -1.8081
  471MPD2    H1 7066   2.328   3.592  17.144  1.1029 -1.4301 -0.4432
  471MPD2    H2 7067   2.191   3.625  16.754 -1.5159  0.8575  2.2902
  471MPD2    H3 7068   2.153   3.561  16.992  0.0645 -1.3136 -1.4410
  471MPD2     N 7069   2.550   3.740  17.115  0.6052  0.5791  0.2577
  471MPD2    H5 7070   2.535   3.682  17.197 -2.9164  0.3741 -0.5259
  471MPD2    N1 7071   2.410   3.758  16.661  0.8028 -0.3083  0.6743
  471MPD2    H7 7072   2.490   3.819  16.648  1.5130 -1.5717 -0.8250
  472TMC3    C1 7073   2.403   3.771  16.423  0.5633 -0.1937  0.3408
  472TMC3    C2 7074   2.317   3.744  16.320  0.1175  0.0136 -0.3447
  472TMC3    C3 7075   2.367   3.686  16.203 -0.5195 -0.8733 -0.6086
  472TMC3    C4 7076   2.534   3.743  16.416  0.0540 -0.1084 -0.1438
  472TMC3    C5 7077   2.578   3.684  16.296 -0.1886  0.3901  0.7848
  472TMC3    C6 7078   2.497   3.654  16.190 -0.5658  0.0864  0.2655
  472TMC3     C 7079   2.338   3.728  16.544  0.0823  0.0377 -0.1916
  472TMC3     O 7080   2.228   3.677  16.533  0.3051 -0.2510 -0.3101
  472TMC3     H 7081   2.210   3.756  16.330 -0.2147 -0.8049 -2.9115
  472TMC3    H1 7082   2.607   3.760  16.494  0.1280  1.4758 -0.5562
  472TMC3    H2 7083   2.543   3.621  16.097  0.5896 -1.5115  1.4233
  472TMC3    C7 7084   2.692   3.598  16.319 -0.0339 -0.8353  0.4985
  472TMC3    C8 7085   2.281   3.575  16.151  0.0480  0.1141  0.0714
  472TMC3    O1 7086   2.734   3.595  16.430  0.8102  0.2602  0.3395
  472TMC3    O2 7087   2.309   3.530  16.041  0.2742  0.2697  0.3166
  473MPD2     C 7088   2.692   1.753  14.060  0.6648  0.6530  0.0211
  473MPD2    C1 7089   2.599   1.841  14.098 -0.1934 -0.3268  0.2720
  473MPD2    C2 7090   2.606   1.907  14.223 -1.0446  0.1672 -0.1246
  473MPD2    C3 7091   2.698   1.872  14.319  0.6710 -0.0010 -0.0622
  473MPD2    C4 7092   2.792   1.780  14.276 -0.5598  0.2681  0.3406
  473MPD2    C5 7093   2.789   1.726  14.150 -0.0138  0.4381  0.1780
  473MPD2     H 7094   2.526   1.976  14.248 -1.3881 -0.6046  0.8702
  473MPD2    H1 7095   2.876   1.757  14.340  0.3994  0.3204 -0.8955
  473MPD2    H2 7096   2.702   1.703  13.964 -0.6189  0.0585  0.2050
  473MPD2    H3 7097   2.861   1.650  14.120  1.1518  2.4116 -2.0566
  473MPD2     N 7098   2.694   1.913  14.458 -0.1799 -0.2736  0.4311
  473MPD2    H5 7099   2.768   1.873  14.515 -1.6490 -2.0217  1.1570
  473MPD2    N1 7100   2.486   1.883  14.022  0.0260  0.7027  0.3872
  473MPD2    H7 7101   2.428   1.956  14.061  2.8646  2.0945  2.0252
  474TMC3    C1 7102   2.625   2.004  14.651  0.0360 -0.4066  0.2698
  474TMC3    C2 7103   2.577   2.118  14.699  0.8156 -0.0493 -0.1281
  474TMC3    C3 7104   2.610   2.139  14.833 -0.6073  0.0081  0.9976
  474TMC3    C4 7105   2.709   1.921  14.724  0.5743  0.0605 -0.4054
  474TMC3    C5 7106   2.748   1.957  14.850  0.8219  0.7505  0.4436
  474TMC3    C6 7107   2.698   2.069  14.907 -0.0228  0.3632 -0.2363
  474TMC3     C 7108   2.599   1.989  14.516 -0.3348 -0.0142  0.4618
  474TMC3     O 7109   2.511   2.057  14.468  0.2339 -0.3030 -0.0390
  474TMC3     H 7110   2.524   2.191  14.639 -1.0688  0.9528  2.7706
  474TMC3    H1 7111   2.739   1.825  14.683 -0.0977 -0.1614 -0.3933
  474TMC3    H2 7112   2.708   2.095  15.011  1.6316 -0.3277 -0.2072
  474TMC3    C7 7113   2.849   1.879  14.912  0.2465 -0.7431  0.1098
  474TMC3    C8 7114   2.577   2.271  14.881  0.0983  0.2201  0.0456
  474TMC3    O1 7115   2.859   1.770  14.860  0.1372  0.0137 -0.7734
  474TMC3    O2 7116   2.509   2.281  14.980  0.0425  0.4602 -0.0757
  475MPD2     C 7117   1.199   4.566  11.446 -0.3420 -0.2141  0.8194
  475MPD2    C1 7118   1.189   4.620  11.322  0.1563 -0.3450 -0.1043
  475MPD2    C2 7119   1.064   4.636  11.257  0.1756  0.0039 -0.0066
  475MPD2    C3 7120   0.952   4.598  11.320 -0.1832 -0.5344 -0.2609
  475MPD2    C4 7121   0.963   4.531  11.441  0.0907 -0.4053  0.0590
  475MPD2    C5 7122   1.088   4.515  11.504 -0.2264 -0.0579  0.1173
  475MPD2     H 7123   1.057   4.691  11.164 -2.3527  0.2442  0.3377
  475MPD2    H1 7124   0.882   4.519  11.512  0.0533 -0.8129 -0.0526
  475MPD2    H2 7125   1.294   4.546  11.495  1.6406  2.3345 -1.9326
  475MPD2    H3 7126   1.098   4.471  11.603 -1.2190 -0.0028  0.2406
  475MPD2     N 7127   0.828   4.630  11.258  1.2501 -0.4888 -0.1867
  475MPD2    H5 7128   0.831   4.671  11.165 -0.5487  0.9589  0.3926
  475MPD2    N1 7129   1.304   4.672  11.258  0.1989 -0.0257 -0.5125
  475MPD2    H7 7130   1.293   4.701  11.161  0.9858  1.2937 -0.2108
  476TMC3    C1 7131   1.530   0.002  11.246  0.4733  0.1996 -0.4768
  476TMC3    C2 7132   1.535   4.698  11.112 -0.4254 -0.3572  0.8175
  476TMC3    C3 7133   1.648   4.738  11.046 -0.2371  0.0393 -0.4379
  476TMC3    C4 7134   1.615   0.087  11.302 -0.5977  0.5264 -0.0056
  476TMC3    C5 7135   1.720   0.124  11.227 -0.2568  0.5903 -0.2499
  476TMC3    C6 7136   1.743   0.080  11.098 -0.0184 -0.4791 -0.6962
  476TMC3     C 7137   1.416   4.707  11.327 -0.3575  0.0064 -0.7119
  476TMC3     O 7138   1.437   4.722  11.450  0.1055  0.4344  0.0501
  476TMC3     H 7139   1.482   4.607  11.089  1.2200 -1.3050  0.7781
  476TMC3    H1 7140   1.586   0.134  11.395  1.0706 -3.3566  2.5043
  476TMC3    H2 7141   1.832   0.115  11.046 -0.7558 -0.6840 -2.1027
  476TMC3    C7 7142   1.802   0.230  11.287  0.6187  0.8371 -0.0550
  476TMC3    C8 7143   1.657   4.717  10.905 -0.6249 -0.1065 -0.1260
  476TMC3    O1 7144   1.918   0.231  11.250  0.4091  0.1386  0.5743
  476TMC3    O2 7145   1.767   4.718  10.846  0.0391  0.0515  0.4975
  477MPD2     C 7146   3.625   1.372  11.387  0.0448 -0.1017  0.1396
  477MPD2    C1 7147   3.628   1.235  11.368  0.1500  0.8877 -0.4379
  477MPD2    C2 7148   3.642   1.152  11.477  0.0004 -0.5488 -0.5703
  477MPD2    C3 7149   3.659   1.207  11.600 -0.0109  0.0971  0.1901
  477MPD2    C4 7150   3.662   1.345  11.607 -0.0268  0.0186  0.4134
  477MPD2    C5 7151   3.647   1.433  11.508 -0.7613  0.0625 -0.3544
  477MPD2     H 7152   3.650   1.046  11.457 -1.8044 -1.6385  4.4797
  477MPD2    H1 7153   3.683   1.396  11.701 -0.8962 -0.7866  1.0413
  477MPD2    H2 7154   3.600   1.437  11.304  0.2407 -1.0310 -0.6457
  477MPD2    H3 7155   3.662   1.541  11.510  0.9688 -0.1999  0.6203
  477MPD2     N 7156   3.698   1.123  11.706 -0.6840 -0.5017 -0.6485
  477MPD2    H5 7157   3.706   1.024  11.685  1.4290 -0.5768  0.4427
  477MPD2    N1 7158   3.605   1.191  11.232  0.3090 -0.2710 -0.0602
  477MPD2    H7 7159   3.590   1.258  11.158 -1.1547  0.8296  1.2370
  478TMC3    C1 7160   3.502   1.050  11.076  0.2665  0.1342  0.6255
  478TMC3    C2 7161   3.382   0.987  11.085  0.1420 -0.1699 -0.3544
  478TMC3    C3 7162   3.291   1.011  10.986 -0.5534 -0.2588  0.2186
  478TMC3    C4 7163   3.527   1.124  10.970 -0.6505  0.4950 -0.7914
  478TMC3    C5 7164   3.435   1.159  10.871 -1.0004  0.0802  0.8101
  478TMC3    C6 7165   3.308   1.094  10.878  0.0261  0.0016 -0.1810
  478TMC3     C 7166   3.568   1.062  11.200 -0.9270 -0.1828  0.7148
  478TMC3     O 7167   3.565   0.961  11.269  0.1617  0.5550 -0.2203
  478TMC3     H 7168   3.367   0.922  11.170 -0.5158  0.2078 -0.1795
  478TMC3    H1 7169   3.629   1.160  10.964 -0.4599  0.1054  0.2420
  478TMC3    H2 7170   3.226   1.115  10.811 -0.7908 -2.1587  0.1443
  478TMC3    C7 7171   3.484   1.243  10.762  0.2303 -0.5761 -0.2404
  478TMC3    C8 7172   3.160   0.992  11.034  0.0605  0.9493 -0.4241
  478TMC3    O1 7173   3.609   1.248  10.741  0.6240 -0.0418 -0.1117
  478TMC3    O2 7174   3.144   0.894  11.103 -0.1029 -0.3282  0.4665
  479MPD2     C 7175   2.564   3.606  15.194 -0.0238 -0.2925  0.0799
  479MPD2    C1 7176   2.520   3.505  15.273 -0.0294 -0.5298 -0.4332
  479MPD2    C2 7177   2.557   3.512  15.411 -0.1985 -0.1568 -0.3308
  479MPD2    C3 7178   2.625   3.619  15.465  0.9759  0.5846  0.1486
  479MPD2    C4 7179   2.675   3.711  15.375 -0.5186  0.4807  0.4478
  479MPD2    C5 7180   2.640   3.710  15.240  0.7997  0.3895 -0.3687
  479MPD2     H 7181   2.529   3.425  15.469  1.0577 -0.6523 -0.4708
  479MPD2    H1 7182   2.727   3.797  15.417  0.8287  0.0617 -0.3666
  479MPD2    H2 7183   2.532   3.604  15.090 -1.4575 -0.4751  0.5281
  479MPD2    H3 7184   2.674   3.787  15.172 -1.1507 -0.4695 -2.3297
  479MPD2     N 7185   2.671   3.627  15.597 -0.1039  0.1917 -0.4411
  479MPD2    H5 7186   2.750   3.686  15.622  0.7760 -0.7543 -0.9974
  479MPD2    N1 7187   2.422   3.416  15.222  0.3823  0.3816  0.3130
  479MPD2    H7 7188   2.395   3.429  15.125  1.6981 -0.4934 -0.1770
  480TMC3    C1 7189   2.359   3.330  15.804 -0.0096  0.1532  0.6031
  480TMC3    C2 7190   2.245   3.381  15.750  0.0742  0.8433 -0.1165
  480TMC3    C3 7191   2.257   3.489  15.667  0.0873 -0.2142 -0.3632
  480TMC3    C4 7192   2.476   3.397  15.804  0.8169  0.5109 -0.5369
  480TMC3    C5 7193   2.491   3.498  15.713  0.3696 -1.3391 -0.0910
  480TMC3    C6 7194   2.381   3.557  15.652  0.0008  0.7204  0.7504
  480TMC3     C 7195   2.358   3.212  15.896 -0.8622 -0.6494  0.8084
  480TMC3     O 7196   2.317   3.099  15.871  0.4385  0.8442  0.2006
  480TMC3     H 7197   2.155   3.321  15.756 -1.2340  2.6953 -1.3425
  480TMC3    H1 7198   2.564   3.368  15.861  1.4304 -0.2479 -1.8924
  480TMC3    H2 7199   2.399   3.644  15.590 -0.1779 -2.3278 -3.5609
  480TMC3    C7 7200   2.625   3.553  15.704  1.0086 -0.0903  0.7354
  480TMC3    C8 7201   2.149   3.508  15.580  0.0965  0.0187 -0.1511
  480TMC3    O1 7202   2.679   3.548  15.813  0.2599 -0.3316 -0.3903
  480TMC3    O2 7203   2.038   3.482  15.624 -0.0548  0.1130 -0.7617
  481MPD2     C 7204   4.102   2.798  14.468  0.1451  0.1821 -0.1451
  481MPD2    C1 7205   3.999   2.770  14.549  0.4767 -0.1132 -0.1003
  481MPD2    C2 7206   4.034   2.731  14.682 -0.2220 -0.9661 -0.0167
  481MPD2    C3 7207   4.164   2.704  14.719  0.1605 -0.2066 -0.3651
  481MPD2    C4 7208   4.266   2.733  14.631 -0.4965 -0.4443  0.4859
  481MPD2    C5 7209   4.233   2.780  14.505  0.5807 -0.5400 -0.6925
  481MPD2     H 7210   3.953   2.718  14.754  0.4159  0.3092  0.9397
  481MPD2    H1 7211   4.371   2.711  14.649 -0.3454  0.0236  0.1937
  481MPD2    H2 7212   4.085   2.843  14.371 -3.1958 -0.8504 -0.0345
  481MPD2    H3 7213   4.315   2.808  14.441  1.2704 -1.4233 -0.1978
  481MPD2     N 7214   4.204   2.670  14.854  0.2667 -0.3682  0.8689
  481MPD2    H5 7215   4.303   2.688  14.871  0.7758 -1.1271 -1.3710
  481MPD2    N1 7216   3.870   2.808  14.510 -0.0913 -0.2107  0.4517
  481MPD2    H7 7217   3.858   2.871  14.431 -2.7402 -0.0278  1.0124
  482TMC3    C1 7218   3.641   2.859  14.529 -0.4937 -0.2931  0.3646
  482TMC3    C2 7219   3.515   2.807  14.547  0.6829 -0.2778  0.0761
  482TMC3    C3 7220   3.412   2.869  14.484 -0.1698 -0.1855  0.6932
  482TMC3    C4 7221   3.666   2.974  14.464 -0.0266 -0.3326  1.2955
  482TMC3    C5 7222   3.555   3.041  14.417  0.2069 -0.1298 -0.3236
  482TMC3    C6 7223   3.424   2.992  14.426 -0.7345  0.2886  0.0458
  482TMC3     C 7224   3.752   2.777  14.573  0.2423 -0.3395 -0.4909
  482TMC3     O 7225   3.736   2.677  14.642  0.1535 -0.1083  0.3573
  482TMC3     H 7226   3.502   2.707  14.588 -0.7105  0.1714  0.6891
  482TMC3    H1 7227   3.769   3.009  14.452 -0.3157  0.1753  0.2704
  482TMC3    H2 7228   3.343   3.051  14.386  1.4156  2.9165 -0.4298
  482TMC3    C7 7229   3.573   3.155  14.332  0.6890  0.4043 -0.1077
  482TMC3    C8 7230   3.322   2.772  14.423  0.3871  0.3557 -0.2579
  482TMC3    O1 7231   3.488   3.241  14.338 -0.4372 -0.2947  0.1626
  482TMC3    O2 7232   3.330   2.656  14.462  0.6709 -0.6362  0.2873
  483TMC3    C1 7233   2.481   2.432   0.383  0.1825  0.0400 -0.0860
  483TMC3    C2 7234   2.497   2.511   0.494 -0.7559 -0.1753  0.0134
  483TMC3    C3 7235   2.569   2.463   0.596  0.2926 -0.6332  0.3234
  483TMC3    C4 7236   2.530   2.302   0.376  0.2735  0.0817  0.2436
  483TMC3    C5 7237   2.619   2.274   0.477 -0.1499  0.3304  0.2657
  483TMC3    C6 7238   2.633   2.342   0.594 -0.2430 -0.1092 -0.1076
  483TMC3     C 7239   2.388   2.473   0.280  0.4195  0.1298 -0.3670
  483TMC3     O 7240   2.367   2.590   0.261 -0.1803 -0.3816 -0.5503
  483TMC3     H 7241   2.465   2.615   0.492  1.2268  0.4157 -1.1784
  483TMC3    H1 7242   2.534   2.249   0.282  1.7683 -0.7205  0.7712
  483TMC3    H2 7243   2.709   2.311   0.665  0.2205 -0.7110 -0.8595
  483TMC3    C7 7244   2.712   2.168   0.454 -0.3740  0.7423  0.1574
  483TMC3    C8 7245   2.614   2.557   0.696  0.6433  0.9311 -0.6199
  483TMC3    O1 7246   2.824   2.180   0.499  0.2395 -0.0010 -0.2781
  483TMC3    O2 7247   2.645   2.668   0.657  0.2618 -0.1687 -0.4040
  484MPD2     C 7248   0.127   0.100  13.445  0.3814  0.0493  0.0978
  484MPD2    C1 7249   0.076   0.063  13.320  0.3165 -0.7576 -0.1591
  484MPD2    C2 7250   0.161   0.043  13.215 -0.3619  0.3197 -0.1314
  484MPD2    C3 7251   0.302   0.049  13.233 -0.0830 -0.3086  0.3503
  484MPD2    C4 7252   0.342   0.088  13.358  0.4775  0.2451 -0.5491
  484MPD2    C5 7253   0.261   0.115  13.463  0.0716  0.6168  0.1588
  484MPD2     H 7254   0.120   0.017  13.119 -1.5350 -0.3447  0.5564
  484MPD2    H1 7255   0.449   0.086  13.373  0.2073 -1.5773  1.0960
  484MPD2    H2 7256   0.063   0.115  13.531 -0.2015  1.4884 -0.5836
  484MPD2    H3 7257   0.301   0.146  13.559 -1.5027 -0.0932  1.0410
  484MPD2     N 7258   0.406   0.016  13.141  0.1642  0.6169  0.1539
  484MPD2    H5 7259   0.500   0.009  13.177  0.0755  4.8572  1.2816
  484MPD2    N1 7260   4.679   0.031  13.305 -0.1532  0.0009 -0.0469
  484MPD2    H7 7261   4.618   0.047  13.385 -0.7966 -0.1192 -0.5182
  485TMC3    C1 7262   0.487   4.669  12.942  0.4354 -0.7759 -0.1774
  485TMC3    C2 7263   0.579   4.590  13.014  0.1244  0.3876 -0.7991
  485TMC3    C3 7264   0.649   4.498  12.938 -0.0096 -0.0379 -0.0262
  485TMC3    C4 7265   0.471   4.669  12.809  0.0584 -0.1189  0.3257
  485TMC3    C5 7266   0.556   4.592  12.741  0.0948 -0.2465  0.3054
  485TMC3    C6 7267   0.631   4.493  12.802 -0.5853 -0.4090  0.4157
  485TMC3     C 7268   0.378   4.735  13.012  0.4582  0.4185 -0.2460
  485TMC3     O 7269   0.271   4.731  12.956 -0.2884 -0.7453  1.1548
  485TMC3     H 7270   0.590   4.590  13.122  0.7381 -0.7510 -0.8660
  485TMC3    H1 7271   0.419   0.009  12.761  0.1925 -1.2282 -1.7018
  485TMC3    H2 7272   0.688   4.433  12.732 -1.0585  1.2030 -1.3523
  485TMC3    C7 7273   0.635   4.649  12.635  0.7439 -0.6156  0.5933
  485TMC3    C8 7274   0.789   4.494  12.969 -0.3856  0.3099 -0.8342
  485TMC3    O1 7275   0.750   4.605  12.626  0.5690  0.2648  0.0749
  485TMC3    O2 7276   0.822   4.487  13.087 -0.5802 -0.8422 -0.2838
  486MPD2     C 7277   1.434   3.487  13.211 -0.1585  0.1349  0.1334
  486MPD2    C1 7278   1.510   3.456  13.106  0.1060  0.4959 -0.3316
  486MPD2    C2 7279   1.575   3.551  13.038 -0.5342 -0.1775 -0.2132
  486MPD2    C3 7280   1.578   3.679  13.087  0.2249 -0.2308 -0.6918
  486MPD2    C4 7281   1.498   3.714  13.195 -0.4372  0.4299 -0.3076
  486MPD2    C5 7282   1.430   3.615  13.261 -0.0327 -0.1023 -0.1717
  486MPD2     H 7283   1.639   3.521  12.956 -0.1101  0.0688  0.0262
  486MPD2    H1 7284   1.479   3.817  13.225 -1.2059  0.3485 -0.5045
  486MPD2    H2 7285   1.394   3.407  13.272  1.9242 -2.2058 -1.5694
  486MPD2    H3 7286   1.359   3.642  13.338 -2.3265  0.9841 -2.6854
  486MPD2     N 7287   1.647   3.777  13.018 -0.6400 -0.0957 -0.4764
  486MPD2    H5 7288   1.675   3.750  12.924 -0.6194  0.2578 -0.5735
  486MPD2    N1 7289   1.533   3.323  13.078  0.5564 -0.2382  0.5374
  486MPD2    H7 7290   1.501   3.257  13.148  1.7877 -1.8233 -0.3812
  487TMC3    C1 7291   1.596   3.134  12.978  0.3696 -0.1560  0.0533
  487TMC3    C2 7292   1.465   3.088  12.987  0.1808 -0.1285 -0.0343
  487TMC3    C3 7293   1.436   2.965  13.044 -0.3395 -0.0832  0.3365
  487TMC3    C4 7294   1.687   3.063  13.044  0.3638  0.7235 -0.8262
  487TMC3    C5 7295   1.658   2.955  13.118 -0.5895  0.7355  0.3355
  487TMC3    C6 7296   1.534   2.893  13.103  0.3912  0.0923 -0.3423
  487TMC3     C 7297   1.614   3.274  12.974 -0.9029  0.5773 -0.1725
  487TMC3     O 7298   1.710   3.315  12.911  0.3300  0.1108 -0.4650
  487TMC3     H 7299   1.387   3.157  12.958  2.0112  2.3430  1.0238
  487TMC3    H1 7300   1.788   3.101  13.050  1.1075 -1.5891  1.5289
  487TMC3    H2 7301   1.519   2.808  13.168 -1.1447  1.4665  1.1050
  487TMC3    C7 7302   1.730   2.943  13.239  0.1257  0.4231 -0.2216
  487TMC3    C8 7303   1.305   2.934  13.082  0.7183 -0.0509 -0.1680
  487TMC3    O1 7304   1.801   3.032  13.286  0.4677 -0.1632  0.3505
  487TMC3    O2 7305   1.240   3.032  13.114  0.1759  0.1262  0.1418
  488MPD2     C 7306   2.377   0.393  16.615 -0.0971 -0.3876 -0.1378
  488MPD2    C1 7307   2.399   0.517  16.680 -0.2592  0.2043 -0.1223
  488MPD2    C2 7308   2.374   0.525  16.814 -0.1240 -0.3070 -0.6147
  488MPD2    C3 7309   2.321   0.420  16.890  0.3070  0.5673 -0.5696
  488MPD2    C4 7310   2.279   0.312  16.824  0.0747  0.5044  0.5240
  488MPD2    C5 7311   2.310   0.301  16.688 -0.4565  0.6698 -0.4311
  488MPD2     H 7312   2.394   0.618  16.865 -1.7159 -0.6295  0.6025
  488MPD2    H1 7313   2.244   0.223  16.875 -1.4316  0.8138  0.0328
  488MPD2    H2 7314   2.378   0.379  16.508  1.3197 -1.3193 -0.0027
  488MPD2    H3 7315   2.285   0.203  16.649  0.1550  0.9800 -1.6033
  488MPD2     N 7316   2.322   0.430  17.031 -0.1118 -0.2893  0.8287
  488MPD2    H5 7317   2.345   0.520  17.073  1.7928 -2.3605  4.1907
  488MPD2    N1 7318   2.450   0.630  16.610 -0.0800  1.0282  0.1608
  488MPD2    H7 7319   2.475   0.711  16.666 -0.0418  0.5573  0.8269
  489TMC3    C1 7320   2.268   0.358  17.259 -0.0092 -0.0181  0.0677
  489TMC3    C2 7321   2.331   0.473  17.304  1.2210  0.4699  0.0761
  489TMC3    C3 7322   2.301   0.508  17.429  0.1071 -0.3482  0.0818
  489TMC3    C4 7323   2.186   0.282  17.338 -0.4914 -0.0907  0.1034
  489TMC3    C5 7324   2.161   0.314  17.468  0.2812 -0.0600 -0.6130
  489TMC3    C6 7325   2.222   0.436  17.512  1.0468  0.1174  0.0400
  489TMC3     C 7326   2.277   0.324  17.120 -0.1731  0.0276 -0.1489
  489TMC3     O 7327   2.250   0.207  17.097 -0.5120 -0.3298 -0.2673
  489TMC3     H 7328   2.391   0.531  17.236  0.9109  0.4033 -0.2590
  489TMC3    H1 7329   2.154   0.185  17.302 -0.1044 -0.3622  0.4858
  489TMC3    H2 7330   2.207   0.465  17.616  0.2207 -1.1642  0.2740
  489TMC3    C7 7331   2.104   0.226  17.565 -0.0081 -0.0263 -0.1274
  489TMC3    C8 7332   2.307   0.651  17.448 -0.3047  0.3440  0.2155
  489TMC3    O1 7333   2.137   0.230  17.681 -0.4226  0.0744  0.0984
  489TMC3    O2 7334   2.406   0.706  17.491  0.2869  0.3961 -0.0791
  490MPD2     C 7335   3.448   0.402  17.360  0.0691 -0.5353  0.1173
  490MPD2    C1 7336   3.399   0.348  17.481 -0.0334  0.2975 -0.3618
  490MPD2    C2 7337   3.496   0.315  17.571 -0.2510 -0.3695 -0.3957
  490MPD2    C3 7338   3.632   0.333  17.545 -0.2854  0.4244 -0.7167
  490MPD2    C4 7339   3.675   0.380  17.424 -0.3446 -0.5618 -0.3848
  490MPD2    C5 7340   3.581   0.410  17.331 -0.0604 -0.7902  0.8175
  490MPD2     H 7341   3.461   0.282  17.668  0.4925 -2.2349 -0.7561
  490MPD2    H1 7342   3.782   0.381  17.403 -0.4352  0.8722 -0.7682
  490MPD2    H2 7343   3.390   0.440  17.277  1.4125 -0.0730 -0.6167
  490MPD2    H3 7344   3.619   0.450  17.238  1.7396  0.2000  1.9961
  490MPD2     N 7345   3.730   0.312  17.648 -0.6568 -0.5091 -0.5445
  490MPD2    H5 7346   3.828   0.322  17.624 -0.3243  0.1583  1.1314
  490MPD2    N1 7347   3.259   0.319  17.512  0.0386 -0.2349 -0.3934
  490MPD2    H7 7348   3.239   0.271  17.599 -2.3250  3.0609  0.8485
  491TMC3    C1 7349   3.027   0.293  17.492  0.2277  0.1985  0.0410
  491TMC3    C2 7350   3.031   0.258  17.627 -0.1351  0.6148 -0.1612
  491TMC3    C3 7351   2.953   0.149  17.672  0.1470  0.3924 -0.3668
  491TMC3    C4 7352   2.934   0.225  17.406  0.8430 -0.0513 -0.1310
  491TMC3    C5 7353   2.852   0.134  17.458  0.0313 -0.2394  1.1758
  491TMC3    C6 7354   2.861   0.098  17.585 -0.2357  0.0858 -0.0330
  491TMC3     C 7355   3.150   0.352  17.431 -0.7982  0.9263  0.7221
  491TMC3     O 7356   3.144   0.386  17.317 -0.3206  0.2640  0.0019
  491TMC3     H 7357   3.089   0.312  17.701  0.2975  2.5772 -1.9441
  491TMC3    H1 7358   2.938   0.223  17.298 -1.1602  4.0196 -0.3017
  491TMC3    H2 7359   2.794   0.020  17.619  0.3619 -0.1826  0.5231
  491TMC3    C7 7360   2.796   0.041  17.372 -0.5777  0.2512  0.7126
  491TMC3    C8 7361   2.938   0.119   0.047  0.0179 -0.7975 -0.3391
  491TMC3    O1 7362   2.793   4.659  17.397  0.1830 -0.4029  0.4142
  491TMC3    O2 7363   2.823   0.094   0.084  0.0265  0.0745 -0.4052
  492MPD2     C 7364   3.305   4.407  11.794 -0.0796 -0.1397  0.3236
  492MPD2    C1 7365   3.199   4.360  11.725  0.5408  0.2161  0.0341
  492MPD2    C2 7366   3.127   4.257  11.784 -0.2342  0.5806 -0.3255
  492MPD2    C3 7367   3.163   4.206  11.910  0.0715  0.3376  0.5209
  492MPD2    C4 7368   3.271   4.261  11.971  0.1883 -0.5705 -0.3383
  492MPD2    C5 7369   3.343   4.368  11.917 -0.5906  0.0125 -0.6971
  492MPD2     H 7370   3.042   4.216  11.731  0.5351 -1.5198  0.0621
  492MPD2    H1 7371   3.313   4.219  12.062 -0.8521  0.4869  0.6262
  492MPD2    H2 7372   3.355   4.497  11.760 -0.0305  0.1306  1.1046
  492MPD2    H3 7373   3.427   4.409  11.972 -2.3890  1.5246  0.9439
  492MPD2     N 7374   3.091   4.103  11.981 -0.4692  0.3499  0.4346
  492MPD2    H5 7375   3.113   4.079  12.077 -0.6378 -2.0414 -0.1207
  492MPD2    N1 7376   3.180   4.415  11.594 -0.2912 -0.0504  0.4276
  492MPD2    H7 7377   3.242   4.491  11.570 -0.5297  0.0441  0.0967
  493TMC3    C1 7378   3.088   4.449  11.375  0.3235 -0.4107 -0.5323
  493TMC3    C2 7379   3.164   4.562  11.359 -0.0621  0.4320  0.2228
  493TMC3    C3 7380   3.166   4.623  11.235 -0.1135 -0.2085  0.1366
  493TMC3    C4 7381   3.008   4.400  11.278  0.3906 -0.3996  0.1236
  493TMC3    C5 7382   3.001   4.474  11.165  0.6946  0.1289 -0.1671
  493TMC3    C6 7383   3.077   4.582  11.132 -0.4393 -0.0944  0.0621
  493TMC3     C 7384   3.088   4.371  11.501  0.0324 -0.2659 -0.2448
  493TMC3     O 7385   3.015   4.273  11.508 -0.5632 -0.3581 -0.1100
  493TMC3     H 7386   3.218   4.601  11.445 -1.2799  0.4278  0.9921
  493TMC3    H1 7387   2.942   4.317  11.302 -0.5416 -0.9903 -4.5603
  493TMC3    H2 7388   3.065   4.648  11.047 -1.9255 -1.0596 -0.4681
  493TMC3    C7 7389   2.890   4.435  11.071  1.2011  0.4008 -0.4391
  493TMC3    C8 7390   3.259   4.736  11.215  0.1765  0.2787 -0.3080
  493TMC3    O1 7391   2.862   4.509  10.976  0.6998  0.2314 -0.9407
  493TMC3    O2 7392   3.330   0.021  11.311  0.0868  0.0527 -0.8690
  494TMC3    C1 7393   3.807   2.173   0.585  0.1022  0.8068 -0.4300
  494TMC3    C2 7394   3.891   2.059   0.586 -0.4588  0.9374  0.3886
  494TMC3    C3 7395   3.966   2.030   0.479  0.2578  0.3468 -0.2918
  494TMC3    C4 7396   3.812   2.264   0.483  0.0187 -0.9032 -0.5370
  494TMC3    C5 7397   3.896   2.232   0.382 -0.6229  0.1041  0.3054
  494TMC3    C6 7398   3.974   2.116   0.374  0.3840  0.6234  0.3725
  494TMC3     C 7399   3.732   2.212   0.696 -0.3968  0.0373 -0.6392
  494TMC3     O 7400   3.763   2.170   0.806 -0.2593 -0.3798 -0.1593
  494TMC3     H 7401   3.870   1.998   0.673 -0.6737 -0.5112 -0.6690
  494TMC3    H1 7402   3.763   2.360   0.491  1.0398 -0.6377  2.4305
  494TMC3    H2 7403   4.040   2.094   0.291  1.9718  1.2427  1.4682
  494TMC3    C7 7404   3.905   2.319   0.267 -0.0413 -0.2102  1.0320
  494TMC3    C8 7405   4.043   1.907   0.462 -0.3323 -0.5267  1.0316
  494TMC3    O1 7406   3.936   2.259   0.165  0.0980  0.4616 -0.9213
  494TMC3    O2 7407   4.148   1.909   0.395 -0.3816  0.3762  0.1765
  495TMC3    C1 7408   2.416   3.976  14.740 -0.3219  0.1360 -0.0548
  495TMC3    C2 7409   2.328   3.986  14.640 -0.2087 -0.1900  0.1923
  495TMC3    C3 7410   2.202   3.940  14.654 -0.4218  0.1535  0.1050
  495TMC3    C4 7411   2.389   3.906  14.852  0.2068 -0.2026  0.2145
  495TMC3    C5 7412   2.260   3.864  14.870 -0.3263  0.8686  0.3414
  495TMC3    C6 7413   2.163   3.883  14.772 -0.3985  0.0347 -0.3504
  495TMC3     C 7414   2.553   4.003  14.713  0.1599 -0.4277  0.0349
  495TMC3     O 7415   2.641   3.935  14.767 -0.2968 -0.2121 -0.1017
  495TMC3     H 7416   2.356   4.035  14.547  2.5329  0.2885  1.2794
  495TMC3    H1 7417   2.467   3.895  14.927  1.2878  0.7474 -0.7663
  495TMC3    H2 7418   2.063   3.845  14.786  0.4925 -1.9620  0.6097
  495TMC3    C7 7419   2.234   3.809  14.999  0.4032  0.4605 -0.2421
  495TMC3    C8 7420   2.127   3.894  14.541 -0.0325  0.1872 -0.4231
  495TMC3    O1 7421   2.332   3.796  15.073 -0.4427 -0.2902  0.5438
  495TMC3    O2 7422   2.007   3.872  14.550 -0.4259  0.2236  0.0015
  496MPD2     C 7423   4.438   3.382  15.087 -0.1892  0.0689 -0.1222
  496MPD2    C1 7424   4.502   3.366  15.209 -0.2299 -0.3489  0.1466
  496MPD2    C2 7425   4.434   3.396  15.322 -0.5312  0.3743 -0.8331
  496MPD2    C3 7426   4.300   3.445  15.316 -0.3007 -0.2011 -0.4220
  496MPD2    C4 7427   4.237   3.464  15.191 -0.4037  0.2114  0.0668
  496MPD2    C5 7428   4.309   3.437  15.078 -0.0611  0.4149 -0.5065
  496MPD2     H 7429   4.476   3.389  15.421  2.2044 -2.0406 -2.1541
  496MPD2    H1 7430   4.141   3.512  15.176 -1.7492 -2.5457 -0.0346
  496MPD2    H2 7431   4.495   3.361  14.997 -0.5356  2.5441 -0.9426
  496MPD2    H3 7432   4.265   3.450  14.980  0.9934 -1.9280 -1.2811
  496MPD2     N 7433   4.229   3.470  15.444 -0.3696  0.0099  0.2421
  496MPD2    H5 7434   4.282   3.465  15.530  1.6870 -0.6445 -1.0499
  496MPD2    N1 7435   4.624   3.294  15.207 -0.1498 -0.7829  0.1532
  496MPD2    H7 7436   4.662   3.270  15.116  2.0269  0.1581  0.8087
  497TMC3    C1 7437   4.082   3.553  15.600 -0.2210 -0.1263 -0.2905
  497TMC3    C2 7438   3.955   3.598  15.634 -0.7480  0.3092 -0.2685
  497TMC3    C3 7439   3.935   3.630  15.768  0.5512 -0.1540 -0.0006
  497TMC3    C4 7440   4.186   3.562  15.687  0.3269 -0.0830 -0.1600
  497TMC3    C5 7441   4.166   3.596  15.813 -0.0707 -0.4137 -0.1904
  497TMC3    C6 7442   4.036   3.624  15.863  0.8654  0.0674 -0.2466
  497TMC3     C 7443   4.102   3.525  15.457  0.0818  0.0125  0.0767
  497TMC3     O 7444   4.008   3.524  15.378 -0.3204 -1.0921 -0.3309
  497TMC3     H 7445   3.870   3.601  15.566 -1.9350  3.1656  1.3274
  497TMC3    H1 7446   4.292   3.557  15.662  0.8674 -0.2732  2.2014
  497TMC3    H2 7447   4.017   3.644  15.968  1.2319 -1.0155  0.0270
  497TMC3    C7 7448   4.277   3.574  15.901 -0.1712 -0.3916  0.3494
  497TMC3    C8 7449   3.812   3.668  15.829 -0.1737  0.9247 -0.2367
  497TMC3    O1 7450   4.374   3.508  15.873  0.1068  0.0028 -0.0080
  497TMC3    O2 7451   3.811   3.718  15.942 -0.3615 -0.3896  0.0838
  498MPD2     C 7452   4.708   4.483   9.970 -0.7900  0.3600 -0.3388
  498MPD2    C1 7453   4.735   4.464  10.109  0.1295 -0.5574 -0.1893
  498MPD2    C2 7454   4.677   4.363  10.179 -0.9743  0.1019  0.5263
  498MPD2    C3 7455   4.611   4.259  10.110 -0.0373 -0.7389 -0.0572
  498MPD2    C4 7456   4.599   4.277   9.979 -0.6060  0.1905  0.7029
  498MPD2    C5 7457   4.644   4.384   9.912 -0.5573  0.6072 -0.2883
  498MPD2     H 7458   4.681   4.361  10.287 -1.2712  0.1132  0.5363
  498MPD2    H1 7459   4.560   4.206   9.906 -0.7504  0.1267  0.8424
  498MPD2    H2 7460   4.735   4.566   9.907  0.8603 -0.5851 -0.8769
  498MPD2    H3 7461   4.627   4.394   9.806  1.0268  3.1579 -0.3137
  498MPD2     N 7462   4.563   4.149  10.186 -0.2474 -0.1704 -0.2156
  498MPD2    H5 7463   4.584   4.146  10.285 -0.8340 -0.2606 -0.0946
  498MPD2    N1 7464   0.061   4.560  10.180  0.5598  0.4063  0.1496
  498MPD2    H7 7465   0.046   4.555  10.280  0.7840 -2.2575  0.0306
  499TMC3    C1 7466   0.214   4.734  10.224  0.2721  1.2955  0.4858
  499TMC3    C2 7467   0.153   0.010  10.348 -0.3007 -0.3847  0.1688
  499TMC3    C3 7468   0.223   0.080  10.443  0.2811  0.5311 -0.4655
  499TMC3    C4 7469   0.341   0.039  10.194  0.3517  0.6789  0.0467
  499TMC3    C5 7470   0.418   0.084  10.300  0.1703 -0.2218  0.5333
  499TMC3    C6 7471   0.354   0.100  10.417  0.0261  0.4104 -0.5226
  499TMC3     C 7472   0.145   4.656  10.124  0.5946 -0.3073  0.6104
  499TMC3     O 7473   0.190   4.659  10.014  0.5003 -0.0508  0.0063
  499TMC3     H 7474   0.045   0.004  10.349 -0.3115 -0.1922  0.2665
  499TMC3    H1 7475   0.386   0.004  10.102  1.2504 -0.0571  0.7577
  499TMC3    H2 7476   0.420   0.148  10.488 -1.6699 -0.7020  1.8210
  499TMC3    C7 7477   0.543   0.148  10.265  0.3109  0.4584 -0.0189
  499TMC3    C8 7478   0.174   0.080  10.582 -0.0436  0.5557  0.5048
  499TMC3    O1 7479   0.582   0.133  10.149 -0.0412  0.5448  0.2309
  499TMC3    O2 7480   0.080   0.003  10.596  0.3691 -0.5784 -0.8292
  500MPD2     C 7481   2.296   1.121  10.843 -0.1524  0.5124  0.0925
  500MPD2    C1 7482   2.329   1.157  10.716  0.1053 -0.0122 -0.9820
  500MPD2    C2 7483   2.224   1.190  10.634  0.2709  0.0963  0.4545
  500MPD2    C3 7484   2.093   1.187  10.678  0.1123 -0.1925  0.3964
  500MPD2    C4 7485   2.061   1.158  10.808  0.1872  0.0097 -0.0979
  500MPD2    C5 7486   2.164   1.128  10.888 -0.7038 -0.1091  0.2746
  500MPD2     H 7487   2.250   1.210  10.531 -0.0640 -1.5783  0.0386
  500MPD2    H1 7488   1.959   1.138  10.840  0.3319  0.5472  0.7046
  500MPD2    H2 7489   2.357   1.057  10.905 -0.5751 -0.4181 -0.4600
  500MPD2    H3 7490   2.147   1.105  10.992 -0.0710 -1.2367  0.1310
  500MPD2     N 7491   1.984   1.200  10.589 -0.0841  0.2847  0.0611
  500MPD2    H5 7492   1.892   1.178  10.625  1.0018 -2.6210  1.0895
  500MPD2    N1 7493   2.461   1.152  10.659 -0.1739 -0.4188 -0.4835
  500MPD2    H7 7494   2.467   1.188  10.564  1.2762  2.1628  0.5668
  501TMC3    C1 7495   2.694   1.117  10.643  0.3416 -0.0939  0.6598
  501TMC3    C2 7496   2.683   1.114  10.510  0.0663  0.5467  0.2170
  501TMC3    C3 7497   2.798   1.084  10.443  0.3140  0.3614  0.4076
  501TMC3    C4 7498   2.805   1.084  10.704 -0.4545 -0.3744 -0.2718
  501TMC3    C5 7499   2.921   1.058  10.640  0.0661 -0.3393  0.4631
  501TMC3    C6 7500   2.920   1.061  10.502 -0.4041  0.1403  0.2323
  501TMC3     C 7501   2.575   1.108  10.725  0.3985  0.3345 -0.5937
  501TMC3     O 7502   2.582   1.053  10.831 -0.3372  0.6553  0.2099
  501TMC3     H 7503   2.589   1.109  10.456  1.1952 -2.0058 -1.5005
  501TMC3    H1 7504   2.802   1.062  10.810 -1.2682  0.4950 -0.1144
  501TMC3    H2 7505   3.005   1.026  10.445 -0.9365 -3.3267  1.5749
  501TMC3    C7 7506   3.009   0.960  10.700  1.3394 -0.0883  0.4326
  501TMC3    C8 7507   2.809   1.129  10.305 -0.2762  0.7466 -0.1598
  501TMC3    O1 7508   2.972   0.911  10.807 -0.1830  0.0043 -0.1054
  501TMC3    O2 7509   2.921   1.171  10.274  0.3570 -0.0355  0.6002
  502TMC3    C1 7510   1.836   4.014  15.159 -0.2348 -0.1585 -0.5343
  502TMC3    C2 7511   1.853   4.098  15.052 -0.0911  0.2281  0.0525
  502TMC3    C3 7512   1.751   4.183  15.018  0.2856 -0.2711  0.2042
  502TMC3    C4 7513   1.717   4.013  15.222 -0.5945  0.5657  0.1109
  502TMC3    C5 7514   1.610   4.082  15.183 -0.0157  0.3571  0.1508
  502TMC3    C6 7515   1.625   4.165  15.074  0.3929  0.2163 -0.2109
  502TMC3     C 7516   1.941   4.024  15.261 -0.3363  0.4702 -0.0594
  502TMC3     O 7517   2.062   4.019  15.229 -0.1710  0.0468  0.2195
  502TMC3     H 7518   1.950   4.103  15.004  0.3813 -0.3218  0.9485
  502TMC3    H1 7519   1.698   3.930  15.290  1.1825 -0.3669 -0.5469
  502TMC3    H2 7520   1.549   4.241  15.058  0.3666  0.1093 -0.5932
  502TMC3    C7 7521   1.536   4.141  15.290 -0.1211  0.6302  1.2567
  502TMC3    C8 7522   1.783   4.329  14.987 -0.0316 -0.4828 -0.2086
  502TMC3    O1 7523   1.586   4.146  15.404 -0.6538  0.5730  0.2134
  502TMC3    O2 7524   1.690   4.407  14.996  0.2125  0.6247 -0.0720
  503MPD2     C 7525   4.535   0.613  17.086  0.1285 -0.1011 -0.4684
  503MPD2    C1 7526   4.539   0.711  17.183  0.0961 -0.5784 -0.0873
  503MPD2    C2 7527   4.599   0.684  17.301 -0.0825 -0.5271 -0.0960
  503MPD2    C3 7528   4.655   0.563  17.327  0.1508 -0.0373 -0.4143
  503MPD2    C4 7529   4.642   0.461  17.238  0.0608  0.5440  0.2045
  503MPD2    C5 7530   4.579   0.491  17.121 -0.5688 -0.1518 -0.1433
  503MPD2     H 7531   4.586   0.755  17.382 -2.4298 -0.3745 -0.6292
  503MPD2    H1 7532   4.691   0.367  17.259 -2.4274 -0.9608 -0.7260
  503MPD2    H2 7533   4.500   0.627  16.984 -1.5260  2.1023  0.3980
  503MPD2    H3 7534   4.576   0.413  17.045  0.8057  2.3276 -2.7579
  503MPD2     N 7535   4.735   0.541  17.445  0.2012  0.0746  0.0827
  503MPD2    H5 7536   0.027   0.621  17.498 -0.0253  0.3357 -0.1680
  503MPD2    N1 7537   4.505   0.848  17.164  0.5394 -0.0045 -0.5440
  503MPD2    H7 7538   4.528   0.912  17.239 -1.1456  4.1196 -3.5700
  504TMC3    C1 7539   0.116   0.434  17.607 -0.1947  0.1270 -0.9408
  504TMC3    C2 7540   0.107   0.346  17.702  1.1180 -0.3259  0.4407
  504TMC3    C3 7541   0.200   0.348   0.035 -0.6180 -0.3846  0.1592
  504TMC3    C4 7542   0.226   0.516  17.584 -0.2339  0.0992 -0.3448
  504TMC3    C5 7543   0.327   0.501  17.671  0.0553 -0.2881 -0.2739
  504TMC3    C6 7544   0.313   0.425   0.029 -0.0524 -0.4474 -0.4680
  504TMC3     C 7545   0.017   0.420  17.504 -0.5848  0.4624  0.3781
  504TMC3     O 7546   4.719   0.306  17.474  0.2249 -0.0303 -0.2335
  504TMC3     H 7547   0.017   0.287  17.715 -1.3811  3.6227  1.0642
  504TMC3    H1 7548   0.238   0.575  17.494 -0.7809 -1.1512 -1.2439
  504TMC3    H2 7549   0.397   0.435   0.098 -0.0438 -1.7740 -0.2821
  504TMC3    C7 7550   0.455   0.501  17.601  0.0942 -0.3124  0.2866
  504TMC3    C8 7551   0.177   0.254   0.147 -0.0828  0.5443 -0.2181
  504TMC3    O1 7552   0.448   0.547  17.488  0.3439 -0.2665 -0.2680
  504TMC3    O2 7553   0.072   0.194   0.141 -0.2320 -0.4428  0.1790
  505MPD2     C 7554   4.176   3.363  10.926  0.2258  0.8309  0.3952
  505MPD2    C1 7555   4.270   3.278  10.977  1.0074 -0.5633 -0.4628
  505MPD2    C2 7556   4.359   3.319  11.072  0.5439 -0.1144 -0.0731
  505MPD2    C3 7557   4.364   3.454  11.106 -0.9273  0.4898 -0.8256
  505MPD2    C4 7558   4.279   3.542  11.052 -0.0369  0.4728 -0.3502
  505MPD2    C5 7559   4.185   3.492  10.963  0.4013 -0.3012 -0.0008
  505MPD2     H 7560   4.441   3.256  11.105  0.6569  1.1621  2.1032
  505MPD2    H1 7561   4.269   3.647  11.077  2.2682  1.0274 -1.6837
  505MPD2    H2 7562   4.094   3.323  10.868 -1.2262  0.7273  2.5063
  505MPD2    H3 7563   4.107   3.556  10.922 -1.0247 -1.3026  1.1933
  505MPD2     N 7564   4.464   3.490  11.202  0.4668 -0.6452  0.0947
  505MPD2    H5 7565   4.518   3.413  11.240  1.6320  1.2963  2.3949
  505MPD2    N1 7566   4.272   3.151  10.923 -0.3166 -0.2922 -0.0051
  505MPD2    H7 7567   4.209   3.131  10.847  0.3145  0.0811 -0.6276
  506TMC3    C1 7568   4.347   2.930  10.874  0.1633  0.1365 -0.2338
  506TMC3    C2 7569   4.364   2.956  10.735  0.2460  0.4488  0.8301
  506TMC3    C3 7570   4.440   2.869  10.660 -0.3263  0.2428  0.3838
  506TMC3    C4 7571   4.401   2.821  10.935 -0.3139 -0.8360 -0.1814
  506TMC3    C5 7572   4.501   2.757  10.859 -0.3989 -0.1809  0.1481
  506TMC3    C6 7573   4.510   2.772  10.722 -0.8502  0.1295 -0.7490
  506TMC3     C 7574   4.349   3.044  10.966 -0.0511 -0.3523  0.1701
  506TMC3     O 7575   4.420   3.034  11.064 -0.0062  0.3737  0.3953
  506TMC3     H 7576   4.321   3.048  10.699 -0.6953 -0.0860  0.5729
  506TMC3    H1 7577   4.407   2.795  11.040  0.9417 -1.4599 -0.4131
  506TMC3    H2 7578   4.590   2.733  10.660  0.7698  0.3584  1.2364
  506TMC3    C7 7579   4.629   2.763  10.926  0.3356  0.1766 -0.2571
  506TMC3    C8 7580   4.476   2.905  10.526 -0.3473  0.1721  0.0808
  506TMC3    O1 7581   4.730   2.704  10.889  0.5494  0.1206  0.3977
  506TMC3    O2 7582   4.473   2.819  10.437  0.1374 -0.0137 -0.1761
  507TMC3    C1 7583   0.482   4.703  14.633  0.8058 -0.3866 -0.0522
  507TMC3    C2 7584   0.382   4.618  14.589  0.0537 -0.2754 -0.4155
  507TMC3    C3 7585   0.288   4.673  14.503  0.4303 -0.2174  0.2688
  507TMC3    C4 7586   0.507   0.085  14.575  0.0049 -0.6118  0.4057
  507TMC3    C5 7587   0.411   0.136  14.496 -0.2174 -0.1759 -0.5666
  507TMC3    C6 7588   0.296   0.061  14.465  0.0448  0.1764  0.2910
  507TMC3     C 7589   0.483   4.729  14.768 -0.4282  0.1265  0.4526
  507TMC3     O 7590   0.582   0.040  14.815 -0.2810 -0.1580 -0.1336
  507TMC3     H 7591   0.377   4.520  14.636 -0.3728 -0.2187 -0.3495
  507TMC3    H1 7592   0.599   0.134  14.602 -0.4537 -0.0203  0.8949
  507TMC3    H2 7593   0.229   0.102  14.391  0.0166 -0.4031 -0.0078
  507TMC3    C7 7594   0.352   0.256  14.555 -0.4001  0.0562 -0.3074
  507TMC3    C8 7595   0.156   4.634  14.539  0.6913  0.2211 -0.3596
  507TMC3    O1 7596   0.233   0.249  14.564 -0.0939 -0.0673 -0.6535
  507TMC3    O2 7597   0.145   4.518  14.580 -0.1001 -0.2558  0.1875
  508MPD2     C 7598   1.579   2.310  16.407 -0.0394  0.0429  0.4593
  508MPD2    C1 7599   1.510   2.415  16.460  0.7494  0.3779  0.0464
  508MPD2    C2 7600   1.444   2.502  16.378 -0.9808  0.2514  0.4763
  508MPD2    C3 7601   1.429   2.480  16.241  0.3412 -0.7900 -0.1954
  508MPD2    C4 7602   1.499   2.374  16.198  1.0567 -0.0091 -0.2873
  508MPD2    C5 7603   1.572   2.292  16.273 -0.3071  0.5283 -0.5289
  508MPD2     H 7604   1.397   2.590  16.420 -0.5744  0.0434  1.3757
  508MPD2    H1 7605   1.496   2.355  16.091 -2.7120 -1.5090  0.1114
  508MPD2    H2 7606   1.647   2.246  16.463 -0.8285  0.0326  1.4181
  508MPD2    H3 7607   1.636   2.217  16.229 -0.4041  0.5515 -0.7076
  508MPD2     N 7608   1.350   2.556  16.164  0.7449 -0.3660  0.2130
  508MPD2    H5 7609   1.306   2.634  16.211 -1.0654 -1.3296  0.1254
  508MPD2    N1 7610   1.529   2.443  16.598 -0.0009 -0.1426 -0.1561
  508MPD2    H7 7611   1.598   2.389  16.648 -0.3175  0.1076  0.5617
  509TMC3    C1 7612   1.192   2.791  15.777 -1.0196  0.6433 -0.0895
  509TMC3    C2 7613   1.163   2.901  15.855 -0.2437 -0.1750  0.2196
  509TMC3    C3 7614   1.175   2.885  15.992  0.1795  1.0980 -0.0542
  509TMC3    C4 7615   1.239   2.673  15.830 -0.4262 -0.3570 -0.0541
  509TMC3    C5 7616   1.253   2.663  15.970 -0.1650  0.0661  0.2076
  509TMC3    C6 7617   1.217   2.763  16.049  0.2760  0.1029 -0.2845
  509TMC3     C 7618   1.213   2.803  15.634  0.0516 -0.2741 -0.0448
  509TMC3     O 7619   1.286   2.717  15.586 -0.4050 -0.0867  0.6606
  509TMC3     H 7620   1.123   2.993  15.814  0.4958 -0.1495 -0.4345
  509TMC3    H1 7621   1.268   2.586  15.772 -0.5247 -0.1660 -0.3951
  509TMC3    H2 7622   1.229   2.755  16.157  0.3171 -1.4320 -0.4018
  509TMC3    C7 7623   1.336   2.551  16.025  0.0681  0.7212  0.7934
  509TMC3    C8 7624   1.187   2.994  16.083  0.0756 -0.7778  0.0554
  509TMC3    O1 7625   1.388   2.476  15.942 -0.3505  0.1122 -0.2017
  509TMC3    O2 7626   1.160   2.963  16.199 -0.1903  0.0157 -0.0093
  510MPD2     C 7627   3.644   4.420  14.632 -0.0022 -0.2024 -0.5036
  510MPD2    C1 7628   3.721   4.328  14.710 -0.5518 -0.5674 -0.1391
  510MPD2    C2 7629   3.846   4.312  14.673  0.5871 -0.4727  0.3413
  510MPD2    C3 7630   3.903   4.364  14.553 -0.0426 -0.0075 -0.3188
  510MPD2    C4 7631   3.830   4.464  14.480  0.8051  0.9147  0.0306
  510MPD2    C5 7632   3.702   4.494  14.526 -0.0550  0.1420 -0.1028
  510MPD2     H 7633   3.913   4.245  14.725 -0.1158 -0.6508  1.0254
  510MPD2    H1 7634   3.867   4.519  14.394  1.8494  2.2657  1.3382
  510MPD2    H2 7635   3.539   4.430  14.657 -0.1736 -1.1159 -0.8309
  510MPD2    H3 7636   3.634   4.562  14.476 -3.6222  0.0085  4.5523
  510MPD2     N 7637   4.038   4.324  14.525 -0.4472  0.0773  0.2075
  510MPD2    H5 7638   4.088   4.265  14.591 -1.2511  0.4107  1.1216
  510MPD2    N1 7639   3.663   4.265  14.818 -0.2334 -0.2327 -0.4366
  510MPD2    H7 7640   3.568   4.290  14.846  0.6602  1.3531  1.1841
  511TMC3    C1 7641   3.619   4.086  14.972  0.1560  0.0295 -0.2957
  511TMC3    C2 7642   3.549   4.158  15.060  0.3354 -0.4886  0.1201
  511TMC3    C3 7643   3.465   4.091  15.140  0.4321  0.6888  0.2383
  511TMC3    C4 7644   3.637   3.951  14.972  0.0019 -0.9141  0.0894
  511TMC3    C5 7645   3.548   3.881  15.049 -0.2083  0.1531 -0.4405
  511TMC3    C6 7646   3.458   3.954  15.130  0.1142 -0.2953  0.0700
  511TMC3     C 7647   3.720   4.157  14.892  0.0568 -0.1084 -0.2013
  511TMC3     O 7648   3.825   4.101  14.866  0.5837 -0.3135  0.1995
  511TMC3     H 7649   3.559   4.266  15.060 -0.6783 -0.3940 -1.6564
  511TMC3    H1 7650   3.712   3.900  14.912  1.7790 -0.4168  1.8693
  511TMC3    H2 7651   3.367   3.907  15.165 -0.6742  0.6804 -0.6461
  511TMC3    C7 7652   3.513   3.748  14.995 -0.4343  0.0621 -0.0243
  511TMC3    C8 7653   3.420   4.151  15.270  0.0928 -0.3771  0.1205
  511TMC3    O1 7654   3.535   3.734  14.874 -0.0543 -0.5410  0.1642
  511TMC3    O2 7655   3.428   4.272  15.276  0.0295 -0.2845 -0.7133
  512TMC3    C1 7656   2.346   3.203  13.586 -0.1329 -0.1848 -0.2328
  512TMC3    C2 7657   2.474   3.219  13.625 -0.3319  0.6364  0.5518
  512TMC3    C3 7658   2.519   3.155  13.735  0.1604 -0.5814  0.2127
  512TMC3    C4 7659   2.255   3.124  13.664 -0.9220 -0.4393 -0.0145
  512TMC3    C5 7660   2.317   3.059  13.766 -0.1911  0.0088  0.0588
  512TMC3    C6 7661   2.447   3.072  13.809 -0.4210 -0.5840  0.2964
  512TMC3     C 7662   2.289   3.302  13.500 -0.0945 -0.8515 -0.0089
  512TMC3     O 7663   2.359   3.356  13.415  0.1898 -0.0658  0.1754
  512TMC3     H 7664   2.527   3.306  13.590  1.9126  0.6649  4.0128
  512TMC3    H1 7665   2.162   3.097  13.616 -3.3335  1.4439  3.6567
  512TMC3    H2 7666   2.483   3.009  13.890 -0.1819 -1.6168 -0.6280
  512TMC3    C7 7667   2.259   2.932  13.794 -0.3816 -0.3198 -0.6267
  512TMC3    C8 7668   2.655   3.156  13.771  0.5262  0.2253 -0.0290
  512TMC3    O1 7669   2.180   2.918  13.885  0.6762  0.0996  0.5648
  512TMC3    O2 7670   2.699   3.061  13.837 -0.0624 -0.7915  0.5501
  513MPD2     C 7671   4.098   3.916  13.373 -0.0949  0.1132 -1.3316
  513MPD2    C1 7672   4.169   3.806  13.352 -0.5177  0.2514 -0.1518
  513MPD2    C2 7673   4.166   3.705  13.439  0.3045  0.1214 -0.4995
  513MPD2    C3 7674   4.089   3.705  13.554  0.5587  0.5851  0.3124
  513MPD2    C4 7675   4.010   3.816  13.574  0.1872  0.3974  0.0336
  513MPD2    C5 7676   4.010   3.925  13.487 -0.0962 -0.3454 -0.0106
  513MPD2     H 7677   4.228   3.617  13.431 -0.8213 -0.8473  1.5742
  513MPD2    H1 7678   3.936   3.818  13.653 -0.8927 -0.2922 -0.9578
  513MPD2    H2 7679   4.107   4.002  13.307  2.0655  1.2498  0.4471
  513MPD2    H3 7680   3.956   4.015  13.510  1.9346  1.6921 -3.2137
  513MPD2     N 7681   4.082   3.585  13.627  0.4201 -0.4547 -0.2361
  513MPD2    H5 7682   4.120   3.500  13.586  1.2172 -0.7427  1.0967
  513MPD2    N1 7683   4.262   3.794  13.244  0.4066 -0.5582  0.1022
  513MPD2    H7 7684   4.293   3.700  13.219  1.6101 -0.0060 -0.4777
  514TMC3    C1 7685   4.395   3.833  13.069 -0.1587 -0.2793  0.5332
  514TMC3    C2 7686   4.529   3.860  13.059 -0.0093  0.5340  0.0457
  514TMC3    C3 7687   4.612   3.757  13.016  0.6400  0.1124  0.3021
  514TMC3    C4 7688   4.347   3.711  13.034  0.2309  0.3610  0.8370
  514TMC3    C5 7689   4.424   3.609  13.010  0.0578  0.2793  0.2958
  514TMC3    C6 7690   4.560   3.633  12.987 -0.8829  0.4667 -0.2366
  514TMC3     C 7691   4.329   3.896  13.175 -0.0938 -0.4616  0.2226
  514TMC3     O 7692   4.346   4.015  13.197 -0.0427 -0.2902 -0.1114
  514TMC3     H 7693   4.562   3.955  13.100  1.2520 -0.4746  1.3818
  514TMC3    H1 7694   4.239   3.705  13.035  0.3393 -1.4434  1.3285
  514TMC3    H2 7695   4.627   3.553  12.958 -0.6334  0.4279  0.4411
  514TMC3    C7 7696   4.390   3.504  13.100  0.4599  0.4709 -0.8043
  514TMC3    C8 7697   0.003   3.799  12.968 -0.3340  0.3067 -0.0511
  514TMC3    O1 7698   4.288   3.530  13.169  0.4033  0.1811 -0.1553
  514TMC3    O2 7699   0.060   3.882  13.039  0.2534  0.2640  0.2163
  515MPD2     C 7700   3.164   0.544  14.354 -0.3072  0.5209 -0.0673
  515MPD2    C1 7701   3.145   0.454  14.456  0.1011  0.1933 -0.0497
  515MPD2    C2 7702   3.193   0.485  14.584 -0.3330 -0.1440 -0.2375
  515MPD2    C3 7703   3.269   0.602  14.593 -0.2257  0.1783 -0.1823
  515MPD2    C4 7704   3.281   0.695  14.495 -0.3080 -0.4428  0.3474
  515MPD2    C5 7705   3.228   0.667  14.373  0.1004 -0.5716  0.8467
  515MPD2     H 7706   3.185   0.412  14.665 -0.9206 -1.0702 -1.1269
  515MPD2    H1 7707   3.332   0.789  14.513 -1.1188  0.0838 -0.1061
  515MPD2    H2 7708   3.132   0.519  14.253  0.9425 -0.9828 -0.0863
  515MPD2    H3 7709   3.241   0.736  14.291  0.3424  0.3310  1.6444
  515MPD2     N 7710   3.334   0.644  14.711  0.1159  0.2507  0.3633
  515MPD2    H5 7711   3.378   0.734  14.701  0.3028  0.2266  1.0025
  515MPD2    N1 7712   3.072   0.335  14.425  0.6667  0.2911  0.1438
  515MPD2    H7 7713   3.055   0.328  14.325  3.0062  0.6679 -0.2791
  516TMC3    C1 7714   2.980   0.117  14.456  0.4688 -1.1510  0.2363
  516TMC3    C2 7715   2.909   0.139  14.340 -0.2471 -0.3948  0.2800
  516TMC3    C3 7716   2.810   0.046  14.314 -0.6109 -0.0506  0.2081
  516TMC3    C4 7717   2.955   0.011  14.537  0.0950  0.8151 -0.1797
  516TMC3    C5 7718   2.843   4.671  14.511  0.7275 -0.3901 -0.4606
  516TMC3    C6 7719   2.775   4.692  14.394 -0.1299 -0.3293  0.7865
  516TMC3     C 7720   3.037   0.237  14.515 -0.4775  0.2787  0.1406
  516TMC3     O 7721   3.038   0.247  14.637  0.3578 -0.0789 -0.2466
  516TMC3     H 7722   2.924   0.219  14.268  2.8106 -1.2421 -0.0640
  516TMC3    H1 7723   3.000   0.011  14.636 -0.1102  0.9121 -0.0861
  516TMC3    H2 7724   2.687   4.638  14.362 -0.5514  1.3126 -0.8538
  516TMC3    C7 7725   2.765   4.605  14.617  0.0893 -0.1972 -0.3091
  516TMC3    C8 7726   2.719   0.063  14.198  0.4664  0.5746  0.4954
  516TMC3    O1 7727   2.778   4.659  14.724  0.0070  0.8702  0.3523
  516TMC3    O2 7728   2.604   0.058  14.233 -0.3315  0.4536  0.2088
  517MPD2     C 7729   3.062   2.456   0.051  0.0083  0.0887 -0.3712
  517MPD2    C1 7730   3.137   2.407   0.155  0.4348 -0.1786  0.0443
  517MPD2    C2 7731   3.218   2.488   0.236  0.0857  0.3618 -0.2078
  517MPD2    C3 7732   3.202   2.628   0.215  0.1618  0.0160 -0.2081
  517MPD2    C4 7733   3.114   2.673   0.118 -0.0611  0.2299 -0.5413
  517MPD2    C5 7734   3.055   2.589   0.031  0.0479 -0.7443 -0.5002
  517MPD2     H 7735   3.282   2.443   0.311  0.6057  0.3387 -0.6656
  517MPD2    H1 7736   3.101   2.781   0.107 -0.6703  0.3968  1.7753
  517MPD2    H2 7737   3.004   2.406  17.738  0.3611 -0.1679 -0.4753
  517MPD2    H3 7738   2.993   2.632  17.716  0.0934  0.2643  0.0227
  517MPD2     N 7739   3.255   2.731   0.300  0.0440 -0.3943  0.8293
  517MPD2    H5 7740   3.220   2.826   0.292  0.2544 -0.2869  1.2308
  517MPD2    N1 7741   3.166   2.266   0.162 -0.0181 -0.2478 -0.0099
  517MPD2    H7 7742   3.235   2.239   0.231  0.8628  1.7760 -0.0987
  518TMC3    C1 7743   3.161   2.034   0.124  0.2265  0.0332  0.2207
  518TMC3    C2 7744   3.091   1.928   0.070  0.0397  0.1605  0.0658
  518TMC3    C3 7745   3.165   1.818   0.023 -0.4336  0.3630 -0.4947
  518TMC3    C4 7746   3.296   2.031   0.138  0.7783  0.0422 -0.7679
  518TMC3    C5 7747   3.361   1.926   0.092  0.2843  0.5668  0.0921
  518TMC3    C6 7748   3.303   1.815   0.031  0.2961  0.0383  0.3129
  518TMC3     C 7749   3.096   2.164   0.101 -0.3548 -0.0705  0.1891
  518TMC3     O 7750   2.979   2.170   0.060  0.3679 -0.1112  0.0197
  518TMC3     H 7751   2.985   1.931   0.052  0.3023  1.5536 -1.2436
  518TMC3    H1 7752   3.354   2.121   0.157  0.8673 -0.4079  1.0334
  518TMC3    H2 7753   3.350   1.722   0.003 -0.6580 -0.2221 -0.3961
  518TMC3    C7 7754   3.505   1.903   0.130 -0.3362 -0.1541  0.5236
  518TMC3    C8 7755   3.107   1.703  17.724 -0.0978 -0.0184 -0.1887
  518TMC3    O1 7756   3.560   1.977   0.206 -0.4568 -0.0896  0.2034
  518TMC3    O2 7757   3.184   1.629  17.664 -0.2394 -0.3107 -0.6711
  519MPD2     C 7758   4.276   0.468  14.477 -0.1554  0.1440  0.8443
  519MPD2    C1 7759   4.164   0.422  14.410 -0.8330 -0.4305  0.5359
  519MPD2    C2 7760   4.169   0.291  14.352 -0.0206  0.3797  0.0955
  519MPD2    C3 7761   4.284   0.215  14.357 -0.6939  0.3203 -0.3135
  519MPD2    C4 7762   4.395   0.266  14.421  0.2870 -0.1152 -0.0369
  519MPD2    C5 7763   4.385   0.388  14.488  0.0985 -0.4065 -0.4188
  519MPD2     H 7764   4.086   0.263  14.287 -0.6196  1.7326  0.2644
  519MPD2    H1 7765   4.488   0.210  14.423  1.3449  1.5716 -1.5562
  519MPD2    H2 7766   4.280   0.570  14.511 -1.7198  1.0603 -1.6927
  519MPD2    H3 7767   4.478   0.424  14.531  1.1622  0.1882 -3.2069
  519MPD2     N 7768   4.309   0.097  14.279  0.1772 -0.9918  0.4529
  519MPD2    H5 7769   4.403   0.063  14.265  0.0608 -1.2592  0.3187
  519MPD2    N1 7770   4.050   0.503  14.401  0.0063  0.1221 -0.4035
  519MPD2    H7 7771   4.062   0.602  14.419 -1.2414  0.3977 -1.0621
  520TMC3    C1 7772   4.259   4.678  14.121 -0.2623  0.9657  0.2885
  520TMC3    C2 7773   4.204   4.699  14.000  0.2266  0.8967  0.3252
  520TMC3    C3 7774   4.269   4.656  13.882  0.1602  0.6784 -0.1931
  520TMC3    C4 7775   4.377   4.624  14.126  0.0011  0.3278 -0.0059
  520TMC3    C5 7776   4.446   4.590  14.013 -0.2392 -0.1591  0.2623
  520TMC3    C6 7777   4.398   4.605  13.884  0.8440  0.8810  0.2702
  520TMC3     C 7778   4.209   0.029  14.224 -0.5034  0.3010 -0.6318
  520TMC3     O 7779   4.088   0.048  14.219 -0.0977 -0.5604  0.4826
  520TMC3     H 7780   4.115   0.019  14.000  0.6222  1.4824 -3.3190
  520TMC3    H1 7781   4.421   4.601  14.222  1.0675 -1.8009 -1.0148
  520TMC3    H2 7782   4.454   4.580  13.795  1.4744 -2.2706  1.5478
  520TMC3    C7 7783   4.557   4.504  14.043 -0.4664  0.3331 -0.0138
  520TMC3    C8 7784   4.229   4.726  13.760  0.7044  0.3951  0.2461
  520TMC3    O1 7785   4.548   4.445  14.147 -0.4225  0.3605  0.2953
  520TMC3    O2 7786   4.315   0.003  13.675 -0.3884 -0.2610 -0.0374
  521MPD2     C 7787   0.427   3.508   0.097  0.0585  0.1195 -0.0709
  521MPD2    C1 7788   0.412   3.463  17.737 -0.3783  0.0091  0.1126
  521MPD2    C2 7789   0.526   3.454  17.652 -0.2120 -0.3170  0.2814
  521MPD2    C3 7790   0.652   3.458  17.708  0.6012 -0.3917  0.0450
  521MPD2    C4 7791   0.667   3.493   0.073 -0.5389  0.4955 -1.1044
  521MPD2    C5 7792   0.557   3.522   0.149 -0.1513 -0.9502  0.3226
  521MPD2     H 7793   0.521   3.427  17.547 -1.7735 -0.6921  0.4440
  521MPD2    H1 7794   0.758   3.510   0.130 -0.3993  1.5968 -1.6540
  521MPD2    H2 7795   0.346   3.537   0.164  1.5103 -2.8579  2.9877
  521MPD2    H3 7796   0.573   3.551   0.252  1.8285  1.3024 -0.5991
  521MPD2     N 7797   0.768   3.438  17.625 -0.3362 -0.3438 -0.6020
  521MPD2    H5 7798   0.750   3.436  17.525  0.0722 -1.5553 -0.6416
  521MPD2    N1 7799   0.287   3.422  17.688  0.7854  0.4819  0.5285
  521MPD2    H7 7800   0.203   3.466  17.725 -0.0978 -1.2475  0.5647
  522TMC3    C1 7801   0.992   3.404  17.551 -0.2173 -0.6128 -0.4514
  522TMC3    C2 7802   1.094   3.320  17.593  0.6345 -0.2058 -0.1188
  522TMC3    C3 7803   1.149   3.240  17.497 -0.3788  0.0581 -0.5887
  522TMC3    C4 7804   0.941   3.408  17.428 -0.1213 -0.1122 -0.1614
  522TMC3    C5 7805   0.996   3.325  17.334 -0.5759  0.2218 -0.1986
  522TMC3    C6 7806   1.092   3.236  17.370 -0.6862  0.2834  0.1148
  522TMC3     C 7807   0.900   3.437  17.659  0.4978 -0.4587 -0.3392
  522TMC3     O 7808   0.942   3.432   0.010  0.6043  0.0964  0.2949
  522TMC3     H 7809   1.129   3.316  17.695 -1.2348 -0.6352  0.5060
  522TMC3    H1 7810   0.880   3.490  17.389  0.6718  0.1797 -0.8018
  522TMC3    H2 7811   1.130   3.170  17.293 -0.5000 -0.1503  0.5855
  522TMC3    C7 7812   0.958   3.339  17.191 -0.0464  0.1015 -0.0098
  522TMC3    C8 7813   1.254   3.144  17.540 -0.1823  0.1902 -0.3745
  522TMC3    O1 7814   1.035   3.291  17.111 -0.6128 -0.8136  0.0638
  522TMC3    O2 7815   1.302   3.158  17.653  0.5580  0.2284 -0.7784
  523MPD2     C 7816   2.489   2.519  10.713  0.6141 -0.2903 -0.3551
  523MPD2    C1 7817   2.462   2.445  10.599 -0.5391 -0.7361  0.7734
  523MPD2    C2 7818   2.344   2.474  10.537  0.5140 -0.0497 -0.4799
  523MPD2    C3 7819   2.261   2.575  10.586 -0.1760  0.0161 -0.3159
  523MPD2    C4 7820   2.295   2.647  10.698  0.0611 -0.2224  0.2117
  523MPD2    C5 7821   2.409   2.618  10.759  0.0039 -0.3032 -0.2071
  523MPD2     H 7822   2.310   2.418  10.451 -0.2629  1.7112 -1.3245
  523MPD2    H1 7823   2.229   2.727  10.729  1.6741  1.0493  0.4257
  523MPD2    H2 7824   2.586   2.502  10.759  0.5303 -0.0407 -0.0882
  523MPD2    H3 7825   2.441   2.677  10.843 -0.0514 -0.6021  0.0255
  523MPD2     N 7826   2.142   2.627  10.523 -0.6829  0.0229 -0.1181
  523MPD2    H5 7827   2.090   2.693  10.580 -2.2045 -1.7861  0.5767
  523MPD2    N1 7828   2.562   2.351  10.555  0.7086  0.0131 -0.7070
  523MPD2    H7 7829   2.645   2.348  10.614  0.3423 -1.7798 -0.2906
  524TMC3    C1 7830   2.003   2.681  10.334 -0.3776  0.2125  0.1823
  524TMC3    C2 7831   1.988   2.671  10.198  0.4075 -0.4234 -1.1682
  524TMC3    C3 7832   1.909   2.764  10.136 -0.5110 -0.3017 -0.9915
  524TMC3    C4 7833   1.945   2.785  10.402 -0.4347  0.2552 -0.1533
  524TMC3    C5 7834   1.872   2.878  10.332 -0.7607 -0.0699 -0.0408
  524TMC3    C6 7835   1.845   2.872  10.196 -0.0228  0.1848 -0.1840
  524TMC3     C 7836   2.094   2.588  10.399  0.2178 -0.1378  0.8463
  524TMC3     O 7837   2.132   2.496  10.335  0.4609 -0.0696  0.3327
  524TMC3     H 7838   1.993   2.575  10.149  0.6989 -1.1754  0.3457
  524TMC3    H1 7839   1.963   2.812  10.505 -2.0318 -1.0386  0.4621
  524TMC3    H2 7840   1.777   2.939  10.146 -2.7966 -0.5504  2.5803
  524TMC3    C7 7841   1.816   2.991  10.400  0.6098 -0.1595 -0.1210
  524TMC3    C8 7842   1.918   2.758   9.993 -0.6358 -0.6414  0.0319
  524TMC3    O1 7843   1.801   2.985  10.521 -0.5620 -0.2726  0.6630
  524TMC3    O2 7844   2.013   2.701   9.944 -0.4155  0.0202  0.0778
  525MPD2     C 7845   0.610   4.355  14.465 -0.3665  0.0900  0.0576
  525MPD2    C1 7846   0.733   4.352  14.531  0.4190  0.3982  0.0916
  525MPD2    C2 7847   0.811   4.462  14.518  0.7266 -0.6707 -0.1111
  525MPD2    C3 7848   0.770   4.577  14.459  0.2093  0.1317  0.5816
  525MPD2    C4 7849   0.651   4.577  14.385 -0.1367 -0.2484 -0.7200
  525MPD2    C5 7850   0.577   4.462  14.384  0.3964 -0.7431 -0.8438
  525MPD2     H 7851   0.910   4.453  14.561 -0.2429 -0.5401  2.1331
  525MPD2    H1 7852   0.615   4.658  14.321 -0.3541 -1.2236 -1.8317
  525MPD2    H2 7853   0.546   4.268  14.465 -0.6162  0.2665  2.2462
  525MPD2    H3 7854   0.489   4.461  14.320  0.5501  2.3054 -1.0798
  525MPD2     N 7855   0.847   4.695  14.463 -0.2397 -0.0004  0.3933
  525MPD2    H5 7856   0.811   0.038  14.419 -0.1448 -1.3785 -2.3418
  525MPD2    N1 7857   0.778   4.238  14.609 -0.3474 -0.2519  0.3000
  525MPD2    H7 7858   0.867   4.239  14.658  1.8781  1.5848 -3.7697
  526TMC3    C1 7859   0.761   4.051  14.736 -0.2019  0.7427  0.1401
  526TMC3    C2 7860   0.700   4.021  14.848  0.4412  0.1237  0.2075
  526TMC3    C3 7861   0.778   3.981  14.956 -0.4196  0.1020  1.0991
  526TMC3    C4 7862   0.895   4.015  14.717  0.2761 -0.0234 -0.3134
  526TMC3    C5 7863   0.966   3.970  14.823 -0.7551  0.4870 -0.0553
  526TMC3    C6 7864   0.910   3.950  14.946 -0.4458 -0.0329  0.7893
  526TMC3     C 7865   0.698   4.132  14.636 -0.0057 -0.4041 -0.1987
  526TMC3     O 7866   0.584   4.102  14.609 -0.0583  0.6824 -0.2460
  526TMC3     H 7867   0.593   4.030  14.856  0.7488  0.9303  3.1309
  526TMC3    H1 7868   0.940   4.027  14.619  0.6778 -0.5609 -0.1964
  526TMC3    H2 7869   0.957   3.888  15.021 -0.6693  0.2442  1.1599
  526TMC3    C7 7870   1.099   3.919  14.813 -0.4700  0.1139 -0.0973
  526TMC3    C8 7871   0.734   3.995  15.086  0.8265 -0.3592 -0.1197
  526TMC3    O1 7872   1.144   3.885  14.923 -0.3675  0.0961 -0.0137
  526TMC3    O2 7873   0.817   3.989  15.172 -0.2745 -0.0885 -0.2344
  527MPD2     C 7874   4.420   3.014   1.569  0.0539 -1.2043 -0.4856
  527MPD2    C1 7875   4.363   2.978   1.449 -0.1573  0.3173  0.4896
  527MPD2    C2 7876   4.434   2.897   1.367  1.0314  0.2939 -0.2273
  527MPD2    C3 7877   4.562   2.866   1.394  0.4344  0.1446  0.2806
  527MPD2    C4 7878   4.631   2.915   1.500 -0.3314 -0.1406 -0.0138
  527MPD2    C5 7879   4.556   2.990   1.593  0.5370 -0.2305  0.0560
  527MPD2     H 7880   4.390   2.862   1.274  0.2907 -2.0076  1.0035
  527MPD2    H1 7881   4.733   2.888   1.522 -0.9378  1.0440  4.2383
  527MPD2    H2 7882   4.369   3.073   1.644  1.1761 -1.0819  0.1872
  527MPD2    H3 7883   4.608   3.026   1.681 -1.2891 -0.7053  1.3143
  527MPD2     N 7884   4.618   2.773   1.306  0.1082  0.7040 -0.3038
  527MPD2    H5 7885   4.556   2.735   1.235  0.4282 -1.1299  0.4207
  527MPD2    N1 7886   4.229   3.002   1.419 -0.5742 -0.1167  0.2660
  527MPD2    H7 7887   4.186   2.966   1.335 -1.6417  0.1894  0.6744
  528TMC3    C1 7888   4.017   3.108   1.434 -0.0009  0.8207 -0.8312
  528TMC3    C2 7889   3.971   2.998   1.370 -0.2987  0.2551  0.3562
  528TMC3    C3 7890   3.846   3.010   1.311 -0.7050 -0.7219  0.2842
  528TMC3    C4 7891   3.965   3.228   1.436  0.4032  0.0119 -0.9285
  528TMC3    C5 7892   3.853   3.242   1.365 -0.2587  0.4694 -0.4813
  528TMC3    C6 7893   3.788   3.136   1.307  0.1017 -0.3312 -0.5538
  528TMC3     C 7894   4.155   3.099   1.479  0.0614 -0.0186  0.6805
  528TMC3     O 7895   4.179   3.172   1.578  0.6612 -0.3382 -0.1262
  528TMC3     H 7896   4.018   2.902   1.387  0.6768  0.7628  0.5426
  528TMC3    H1 7897   4.023   3.314   1.467 -1.7210  0.4160  1.8738
  528TMC3    H2 7898   3.703   3.150   1.242  1.2544  0.8187 -1.8188
  528TMC3    C7 7899   3.783   3.366   1.363 -0.0578  0.3909 -0.1002
  528TMC3    C8 7900   3.791   2.922   1.222 -0.8681  0.1842 -0.9131
  528TMC3    O1 7901   3.696   3.382   1.274  0.3852  0.0540 -0.3729
  528TMC3    O2 7902   3.674   2.942   1.202  0.4745  0.0071 -0.4446
  529MPD2     C 7903   1.893   1.846   0.790  0.2920 -0.9495  0.3488
  529MPD2    C1 7904   1.942   1.733   0.730 -0.0097  0.4133  0.0536
  529MPD2    C2 7905   1.872   1.682   0.619 -0.4999 -0.2822  0.8560
  529MPD2    C3 7906   1.759   1.745   0.567 -0.4133 -0.0305  0.1985
  529MPD2    C4 7907   1.713   1.860   0.626  0.3451  0.1177 -0.6904
  529MPD2    C5 7908   1.779   1.905   0.739 -0.3836 -0.4744 -0.3722
  529MPD2     H 7909   1.916   1.590   0.582  1.4579 -0.7149  4.1968
  529MPD2    H1 7910   1.628   1.917   0.593 -0.2886 -0.1009  0.5465
  529MPD2    H2 7911   1.955   1.895   0.864  0.3903  0.7323 -0.8578
  529MPD2    H3 7912   1.757   2.007   0.770  2.3483  0.8054 -2.6251
  529MPD2     N 7913   1.684   1.699   0.463 -0.0159 -0.5226  0.1211
  529MPD2    H5 7914   1.590   1.737   0.457  0.1654 -0.1202 -0.1484
  529MPD2    N1 7915   2.051   1.662   0.780  0.4358 -0.1501 -0.3626
  529MPD2    H7 7916   2.066   1.566   0.752 -0.1592 -0.2533 -0.3098
  530TMC3    C1 7917   2.246   1.632   0.920 -0.0035 -0.2708 -0.0542
  530TMC3    C2 7918   2.369   1.687   0.948 -0.3465  0.3980  0.2975
  530TMC3    C3 7919   2.473   1.603   0.973 -0.3072  0.3350  0.3425
  530TMC3    C4 7920   2.221   1.495   0.906 -0.7590 -0.6711 -0.3303
  530TMC3    C5 7921   2.329   1.423   0.933  0.0313 -0.0943  0.3735
  530TMC3    C6 7922   2.457   1.465   0.971  0.1043 -0.0597  0.4809
  530TMC3     C 7923   2.155   1.724   0.854 -0.1339  0.3875 -1.0915
  530TMC3     O 7924   2.186   1.838   0.864  0.2518 -0.5341 -0.0895
  530TMC3     H 7925   2.388   1.794   0.953 -2.2529  0.8295 -1.7194
  530TMC3    H1 7926   2.124   1.452   0.887 -0.7531 -1.0926  0.5885
  530TMC3    H2 7927   2.531   1.395   1.009 -0.4104 -2.6623 -3.2209
  530TMC3    C7 7928   2.326   1.283   0.909  0.0776  0.0693  0.5661
  530TMC3    C8 7929   2.598   1.664   1.006 -0.4639  0.2842  0.1813
  530TMC3    O1 7930   2.438   1.226   0.913  0.5563  0.2177 -0.3117
  530TMC3    O2 7931   2.600   1.785   0.995  0.1121  0.4977  0.0967
  531MPD2     C 7932   4.499   3.070  13.377 -0.2181 -0.1019  0.0369
  531MPD2    C1 7933   4.419   3.178  13.413 -0.1172 -0.5180  1.0471
  531MPD2    C2 7934   4.414   3.292  13.324 -0.4842 -0.3109  0.6209
  531MPD2    C3 7935   4.491   3.293  13.213  0.8337  0.2671  0.3817
  531MPD2    C4 7936   4.584   3.189  13.183 -0.5418  0.3385  0.5367
  531MPD2    C5 7937   4.584   3.078  13.268 -0.6168 -0.2435  0.0902
  531MPD2     H 7938   4.350   3.378  13.344 -0.5019 -0.8248  2.6982
  531MPD2    H1 7939   4.644   3.196  13.093 -0.4045  0.5910  0.6456
  531MPD2    H2 7940   4.488   2.984  13.442 -1.7155 -0.4095 -0.6289
  531MPD2    H3 7941   4.647   2.992  13.247 -0.3060 -0.4415  1.8163
  531MPD2     N 7942   4.489   3.406  13.124  0.5504  0.5962 -0.1122
  531MPD2    H5 7943   4.569   3.410  13.062 -0.2849  0.7553 -1.1645
  531MPD2    N1 7944   4.355   3.179  13.537  0.6915 -0.3773  0.4609
  531MPD2    H7 7945   4.384   3.101  13.595 -0.9141  0.3177  2.2253
  532TMC3    C1 7946   4.205   3.270  13.716 -0.1738 -0.1589  0.1081
  532TMC3    C2 7947   4.094   3.354  13.722  0.0668 -0.7096  0.1984
  532TMC3    C3 7948   4.082   3.449  13.817 -0.4242 -0.2198  0.0699
  532TMC3    C4 7949   4.305   3.283  13.802 -0.3696  0.1531  0.6082
  532TMC3    C5 7950   4.288   3.371  13.909  0.8389 -0.1545  0.0719
  532TMC3    C6 7951   4.172   3.449  13.918 -0.3310 -0.3310  0.2361
  532TMC3     C 7952   4.258   3.274  13.576  0.6830  0.2036 -0.4079
  532TMC3     O 7953   4.187   3.342  13.507  0.1257 -0.2876 -0.7740
  532TMC3     H 7954   4.014   3.350  13.649  0.1521  0.5754  0.0369
  532TMC3    H1 7955   4.391   3.218  13.795  1.1917  2.3575 -0.7734
  532TMC3    H2 7956   4.156   3.515  14.003 -0.8435 -1.1258  0.7589
  532TMC3    C7 7957   4.370   3.361  14.026 -0.0650 -0.3927 -0.1445
  532TMC3    C8 7958   4.051   3.578  13.763  0.4335  0.6290  0.2092
  532TMC3    O1 7959   4.326   3.403  14.127 -0.0626 -0.8849  0.3376
  532TMC3    O2 7960   4.006   3.665  13.837 -0.0685  0.0583  0.5530
  533TMC3    C1 7961   1.003   0.115  14.511  0.3135  0.4764 -0.4495
  533TMC3    C2 7962   1.134   0.147  14.551  0.9987 -0.2210 -0.8081
  533TMC3    C3 7963   1.164   0.282  14.579  1.0636  0.6052 -1.0512
  533TMC3    C4 7964   0.905   0.211  14.507  0.6490  0.6008 -0.4594
  533TMC3    C5 7965   0.936   0.339  14.554  0.3097 -0.7367 -0.3926
  533TMC3    C6 7966   1.066   0.373  14.584  0.1828  0.1982 -0.3835
  533TMC3     C 7967   0.960   4.721  14.527  0.2093 -0.5032  0.1131
  533TMC3     O 7968   1.037   4.646  14.590 -0.1652 -0.0677 -0.1076
  533TMC3     H 7969   1.212   0.076  14.576  0.2552 -0.9834 -0.6696
  533TMC3    H1 7970   0.803   0.200  14.472  0.7898 -1.2544 -0.2896
  533TMC3    H2 7971   1.078   0.462  14.644 -2.4053 -1.4065  2.5004
  533TMC3    C7 7972   0.835   0.366  14.661 -0.4699 -0.8552 -0.9223
  533TMC3    C8 7973   1.296   0.314  14.633  1.3650 -0.6633  0.5137
  533TMC3    O1 7974   0.723   0.315  14.635 -0.5284  0.0064 -0.6823
  533TMC3    O2 7975   1.370   0.220  14.667  0.5949 -0.2567  0.5575
  534MPD2     C 7976   4.335   1.594   0.969 -0.0562  0.7544 -0.3549
  534MPD2    C1 7977   4.271   1.688   1.045  0.0329  0.3210 -0.7271
  534MPD2    C2 7978   4.136   1.662   1.061  0.0405 -0.2772  0.3725
  534MPD2    C3 7979   4.074   1.545   1.017  0.1734  0.4648 -0.3731
  534MPD2    C4 7980   4.140   1.454   0.939 -0.1891  0.3155 -0.0445
  534MPD2    C5 7981   4.275   1.479   0.918 -0.5842  0.4677 -0.3443
  534MPD2     H 7982   4.082   1.727   1.129  1.1241 -0.2429  1.2043
  534MPD2    H1 7983   4.092   1.367   0.895 -1.9828  2.5014 -2.3549
  534MPD2    H2 7984   4.442   1.601   0.953  0.1414  0.3194  0.8218
  534MPD2    H3 7985   4.341   1.412   0.862  2.3631 -0.1982  3.9480
  534MPD2     N 7986   3.945   1.507   1.052 -0.3204  0.3364 -0.2129
  534MPD2    H5 7987   3.915   1.424   1.003  1.4784 -0.4346  0.0010
  534MPD2    N1 7988   4.322   1.808   1.102  0.6111 -0.1319  0.1224
  534MPD2    H7 7989   4.266   1.860   1.168 -0.2796  1.5902 -1.9643
  535TMC3    C1 7990   3.719   1.510   1.089  0.0852  0.4017 -0.5434
  535TMC3    C2 7991   3.630   1.584   1.014  0.2076 -0.3070 -0.2977
  535TMC3    C3 7992   3.533   1.511   0.949  0.3289  0.5878  0.2363
  535TMC3    C4 7993   3.735   1.377   1.082 -0.2169 -0.0281 -0.3272
  535TMC3    C5 7994   3.650   1.310   1.002  0.0393 -0.5330 -0.0407
  535TMC3    C6 7995   3.541   1.373   0.946  0.3516 -0.5223 -0.2912
  535TMC3     C 7996   3.849   1.579   1.114 -0.7256  0.4307  0.0340
  535TMC3     O 7997   3.850   1.691   1.167 -0.3227 -0.0068 -0.1333
  535TMC3     H 7998   3.643   1.691   1.003 -1.6111 -0.0781 -0.1487
  535TMC3    H1 7999   3.815   1.330   1.138  2.3392  4.1183 -0.4803
  535TMC3    H2 8000   3.465   1.325   0.885  0.1977  0.9790 -1.2918
  535TMC3    C7 8001   3.734   1.248   0.904  0.3752 -0.3358  0.0836
  535TMC3    C8 8002   3.418   1.582   0.891 -0.2592 -0.6266 -0.3611
  535TMC3    O1 8003   3.854   1.270   0.921  0.2084  0.6493  0.7475
  535TMC3    O2 8004   3.321   1.507   0.865  0.3892  0.4046 -0.2759
  536MPD2     C 8005   2.505   4.111  16.514 -0.4343 -0.3018 -0.0635
  536MPD2    C1 8006   2.395   4.087  16.588 -0.6550 -0.6850 -0.3347
  536MPD2    C2 8007   2.276   4.080  16.517  0.5070 -0.8615 -0.0438
  536MPD2    C3 8008   2.262   4.100  16.384 -0.8473  0.6643  0.0741
  536MPD2    C4 8009   2.378   4.136  16.314 -0.3649  0.3592  0.5042
  536MPD2    C5 8010   2.497   4.145  16.379 -0.2298 -1.1678 -0.3169
  536MPD2     H 8011   2.185   4.057  16.571 -0.7755  1.3472 -1.2679
  536MPD2    H1 8012   2.383   4.155  16.208 -0.1163 -0.3844  0.3798
  536MPD2    H2 8013   2.597   4.113  16.571 -0.7278 -0.1498  0.4075
  536MPD2    H3 8014   2.578   4.176  16.314  1.8074 -0.0701  2.7043
  536MPD2     N 8015   2.134   4.072  16.314 -0.6948 -0.2453 -0.1430
  536MPD2    H5 8016   2.128   4.077  16.212 -0.5998  1.6004 -0.0506
  536MPD2    N1 8017   2.412   4.087  16.725  0.5241  0.2908 -0.3613
  536MPD2    H7 8018   2.507   4.093  16.761  0.7698  0.2028 -0.9857
  537TMC3    C1 8019   2.373   4.115  16.942  0.5318 -0.5106 -0.4851
  537TMC3    C2 8020   2.448   4.233  16.949  0.4998  0.3698  0.2825
  537TMC3    C3 8021   2.518   4.240  17.068 -0.5790  0.2528  0.4340
  537TMC3    C4 8022   2.353   4.020  17.041 -0.3717 -0.1989 -0.3957
  537TMC3    C5 8023   2.402   4.058  17.160 -0.2372  0.3024 -0.3525
  537TMC3    C6 8024   2.486   4.161  17.178 -0.4888 -0.5169  0.7321
  537TMC3     C 8025   2.311   4.091  16.817  0.2305 -0.6395  0.2380
  537TMC3     O 8026   2.195   4.050  16.807  0.0160 -0.0640 -0.0948
  537TMC3     H 8027   2.465   4.282  16.853 -0.1803 -0.8860 -0.4743
  537TMC3    H1 8028   2.289   3.934  17.028 -0.1904 -0.4369  0.2815
  537TMC3    H2 8029   2.532   4.183  17.273 -0.3040  1.4905  0.1724
  537TMC3    C7 8030   2.362   3.975  17.278 -0.3620  0.0225 -0.1519
  537TMC3    C8 8031   2.589   4.366  17.098  0.5673  0.1796  0.1955
  537TMC3    O1 8032   2.283   3.881  17.260 -0.0109  0.3453 -0.2145
  537TMC3    O2 8033   2.673   4.371  17.184 -0.2436  0.0954  0.2126
  538TMC3    C1 8034   3.367   2.037  11.542  0.1821  0.1297  0.9281
  538TMC3    C2 8035   3.484   2.097  11.542  0.1771 -0.0766 -0.1897
  538TMC3    C3 8036   3.532   2.140  11.425  0.4780 -0.0550  0.1430
  538TMC3    C4 8037   3.298   2.011  11.425 -0.4579  1.0884  0.1021
  538TMC3    C5 8038   3.330   2.085  11.312  0.2690  0.1970  0.5779
  538TMC3    C6 8039   3.447   2.150  11.316 -0.0416 -0.3095  0.0068
  538TMC3     C 8040   3.305   2.006  11.670 -0.1147  0.0328 -0.6794
  538TMC3     O 8041   3.227   1.913  11.672 -0.0625 -0.2792  0.4411
  538TMC3     H 8042   3.563   2.086  11.616 -0.1612  0.7343  0.2996
  538TMC3    H1 8043   3.208   1.950  11.432 -0.3573  1.0385  0.9602
  538TMC3    H2 8044   3.479   2.202  11.226  0.0358  3.0686  1.9755
  538TMC3    C7 8045   3.216   2.110  11.229 -0.1268 -0.1425 -0.2806
  538TMC3    C8 8046   3.676   2.137  11.400  0.2319  0.1949  0.8749
  538TMC3    O1 8047   3.115   2.056  11.272 -0.4809 -0.1530  0.2494
  538TMC3    O2 8048   3.756   2.132  11.491 -0.6350 -0.1024 -0.0971
  539MPD2     C 8049   2.886   1.015  11.139  1.2298  0.3917 -0.0801
  539MPD2    C1 8050   2.960   1.125  11.101  0.0509  0.1906  0.0528
  539MPD2    C2 8051   2.924   1.247  11.145 -0.7713 -0.7126  0.3865
  539MPD2    C3 8052   2.809   1.268  11.220 -0.6024 -0.3345  0.6362
  539MPD2    C4 8053   2.730   1.154  11.247 -0.1151  0.4851 -0.6428
  539MPD2    C5 8054   2.767   1.029  11.209 -0.1053 -0.2435 -0.5324
  539MPD2     H 8055   3.001   1.323  11.138 -0.9013 -0.3534  2.9295
  539MPD2    H1 8056   2.634   1.168  11.295  0.1834 -0.6749  0.2817
  539MPD2    H2 8057   2.918   0.913  11.118  1.1260  0.5159 -0.8402
  539MPD2    H3 8058   2.701   0.945  11.227  0.7250 -0.4562  1.5086
  539MPD2     N 8059   2.773   1.395  11.271 -0.1699  0.3567  0.6169
  539MPD2    H5 8060   2.684   1.402  11.321  0.5187  1.0995  1.7454
  539MPD2    N1 8061   3.083   1.109  11.032  0.4129  0.3041 -0.2433
  539MPD2    H7 8062   3.113   1.193  10.982  1.8870  0.4310  0.8477
  540TMC3    C1 8063   2.734   1.626  11.260 -0.1656  0.8817 -0.4564
  540TMC3    C2 8064   2.699   1.727  11.170  0.1537  0.0570  0.4190
  540TMC3    C3 8065   2.614   1.826  11.212  0.3532 -0.1723 -0.7218
  540TMC3    C4 8066   2.703   1.631  11.396 -0.6430  0.6823 -0.4553
  540TMC3    C5 8067   2.619   1.734  11.432 -0.1387  0.0805 -0.4765
  540TMC3    C6 8068   2.575   1.829  11.344 -0.0249 -0.1998 -0.2209
  540TMC3     C 8069   2.818   1.516  11.220 -0.6067 -0.2966  0.5819
  540TMC3     O 8070   2.897   1.546  11.129  0.1519  0.6149  0.0077
  540TMC3     H 8071   2.721   1.718  11.064 -0.5851 -2.6794  0.5020
  540TMC3    H1 8072   2.725   1.551  11.466  0.5480  1.8865  0.5387
  540TMC3    H2 8073   2.510   1.908  11.380 -0.4717 -1.5531  1.9167
  540TMC3    C7 8074   2.572   1.742  11.568 -0.0627 -0.3259  0.6550
  540TMC3    C8 8075   2.535   1.905  11.113  0.1350  0.1266 -0.5277
  540TMC3    O1 8076   2.491   1.831  11.592 -0.8226 -0.2763  0.9935
  540TMC3    O2 8077   2.412   1.905  11.134 -0.1909  0.2536 -1.1548
  541MPD2     C 8078   0.800   3.515  13.516  0.2426  0.4350 -0.3650
  541MPD2    C1 8079   0.860   3.402  13.465  0.7654 -0.5807  1.1403
  541MPD2    C2 8080   0.945   3.418  13.363  0.8940 -0.4344 -0.2245
  541MPD2    C3 8081   0.969   3.539  13.305 -0.6073  0.2887  0.4147
  541MPD2    C4 8082   0.924   3.655  13.364 -0.4901 -0.7220  0.0999
  541MPD2    C5 8083   0.838   3.635  13.474 -0.1397  0.5076 -0.0961
  541MPD2     H 8084   0.999   3.329  13.333  1.8440  0.2708 -0.6070
  541MPD2    H1 8085   0.938   3.753  13.320  1.1548 -0.5808  0.9426
  541MPD2    H2 8086   0.740   3.502  13.606  0.0255  1.8509 -0.3112
  541MPD2    H3 8087   0.803   3.722  13.529  0.5242 -0.3566  1.7059
  541MPD2     N 8088   1.052   3.559  13.191 -0.3129  0.7262  0.5842
  541MPD2    H5 8089   1.065   3.656  13.166  0.4740  0.4648 -0.0090
  541MPD2    N1 8090   0.850   3.267  13.510 -0.0351 -0.5017  0.0882
  541MPD2    H7 8091   0.921   3.204  13.474  0.9201 -0.5938  2.1126
  542TMC3    C1 8092   1.168   3.500  12.993  0.6001 -0.7593 -0.2310
  542TMC3    C2 8093   1.221   3.397  12.917  0.0215 -0.9532 -0.0849
  542TMC3    C3 8094   1.297   3.423  12.805  0.3025 -0.3149  0.2074
  542TMC3    C4 8095   1.180   3.629  12.948 -0.2476 -0.4744  0.7700
  542TMC3    C5 8096   1.250   3.654  12.832 -0.0435  0.6356 -0.0229
  542TMC3    C6 8097   1.313   3.555  12.761  0.2609  0.3838 -0.5735
  542TMC3     C 8098   1.083   3.457  13.108  0.1184 -0.2997  0.2397
  542TMC3     O 8099   1.056   3.342  13.119 -0.4194 -0.4139  0.3937
  542TMC3     H 8100   1.212   3.294  12.950 -0.0075 -0.8534  0.2248
  542TMC3    H1 8101   1.114   3.705  12.987  0.1950  1.3290 -1.9865
  542TMC3    H2 8102   1.370   3.581  12.673 -0.2587  1.1682 -0.6778
  542TMC3    C7 8103   1.289   3.790  12.795 -0.3770  0.7392 -0.0413
  542TMC3    C8 8104   1.328   3.310  12.721 -0.0866 -0.1005  0.6264
  542TMC3    O1 8105   1.305   3.813  12.675 -0.1736 -0.0794  0.8158
  542TMC3    O2 8106   1.299   3.198  12.754  0.2758 -0.1917  0.5782
  543TMC3    C1 8107   1.045   0.362  17.520  0.0638  0.6653  0.0775
  543TMC3    C2 8108   1.097   0.233  17.542 -0.8021 -0.1324  0.4227
  543TMC3    C3 8109   1.090   0.179  17.666  0.4281  0.5074  1.0281
  543TMC3    C4 8110   1.006   0.445  17.619 -0.9631  0.0632  0.7441
  543TMC3    C5 8111   1.008   0.382  17.742 -0.0336  0.0455 -0.3511
  543TMC3    C6 8112   1.048   0.255   0.002  0.4399  0.5752  0.2487
  543TMC3     C 8113   1.037   0.423  17.394 -0.2216 -0.0628  0.0660
  543TMC3     O 8114   0.976   0.528  17.382 -0.2040  0.0378 -0.2167
  543TMC3     H 8115   1.131   0.178  17.454 -0.5424  1.1851 -0.3058
  543TMC3    H1 8116   0.960   0.542  17.602 -0.7103 -0.0297 -0.4844
  543TMC3    H2 8117   1.021   0.216   0.099 -1.5087 -2.5867 -1.5598
  543TMC3    C7 8118   0.992   0.472   0.085 -0.5555  0.0324 -0.5835
  543TMC3    C8 8119   1.084   0.032  17.678  0.4897  0.1644  0.7875
  543TMC3    O1 8120   0.937   0.425   0.187  0.1505 -0.1637  0.0823
  543TMC3    O2 8121   1.060   4.704  17.581 -1.2706 -0.1040  0.3258
  544MPD2     C 8122   1.103   4.339   0.196 -0.0684 -0.2301  0.1490
  544MPD2    C1 8123   1.073   4.356   0.061  0.0272 -0.2899 -0.2521
  544MPD2    C2 8124   1.069   4.488   0.008  0.4941  0.0211  0.1651
  544MPD2    C3 8125   1.094   4.593   0.092 -0.1027 -0.2431  0.2907
  544MPD2    C4 8126   1.110   4.572   0.228  0.1151 -0.1737 -0.4675
  544MPD2    C5 8127   1.110   4.446   0.278 -1.5864 -0.2103  0.4310
  544MPD2     H 8128   1.056   4.496  17.664  1.7265 -1.1230 -0.0782
  544MPD2    H1 8129   1.123   4.662   0.289  1.1231 -1.2004  0.8336
  544MPD2    H2 8130   1.114   4.243   0.244  0.2860  0.7821  2.0699
  544MPD2    H3 8131   1.130   4.440   0.384  0.8811 -1.8841 -0.1267
  544MPD2     N 8132   1.097   4.729   0.050 -0.3154 -0.3029 -0.3350
  544MPD2    H5 8133   1.121   0.054   0.122  0.8178 -0.3236 -0.7039
  544MPD2    N1 8134   1.044   4.234  17.759 -0.2106 -0.0931 -0.5570
  544MPD2    H7 8135   1.055   4.148   0.048  1.7657  1.8701  2.2367
  545TMC3    C1 8136   0.961   4.084  17.593  0.5332  0.6278 -0.3707
  545TMC3    C2 8137   0.856   4.065  17.512 -0.4964  0.7185 -0.5979
  545TMC3    C3 8138   0.828   3.934  17.479  0.5712 -0.3239 -0.1166
  545TMC3    C4 8139   1.012   3.984  17.666 -0.0434  0.1220  0.1340
  545TMC3    C5 8140   0.974   3.855  17.641 -0.2565  0.3006  0.4131
  545TMC3    C6 8141   0.883   3.830  17.547 -0.8332  0.5014  0.6789
  545TMC3     C 8142   1.000   4.223  17.627 -0.5632  0.0749 -0.1771
  545TMC3     O 8143   0.968   4.312  17.550 -0.1909 -0.3525 -0.1357
  545TMC3     H 8144   0.805   4.156  17.484 -0.9794 -0.1082 -2.3859
  545TMC3    H1 8145   1.089   3.997  17.741  1.0857  2.8849 -1.5053
  545TMC3    H2 8146   0.863   3.727  17.519 -3.0990  0.9656  0.6122
  545TMC3    C7 8147   1.055   3.764  17.706 -0.8261  0.1678  0.0423
  545TMC3    C8 8148   0.717   3.907  17.396 -0.4638  0.0955  0.1208
  545TMC3    O1 8149   1.030   3.740   0.059  0.2219  0.4458  0.1504
  545TMC3    O2 8150   0.677   3.794  17.387 -0.3837  0.6298  0.2670
  546MPD2     C 8151   2.471   0.430   0.068 -0.1925  0.2074 -0.4896
  546MPD2    C1 8152   2.511   0.385  17.711 -0.4514 -0.0235  0.2750
  546MPD2    C2 8153   2.601   0.463  17.634 -0.0889 -0.2137  0.4013
  546MPD2    C3 8154   2.649   0.581  17.691 -0.0908 -0.0980 -0.3626
  546MPD2    C4 8155   2.611   0.626   0.054  0.4160  0.0934 -0.2285
  546MPD2    C5 8156   2.520   0.546   0.120 -0.6095  0.5554  0.5628
  546MPD2     H 8157   2.625   0.422  17.536  1.5827  0.5179  0.5117
  546MPD2    H1 8158   2.657   0.712   0.100  0.2450  0.4052 -0.6392
  546MPD2    H2 8159   2.396   0.382   0.130  0.1074 -0.9658 -1.0327
  546MPD2    H3 8160   2.479   0.567   0.218  0.0629  0.6133  0.8324
  546MPD2     N 8161   2.740   0.667  17.629 -0.1169 -0.1408  0.0405
  546MPD2    H5 8162   2.753   0.762  17.662 -2.0511 -0.4521  1.7764
  546MPD2    N1 8163   2.454   0.261  17.664  0.0099  0.3311 -0.4229
  546MPD2    H7 8164   2.382   0.218  17.721 -0.9014  1.2582 -0.8755
  547TMC3    C1 8165   2.431   0.065  17.530 -0.2592  0.0257  0.5181
  547TMC3    C2 8166   2.396   0.015  17.409  0.0033 -0.0994 -0.4916
  547TMC3    C3 8167   2.317   4.644  17.411 -0.8104 -0.1658 -0.3615
  547TMC3    C4 8168   2.395   0.006  17.647 -0.2418  0.4571  0.2824
  547TMC3    C5 8169   2.326   4.633  17.646 -0.2980  0.1833 -0.2452
  547TMC3    C6 8170   2.282   4.579  17.524  0.1991 -0.1820  0.1075
  547TMC3     C 8171   2.490   0.199  17.543  0.2411 -0.3580  0.6617
  547TMC3     O 8172   2.558   0.244  17.449  0.1354  0.6824  0.1738
  547TMC3     H 8173   2.429   0.059  17.315 -0.0176  0.1650 -0.3752
  547TMC3    H1 8174   2.417   0.043  17.747 -1.2289  1.1750  0.2281
  547TMC3    H2 8175   2.219   4.492  17.508  0.5015 -0.8874  2.7968
  547TMC3    C7 8176   2.302   4.566  17.762  0.4514  0.0321 -0.3647
  547TMC3    C8 8177   2.266   4.580  17.286 -0.1693  0.4754  0.9548
  547TMC3    O1 8178   2.266   4.641   0.088 -0.7824  1.0716  0.1028
  547TMC3    O2 8179   2.251   4.461  17.298  0.3096  0.8553 -0.2881
  548MPD2     C 8180   2.337   0.388  12.497  0.8531  0.7950 -0.2736
  548MPD2    C1 8181   2.279   0.315  12.600  0.1988  0.2919 -0.3077
  548MPD2    C2 8182   2.366   0.217  12.654  0.4944 -0.8284  0.6365
  548MPD2    C3 8183   2.487   0.180  12.597 -0.8070  0.4823  0.0959
  548MPD2    C4 8184   2.533   0.247  12.490  0.0781  0.0751  0.7405
  548MPD2    C5 8185   2.459   0.351  12.441 -0.0974 -0.1231 -0.9137
  548MPD2     H 8186   2.342   0.168  12.748 -1.8780 -3.2225 -1.1881
  548MPD2    H1 8187   2.613   0.219  12.422 -1.5646  0.2140 -1.2478
  548MPD2    H2 8188   2.289   0.472  12.449  0.1741  0.9271  0.6378
  548MPD2    H3 8189   2.500   0.405  12.356  0.0746  2.5180  0.8382
  548MPD2     N 8190   2.556   0.068  12.649 -0.0738  0.0762 -0.1081
  548MPD2    H5 8191   2.513   0.029  12.732 -1.8848  1.5409 -0.3460
  548MPD2    N1 8192   2.150   0.339  12.632  0.1243 -0.2606  0.7084
  548MPD2    H7 8193   2.094   0.404  12.577 -0.7237 -0.2527  1.5784
  549TMC3    C1 8194   1.956   0.334  12.763 -0.2475  0.1578 -0.4445
  549TMC3    C2 8195   1.900   0.439  12.696 -0.1603  0.4108  0.4852
  549TMC3    C3 8196   1.795   0.499  12.758 -0.7453  0.0330  0.1568
  549TMC3    C4 8197   1.907   0.283  12.882  0.1797 -0.8517 -0.6070
  549TMC3    C5 8198   1.792   0.343  12.927  0.3588 -0.0955 -0.5680
  549TMC3    C6 8199   1.743   0.461  12.878  0.5005 -0.4144  0.3143
  549TMC3     C 8200   2.087   0.276  12.740 -0.5232 -0.1630  0.7680
  549TMC3     O 8201   2.134   0.193  12.819 -0.3414  0.0099  0.3621
  549TMC3     H 8202   1.937   0.493  12.609 -1.0415 -0.5073 -0.4518
  549TMC3    H1 8203   1.955   0.210  12.945  1.2254  1.4153  1.2096
  549TMC3    H2 8204   1.660   0.521  12.913 -0.1392 -1.6002  0.8186
  549TMC3    C7 8205   1.687   0.259  12.985 -0.3654 -0.3260 -0.3984
  549TMC3    C8 8206   1.743   0.609  12.685  0.1891  0.1126  0.1038
  549TMC3    O1 8207   1.589   0.318  13.034 -0.0877  0.4172 -0.2249
  549TMC3    O2 8208   1.714   0.593  12.565 -0.3934  0.3408 -0.3346
  550TMC3    C1 8209   1.149   3.148  12.069  0.9199 -0.0507 -0.0949
  550TMC3    C2 8210   1.132   3.211  12.186  0.0686 -0.4679  0.6198
  550TMC3    C3 8211   1.123   3.349  12.188 -0.0048 -0.6639 -0.5215
  550TMC3    C4 8212   1.165   3.212  11.949  0.3528  0.2373  0.5993
  550TMC3    C5 8213   1.153   3.350  11.952  0.2865  0.0765  0.1128
  550TMC3    C6 8214   1.127   3.420  12.073  0.6688 -0.2638  0.9276
  550TMC3     C 8215   1.072   3.026  12.052 -0.3166 -0.3430 -0.0673
  550TMC3     O 8216   1.098   2.925  12.119  0.0705  0.4683  0.2969
  550TMC3     H 8217   1.131   3.150  12.275 -0.1126 -1.7294 -0.2493
  550TMC3    H1 8218   1.176   3.168  11.851  1.7037 -1.2503  1.4065
  550TMC3    H2 8219   1.136   3.527  12.078 -0.3099 -0.1017 -0.5895
  550TMC3    C7 8220   1.093   3.413  11.840 -0.4126  0.0113  0.5827
  550TMC3    C8 8221   1.074   3.423  12.305 -0.3107 -0.0186  0.3387
  550TMC3    O1 8222   1.147   3.408  11.729  0.1051  0.3561  0.4606
  550TMC3    O2 8223   1.045   3.540  12.288  0.2998 -0.1391  0.0706
  551TMC3    C1 8224   3.351   0.932  13.465 -0.4766 -0.7968  0.2880
  551TMC3    C2 8225   3.488   0.913  13.457  0.6036 -1.0206  0.3375
  551TMC3    C3 8226   3.564   0.973  13.561 -0.3569  0.6821  0.1297
  551TMC3    C4 8227   3.291   0.989  13.572 -0.1444 -0.7088  0.7793
  551TMC3    C5 8228   3.366   1.041  13.672 -0.0975 -0.2271  0.5705
  551TMC3    C6 8229   3.502   1.025  13.672 -0.0412 -0.3798 -0.1863
  551TMC3     C 8230   3.270   0.888  13.353 -0.1359 -0.5358  0.6889
  551TMC3     O 8231   3.153   0.859  13.375 -0.2687  0.1838  0.3005
  551TMC3     H 8232   3.534   0.886  13.362  1.5274  1.2369  0.1547
  551TMC3    H1 8233   3.185   1.008  13.565  0.1426  0.3567 -0.5911
  551TMC3    H2 8234   3.558   1.048  13.762  0.7234 -0.6108 -0.6014
  551TMC3    C7 8235   3.324   1.170  13.743  1.0047  0.1253 -0.5601
  551TMC3    C8 8236   3.656   1.056  13.499  0.0176 -0.3585  0.2430
  551TMC3    O1 8237   3.422   1.245  13.753 -0.9274 -0.3820 -0.4472
  551TMC3    O2 8238   3.736   1.013  13.418  0.5875  0.4712 -0.4195
  552MPD2     C 8239   0.178   3.174  14.647 -0.8867  0.0582  0.4147
  552MPD2    C1 8240   0.213   3.121  14.523 -0.1785 -0.9029  0.2551
  552MPD2    C2 8241   0.340   3.094  14.496  0.1912  0.0745 -0.5287
  552MPD2    C3 8242   0.432   3.105  14.603  0.1063  0.1037  0.4565
  552MPD2    C4 8243   0.395   3.146  14.725 -1.0653  0.6638 -0.2620
  552MPD2    C5 8244   0.270   3.187  14.748 -0.8935  0.8843  0.9046
  552MPD2     H 8245   0.368   3.041  14.406  2.4121 -3.6414  2.3379
  552MPD2    H1 8246   0.468   3.140  14.805  0.4080 -0.8315 -1.7046
  552MPD2    H2 8247   0.078   3.213  14.661 -1.1948 -0.8824  0.8317
  552MPD2    H3 8248   0.245   3.234  14.843  0.1220  1.2573  0.9863
  552MPD2     N 8249   0.564   3.056  14.583  0.4033 -0.1555  0.4989
  552MPD2    H5 8250   0.626   3.047  14.663 -0.0824  2.6777  1.2251
  552MPD2    N1 8251   0.115   3.073  14.439 -0.4623  0.2218  0.3265
  552MPD2    H7 8252   0.149   3.051  14.345  1.4794  1.6475  0.6984
  553TMC3    C1 8253   4.674   2.943  14.372 -0.1309 -0.0240 -0.3543
  553TMC3    C2 8254   4.717   2.971  14.245  0.0460 -0.8335  0.4339
  553TMC3    C3 8255   4.698   2.874  14.153  0.2125  0.7531  0.0274
  553TMC3    C4 8256   4.600   2.829  14.402  0.3826  0.2857  0.0221
  553TMC3    C5 8257   4.576   2.738  14.302 -0.4359 -1.2379 -0.0314
  553TMC3    C6 8258   4.627   2.761  14.177  0.8500  0.2488  1.0802
  553TMC3     C 8259   4.732   3.020  14.483  0.6899  0.3694 -0.0316
  553TMC3     O 8260   4.703   2.996  14.598 -0.3632  0.1815 -0.3032
  553TMC3     H 8261   0.040   3.053  14.219 -0.0413 -1.3528 -1.4413
  553TMC3    H1 8262   4.562   2.812  14.502  0.6081  2.3597  0.4717
  553TMC3    H2 8263   4.619   2.682  14.104 -1.4392  0.4170  1.1336
  553TMC3    C7 8264   4.600   2.599  14.345  0.0401  0.1827 -0.6957
  553TMC3    C8 8265   0.011   2.891  14.022 -0.6550  1.2336  0.2578
  553TMC3    O1 8266   4.504   2.521  14.338  0.3565  0.0401  0.2235
  553TMC3    O2 8267   0.110   2.963  14.024 -0.6177 -0.4439 -0.2594
  554TMC3    C1 8268   1.527   1.871  11.731 -0.5133 -0.3851 -0.5025
  554TMC3    C2 8269   1.412   1.907  11.667  0.0869 -0.7653 -0.2188
  554TMC3    C3 8270   1.420   1.993  11.559 -0.5288 -0.0712 -0.1021
  554TMC3    C4 8271   1.644   1.938  11.709 -0.2178  0.1193  0.0631
  554TMC3    C5 8272   1.647   2.028  11.606  0.6588  0.6019 -0.0696
  554TMC3    C6 8273   1.539   2.062  11.528 -0.2884 -0.5853 -0.0438
  554TMC3     C 8274   1.509   1.767  11.833 -0.3253 -0.0063 -0.1894
  554TMC3     O 8275   1.397   1.736  11.865  0.2943  0.0164  0.0713
  554TMC3     H 8276   1.317   1.861  11.692  0.1281 -0.5598  0.3166
  554TMC3    H1 8277   1.732   1.916  11.768  0.3852  2.1332 -0.0736
  554TMC3    H2 8278   1.544   2.135  11.449  0.1401 -2.0913 -1.4057
  554TMC3    C7 8279   1.774   2.079  11.557 -0.3896 -0.1758 -0.3931
  554TMC3    C8 8280   1.322   1.986  11.459  0.3349 -0.1699  0.0892
  554TMC3    O1 8281   1.772   2.151  11.452 -0.2124  0.6700 -0.3346
  554TMC3    O2 8282   1.208   1.964  11.497  0.2128  0.2234  0.5744
  555TMC3    C1 8283   1.364   1.654  15.291  0.3337 -0.0725 -0.4088
  555TMC3    C2 8284   1.457   1.734  15.352 -0.0644 -0.3664  0.0497
  555TMC3    C3 8285   1.499   1.698  15.473  0.8679 -0.0824 -0.1468
  555TMC3    C4 8286   1.313   1.542  15.347 -0.2382  0.0503 -0.2921
  555TMC3    C5 8287   1.368   1.502  15.465 -0.2843 -0.7376  0.1905
  555TMC3    C6 8288   1.455   1.578  15.533 -0.2055 -0.8755  0.5008
  555TMC3     C 8289   1.310   1.699  15.165 -0.7361  0.3980 -0.3398
  555TMC3     O 8290   1.190   1.690  15.153  0.4088 -0.2334  0.5091
  555TMC3     H 8291   1.504   1.820  15.305 -1.6656  0.9428  0.8442
  555TMC3    H1 8292   1.247   1.479  15.288  0.5079 -0.1988 -0.8706
  555TMC3    H2 8293   1.469   1.554  15.638  0.7354  1.6283  0.9584
  555TMC3    C7 8294   1.362   1.359  15.503  0.1168  0.2881 -0.3867
  555TMC3    C8 8295   1.561   1.801  15.558 -0.3850  0.6574 -0.1293
  555TMC3    O1 8296   1.271   1.293  15.458 -0.0941 -0.5158 -0.5913
  555TMC3    O2 8297   1.537   1.915  15.522  0.2199 -0.2249  0.7193
  556MPD2     C 8298   3.963   3.034  10.792  0.5530 -1.2755  0.3368
  556MPD2    C1 8299   3.993   2.941  10.893  1.0036  0.1001  0.3629
  556MPD2    C2 8300   4.016   2.809  10.858  0.2589  0.1044  0.0586
  556MPD2    C3 8301   4.020   2.773  10.726  0.7307 -0.0751 -0.5998
  556MPD2    C4 8302   4.007   2.871  10.628  0.4829 -0.5419 -0.4823
  556MPD2    C5 8303   3.976   3.000  10.664  0.1318  0.0280  0.2474
  556MPD2     H 8304   4.034   2.731  10.931 -0.1761 -1.5458 -1.5644
  556MPD2    H1 8305   3.990   2.844  10.524 -1.8390  0.5059 -0.3602
  556MPD2    H2 8306   3.953   3.141  10.806 -0.1796 -1.0856 -1.7605
  556MPD2    H3 8307   3.975   3.079  10.590  1.6166  0.3911  0.6081
  556MPD2     N 8308   4.026   2.639  10.690  0.0616 -0.2725 -0.2717
  556MPD2    H5 8309   4.010   2.574  10.766 -0.6018 -0.2808 -0.4181
  556MPD2    N1 8310   3.997   2.985  11.027 -0.0217  0.3622  0.0307
  556MPD2    H7 8311   4.043   2.927  11.096  0.7489 -0.4088 -1.1370
  557TMC3    C1 8312   4.035   2.442  10.556 -0.9231 -0.4841  0.1031
  557TMC3    C2 8313   3.998   2.397  10.432 -0.0194 -0.3344  0.1492
  557TMC3    C3 8314   3.941   2.267  10.427  0.0815 -0.0807 -0.0088
  557TMC3    C4 8315   4.006   2.367  10.667  0.5769 -0.3270 -1.1487
  557TMC3    C5 8316   3.947   2.236  10.660 -0.8990  0.2087  0.6118
  557TMC3    C6 8317   3.912   2.191  10.540  0.2522  0.2941 -0.0305
  557TMC3     C 8318   4.046   2.586  10.562 -0.4766  0.2314  0.1311
  557TMC3     O 8319   4.067   2.641  10.456 -0.1260  0.0284  0.2311
  557TMC3     H 8320   4.032   2.444  10.340 -4.2006 -2.3012 -2.4002
  557TMC3    H1 8321   4.035   2.404  10.765  0.2330 -0.6864 -0.9093
  557TMC3    H2 8322   3.875   2.090  10.526  0.6935 -0.1311  1.9020
  557TMC3    C7 8323   3.911   2.170  10.779  0.1969 -0.2917  0.1115
  557TMC3    C8 8324   3.883   2.240  10.294  0.8033 -0.4172  0.0441
  557TMC3    O1 8325   3.815   2.098  10.779 -0.2300  0.8052  0.1934
  557TMC3    O2 8326   3.856   2.340  10.228 -0.2566 -0.5673 -0.5475
  558TMC3    C1 8327   1.869   1.231  10.391  0.3823  0.8261 -0.4063
  558TMC3    C2 8328   1.755   1.261  10.461 -0.3479  0.6549 -0.1053
  558TMC3    C3 8329   1.635   1.244  10.396 -0.4516 -0.4424 -0.5703
  558TMC3    C4 8330   1.874   1.205  10.258 -0.5979  0.0993 -0.1531
  558TMC3    C5 8331   1.753   1.197  10.190 -0.0574  0.3049 -0.1233
  558TMC3    C6 8332   1.637   1.215  10.263 -0.2616  0.5275 -0.0586
  558TMC3     C 8333   1.997   1.235  10.458  0.5434 -0.2371 -0.3381
  558TMC3     O 8334   2.094   1.259  10.391 -0.3867 -0.7192  0.9201
  558TMC3     H 8335   1.766   1.303  10.561 -1.2706  0.2053  0.1911
  558TMC3    H1 8336   1.969   1.197  10.207 -0.5942  0.5189 -0.2122
  558TMC3    H2 8337   1.545   1.230  10.207  0.7918  1.6260 -1.4958
  558TMC3    C7 8338   1.750   1.159  10.056 -0.3255 -0.2376 -0.3945
  558TMC3    C8 8339   1.505   1.285  10.451  0.0916  0.3005  0.1094
  558TMC3    O1 8340   1.844   1.183   9.981 -0.8562  0.4164 -0.4108
  558TMC3    O2 8341   1.416   1.310  10.376 -0.0417  0.7376  0.5585
  559MPD2     C 8342   1.472   1.652  10.287 -0.8305  0.3318  0.2004
  559MPD2    C1 8343   1.455   1.695  10.413 -0.2742  0.0168  0.1976
  559MPD2    C2 8344   1.567   1.706  10.499 -0.0970 -0.2592 -0.4028
  559MPD2    C3 8345   1.696   1.665  10.456 -0.2270  0.3348  0.1248
  559MPD2    C4 8346   1.710   1.622  10.327 -0.2021  0.3700  0.1511
  559MPD2    C5 8347   1.602   1.619  10.244 -0.2257 -0.3535 -0.0359
  559MPD2     H 8348   1.552   1.745  10.600  0.7297  0.7796 -0.6824
  559MPD2    H1 8349   1.799   1.581  10.280 -1.2922  0.1103 -1.6900
  559MPD2    H2 8350   1.397   1.646  10.209  1.2262 -0.8607 -1.6834
  559MPD2    H3 8351   1.614   1.593  10.139  1.1190  0.1485 -0.0157
  559MPD2     N 8352   1.808   1.669  10.546 -0.0719 -0.2280 -0.3790
  559MPD2    H5 8353   1.789   1.684  10.645  1.5560 -0.2811 -0.0529
  559MPD2    N1 8354   1.317   1.718  10.442 -0.4036 -0.0602  0.1391
  559MPD2    H7 8355   1.254   1.706  10.363  0.9044  1.0886 -1.1032
  560TMC3    C1 8356   2.039   1.651  10.614 -0.4313  0.5049  0.1133
  560TMC3    C2 8357   1.998   1.603  10.739 -0.3835 -0.5900  0.0444
  560TMC3    C3 8358   2.085   1.526  10.816  0.1159 -0.7998  0.4299
  560TMC3    C4 8359   2.170   1.626  10.573 -1.1860  0.0293  0.7961
  560TMC3    C5 8360   2.253   1.566  10.665 -0.4802  0.1423  0.2378
  560TMC3    C6 8361   2.218   1.514  10.785  0.5151 -0.6930 -0.2073
  560TMC3     C 8362   1.944   1.657  10.510 -0.4032 -0.5401 -0.4075
  560TMC3     O 8363   1.986   1.651  10.394  0.1424  0.2774 -0.6454
  560TMC3     H 8364   1.895   1.607  10.772 -0.4439 -2.2517  0.0267
  560TMC3    H1 8365   2.214   1.669  10.484  0.1622 -1.1095  0.9107
  560TMC3    H2 8366   2.288   1.452  10.839  2.8493  0.4502 -1.9136
  560TMC3    C7 8367   2.394   1.544  10.622  0.3182  0.4626  0.0567
  560TMC3    C8 8368   2.027   1.479  10.945  0.2829 -0.9598 -0.0687
  560TMC3    O1 8369   2.409   1.541  10.501 -0.2579 -0.0461  0.2494
  560TMC3    O2 8370   1.906   1.489  10.955  0.3056  0.2943 -0.4949
  561TMC3    C1 8371   4.690   0.735  11.441  0.5752  0.8377  0.3453
  561TMC3    C2 8372   4.625   0.623  11.455 -1.4045  0.1557  0.3270
  561TMC3    C3 8373   4.492   0.612  11.424  1.2009  0.3887  0.6176
  561TMC3    C4 8374   4.627   0.845  11.376 -0.4953  0.1113 -0.4591
  561TMC3    C5 8375   4.491   0.834  11.350  1.0392  0.1803 -0.4513
  561TMC3    C6 8376   4.426   0.720  11.371 -0.4940 -0.0157 -0.1722
  561TMC3     C 8377   0.087   0.750  11.474  0.1926  0.5643  0.7232
  561TMC3     O 8378   0.150   0.644  11.495 -0.4518  0.1894  0.1254
  561TMC3     H 8379   4.669   0.543  11.514 -1.8199 -0.5391 -0.3106
  561TMC3    H1 8380   4.674   0.940  11.358  0.8846 -0.3565  0.6702
  561TMC3    H2 8381   4.318   0.729  11.364 -0.6161 -0.0748  1.4937
  561TMC3    C7 8382   4.410   0.948  11.322  0.2370 -0.1624 -0.5287
  561TMC3    C8 8383   4.416   0.525  11.505  0.3720  0.4833 -0.1367
  561TMC3    O1 8384   4.307   0.968  11.389  0.1422 -0.0852  0.5388
  561TMC3    O2 8385   4.470   0.420  11.548  0.3292  0.3297  0.2901
  562TMC3    C1 8386   1.387   2.021  16.410 -0.2751 -0.2387  0.5028
  562TMC3    C2 8387   1.291   2.120  16.378 -0.3064 -0.2709  0.5507
  562TMC3    C3 8388   1.222   2.104  16.258 -0.4169  0.1567 -0.0808
  562TMC3    C4 8389   1.405   1.916  16.321  0.3243  0.5990  0.7467
  562TMC3    C5 8390   1.340   1.909  16.206  0.5424  0.0107 -0.2413
  562TMC3    C6 8391   1.240   2.003  16.168  0.5719  0.0330  0.3057
  562TMC3     C 8392   1.433   1.986  16.542 -0.3107  0.3118  0.8161
  562TMC3     O 8393   1.439   1.864  16.567 -0.0706 -0.0546  0.0530
  562TMC3     H 8394   1.263   2.198  16.447  0.1615 -0.2998  0.7771
  562TMC3    H1 8395   1.490   1.853  16.343  0.7782  1.2377  0.8302
  562TMC3    H2 8396   1.174   1.996  16.082 -1.4589 -1.3219  1.9821
  562TMC3    C7 8397   1.358   1.806  16.117  0.2330 -0.2090  0.1289
  562TMC3    C8 8398   1.108   2.189  16.251 -0.6929  0.4532 -0.1149
  562TMC3    O1 8399   1.322   1.826  16.001  0.1592 -0.0718 -0.0697
  562TMC3    O2 8400   1.062   2.239  16.357 -0.0138  0.3593  0.0619
  563MPD2     C 8401   3.747   3.323  15.654 -0.1106 -0.9879 -0.2063
  563MPD2    C1 8402   3.758   3.328  15.789  0.5941 -0.0128 -0.3613
  563MPD2    C2 8403   3.881   3.304  15.850 -1.7747 -0.3402  0.2220
  563MPD2    C3 8404   3.988   3.258  15.778  0.0880  0.2190 -0.5731
  563MPD2    C4 8405   3.977   3.242  15.639 -1.1685 -0.2721 -0.5140
  563MPD2    C5 8406   3.855   3.281  15.588  0.4787  0.7491 -0.1255
  563MPD2     H 8407   3.898   3.312  15.957 -0.3954 -1.2449  0.0639
  563MPD2    H1 8408   4.061   3.217  15.576  1.2552  1.7278  1.9099
  563MPD2    H2 8409   3.657   3.351  15.600 -0.9190 -2.0409  0.5998
  563MPD2    H3 8410   3.847   3.284  15.480  3.0610  0.8863 -0.3164
  563MPD2     N 8411   4.105   3.238  15.847 -0.2555  0.1267 -0.2568
  563MPD2    H5 8412   4.096   3.264  15.945  2.4335 -2.5390  0.6766
  563MPD2    N1 8413   3.644   3.348  15.865  0.0768  0.1566  0.2576
  563MPD2    H7 8414   3.557   3.334  15.814  1.8155  0.2791 -2.7940
  564TMC3    C1 8415   3.542   3.354  16.085  0.5492 -0.2730  0.7968
  564TMC3    C2 8416   3.446   3.266  16.039  0.0877 -0.3469  0.1345
  564TMC3    C3 8417   3.370   3.198  16.127 -0.8010  0.0188 -0.4754
  564TMC3    C4 8418   3.589   3.340  16.215  0.7296 -0.7223 -0.6485
  564TMC3    C5 8419   3.508   3.272  16.302  0.3449  0.0552 -0.2940
  564TMC3    C6 8420   3.392   3.205  16.264  0.4839 -0.3185 -0.0306
  564TMC3     C 8421   3.656   3.384  15.997 -0.9148  0.5383 -1.2145
  564TMC3     O 8422   3.742   3.450  16.053 -0.0434  0.5120  0.3279
  564TMC3     H 8423   3.419   3.269  15.934  1.4882  2.3197 -0.1654
  564TMC3    H1 8424   3.681   3.387  16.248 -0.5255  1.5203 -0.3006
  564TMC3    H2 8425   3.314   3.169  16.330 -0.2466  1.3488  0.0296
  564TMC3    C7 8426   3.592   3.179  16.367 -0.4353 -0.0089 -0.7541
  564TMC3    C8 8427   3.278   3.086  16.085  0.0472 -1.1206  0.1381
  564TMC3    O1 8428   3.704   3.215  16.406  0.3535  0.5535 -0.2719
  564TMC3    O2 8429   3.273   2.996  16.167 -0.0880 -0.4094 -0.0789
  565TMC3    C1 8430   3.802   4.384  10.666 -0.2131  0.2739 -0.0334
  565TMC3    C2 8431   3.833   4.352  10.794  0.2091  0.0539  0.9135
  565TMC3    C3 8432   3.756   4.258  10.853 -0.1915 -0.4818  0.3716
  565TMC3    C4 8433   3.686   4.339  10.600 -0.8091 -0.2450 -0.3747
  565TMC3    C5 8434   3.608   4.248  10.668  0.4781  0.0712  0.4500
  565TMC3    C6 8435   3.649   4.195  10.789  0.0181 -0.2117  0.4025
  565TMC3     C 8436   3.883   4.488  10.597  0.2096 -0.2132  0.1342
  565TMC3     O 8437   3.869   4.494  10.475 -0.0364  0.5677 -0.4146
  565TMC3     H 8438   3.931   4.376  10.834  1.3961 -3.2933  0.0394
  565TMC3    H1 8439   3.664   4.370  10.499 -1.4441 -1.7291 -0.6990
  565TMC3    H2 8440   3.569   4.151  10.848  0.7727 -1.7541  0.2525
  565TMC3    C7 8441   3.483   4.205  10.613 -0.8551 -0.1484 -0.3016
  565TMC3    C8 8442   3.794   4.214  10.991  0.6837  0.1429 -0.1180
  565TMC3    O1 8443   3.439   4.105  10.665  0.4669  0.5770 -0.2877
  565TMC3    O2 8444   3.766   4.097  11.020  0.3640 -0.2589 -0.0935
  566MPD2     C 8445   0.886   1.432  14.706  0.2673  0.0295  0.3619
  566MPD2    C1 8446   0.934   1.500  14.598  0.6530 -0.2848 -0.4781
  566MPD2    C2 8447   0.855   1.483  14.483 -0.6145 -0.2979  0.1034
  566MPD2    C3 8448   0.743   1.416  14.489  0.3675  0.4576 -0.3470
  566MPD2    C4 8449   0.703   1.338  14.595  0.1684  0.7803  0.3147
  566MPD2    C5 8450   0.776   1.347  14.706 -0.0786 -0.4119 -0.2555
  566MPD2     H 8451   0.880   1.521  14.385  1.2118 -2.8423 -0.4380
  566MPD2    H1 8452   0.613   1.278  14.599  1.6353 -1.4369  0.1487
  566MPD2    H2 8453   0.944   1.431  14.797  2.5819 -0.3582 -1.1268
  566MPD2    H3 8454   0.752   1.299  14.800 -0.4165  0.2142 -0.0160
  566MPD2     N 8455   0.664   1.394  14.380  0.1785  0.8402  0.7462
  566MPD2    H5 8456   0.604   1.312  14.382 -0.0833  0.9436 -2.0990
  566MPD2    N1 8457   1.055   1.573  14.605 -0.0630  1.2358 -0.1301
  566MPD2    H7 8458   1.103   1.580  14.695  1.7741  1.8992 -1.1774
  567TMC3    C1 8459   1.251   1.639  14.504 -0.4509 -0.2972  0.0330
  567TMC3    C2 8460   1.309   1.646  14.382  0.1581 -0.2846  0.8077
  567TMC3    C3 8461   1.440   1.597  14.361  0.6249  0.1006 -0.4619
  567TMC3    C4 8462   1.317   1.588  14.613  0.3109 -0.5282  0.8702
  567TMC3    C5 8463   1.437   1.531  14.588 -1.0867 -0.4098 -0.4984
  567TMC3    C6 8464   1.497   1.524  14.463  0.2560  0.5649 -0.4860
  567TMC3     C 8465   1.110   1.642  14.497  0.1025  0.2600  0.3012
  567TMC3     O 8466   1.058   1.688  14.396  0.5848 -0.3065 -0.0068
  567TMC3     H 8467   1.255   1.697  14.303  1.4941  0.6593  0.5106
  567TMC3    H1 8468   1.285   1.605  14.716 -0.7192 -0.2273  0.4984
  567TMC3    H2 8469   1.599   1.488  14.458  0.9648  2.1681  1.9718
  567TMC3    C7 8470   1.511   1.462  14.696 -0.5476 -0.4687 -0.0807
  567TMC3    C8 8471   1.485   1.580  14.219 -0.1473 -0.5217 -0.2846
  567TMC3    O1 8472   1.628   1.436  14.683  0.1444 -0.1378  0.5741
  567TMC3    O2 8473   1.414   1.627  14.133 -0.4888  0.1243 -0.2004
  568MPD2     C 8474   3.220   1.626  16.066  0.1160 -0.2781  0.5787
  568MPD2    C1 8475   3.214   1.698  16.178  0.9673  0.0121  0.0990
  568MPD2    C2 8476   3.150   1.826  16.179 -0.3394  0.1809  0.5659
  568MPD2    C3 8477   3.093   1.873  16.064 -0.0607  0.1255  0.0566
  568MPD2    C4 8478   3.101   1.797  15.951  0.4857 -0.0777  0.6046
  568MPD2    C5 8479   3.158   1.679  15.953  0.4666  0.3663  0.6544
  568MPD2     H 8480   3.140   1.886  16.269  0.6747 -1.1067  1.5504
  568MPD2    H1 8481   3.064   1.837  15.857 -4.2228  0.2066  2.5895
  568MPD2    H2 8482   3.268   1.529  16.058  0.6104 -0.0098  0.2898
  568MPD2    H3 8483   3.164   1.627  15.857  1.2199  0.8809  0.4284
  568MPD2     N 8484   3.040   2.001  16.076 -0.2626 -0.3787 -0.0185
  568MPD2    H5 8485   3.065   2.051  16.160 -1.1769  0.6958 -0.3925
  568MPD2    N1 8486   3.278   1.644  16.299 -0.1959 -0.2737 -0.0163
  568MPD2    H7 8487   3.347   1.570  16.285  0.9266  0.4968  1.4799
  569TMC3    C1 8488   2.950   2.214  16.024 -0.1392  0.2776  0.0753
  569TMC3    C2 8489   2.920   2.241  16.158  0.4377 -0.6426 -0.0771
  569TMC3    C3 8490   2.918   2.374  16.201 -0.0983 -0.3752  0.5116
  569TMC3    C4 8491   2.975   2.318  15.939  0.4571 -0.1299 -0.2068
  569TMC3    C5 8492   2.961   2.445  15.990  0.1147 -0.1025 -0.3258
  569TMC3    C6 8493   2.941   2.476  16.121  0.2154  0.9421  0.3056
  569TMC3     C 8494   2.984   2.075  15.974  0.0496  0.2178  0.2565
  569TMC3     O 8495   2.970   2.040  15.857  0.4248 -0.3202 -0.2314
  569TMC3     H 8496   2.901   2.157  16.223  1.2776  0.6119  1.7750
  569TMC3    H1 8497   3.022   2.292  15.845  0.9561  0.7932 -0.2101
  569TMC3    H2 8498   2.907   2.575  16.150 -0.9429  0.7535 -0.4119
  569TMC3    C7 8499   2.983   2.544  15.896 -0.1483 -0.8801  0.6800
  569TMC3    C8 8500   2.924   2.394  16.343 -0.0163 -0.2453 -0.8202
  569TMC3    O1 8501   2.967   2.517  15.775  0.0935 -0.1518 -0.3678
  569TMC3    O2 8502   2.889   2.298  16.412 -0.1779  0.1692 -0.1880
  570TMC3    C1 8503   2.537   0.765  16.445  0.6261  0.2317  0.0801
  570TMC3    C2 8504   2.639   0.772  16.358  0.6978  0.6531 -0.0868
  570TMC3    C3 8505   2.688   0.898  16.333  0.0902  0.1277 -0.3480
  570TMC3    C4 8506   2.481   0.871  16.505  0.1157  0.0114  0.9284
  570TMC3    C5 8507   2.544   0.994  16.484  0.4022 -0.1436 -0.8874
  570TMC3    C6 8508   2.656   1.010  16.395 -0.1061 -0.0701 -0.2755
  570TMC3     C 8509   2.490   0.628  16.477 -0.3493  0.1460 -0.1681
  570TMC3     O 8510   2.501   0.543  16.390  0.2886  0.4484 -0.5840
  570TMC3     H 8511   2.670   0.684  16.304 -0.7142 -0.8369  1.5443
  570TMC3    H1 8512   2.396   0.866  16.572 -0.8460 -0.1075 -0.2945
  570TMC3    H2 8513   2.691   1.111  16.376 -1.6344  0.7357  1.1692
  570TMC3    C7 8514   2.511   1.101  16.575  0.5740  0.4501 -0.5399
  570TMC3    C8 8515   2.800   0.914  16.240  0.3653  0.1731 -0.6833
  570TMC3    O1 8516   2.438   1.069  16.674 -0.0866 -0.0169  0.1630
  570TMC3    O2 8517   2.822   1.022  16.194  0.1616 -0.3557 -0.1355
  571MPD2     C 8518   1.042   3.401   0.297 -0.0097 -0.6271  0.7892
  571MPD2    C1 8519   0.918   3.347   0.340  0.3975 -0.5013 -0.8766
  571MPD2    C2 8520   0.875   3.370   0.471  0.6506  0.1286 -0.3018
  571MPD2    C3 8521   0.964   3.440   0.559 -0.0794 -0.0345 -0.1608
  571MPD2    C4 8522   1.081   3.486   0.514  0.3930  0.7724  0.1961
  571MPD2    C5 8523   1.125   3.467   0.383  0.3908  0.0572  0.8005
  571MPD2     H 8524   0.786   3.318   0.502  1.8647 -1.6474  0.1697
  571MPD2    H1 8525   1.145   3.546   0.577  1.6338 -0.4391  0.0899
  571MPD2    H2 8526   1.090   3.378   0.203  0.7301 -1.4069  1.3538
  571MPD2    H3 8527   1.217   3.497   0.334 -0.3703 -0.2399 -0.8136
  571MPD2     N 8528   0.921   3.471   0.683 -0.0824  0.4069 -0.1095
  571MPD2    H5 8529   0.976   3.541   0.731  0.7052  0.9843 -1.8654
  571MPD2    N1 8530   0.846   3.269   0.245  0.9846 -0.0884  0.1648
  571MPD2    H7 8531   0.869   3.289   0.148 -0.3385  0.2529 -0.0874
  572TMC3    C1 8532   0.760   3.529   0.838 -0.3951  0.4103  0.6629
  572TMC3    C2 8533   0.690   3.496   0.951  0.9217 -0.7524 -0.0417
  572TMC3    C3 8534   0.636   3.590   1.030  0.0062  0.0999  0.2879
  572TMC3    C4 8535   0.773   3.660   0.794  0.5298  0.7155 -0.6733
  572TMC3    C5 8536   0.720   3.758   0.871  0.6938 -0.2570  0.2936
  572TMC3    C6 8537   0.655   3.724   0.991  0.0659 -0.3194  0.5152
  572TMC3     C 8538   0.804   3.428   0.739 -0.4569  0.1839 -0.2029
  572TMC3     O 8539   0.740   3.323   0.723  0.0601 -0.0452  0.0124
  572TMC3     H 8540   0.654   3.394   0.959  0.2650 -0.4542  0.8494
  572TMC3    H1 8541   0.813   3.678   0.695  0.6408  1.2335 -0.5377
  572TMC3    H2 8542   0.602   3.803   1.044 -1.0925  0.1924 -1.4045
  572TMC3    C7 8543   0.668   3.882   0.812 -0.2985  0.6624  0.0873
  572TMC3    C8 8544   0.557   3.557   1.147  0.1197  0.3071 -0.0284
  572TMC3    O1 8545   0.666   3.873   0.689 -0.2995 -0.0126  0.0406
  572TMC3    O2 8546   0.537   3.651   1.224  0.9986 -0.5813  0.0363
  573MPD2     C 8547   2.108   2.955   0.004  0.0925  0.4894 -0.1585
  573MPD2    C1 8548   2.122   3.080   0.052  0.4732 -0.1573 -0.1126
  573MPD2    C2 8549   2.103   3.190  17.737  0.0776 -0.4424 -0.4291
  573MPD2    C3 8550   2.067   3.173  17.605  0.3723 -0.0917  0.1783
  573MPD2    C4 8551   2.056   3.045  17.556  0.0629 -0.5633  0.0727
  573MPD2    C5 8552   2.071   2.937  17.636 -0.2380  0.5806  0.2797
  573MPD2     H 8553   2.123   3.289   0.011 -1.0350 -0.2745 -0.2686
  573MPD2    H1 8554   2.025   3.025  17.454  1.0481 -0.1403 -0.3080
  573MPD2    H2 8555   2.129   2.867   0.065 -1.7659  0.5484  0.5485
  573MPD2    H3 8556   2.053   2.841  17.588  0.5133  0.7911 -0.4076
  573MPD2     N 8557   2.035   3.279  17.518  0.2315 -0.4152  0.2625
  573MPD2    H5 8558   2.010   3.233  17.431 -0.2903  0.7739 -0.2228
  573MPD2    N1 8559   2.146   3.092   0.191  0.3875  0.4832  0.2370
  573MPD2    H7 8560   2.139   2.999   0.232  1.6384  0.0505 -0.5208
  574TMC3    C1 8561   1.967   3.478  17.445  0.0667  0.0111 -0.0491
  574TMC3    C2 8562   1.871   3.563  17.485 -0.5937  0.2975 -0.2533
  574TMC3    C3 8563   1.766   3.602  17.399  0.3526  0.0285 -0.0102
  574TMC3    C4 8564   1.969   3.414  17.325 -0.3525  0.2308  0.3357
  574TMC3    C5 8565   1.867   3.458  17.235 -0.0025  0.7813 -0.1626
  574TMC3    C6 8566   1.770   3.546  17.269 -0.5149 -0.7119  0.5075
  574TMC3     C 8567   2.035   3.416  17.552  0.5373 -0.0694 -0.1414
  574TMC3     O 8568   2.049   3.485  17.653  0.4400  0.5817  0.3057
  574TMC3     H 8569   1.880   3.614  17.580  0.3176 -0.7865  0.2385
  574TMC3    H1 8570   2.054   3.370  17.275 -1.3587 -0.1156 -1.0738
  574TMC3    H2 8571   1.692   3.565  17.196 -0.7831 -1.2212  0.6586
  574TMC3    C7 8572   1.894   3.433  17.094 -0.1452  0.0584 -0.0529
  574TMC3    C8 8573   1.637   3.628  17.452 -0.2819 -0.9506 -0.0366
  574TMC3    O1 8574   1.943   3.323  17.063 -0.8904  0.2651 -0.2651
  574TMC3    O2 8575   1.556   3.662  17.365 -0.7230  0.1797 -0.3018
  575TMC3    C1 8576   4.075   3.700  11.692  0.4031  0.8547  1.1287
  575TMC3    C2 8577   4.015   3.576  11.663  0.6040  0.4969  0.0388
  575TMC3    C3 8578   3.933   3.569  11.553  0.1638  0.0494  0.2263
  575TMC3    C4 8579   4.049   3.812  11.611  0.1023  0.6968 -1.1363
  575TMC3    C5 8580   3.951   3.803  11.517  0.1749  0.3455  0.4936
  575TMC3    C6 8581   3.903   3.678  11.473 -0.4316 -0.1170  0.3054
  575TMC3     C 8582   4.143   3.727  11.813 -0.5320 -0.0559 -0.2347
  575TMC3     O 8583   4.167   3.845  11.840  0.6417 -0.8857 -0.1214
  575TMC3     H 8584   4.037   3.491  11.726 -0.0166  0.4724  0.2286
  575TMC3    H1 8585   4.099   3.906  11.635 -2.2819  0.9824  2.5917
  575TMC3    H2 8586   3.834   3.673  11.389  0.0323 -0.4606 -0.0544
  575TMC3    C7 8587   3.929   3.917  11.424  0.2640 -0.0050 -0.3078
  575TMC3    C8 8588   3.862   3.441  11.539 -0.1877  0.1668 -1.2687
  575TMC3    O1 8589   3.899   3.877  11.310  0.7810 -0.9004 -0.1387
  575TMC3    O2 8590   3.856   3.370  11.637 -0.1104  0.0893  0.0398
  576MPD2     C 8591   3.789   1.245  12.532  0.8291 -0.1590  0.2304
  576MPD2    C1 8592   3.784   1.294  12.402 -0.3962 -0.5142  0.3628
  576MPD2    C2 8593   3.776   1.434  12.380  0.3659  0.6079  0.5733
  576MPD2    C3 8594   3.752   1.520  12.480  0.5966 -0.4466 -0.3500
  576MPD2    C4 8595   3.740   1.471  12.603  0.0964  0.3341 -0.2388
  576MPD2    C5 8596   3.755   1.332  12.633  0.2663  0.7173 -0.7601
  576MPD2     H 8597   3.764   1.477  12.281 -1.7606 -4.5666 -1.4460
  576MPD2    H1 8598   3.700   1.541  12.675 -0.5256 -2.9509  2.6405
  576MPD2    H2 8599   3.816   1.143  12.555 -0.9084 -0.8732 -0.8739
  576MPD2    H3 8600   3.746   1.305  12.737 -0.3931  0.3407 -0.9173
  576MPD2     N 8601   3.731   1.658  12.445 -0.4065  0.0238 -0.4221
  576MPD2    H5 8602   3.753   1.671  12.347  0.6995  2.0386  0.0998
  576MPD2    N1 8603   3.790   1.205  12.288 -0.2942  0.2721 -0.0517
  576MPD2    H7 8604   3.807   1.252  12.200 -0.4665 -2.3802 -1.5221
  577TMC3    C1 8605   3.771   1.017  12.162  0.3439 -0.1002  0.1516
  577TMC3    C2 8606   3.844   0.906  12.131  1.2623  0.7122  1.0042
  577TMC3    C3 8607   3.864   0.875  12.001  0.1878  0.1624  0.0062
  577TMC3    C4 8608   3.736   1.103  12.065  0.5203  0.1578  0.3653
  577TMC3    C5 8609   3.743   1.059  11.933 -0.6111 -0.8942  0.5388
  577TMC3    C6 8610   3.806   0.945  11.897 -0.2924 -0.2513 -0.1003
  577TMC3     C 8611   3.772   1.067  12.290  0.9868 -0.0199 -0.2291
  577TMC3     O 8612   3.768   0.986  12.382  0.6547  0.0378  0.5164
  577TMC3     H 8613   3.891   0.857  12.215  1.0777  1.8554  1.7680
  577TMC3    H1 8614   3.660   1.173  12.098  0.9665  0.6664  0.3102
  577TMC3    H2 8615   3.812   0.913  11.794 -1.0484 -0.0222 -0.2114
  577TMC3    C7 8616   3.713   1.157  11.837  0.3663 -0.2754 -0.3548
  577TMC3    C8 8617   3.916   0.741  11.982  0.5037  0.3227  0.4895
  577TMC3    O1 8618   3.677   1.263  11.888 -0.7194  0.1179  0.3059
  577TMC3    O2 8619   3.923   0.667  12.082 -0.1496 -0.2584 -0.5361
  578MPD2     C 8620   2.018   2.180   0.423 -0.1274  0.2701 -0.6105
  578MPD2    C1 8621   2.045   2.049   0.391 -0.1661 -0.2310  0.0222
  578MPD2    C2 8622   2.164   1.986   0.425 -0.0097 -0.7403  0.0976
  578MPD2    C3 8623   2.239   2.040   0.522 -0.1699  0.1598 -0.7214
  578MPD2    C4 8624   2.213   2.174   0.561  0.2913 -0.4313  0.4470
  578MPD2    C5 8625   2.101   2.240   0.511 -0.3521  0.2141 -0.3134
  578MPD2     H 8626   2.190   1.885   0.396  0.8785 -0.2359 -0.9113
  578MPD2    H1 8627   2.272   2.212   0.644  0.3570  2.0973 -0.7612
  578MPD2    H2 8628   1.935   2.230   0.374  0.7784  1.6010 -0.7599
  578MPD2    H3 8629   2.087   2.342   0.544  0.1764  0.1517  0.1010
  578MPD2     N 8630   2.335   1.959   0.572 -0.1963 -0.2379 -0.1647
  578MPD2    H5 8631   2.336   1.866   0.531 -0.2837  1.4835 -4.0377
  578MPD2    N1 8632   1.953   1.978   0.306 -0.2399 -0.4302  0.4703
  578MPD2    H7 8633   1.872   2.035   0.284  1.0976  2.0316  2.0307
  579TMC3    C1 8634   2.538   1.899   0.675 -0.0882  0.1924 -0.2137
  579TMC3    C2 8635   2.659   1.952   0.707 -0.6996 -0.2006  1.0195
  579TMC3    C3 8636   2.763   1.867   0.704 -0.1127  0.8955 -0.1643
  579TMC3    C4 8637   2.511   1.775   0.629  0.2431  0.2795 -0.3508
  579TMC3    C5 8638   2.621   1.701   0.620 -0.6551  0.2168  0.8755
  579TMC3    C6 8639   2.743   1.742   0.654 -0.1463  0.4473  0.3155
  579TMC3     C 8640   2.433   1.993   0.671 -0.5306 -0.1603 -1.0472
  579TMC3     O 8641   2.442   2.096   0.739  0.2607  0.7009  0.2448
  579TMC3     H 8642   2.668   2.055   0.740 -3.2340  0.8153 -1.4960
  579TMC3    H1 8643   2.411   1.735   0.613  0.0025  1.1546 -1.0493
  579TMC3    H2 8644   2.827   1.673   0.653 -0.4734  0.0646 -0.9539
  579TMC3    C7 8645   2.608   1.559   0.593 -0.0175  0.7351 -1.0529
  579TMC3    C8 8646   2.895   1.910   0.751 -1.0490 -0.4070  0.5604
  579TMC3    O1 8647   2.703   1.484   0.617  0.2233 -0.7155  0.5767
  579TMC3    O2 8648   2.900   2.027   0.790  0.3406 -0.6453  0.7352
  580TMC3    C1 8649   1.690   0.240  12.284 -0.0864  0.0340 -0.2705
  580TMC3    C2 8650   1.797   0.312  12.327  0.0881 -0.2472  0.2949
  580TMC3    C3 8651   1.916   0.250  12.341  0.1706 -0.3625 -0.0896
  580TMC3    C4 8652   1.694   0.107  12.245 -0.2038  0.0444  0.5730
  580TMC3    C5 8653   1.817   0.049  12.269 -0.5671 -0.7475 -0.1574
  580TMC3    C6 8654   1.925   0.120  12.305  0.2786 -0.4390 -0.4316
  580TMC3     C 8655   1.573   0.314  12.246  0.4706 -0.2146 -0.5117
  580TMC3     O 8656   1.470   0.255  12.237 -0.1865 -0.3028  0.0356
  580TMC3     H 8657   1.785   0.405  12.383  0.1298  0.4955 -0.9324
  580TMC3    H1 8658   1.607   0.044  12.232 -0.6225  0.5382  0.9636
  580TMC3    H2 8659   2.014   0.065  12.334 -1.1325 -1.0649  2.7790
  580TMC3    C7 8660   1.835   4.653  12.311  0.1672  0.0693  0.0368
  580TMC3    C8 8661   2.029   0.350  12.332 -0.6574  0.3299  0.5831
  580TMC3    O1 8662   1.933   4.612  12.373  0.1713 -0.4596  0.6012
  580TMC3    O2 8663   2.022   0.461  12.381 -0.3963  0.0324 -0.0363
  581MPD2     C 8664   3.835   4.251  15.369 -0.0446  0.4445 -0.2360
  581MPD2    C1 8665   3.946   4.264  15.291 -0.1492  0.1914 -0.2528
  581MPD2    C2 8666   3.951   4.373  15.203  0.4699  0.3770 -0.1744
  581MPD2    C3 8667   3.845   4.462  15.183 -0.1727 -0.5278 -0.3099
  581MPD2    C4 8668   3.732   4.434  15.261  0.0184 -0.0179 -0.4660
  581MPD2    C5 8669   3.729   4.329  15.348 -0.5758 -0.2739 -0.6247
  581MPD2     H 8670   4.035   4.381  15.134  1.8347 -1.0406  1.3006
  581MPD2    H1 8671   3.639   4.487  15.242 -0.1383 -0.7842 -1.8386
  581MPD2    H2 8672   3.837   4.167  15.437  1.8739 -0.1232 -0.9912
  581MPD2    H3 8673   3.637   4.316  15.403  0.6647 -0.2429  1.4429
  581MPD2     N 8674   3.858   4.565  15.086  0.5492  0.0397  0.4659
  581MPD2    H5 8675   3.940   4.568  15.026 -0.6329 -0.6248 -1.2030
  581MPD2    N1 8676   4.047   4.168  15.302 -0.5048  0.4688  0.1634
  581MPD2    H7 8677   4.032   4.098  15.374 -1.4705 -2.4649 -2.8955
  582TMC3    C1 8678   4.271   4.079  15.291  0.1168 -0.0918  0.2613
  582TMC3    C2 8679   4.387   4.129  15.348 -0.4673 -0.0919 -0.6052
  582TMC3    C3 8680   4.440   4.058  15.455 -0.0685  0.6153  1.0770
  582TMC3    C4 8681   4.211   3.968  15.336  0.4625  0.8812 -0.3515
  582TMC3    C5 8682   4.253   3.915  15.454 -0.2269  0.3965  0.4074
  582TMC3    C6 8683   4.359   3.966  15.517  0.3336  0.1760 -0.6307
  582TMC3     C 8684   4.174   4.184  15.249  0.6446  0.1934  0.5654
  582TMC3     O 8685   4.229   4.283  15.200 -0.0872 -0.0757 -0.0250
  582TMC3     H 8686   4.431   4.222  15.313 -0.9621 -0.7158 -2.8476
  582TMC3    H1 8687   4.126   3.927  15.283 -0.4475 -0.2835  2.0195
  582TMC3    H2 8688   4.397   3.918  15.606 -1.6392 -0.4824 -0.1524
  582TMC3    C7 8689   4.146   3.925  15.550 -0.2722 -0.0557 -0.0169
  582TMC3    C8 8690   4.487   4.152  15.553 -0.4058 -0.2957  0.0985
  582TMC3    O1 8691   4.045   3.855  15.520 -0.0741 -0.7604 -0.0419
  582TMC3    O2 8692   4.406   4.185  15.639  0.5442 -0.4081  0.0709
  583MPD2     C 8693   4.225   1.700  16.890 -0.9510 -0.1776  0.3172
  583MPD2    C1 8694   4.281   1.822  16.839 -0.4792 -0.5095 -0.4605
  583MPD2    C2 8695   4.267   1.942  16.917  0.1135 -0.0285  0.3579
  583MPD2    C3 8696   4.205   1.937  17.043  0.0541 -0.5697  0.1745
  583MPD2    C4 8697   4.170   1.819  17.095  1.0599  0.6744 -0.5268
  583MPD2    C5 8698   4.182   1.703  17.020 -0.4647  0.1101  0.3163
  583MPD2     H 8699   4.305   2.036  16.879 -0.7152  1.1556  2.5190
  583MPD2    H1 8700   4.127   1.804  17.194 -0.4696 -2.7153 -1.7121
  583MPD2    H2 8701   4.239   1.599  16.853  0.0716  0.6902 -1.6703
  583MPD2    H3 8702   4.161   1.614  17.077 -0.5085  0.6084  1.0755
  583MPD2     N 8703   4.194   2.059  17.110  0.5370 -0.0810  0.3198
  583MPD2    H5 8704   4.227   2.142  17.061  1.8648 -1.3517 -0.9077
  583MPD2    N1 8705   4.360   1.827  16.719  0.6019  0.0104 -0.2257
  583MPD2    H7 8706   4.396   1.917  16.689 -1.6722  0.1959 -2.4037
  584TMC3    C1 8707   4.185   2.217  17.286  0.4090  0.5952  0.1668
  584TMC3    C2 8708   4.263   2.302  17.215 -0.4742  0.2796  0.3510
  584TMC3    C3 8709   4.253   2.435  17.245  0.2653 -0.0913 -0.4962
  584TMC3    C4 8710   4.110   2.253  17.396  0.4725 -0.2193 -0.2437
  584TMC3    C5 8711   4.105   2.385  17.430  0.2876  0.1440  0.0082
  584TMC3    C6 8712   4.178   2.473  17.359  0.0047 -0.1142 -0.2562
  584TMC3     C 8713   4.155   2.084  17.238  0.1706 -0.2454 -0.1720
  584TMC3     O 8714   4.114   2.007  17.324 -0.4012  0.4946  0.0604
  584TMC3     H 8715   4.327   2.269  17.134  0.1291  0.5653  0.7120
  584TMC3    H1 8716   4.044   2.179  17.439 -0.5273  0.7548 -0.1080
  584TMC3    H2 8717   4.182   2.577  17.390  1.4629 -0.8620  2.1073
  584TMC3    C7 8718   4.023   2.422  17.546  0.1604 -0.9037  1.2660
  584TMC3    C8 8719   4.321   2.531  17.167 -0.0840  0.2476 -0.2049
  584TMC3    O1 8720   3.942   2.333  17.570 -0.2062  0.4678  0.3639
  584TMC3    O2 8721   4.354   2.500  17.054 -0.7482 -0.4953  0.0331
  585MPD2     C 8722   3.970   0.713   0.676  0.1101 -1.9528 -0.3495
  585MPD2    C1 8723   4.076   0.648   0.624  0.4339  0.4984 -0.0519
  585MPD2    C2 8724   4.062   0.532   0.548  0.0243  0.7938  0.7520
  585MPD2    C3 8725   3.939   0.478   0.524 -0.0183  0.3899 -0.0752
  585MPD2    C4 8726   3.832   0.556   0.564  1.0112  0.1571  0.9155
  585MPD2    C5 8727   3.844   0.677   0.631 -0.2403  0.1416 -0.7532
  585MPD2     H 8728   4.152   0.489   0.505 -1.4030 -0.9203 -0.5205
  585MPD2    H1 8729   3.730   0.523   0.548  1.2416  1.0609 -2.5144
  585MPD2    H2 8730   3.985   0.811   0.719 -0.4728 -1.4476 -1.2924
  585MPD2    H3 8731   3.758   0.740   0.653 -0.7746 -1.1219  0.7371
  585MPD2     N 8732   3.907   0.366   0.431 -0.6023 -0.2680  0.4358
  585MPD2    H5 8733   3.812   0.367   0.394 -0.2389 -1.9140 -0.5471
  585MPD2    N1 8734   4.192   0.729   0.628  1.2508 -0.5583 -0.6051
  585MPD2    H7 8735   4.204   0.813   0.684 -2.1278  0.7538 -1.8295
  586TMC3    C1 8736   3.958   0.200   0.272  0.2563  0.1351  0.6096
  586TMC3    C2 8737   4.065   0.149   0.204 -0.0883 -0.0445  0.4412
  586TMC3    C3 8738   4.046   0.138   0.064  0.0201 -0.2995  0.3158
  586TMC3    C4 8739   3.837   0.226   0.215  1.1523 -0.9360  0.1518
  586TMC3    C5 8740   3.828   0.223   0.077 -0.1674  0.3946  0.4469
  586TMC3    C6 8741   3.933   0.169   0.001 -0.4111 -0.0569 -0.1011
  586TMC3     C 8742   4.006   0.284   0.378  0.7879  0.0859 -0.4782
  586TMC3     O 8743   4.121   0.287   0.417 -0.3167 -0.2250  0.4902
  586TMC3     H 8744   4.157   0.127   0.258 -0.7456  0.3654  1.7044
  586TMC3    H1 8745   3.750   0.264   0.267  1.5404  1.3933 -0.8693
  586TMC3    H2 8746   3.921   0.154  17.658 -1.7912 -0.3018  0.0858
  586TMC3    C7 8747   3.711   0.270   0.013  0.0756  0.4739  0.6470
  586TMC3    C8 8748   4.152   0.086  17.742  1.1597 -0.1202  0.5530
  586TMC3    O1 8749   3.604   0.236   0.068  0.6310 -0.7011 -0.7061
  586TMC3    O2 8750   4.224   0.000   0.022 -0.4907 -0.4110 -0.3022
  587TMC3    C1 8751   0.842   4.314  16.243 -0.1991 -0.3429 -0.5543
  587TMC3    C2 8752   0.926   4.372  16.330  0.1440  0.2136  0.3403
  587TMC3    C3 8753   1.032   4.292  16.370 -0.5028  0.0502  0.7832
  587TMC3    C4 8754   0.856   4.184  16.196  0.0001  0.2162  0.2183
  587TMC3    C5 8755   0.954   4.105  16.249  0.6683  0.4475  0.2869
  587TMC3    C6 8756   1.051   4.163  16.325  0.8410 -0.5474  0.2616
  587TMC3     C 8757   0.709   4.374  16.234  0.4670 -0.2052  0.0634
  587TMC3     O 8758   0.699   4.489  16.197 -0.5448 -0.1851 -0.5327
  587TMC3     H 8759   0.914   4.477  16.356 -0.2035  0.1238  0.5432
  587TMC3    H1 8760   0.779   4.143  16.131 -1.8106  0.2516  2.3493
  587TMC3    H2 8761   1.149   4.121  16.347  0.2752 -1.8209  0.3258
  587TMC3    C7 8762   0.988   3.990  16.168 -0.6583  0.1756 -0.4266
  587TMC3    C8 8763   1.133   4.351  16.445 -0.0256  0.2121 -0.1281
  587TMC3    O1 8764   1.106   3.960  16.158  0.2726 -0.3600 -0.0843
  587TMC3    O2 8765   1.223   4.276  16.484  1.2182 -0.2514 -0.6870
  588TMC3    C1 8766   2.813   0.882   9.394 -0.2720  0.0881  0.1043
  588TMC3    C2 8767   2.777   0.825   9.516  0.2904  0.3954 -0.2635
  588TMC3    C3 8768   2.876   0.782   9.597 -0.7435  0.3225  0.2635
  588TMC3    C4 8769   2.947   0.898   9.370 -0.0615  0.2031 -0.4828
  588TMC3    C5 8770   3.037   0.873   9.467  0.1106 -0.1086  0.2571
  588TMC3    C6 8771   3.008   0.807   9.582 -0.0330 -0.2619  0.2806
  588TMC3     C 8772   2.738   1.003   9.355 -0.2324 -0.2419  0.8889
  588TMC3     O 8773   2.619   0.994   9.333 -0.4755  0.5943  0.7053
  588TMC3     H 8774   2.688   0.854   9.569  1.7665  0.7941  1.9817
  588TMC3    H1 8775   2.976   0.942   9.275  0.7097  3.6828  1.3470
  588TMC3    H2 8776   3.085   0.781   9.653 -0.0613 -0.1449  0.3535
  588TMC3    C7 8777   3.150   0.971   9.456 -0.1751  0.1923 -0.3238
  588TMC3    C8 8778   2.828   0.687   9.702  0.6003 -0.2010 -0.3930
  588TMC3    O1 8779   3.120   1.065   9.386  0.0578  0.0888 -0.3220
  588TMC3    O2 8780   2.707   0.671   9.711  0.4161  0.1310  0.4190
  589TMC3    C1 8781   3.136   4.542   1.650  0.1796 -0.8996  0.4952
  589TMC3    C2 8782   3.248   4.522   1.738  0.1138  0.1507  0.5085
  589TMC3    C3 8783   3.295   4.393   1.754  0.0789  0.2255  0.3145
  589TMC3    C4 8784   3.078   4.439   1.591 -0.1038  0.1410  0.9109
  589TMC3    C5 8785   3.130   4.314   1.608  0.6571 -0.3493  0.0533
  589TMC3    C6 8786   3.241   4.292   1.681  0.3941  0.2132 -0.4188
  589TMC3     C 8787   3.090   4.670   1.630 -0.0152 -0.1475  0.3963
  589TMC3     O 8788   2.971   4.693   1.628 -0.5255 -0.4756  0.2638
  589TMC3     H 8789   3.296   4.597   1.801  0.6165  0.8227 -0.6770
  589TMC3    H1 8790   2.993   4.464   1.528  2.4221  0.5796 -2.3222
  589TMC3    H2 8791   3.282   4.194   1.699 -0.2980 -0.2641 -1.4976
  589TMC3    C7 8792   3.098   4.204   1.520 -0.2952  0.3579 -0.1327
  589TMC3    C8 8793   3.424   4.372   1.813  0.0682 -0.1825 -0.1080
  589TMC3    O1 8794   3.135   4.093   1.558 -0.3587 -0.1536  0.1573
  589TMC3    O2 8795   3.446   4.407   1.931  0.0508 -0.2261  0.3626
  590MPD2     C 8796   2.111   2.280  16.855 -0.5307  0.6044  0.0797
  590MPD2    C1 8797   2.077   2.394  16.785  0.5639 -0.4294  0.0674
  590MPD2    C2 8798   2.148   2.429  16.672 -0.4728  0.2114  0.4700
  590MPD2    C3 8799   2.234   2.338  16.617  0.2332 -0.2391 -0.0088
  590MPD2    C4 8800   2.263   2.223  16.682 -0.2792 -0.3371 -0.7233
  590MPD2    C5 8801   2.205   2.200  16.809 -0.1626  0.4837 -0.4544
  590MPD2     H 8802   2.126   2.515  16.610 -1.0498  0.3709  0.9081
  590MPD2    H1 8803   2.332   2.151  16.639 -0.1681 -0.4288 -0.3912
  590MPD2    H2 8804   2.062   2.246  16.945 -0.9555 -0.5876 -0.5971
  590MPD2    H3 8805   2.236   2.116  16.870  1.0431  2.0433  1.0803
  590MPD2     N 8806   2.301   2.378  16.499  0.2801 -0.4457 -0.7375
  590MPD2    H5 8807   2.290   2.473  16.466  0.8348  0.1477  0.7745
  590MPD2    N1 8808   1.966   2.478  16.810  0.0737 -0.3079 -0.3316
  590MPD2    H7 8809   1.945   2.555  16.747  2.5984  0.9255  0.3096
  591TMC3    C1 8810   2.450   2.377  16.322  1.0392 -0.4036  0.5962
  591TMC3    C2 8811   2.483   2.312  16.211  1.0161  0.5276  0.5088
  591TMC3    C3 8812   2.527   2.394  16.108  0.2554  0.1810  0.1069
  591TMC3    C4 8813   2.474   2.510  16.348 -0.2012  0.4406 -0.5474
  591TMC3    C5 8814   2.524   2.585  16.250  0.3642 -0.4206  0.7745
  591TMC3    C6 8815   2.554   2.531  16.127 -0.8329  0.1844 -0.0199
  591TMC3     C 8816   2.369   2.298  16.415  0.5225 -0.7525  0.5666
  591TMC3     O 8817   2.366   2.178  16.403 -0.9146 -0.6526  0.8985
  591TMC3     H 8818   2.460   2.207  16.204 -1.2358  1.0756 -0.5000
  591TMC3    H1 8819   2.456   2.560  16.443 -0.7420  0.5431 -0.7002
  591TMC3    H2 8820   2.590   2.584  16.040 -1.6940  0.9492  0.0920
  591TMC3    C7 8821   2.573   2.717  16.282 -0.3538 -0.1499  0.1040
  591TMC3    C8 8822   2.588   2.311  16.002  1.0064 -0.1231 -0.2921
  591TMC3    O1 8823   2.593   2.745  16.404  0.0268 -0.5020  0.2576
  591TMC3    O2 8824   2.619   2.197  16.033 -0.1891 -0.2773  0.1250
  592MPD2     C 8825   2.633   4.036  11.813 -0.2381 -0.8388  0.0579
  592MPD2    C1 8826   2.638   4.111  11.926  0.5474 -0.4926 -0.1066
  592MPD2    C2 8827   2.605   4.042  12.046  0.1461  0.3044 -0.4028
  592MPD2    C3 8828   2.554   3.918  12.059 -0.1062 -0.2682  0.3374
  592MPD2    C4 8829   2.548   3.846  11.943 -0.4051  0.3544  0.2973
  592MPD2    C5 8830   2.590   3.903  11.821  0.0279  0.5087  0.1241
  592MPD2     H 8831   2.619   4.086  12.144 -1.9927  1.3255 -0.5448
  592MPD2    H1 8832   2.520   3.742  11.941  0.8778 -0.0613  4.3000
  592MPD2    H2 8833   2.676   4.067  11.718  1.2686 -1.6776  0.4669
  592MPD2    H3 8834   2.588   3.836  11.735  2.9801 -1.9432  1.9883
  592MPD2     N 8835   2.516   3.865  12.186 -0.1295  0.4940  0.3420
  592MPD2    H5 8836   2.505   3.931  12.263 -2.5508  0.6613 -0.1686
  592MPD2    N1 8837   2.685   4.246  11.920 -0.1353 -0.4641  0.1873
  592MPD2    H7 8838   2.697   4.289  11.829 -1.9798 -0.6135 -0.1360
  593TMC3    C1 8839   2.788   4.446  11.988 -0.0512  0.0510  0.1938
  593TMC3    C2 8840   2.797   4.549  12.077 -0.4772  0.5780  0.2322
  593TMC3    C3 8841   2.894   4.645  12.068  0.0551  0.5692  0.8457
  593TMC3    C4 8842   2.866   4.450  11.876 -0.5455 -0.5504  0.1260
  593TMC3    C5 8843   2.947   4.554  11.854 -0.0394  0.6151  0.1165
  593TMC3    C6 8844   2.964   4.653  11.952 -0.0025 -0.0053  0.1410
  593TMC3     C 8845   2.714   4.329  12.025 -0.3640  0.2833  0.0383
  593TMC3     O 8846   2.689   4.310  12.144  0.1866 -0.2902 -0.4416
  593TMC3     H 8847   2.732   4.546  12.163  1.1200  3.1424  1.5043
  593TMC3    H1 8848   2.879   4.369  11.806  1.6089 -1.8863  2.0718
  593TMC3    H2 8849   3.051   4.717  11.942  1.2006 -1.5523  0.6510
  593TMC3    C7 8850   2.950   4.623  11.725  0.9338 -0.0025  0.1628
  593TMC3    C8 8851   2.849   0.030  12.118  0.1990 -0.4697 -0.0994
  593TMC3    O1 8852   3.028   4.719  11.716  0.1967  0.3139 -0.6418
  593TMC3    O2 8853   2.730   0.032  12.144 -0.3136  0.0003  0.0815
  594MPD2     C 8854   1.067   3.074  13.927 -0.0026 -0.2803 -0.2564
  594MPD2    C1 8855   1.087   3.120  14.058  0.1466  0.1025  0.6597
  594MPD2    C2 8856   1.166   3.226  14.073 -0.0002  0.1916 -0.3527
  594MPD2    C3 8857   1.218   3.289  13.967  0.5058  0.0787  0.6950
  594MPD2    C4 8858   1.201   3.240  13.835 -0.2667 -0.4188  0.1498
  594MPD2    C5 8859   1.133   3.128  13.819 -1.1912  0.6215 -0.3791
  594MPD2     H 8860   1.190   3.267  14.171  0.3275 -0.1024 -0.3081
  594MPD2    H1 8861   1.239   3.284  13.743  0.4776 -0.0253  0.6404
  594MPD2    H2 8862   1.031   2.974  13.905 -1.3005  0.4834 -1.6714
  594MPD2    H3 8863   1.133   3.067  13.729 -0.4330 -1.3585  0.9715
  594MPD2     N 8864   1.305   3.400  13.993 -0.1159 -0.1590 -0.8878
  594MPD2    H5 8865   1.288   3.449  14.080  2.8398 -0.6995 -0.0085
  594MPD2    N1 8866   1.020   3.048  14.165 -0.0753  0.7347  0.2910
  594MPD2    H7 8867   0.937   2.994  14.142  0.4780  0.2373 -0.5483
  595TMC3    C1 8868   1.673   3.663  14.019  0.6747 -0.2954 -0.0342
  595TMC3    C2 8869   1.599   3.575  13.943  0.6349  0.3784  0.0204
  595TMC3    C3 8870   1.463   3.560  13.969 -0.3510  0.3652  0.5231
  595TMC3    C4 8871   1.608   3.745  14.109 -0.0879 -0.1801 -0.8694
  595TMC3    C5 8872   1.473   3.722  14.138  0.0276  0.1214 -0.0874
  595TMC3    C6 8873   1.392   3.643  14.059  0.2606 -0.0122  0.1351
  595TMC3     C 8874   1.822   3.669  14.009 -0.3080 -0.4618 -0.6293
  595TMC3     O 8875   1.877   3.615  13.910  0.0255 -0.5521 -0.5127
  595TMC3     H 8876   1.646   3.517  13.864  0.2683 -1.0089  0.8066
  595TMC3    H1 8877   1.671   3.822  14.152  1.3397 -0.8980 -1.6771
  595TMC3    H2 8878   1.284   3.640  14.067  0.3660  1.8083  2.2377
  595TMC3    C7 8879   1.412   3.789  14.249 -0.8638  0.2424  0.2161
  595TMC3    C8 8880   1.403   3.443  13.913  0.6621 -0.1227  0.3340
  595TMC3    O1 8881   1.295   3.818  14.242 -0.6387  0.1192  0.1956
  595TMC3    O2 8882   1.452   3.389  13.817 -0.0418 -0.5155  0.2022
  596MPD2     C 8883   0.153   1.376  16.811  0.6891 -0.7372  0.0822
  596MPD2    C1 8884   0.204   1.490  16.751 -0.5473  0.1787 -0.3490
  596MPD2    C2 8885   0.258   1.469  16.625  0.1768 -0.1449 -0.5911
  596MPD2    C3 8886   0.242   1.347  16.555 -0.1551 -0.0857  0.2722
  596MPD2    C4 8887   0.179   1.241  16.615  0.2741  0.0488  0.1862
  596MPD2    C5 8888   0.139   1.250  16.746 -0.1601  0.0421  0.1456
  596MPD2     H 8889   0.295   1.558  16.577  1.0987  0.0968  0.5503
  596MPD2    H1 8890   0.164   1.146  16.565 -0.7156 -0.2990  1.1430
  596MPD2    H2 8891   0.112   1.369  16.911  0.7168 -0.0383  0.1414
  596MPD2    H3 8892   0.095   1.171  16.805  1.7690  0.6356  2.3806
  596MPD2     N 8893   0.277   1.330  16.421  0.0905  0.2748  0.4960
  596MPD2    H5 8894   0.231   1.258  16.366 -0.3853  1.7392 -1.0169
  596MPD2    N1 8895   0.212   1.612  16.815  0.2796  0.1329  0.4239
  596MPD2    H7 8896   0.243   1.693  16.762  0.7199 -1.0692 -1.1358
  597TMC3    C1 8897   0.247   1.768  16.992 -0.8556 -0.9052  0.4545
  597TMC3    C2 8898   0.336   1.837  16.911 -0.6961  0.1416  0.1676
  597TMC3    C3 8899   0.375   1.959  16.956  0.3221 -0.0612 -0.1728
  597TMC3    C4 8900   0.216   1.817  17.119  0.3531  0.4532  0.1798
  597TMC3    C5 8901   0.256   1.939  17.153  0.4439  0.0358  0.3381
  597TMC3    C6 8902   0.338   2.009  17.074 -0.6604  0.5068 -0.6177
  597TMC3     C 8903   0.191   1.640  16.947 -0.9661  0.1667  0.3143
  597TMC3     O 8904   0.129   1.579  17.035  0.2125  0.6084  0.3206
  597TMC3     H 8905   0.368   1.795  16.816  1.4106  0.3153  0.8157
  597TMC3    H1 8906   0.151   1.756  17.180  1.6852  0.9602  2.1064
  597TMC3    H2 8907   0.370   2.108  17.103  1.6275 -0.7319  1.0875
  597TMC3    C7 8908   0.221   1.979  17.286  0.3256  0.5034  0.4462
  597TMC3    C8 8909   0.463   2.041  16.875 -0.3104 -0.0072  0.1594
  597TMC3    O1 8910   0.145   1.904  17.350  0.0383  0.3671 -0.5898
  597TMC3    O2 8911   0.465   2.162  16.899  0.2895 -0.3344  0.0984
  598TMC3    C1 8912   3.308   2.945  15.486 -0.0282 -0.8722  0.0653
  598TMC3    C2 8913   3.256   2.823  15.458  0.0361 -0.2883  0.0488
  598TMC3    C3 8914   3.159   2.815  15.360  0.1399  0.2250 -0.2985
  598TMC3    C4 8915   3.267   3.060  15.419 -0.5095 -0.4341  0.0736
  598TMC3    C5 8916   3.162   3.046  15.334  0.1015  0.1726 -0.5765
  598TMC3    C6 8917   3.111   2.924  15.297  0.1971  0.2654  0.1544
  598TMC3     C 8918   3.411   2.963  15.582 -0.2729 -0.7262 -0.3153
  598TMC3     O 8919   3.470   3.070  15.577 -0.7068  0.2410  0.1251
  598TMC3     H 8920   3.297   2.737  15.510  1.3144  2.1330  2.9943
  598TMC3    H1 8921   3.309   3.154  15.454 -1.5948 -0.7693  2.2897
  598TMC3    H2 8922   3.040   2.916  15.215  1.8708 -0.2990 -1.2475
  598TMC3    C7 8923   3.158   3.141  15.227  0.3766  0.2112  0.5352
  598TMC3    C8 8924   3.109   2.681  15.316  0.0003 -0.2658 -0.8312
  598TMC3    O1 8925   3.096   3.099  15.127 -0.3214  0.0127 -0.6458
  598TMC3    O2 8926   3.050   2.680  15.205  0.0814 -0.7045  0.4731
  599MPD2     C 8927   3.685   0.593  15.991 -0.5619 -0.3066 -0.0758
  599MPD2    C1 8928   3.629   0.472  16.016 -0.0752 -1.2524 -0.1952
  599MPD2    C2 8929   3.509   0.459  16.078 -0.2569 -0.0971  0.6660
  599MPD2    C3 8930   3.450   0.572  16.141  0.6300 -0.7346 -0.3890
  599MPD2    C4 8931   3.502   0.698  16.124 -0.4764 -0.1181  0.8155
  599MPD2    C5 8932   3.619   0.699  16.043  0.0083  0.0177 -0.4273
  599MPD2     H 8933   3.478   0.358  16.103 -0.6320 -0.6650 -2.0962
  599MPD2    H1 8934   3.468   0.793  16.162  0.6165  0.2842  0.7790
  599MPD2    H2 8935   3.783   0.607  15.947 -0.7182  0.9263 -0.0436
  599MPD2    H3 8936   3.669   0.794  16.031  0.1937  0.0602  0.6999
  599MPD2     N 8937   3.335   0.573  16.225  0.0334 -0.0712 -0.7511
  599MPD2    H5 8938   3.314   0.661  16.272  1.9676  0.8126 -1.5203
  599MPD2    N1 8939   3.697   0.349  15.970 -0.4847  0.5056  0.5931
  599MPD2    H7 8940   3.797   0.353  15.954 -0.7329  0.0590 -1.0823
  600TMC3    C1 8941   3.179   0.494  16.374  0.1315  0.2487  0.2859
  600TMC3    C2 8942   3.077   0.405  16.408 -1.0146 -0.2866  0.7776
  600TMC3    C3 8943   3.017   0.423  16.531 -0.1629  0.1009  0.5055
  600TMC3    C4 8944   3.215   0.600  16.453 -0.1765  0.4699 -0.3061
  600TMC3    C5 8945   3.151   0.610  16.575  0.4923  0.3785 -0.5491
  600TMC3    C6 8946   3.057   0.523  16.617  0.4099  0.0803  0.3246
  600TMC3     C 8947   3.260   0.459  16.256 -0.3817 -0.4605  0.4859
  600TMC3     O 8948   3.261   0.347  16.209  0.3192  0.3793 -0.9780
  600TMC3     H 8949   3.059   0.320  16.344  1.1093 -1.7590  2.1349
  600TMC3    H1 8950   3.304   0.658  16.434  0.8831 -1.2735 -0.7059
  600TMC3    H2 8951   3.018   0.533  16.718 -2.0294  0.3250 -0.6526
  600TMC3    C7 8952   3.202   0.711  16.670 -0.2897  0.7061 -0.6409
  600TMC3    C8 8953   2.923   0.321  16.572 -0.0632  0.1348 -0.6575
  600TMC3    O1 8954   3.323   0.737  16.662  0.8568  0.2135 -0.1756
  600TMC3    O2 8955   2.933   0.291  16.691  0.2957  0.7647  0.0456
  601MPD2     C 8956   0.711   4.386   0.771  0.5100 -0.6907 -0.5645
  601MPD2    C1 8957   0.679   4.286   0.678 -0.2282 -0.6560  0.1080
  601MPD2    C2 8958   0.651   4.158   0.717  0.3499 -0.1806  0.3065
  601MPD2    C3 8959   0.647   4.129   0.850 -0.3296 -0.1639  0.4840
  601MPD2    C4 8960   0.678   4.230   0.943  0.1323 -0.2920  0.8452
  601MPD2    C5 8961   0.697   4.360   0.905 -1.1294  0.2270  0.3107
  601MPD2     H 8962   0.647   4.089   0.634  1.8728 -1.3415  1.2004
  601MPD2    H1 8963   0.690   4.212   1.049 -0.7517 -0.7028  0.8788
  601MPD2    H2 8964   0.733   4.486   0.735 -3.1198 -0.1913 -1.4048
  601MPD2    H3 8965   0.723   4.442   0.971 -1.4401 -0.9420  1.8770
  601MPD2     N 8966   0.650   3.992   0.894  0.1625  0.7793 -0.2475
  601MPD2    H5 8967   0.646   3.981   0.995 -1.3299  0.5620 -0.3411
  601MPD2    N1 8968   0.698   4.303   0.541  0.2039 -0.2764  0.3575
  601MPD2    H7 8969   0.656   4.233   0.482 -1.2258  0.5660  0.3859
  602TMC3    C1 8970   0.754   4.389   0.338  0.1994  0.0611  0.2397
  602TMC3    C2 8971   0.736   4.496   0.259 -0.4300  0.7282 -0.1281
  602TMC3    C3 8972   0.718   4.481   0.124 -0.1525  0.2331  0.0486
  602TMC3    C4 8973   0.777   4.263   0.279  0.5783  0.1346 -0.1645
  602TMC3    C5 8974   0.752   4.249   0.142 -0.9145 -0.0368 -0.6014
  602TMC3    C6 8975   0.717   4.354   0.067  0.6244  0.3324  0.2466
  602TMC3     C 8976   0.753   4.415   0.475  0.3455 -0.5298 -0.4080
  602TMC3     O 8977   0.805   4.514   0.519 -0.1514  0.1387  0.3867
  602TMC3     H 8978   0.730   4.592   0.310  0.5865 -0.2437  1.8440
  602TMC3    H1 8979   0.799   4.173   0.335 -1.1563 -0.1253  0.0785
  602TMC3    H2 8980   0.731   4.347  17.723 -1.7134  1.6617 -0.1522
  602TMC3    C7 8981   0.699   4.123   0.101  0.1604  0.1403  0.2030
  602TMC3    C8 8982   0.632   4.579   0.072  0.1188 -0.0539  0.6258
  602TMC3    O1 8983   0.759   4.022   0.145 -0.2316 -0.2363  0.5008
  602TMC3    O2 8984   0.635   4.691   0.113 -0.0974 -0.4348 -0.3883
  603TMC3    C1 8985   3.136   3.796  11.419 -0.1069 -0.0207  0.4429
  603TMC3    C2 8986   3.151   3.763  11.553 -0.5080  0.9384 -0.2199
  603TMC3    C3 8987   3.226   3.846  11.635  0.1400 -0.4266  0.0260
  603TMC3    C4 8988   3.177   3.916  11.370 -0.7074 -0.3085  0.0663
  603TMC3    C5 8989   3.236   4.007  11.458  0.1718 -0.4975 -0.2365
  603TMC3    C6 8990   3.255   3.977  11.585  0.2395  0.1931 -0.2819
  603TMC3     C 8991   3.084   3.698  11.331 -0.4952 -0.1412 -0.7522
  603TMC3     O 8992   3.099   3.729  11.216 -0.2261  0.0787 -0.0215
  603TMC3     H 8993   3.123   3.666  11.594 -2.3684  0.2061 -3.2636
  603TMC3    H1 8994   3.168   3.933  11.264  0.2273 -3.3056 -0.4837
  603TMC3    H2 8995   3.294   4.051  11.655 -0.6899  2.2048 -1.8884
  603TMC3    C7 8996   3.311   4.119  11.409 -0.6722 -0.1471  0.4942
  603TMC3    C8 8997   3.282   3.792  11.757 -0.0840  0.2341  0.0831
  603TMC3    O1 8998   3.395   4.164  11.487 -0.2797 -0.4550 -0.3929
  603TMC3    O2 8999   3.247   3.679  11.785  0.2613 -0.1700  0.0295
  604MPD2     C 9000   4.609   2.914  16.726 -0.2501 -0.3352 -0.6458
  604MPD2    C1 9001   4.526   2.817  16.677  0.0888  0.2301 -0.3257
  604MPD2    C2 9002   4.554   2.764  16.553  0.9970  0.0707  0.3337
  604MPD2    C3 9003   4.655   2.815  16.477  0.0220 -0.2166  0.2624
  604MPD2    C4 9004   0.010   2.895  16.539 -0.4332  0.4445 -0.3998
  604MPD2    C5 9005   4.729   2.942  16.661  0.1112  0.1130 -0.5263
  604MPD2     H 9006   4.490   2.688  16.510 -0.1898  0.5055  1.3151
  604MPD2    H1 9007   0.103   2.927  16.494  0.4884 -0.3101  0.9601
  604MPD2    H2 9008   4.588   2.958  16.823  0.3812  0.8855 -1.0691
  604MPD2    H3 9009   0.053   3.018  16.702 -1.8456  1.0098  0.8928
  604MPD2     N 9010   4.667   2.775  16.344 -0.5249 -0.0741 -0.0909
  604MPD2    H5 9011   4.591   2.713  16.317 -0.4688  0.0715 -0.5893
  604MPD2    N1 9012   4.415   2.793  16.759  0.2654  0.5618  0.5966
  604MPD2    H7 9013   4.402   2.854  16.839 -2.2221  0.6462  0.1408
  605TMC3    C1 9014   4.198   2.744  16.822  0.1912  0.0494 -1.1988
  605TMC3    C2 9015   4.228   2.806  16.940 -0.2298 -0.0023  0.3308
  605TMC3    C3 9016   4.159   2.913  16.976  0.3062 -0.6175 -0.1064
  605TMC3    C4 9017   4.082   2.777  16.746  0.4255 -0.0048 -0.6728
  605TMC3    C5 9018   4.005   2.874  16.796 -0.1182 -0.6781 -0.4687
  605TMC3    C6 9019   4.050   2.945  16.900  0.6199  0.3963  0.3688
  605TMC3     C 9020   4.307   2.714  16.725 -0.1936  0.4578  0.3500
  605TMC3     O 9021   4.270   2.674  16.613  0.2221 -0.2364 -0.2000
  605TMC3     H 9022   4.321   2.784  16.992  0.8443  1.7149 -0.8921
  605TMC3    H1 9023   4.051   2.734  16.651 -0.9960 -0.1873 -0.1310
  605TMC3    H2 9024   3.987   3.028  16.930 -0.1886 -0.0139 -0.2029
  605TMC3    C7 9025   3.906   2.920  16.705  0.7202 -0.3006  0.1083
  605TMC3    C8 9026   4.249   3.023  16.997  0.0805  0.2853 -0.1093
  605TMC3    O1 9027   3.880   3.036  16.708  0.0876  0.4134 -0.3594
  605TMC3    O2 9028   4.348   3.010  16.932  0.4054  0.3903 -0.7025
  606TMC3    C1 9029   0.647   2.175  17.597  1.0776 -0.2359 -0.1540
  606TMC3    C2 9030   0.728   2.126  17.702  0.1407 -0.5316 -0.0882
  606TMC3    C3 9031   0.750   1.993  17.707 -0.0020 -0.4586  0.2928
  606TMC3    C4 9032   0.596   2.097  17.498  0.5997 -0.6792 -0.3942
  606TMC3    C5 9033   0.626   1.960  17.509  0.4470 -0.2555  0.1343
  606TMC3    C6 9034   0.709   1.907  17.609  0.3212 -0.3266 -0.0389
  606TMC3     C 9035   0.623   2.313  17.591 -0.5902 -0.6158  0.0783
  606TMC3     O 9036   0.621   2.378  17.697 -0.1527  0.3520  0.5146
  606TMC3     H 9037   0.769   2.199   0.008 -0.3641 -0.9468  0.6457
  606TMC3    H1 9038   0.536   2.132  17.415  1.0312 -1.6360 -1.1153
  606TMC3    H2 9039   0.742   1.804  17.610 -1.4024 -0.8683  1.6038
  606TMC3    C7 9040   0.576   1.886  17.400  0.4206 -0.1319  0.1136
  606TMC3    C8 9041   0.823   1.936   0.059  0.2104 -0.2671 -0.4506
  606TMC3    O1 9042   0.535   1.948  17.301  0.0398  0.6974 -0.1794
  606TMC3    O2 9043   0.832   1.812   0.056 -0.1679 -0.6209 -0.1284
  607MPD2     C 9044   2.820   3.286  12.020  0.1982  0.2776  0.1893
  607MPD2    C1 9045   2.730   3.378  12.075 -0.3089 -0.1493 -0.0012
  607MPD2    C2 9046   2.634   3.337  12.172  0.2472 -0.7112 -0.1823
  607MPD2    C3 9047   2.640   3.215  12.225  0.4541 -0.3164 -0.2717
  607MPD2    C4 9048   2.736   3.122  12.170  0.1007 -0.4376 -0.1887
  607MPD2    C5 9049   2.821   3.159  12.071  0.9367 -0.6208 -0.0555
  607MPD2     H 9050   2.568   3.415  12.209 -0.6034 -2.3884  1.8342
  607MPD2    H1 9051   2.748   3.020  12.203  2.9193 -0.6785 -1.9475
  607MPD2    H2 9052   2.887   3.307  11.937 -0.0955 -0.9380 -0.3563
  607MPD2    H3 9053   2.890   3.089  12.024  1.0802  0.6897 -1.7773
  607MPD2     N 9054   2.559   3.174  12.337  0.7191  0.0034 -0.4998
  607MPD2    H5 9055   2.494   3.243  12.374  1.6544  0.4107  0.3870
  607MPD2    N1 9056   2.730   3.512  12.046  0.5945 -0.4616  0.3928
  607MPD2    H7 9057   2.652   3.565  12.084  1.5640 -0.1481  1.9341
  608TMC3    C1 9058   2.853   3.710  12.035 -0.0834 -0.4115 -0.1869
  608TMC3    C2 9059   2.830   3.730  12.172  0.1082  1.1523  0.0137
  608TMC3    C3 9060   2.883   3.852  12.224 -1.1241  0.0147  0.1336
  608TMC3    C4 9061   2.916   3.802  11.956  0.3111  0.2310  0.6327
  608TMC3    C5 9062   2.957   3.921  12.011  0.3345  0.9357 -0.3409
  608TMC3    C6 9063   2.939   3.951  12.147  1.2037 -0.5501 -0.1119
  608TMC3     C 9064   2.827   3.580  11.977 -0.0097  0.3233  0.3584
  608TMC3     O 9065   2.908   3.546  11.892  0.2424 -0.0126  0.5760
  608TMC3     H 9066   2.797   3.648  12.235 -0.4806  2.2527  1.1456
  608TMC3    H1 9067   2.926   3.787  11.849  1.1433 -0.2508  0.7746
  608TMC3    H2 9068   2.966   4.045  12.194  2.2118 -0.3502 -1.0856
  608TMC3    C7 9069   3.003   4.020  11.919  0.1619  0.8905 -0.0698
  608TMC3    C8 9070   2.837   3.896  12.355 -0.4085 -0.3566  0.1189
  608TMC3    O1 9071   2.981   4.006  11.800  0.5037 -0.0257  0.2628
  608TMC3    O2 9072   2.865   4.006  12.393  0.1100 -0.3672 -0.1617
  609TMC3    C1 9073   0.461   2.705   9.413  0.3849 -0.3967  0.7325
  609TMC3    C2 9074   0.376   2.615   9.361  0.3098  0.1668  0.0841
  609TMC3    C3 9075   0.424   2.490   9.328  0.4360  0.3097 -0.0063
  609TMC3    C4 9076   0.590   2.675   9.438  0.2817  0.2449  0.2914
  609TMC3    C5 9077   0.634   2.551   9.388  0.0955  0.1248  1.0877
  609TMC3    C6 9078   0.555   2.449   9.344 -0.3893 -0.0064  0.1972
  609TMC3     C 9079   0.408   2.826   9.483 -0.2780 -0.5981 -0.0400
  609TMC3     O 9080   0.475   2.864   9.581 -0.8660 -0.4145  0.4353
  609TMC3     H 9081   0.274   2.644   9.336 -0.2284 -2.1174 -0.4741
  609TMC3    H1 9082   0.662   2.749   9.471 -1.5347  1.2139  2.0212
  609TMC3    H2 9083   0.595   2.349   9.329 -0.3851 -0.1971  1.4260
  609TMC3    C7 9084   0.772   2.532   9.391 -0.5189 -0.2371 -0.7406
  609TMC3    C8 9085   0.324   2.395   9.273 -0.1252  0.2248  0.0463
  609TMC3    O1 9086   0.838   2.600   9.473 -0.1659 -0.0369 -0.4359
  609TMC3    O2 9087   0.205   2.422   9.286  0.7526  0.4967  0.8213
  610TMC3    C1 9088   3.482   3.935  12.836 -0.0597 -0.1330  0.2813
  610TMC3    C2 9089   3.386   3.894  12.746  0.0375  0.1360 -0.2893
  610TMC3    C3 9090   3.291   3.797  12.775  0.2429  0.2746  0.4174
  610TMC3    C4 9091   3.505   3.849  12.941 -0.3419  0.0274  0.2063
  610TMC3    C5 9092   3.417   3.754  12.964 -0.8210 -0.1565  0.1806
  610TMC3    C6 9093   3.299   3.729  12.891  0.0591 -0.5976 -0.4635
  610TMC3     C 9094   3.599   3.994  12.789 -0.1302 -0.0065  0.2420
  610TMC3     O 9095   3.618   4.007  12.671  0.3521 -0.2410  0.2478
  610TMC3     H 9096   3.380   3.958  12.659  0.9217 -0.6905 -0.9429
  610TMC3    H1 9097   3.592   3.867  13.002 -1.5190  3.8046  0.7913
  610TMC3    H2 9098   3.229   3.651  12.918  1.6608 -1.2424  1.8304
  610TMC3    C7 9099   3.445   3.673  13.081 -0.4846  0.6398  0.0919
  610TMC3    C8 9100   3.196   3.732  12.684 -0.4780  1.0065 -0.4939
  610TMC3    O1 9101   3.560   3.645  13.095 -0.4881  0.1319  0.2423
  610TMC3    O2 9102   3.088   3.709  12.731 -0.8403 -0.0765  0.9914
  611MPD2     C 9103   2.507   4.079  10.711 -0.4115 -0.4193  0.0352
  611MPD2    C1 9104   2.503   4.171  10.615  0.0519  1.0550 -0.3332
  611MPD2    C2 9105   2.618   4.245  10.583  0.5467  0.4925  0.4869
  611MPD2    C3 9106   2.737   4.226  10.651  0.5238 -0.0768  0.0937
  611MPD2    C4 9107   2.739   4.126  10.749 -0.0979 -0.1196  0.6309
  611MPD2    C5 9108   2.624   4.051  10.776  0.2898  0.5409 -0.2159
  611MPD2     H 9109   2.610   4.317  10.502 -2.9676 -0.0966  0.3157
  611MPD2    H1 9110   2.827   4.106  10.809  0.2076 -1.6623 -0.3365
  611MPD2    H2 9111   2.417   4.026  10.737 -0.0916 -0.3212  1.3439
  611MPD2    H3 9112   2.618   3.981  10.858 -1.4618  1.6461  0.5915
  611MPD2     N 9113   2.846   4.306  10.633  0.3076  0.2223 -0.4500
  611MPD2    H5 9114   2.928   4.272  10.682 -1.0188 -0.3272  1.3845
  611MPD2    N1 9115   2.374   4.198  10.553 -0.8494 -0.3926  0.2750
  611MPD2    H7 9116   2.380   4.243  10.462 -0.5327  0.4650  0.7195
  612TMC3    C1 9117   2.991   4.482  10.559  0.1762 -0.7636  0.6168
  612TMC3    C2 9118   3.081   4.452  10.658 -0.2263  0.0505  0.3869
  612TMC3    C3 9119   3.199   4.515  10.663  0.6849  0.7947 -0.1263
  612TMC3    C4 9120   3.027   4.554  10.452  0.7051  0.3773  0.3733
  612TMC3    C5 9121   3.146   4.613  10.453 -0.0281 -0.7700  0.6779
  612TMC3    C6 9122   3.222   4.612  10.566 -1.3685  0.7614  0.0154
  612TMC3     C 9123   2.862   4.410  10.550  0.2505 -0.7073  0.7744
  612TMC3     O 9124   2.789   4.450  10.459 -0.1968  0.3502 -0.2089
  612TMC3     H 9125   3.043   4.412  10.751 -2.5721 -0.6124 -0.8504
  612TMC3    H1 9126   2.965   4.568  10.364  3.2249  0.0895 -1.4502
  612TMC3    H2 9127   3.310   4.674  10.574  0.0275 -1.2126 -0.0066
  612TMC3    C7 9128   3.207   4.664  10.331 -0.1028  0.2056  0.0844
  612TMC3    C8 9129   3.280   4.511  10.779  0.0727 -0.6286  0.5513
  612TMC3    O1 9130   3.326   4.647  10.322  0.0941 -1.0950 -0.4345
  612TMC3    O2 9131   3.344   4.610  10.809  0.0898  1.0646 -0.3472
  613MPD2     C 9132   1.944   1.384  16.918  0.2952 -0.2208 -0.0794
  613MPD2    C1 9133   1.862   1.433  16.824 -0.1627 -1.0924  0.5886
  613MPD2    C2 9134   1.769   1.348  16.769  0.0971  0.8235  0.1939
  613MPD2    C3 9135   1.760   1.217  16.807  0.2266 -0.1313 -0.2769
  613MPD2    C4 9136   1.849   1.165  16.898  0.0552  0.2284 -0.6329
  613MPD2    C5 9137   1.938   1.257  16.957  0.6632  0.2623 -0.0430
  613MPD2     H 9138   1.693   1.392  16.705 -1.5470  0.4186  1.8728
  613MPD2    H1 9139   1.847   1.064  16.936  0.3610  0.5022  0.1258
  613MPD2    H2 9140   2.021   1.440  16.970 -0.9467 -0.1727  1.7078
  613MPD2    H3 9141   2.003   1.211  17.031  0.8683  2.2569  1.0224
  613MPD2     N 9142   1.695   1.110  16.739  0.1422  0.1706  0.1128
  613MPD2    H5 9143   1.692   1.018  16.782  0.7427  0.3666  0.5796
  613MPD2    N1 9144   1.890   1.571  16.796  0.7303 -0.5026 -0.2634
  613MPD2    H7 9145   1.944   1.611  16.873  0.1388 -1.8079  0.8301
  614TMC3    C1 9146   1.814   1.587  16.563 -0.9058 -0.2559  0.2050
  614TMC3    C2 9147   1.885   1.481  16.520  0.1142  0.0507  0.4531
  614TMC3    C3 9148   1.876   1.444  16.388 -0.1329  0.9001  0.0860
  614TMC3    C4 9149   1.759   1.677  16.480 -0.5278  0.2933 -0.1388
  614TMC3    C5 9150   1.762   1.642  16.347 -0.1471  0.5444  1.2113
  614TMC3    C6 9151   1.803   1.523  16.302  0.4695 -0.1997 -0.4373
  614TMC3     C 9152   1.837   1.650  16.698  0.4688 -0.0541  0.0702
  614TMC3     O 9153   1.820   1.775  16.714  0.3344 -0.3906 -0.4176
  614TMC3     H 9154   1.938   1.419  16.591 -0.2668 -2.0416 -1.1119
  614TMC3    H1 9155   1.703   1.763  16.513 -2.4590  0.0304 -2.7026
  614TMC3    H2 9156   1.794   1.495  16.198 -0.5219  1.9434 -0.9059
  614TMC3    C7 9157   1.753   1.758  16.252 -0.1919  0.4412 -0.1368
  614TMC3    C8 9158   1.874   1.305  16.360 -0.0731 -0.2226  0.0939
  614TMC3    O1 9159   1.738   1.871  16.293  0.3439 -0.0661  0.4172
  614TMC3    O2 9160   1.859   1.230  16.456 -0.3797  0.5891 -0.2751
  615MPD2     C 9161   1.221   3.806  16.492 -0.5680 -0.3828 -0.3859
  615MPD2    C1 9162   1.112   3.723  16.535  0.2185  0.4284 -0.8046
  615MPD2    C2 9163   1.076   3.615  16.462  0.3158 -0.0675  0.4133
  615MPD2    C3 9164   1.138   3.589  16.345 -0.3823  0.0693  0.5795
  615MPD2    C4 9165   1.239   3.672  16.302 -0.5228 -0.0923  0.5343
  615MPD2    C5 9166   1.286   3.772  16.371 -0.1076 -0.3343 -0.1881
  615MPD2     H 9167   1.001   3.553  16.508  0.9040 -0.1923  1.2107
  615MPD2    H1 9168   1.296   3.644  16.214  1.5626  0.7923  1.6113
  615MPD2    H2 9169   1.276   3.879  16.550 -0.2589 -2.0703  1.4550
  615MPD2    H3 9170   1.372   3.826  16.332 -0.1571  0.2819  0.5371
  615MPD2     N 9171   1.107   3.483  16.254 -0.1200 -0.3728 -0.5079
  615MPD2    H5 9172   1.153   3.487  16.163  1.4707 -0.7719  0.2794
  615MPD2    N1 9173   1.055   3.736  16.664  0.7701  0.6689  0.5479
  615MPD2    H7 9174   0.984   3.667  16.688  1.9550 -0.4940  0.7309
  616TMC3    C1 9175   0.998   3.819  16.871  0.0102 -0.3301  0.4924
  616TMC3    C2 9176   1.056   3.718  16.944  0.5977 -0.8819  0.0520
  616TMC3    C3 9177   1.049   3.724  17.082 -0.0474  0.1409  0.5080
  616TMC3    C4 9178   0.962   3.937  16.936 -0.1554  0.6816  0.8382
  616TMC3    C5 9179   0.965   3.940  17.076  0.5414 -0.3161 -0.7061
  616TMC3    C6 9180   1.000   3.832  17.149 -0.5431 -0.2578  0.3509
  616TMC3     C 9181   1.062   3.841  16.744 -0.3762  0.2309 -0.2290
  616TMC3     O 9182   1.115   3.949  16.727  0.5850 -0.8070 -0.0108
  616TMC3     H 9183   1.081   3.624  16.895  0.9440 -0.3535 -0.7802
  616TMC3    H1 9184   0.923   4.023  16.883 -2.0542 -0.5714  0.1912
  616TMC3    H2 9185   0.998   3.829  17.257 -2.7421 -0.3423  0.3048
  616TMC3    C7 9186   0.930   4.062  17.146 -0.0704  0.6162  0.3952
  616TMC3    C8 9187   1.141   3.644  17.156  0.2748 -0.4522 -0.2504
  616TMC3    O1 9188   0.987   4.069  17.250  0.6886 -0.1860  0.0297
  616TMC3    O2 9189   1.120   3.646  17.271 -0.2039  0.1508  0.0038
  617MPD2     C 9190   4.119   1.222  13.695 -0.4205 -0.4099 -0.4350
  617MPD2    C1 9191   4.168   1.223  13.825 -0.1660 -0.1473  0.5559
  617MPD2    C2 9192   4.098   1.176  13.934 -0.4927 -1.3524  0.2818
  617MPD2    C3 9193   3.968   1.140  13.913 -0.0691  0.9295  0.4317
  617MPD2    C4 9194   3.916   1.154  13.782 -0.1688 -0.5245  0.2919
  617MPD2    C5 9195   3.991   1.183  13.673 -0.7025 -0.0350  0.2417
  617MPD2     H 9196   4.154   1.157  14.025  0.4003 -1.0490 -0.2145
  617MPD2    H1 9197   3.811   1.132  13.764 -0.7329 -1.2878  4.4884
  617MPD2    H2 9198   4.186   1.245  13.613  0.4786  0.4830  0.5408
  617MPD2    H3 9199   3.937   1.196  13.579  0.6912 -0.6864 -0.6483
  617MPD2     N 9200   3.882   1.114  14.017 -0.2711 -0.4491 -0.8465
  617MPD2    H5 9201   3.782   1.123  14.003 -0.2137  2.8700  0.8330
  617MPD2    N1 9202   4.298   1.270  13.834  0.1106  0.5399 -0.3246
  617MPD2    H7 9203   4.338   1.299  13.745  0.3403  0.4778 -0.2402
  618TMC3    C1 9204   4.516   1.338  13.920  0.2094  0.4752 -0.5620
  618TMC3    C2 9205   4.600   1.341  14.032 -0.0747  0.9980  0.0952
  618TMC3    C3 9206   4.732   1.316  14.003  0.4970  0.7067  0.5282
  618TMC3    C4 9207   4.561   1.306  13.793 -0.0883 -0.0811 -0.4634
  618TMC3    C5 9208   4.694   1.265  13.775  0.0873  0.0496 -0.7031
  618TMC3    C6 9209   0.042   1.277  13.883  0.2298 -0.3427  0.8444
  618TMC3     C 9210   4.377   1.290  13.949 -0.4018 -0.4059 -0.4588
  618TMC3     O 9211   4.341   1.275  14.066  0.3438  0.4471 -0.0920
  618TMC3     H 9212   4.561   1.376  14.127  2.3081  3.9609 -0.0453
  618TMC3    H1 9213   4.500   1.325  13.705 -0.5375 -1.0860 -0.3734
  618TMC3    H2 9214   0.149   1.273  13.864  0.0002  1.3933 -0.7226
  618TMC3    C7 9215   4.725   1.182  13.658  0.3771 -0.3428 -0.3609
  618TMC3    C8 9216   0.084   1.310  14.118 -0.5153  0.2338 -0.4173
  618TMC3    O1 9217   4.619   1.145  13.607 -0.1763 -0.4804 -0.3725
  618TMC3    O2 9218   0.064   1.394  14.208  0.5394  0.2844 -0.3886
  619MPD2     C 9219   0.228   2.504  14.139  0.3212 -0.1325 -0.9825
  619MPD2    C1 9220   0.182   2.576  14.027 -0.2762 -0.3875  0.1459
  619MPD2    C2 9221   0.070   2.527  13.960 -0.4011 -0.1410  0.4666
  619MPD2    C3 9222   4.740   2.410  14.003  0.9840  0.3458 -0.3729
  619MPD2    C4 9223   0.053   2.345  14.116  0.2896 -0.3214  0.3862
  619MPD2    C5 9224   0.167   2.389  14.181 -0.1505 -0.1428 -0.3938
  619MPD2     H 9225   0.046   2.577  13.866  0.6204  1.0549  0.8446
  619MPD2    H1 9226   4.740   2.264  14.163 -1.2538 -0.2525 -1.3208
  619MPD2    H2 9227   0.318   2.537  14.191 -0.1904 -0.9605  0.4305
  619MPD2    H3 9228   0.222   2.330  14.254 -2.3654 -2.8006 -0.8659
  619MPD2     N 9229   4.622   2.362  13.942  0.3431 -0.2347 -0.1299
  619MPD2    H5 9230   4.575   2.298  14.005  2.5243 -0.5760  1.1522
  619MPD2    N1 9231   0.243   2.694  13.975 -0.5692 -0.1807 -0.3577
  619MPD2    H7 9232   0.213   2.729  13.885  1.1014  0.1342 -0.7745
  620TMC3    C1 9233   0.398   2.873  13.974 -0.1096  0.1980 -0.9635
  620TMC3    C2 9234   0.385   2.879  13.833 -0.1551  0.0902 -0.2078
  620TMC3    C3 9235   0.386   3.000  13.776 -0.1708  0.4523  0.5293
  620TMC3    C4 9236   0.395   2.990  14.049 -0.2931 -0.4310 -0.1745
  620TMC3    C5 9237   0.397   3.114  13.980  0.7388  0.1173  0.1729
  620TMC3    C6 9238   0.395   3.118  13.846  0.4563 -0.5249 -1.1145
  620TMC3     C 9239   0.341   2.764  14.046  0.4316  0.7814 -0.4837
  620TMC3     O 9240   0.377   2.747  14.164  0.6466  0.0442 -0.1116
  620TMC3     H 9241   0.361   2.793  13.773 -0.7388  1.1175 -1.4375
  620TMC3    H1 9242   0.388   2.984  14.157  1.8663  1.5344  0.0777
  620TMC3    H2 9243   0.387   3.216  13.800 -2.9016  0.0453  0.7383
  620TMC3    C7 9244   0.334   3.213  14.063  0.1172  0.0922  0.2408
  620TMC3    C8 9245   0.369   3.017  13.634 -0.8209 -0.2408 -0.5341
  620TMC3    O1 9246   0.370   3.212  14.178 -0.4406 -0.6545 -0.2228
  620TMC3    O2 9247   0.455   3.089  13.588 -0.4026  0.1609  0.5301
  621MPD2     C 9248   0.506   2.192  10.568  0.3022 -0.1704  0.4501
  621MPD2    C1 9249   0.609   2.172  10.472 -0.3277  0.1433 -0.9672
  621MPD2    C2 9250   0.670   2.289  10.419 -0.0229 -0.5686 -0.5292
  621MPD2    C3 9251   0.635   2.413  10.472  0.0128 -0.3668  0.1041
  621MPD2    C4 9252   0.539   2.428  10.568 -0.2268 -0.0266  0.0652
  621MPD2    C5 9253   0.480   2.315  10.631 -0.6507 -0.3176  0.1871
  621MPD2     H 9254   0.736   2.285  10.333  1.2997 -0.1462  0.4763
  621MPD2    H1 9255   0.518   2.528  10.605 -1.3165 -0.0626 -0.4491
  621MPD2    H2 9256   0.440   2.115  10.608 -0.4682  1.6402  2.6880
  621MPD2    H3 9257   0.404   2.325  10.707  0.9776 -0.7401  1.8593
  621MPD2     N 9258   0.694   2.522  10.395  0.1490 -0.6396 -0.6302
  621MPD2    H5 9259   0.754   2.495  10.317  2.3099  0.6515  0.5880
  621MPD2    N1 9260   0.628   2.040  10.428  0.1433  0.3563  0.1673
  621MPD2    H7 9261   0.553   1.976  10.452 -1.1550  2.7003  2.3156
  622TMC3    C1 9262   0.712   1.865  10.295  0.2207 -0.1717 -0.1588
  622TMC3    C2 9263   0.586   1.804  10.282 -0.5003  0.2983 -0.4519
  622TMC3    C3 9264   0.573   1.678  10.233 -0.1364 -0.5159  0.2000
  622TMC3    C4 9265   0.820   1.807  10.253  0.3086 -0.2130 -0.0313
  622TMC3    C5 9266   0.810   1.677  10.205  0.2800  0.3941  0.8808
  622TMC3    C6 9267   0.690   1.614  10.193 -0.3059 -0.2278  0.2567
  622TMC3     C 9268   0.728   1.999  10.342 -0.0198  0.0983 -0.6282
  622TMC3     O 9269   0.829   2.060  10.311 -0.1089  0.4336 -0.1343
  622TMC3     H 9270   0.495   1.850  10.319  1.0047  3.6483 -0.8471
  622TMC3    H1 9271   0.921   1.847  10.253 -0.4204  1.6054  0.2038
  622TMC3    H2 9272   0.681   1.506  10.186 -2.6580  0.0098 -0.3655
  622TMC3    C7 9273   0.915   1.642  10.107  0.1926  0.5677 -0.2973
  622TMC3    C8 9274   0.447   1.610  10.203  0.2846 -0.5034  0.5287
  622TMC3    O1 9275   0.989   1.737  10.075  0.5357  0.4560 -0.4773
  622TMC3    O2 9276   0.452   1.513  10.132 -0.5568 -0.1111 -0.0447
  623MPD2     C 9277   4.671   3.576  16.059  0.3437 -0.6949  0.0776
  623MPD2    C1 9278   4.694   3.447  16.092  0.7573 -0.2497  0.3268
  623MPD2    C2 9279   0.010   3.420  16.217 -0.0003 -0.4974 -0.5493
  623MPD2    C3 9280   0.045   3.525  16.307 -0.4158 -0.4963 -0.4873
  623MPD2    C4 9281   0.021   3.655  16.272  0.1293 -0.8171  0.9775
  623MPD2    C5 9282   4.708   3.678  16.143  0.4211 -0.4248  0.1785
  623MPD2     H 9283   0.021   3.314  16.237 -0.6718 -0.2481  1.1016
  623MPD2    H1 9284   0.027   3.743  16.336  0.4350 -0.0169 -0.1619
  623MPD2    H2 9285   4.637   3.601  15.959  1.0004 -0.9618 -0.2137
  623MPD2    H3 9286   4.678   3.781  16.123  0.9468 -0.3718 -0.3252
  623MPD2     N 9287   0.085   3.495  16.438  0.5044 -0.6243  0.3084
  623MPD2    H5 9288   0.081   3.395  16.454 -0.4387 -0.7422 -0.6204
  623MPD2    N1 9289   4.660   3.351  15.998 -0.4978  0.5226  0.2182
  623MPD2    H7 9290   4.587   3.381  15.933  0.0232 -1.4333 -1.2607
  624TMC3    C1 9291   0.236   3.504  16.879  0.4441  0.2049 -0.0012
  624TMC3    C2 9292   0.127   3.443  16.933 -0.0027 -0.6493  0.0765
  624TMC3    C3 9293   0.021   3.424  16.852 -0.1595 -0.1959  0.6186
  624TMC3    C4 9294   0.242   3.547  16.745 -0.0774  0.2832 -0.4138
  624TMC3    C5 9295   0.136   3.529  16.665  0.7753  0.4896 -0.8415
  624TMC3    C6 9296   0.023   3.467  16.719  0.8894  0.2325 -0.1052
  624TMC3     C 9297   0.364   3.486  16.954  0.5178  0.5929  0.1887
  624TMC3     O 9298   0.356   3.461  17.072  0.3053 -0.0190  0.2113
  624TMC3     H 9299   0.126   3.404  17.034 -1.2056  0.0165  0.3210
  624TMC3    H1 9300   0.330   3.603  16.713  0.0453  0.2453 -0.1442
  624TMC3    H2 9301   4.683   3.445  16.651  0.3906 -0.0992  0.6134
  624TMC3    C7 9302   0.134   3.586  16.527 -0.5565 -0.1356 -0.6072
  624TMC3    C8 9303   4.640   3.371  16.904 -0.3063  0.5198  0.3853
  624TMC3    O1 9304   0.190   3.688  16.497 -0.1119 -0.4819 -0.0458
  624TMC3    O2 9305   4.566   3.340  16.810 -0.6662  0.1115 -0.2914
  625MPD2     C 9306   1.073   4.716   0.978  0.2458  0.2736  0.2908
  625MPD2    C1 9307   1.047   0.108   0.966 -0.5208  0.6937 -0.4070
  625MPD2    C2 9308   1.157   0.189   0.936  0.7707  0.4139 -0.2452
  625MPD2    C3 9309   1.284   0.146   0.922  0.3767  0.4561 -0.9414
  625MPD2    C4 9310   1.309   0.010   0.950 -0.4376 -0.4298  0.4237
  625MPD2    C5 9311   1.204   4.671   0.977 -0.1370 -0.7903  0.3720
  625MPD2     H 9312   1.136   0.290   0.904 -1.7228 -0.2427 -0.6557
  625MPD2    H1 9313   1.407   4.706   0.949  0.2599  1.0896 -0.0459
  625MPD2    H2 9314   0.997   4.644   1.005  0.1039  0.0131 -0.8360
  625MPD2    H3 9315   1.232   4.568   0.999 -2.0135 -1.8427 -2.1216
  625MPD2     N 9316   1.382   0.239   0.885  0.3544 -0.4040  0.0331
  625MPD2    H5 9317   1.337   0.327   0.863 -1.0626 -1.4419 -1.2105
  625MPD2    N1 9318   0.920   0.171   0.967 -0.0691  1.4602  0.3875
  625MPD2    H7 9319   0.919   0.270   0.943  2.3067  1.3904 -0.0037
  626TMC3    C1 9320   0.707   0.227   0.984 -0.5067  0.7232 -0.8933
  626TMC3    C2 9321   0.620   0.231   0.880  0.5935  0.4961  0.1967
  626TMC3    C3 9322   0.564   0.349   0.840  0.3416  0.6007 -0.1990
  626TMC3    C4 9323   0.744   0.340   1.050  0.0512  0.2004  0.7277
  626TMC3    C5 9324   0.687   0.463   1.003 -0.5507  0.2090  0.3556
  626TMC3    C6 9325   0.601   0.467   0.891 -0.5514 -0.3691 -0.5091
  626TMC3     C 9326   0.796   0.116   0.971 -0.6474 -0.0993 -0.2544
  626TMC3     O 9327   0.757   0.000   0.953  0.4652  0.3300 -0.1068
  626TMC3     H 9328   0.604   0.135   0.832  0.9367  0.7262 -0.3782
  626TMC3    H1 9329   0.813   0.337   1.133  0.8283 -1.0591  0.0426
  626TMC3    H2 9330   0.557   0.556   0.847  1.1507  1.3566  1.2545
  626TMC3    C7 9331   0.715   0.583   1.083 -0.0558 -0.5258  0.0461
  626TMC3    C8 9332   0.479   0.353   0.724  0.4182 -0.2940  0.3726
  626TMC3    O1 9333   0.821   0.593   1.140 -0.0615  0.3414 -0.0851
  626TMC3    O2 9334   0.484   0.447   0.645 -0.2394 -0.4927 -0.0824
  627MPD2     C 9335   3.362   0.021  14.449  0.2318 -0.1051 -0.0691
  627MPD2    C1 9336   3.381   4.689  14.562 -0.0476  0.1398  0.3151
  627MPD2    C2 9337   3.307   4.576  14.582 -0.1327  0.5518 -0.2857
  627MPD2    C3 9338   3.210   4.538  14.503 -0.5697 -0.9665  0.7906
  627MPD2    C4 9339   3.192   4.601  14.383  0.0257  0.3771  0.3224
  627MPD2    C5 9340   3.270   4.713  14.357  0.0874  0.6008 -0.8110
  627MPD2     H 9341   3.324   4.514  14.669 -3.3037 -0.1350 -0.1506
  627MPD2    H1 9342   3.120   4.571  14.308 -1.1265  2.5684  0.5391
  627MPD2    H2 9343   3.416   0.114  14.434  1.4132 -0.8835 -0.6772
  627MPD2    H3 9344   3.237   0.018  14.264  1.5404 -1.3397 -2.2965
  627MPD2     N 9345   3.138   4.422  14.539  0.6930 -0.2159 -0.8038
  627MPD2    H5 9346   3.151   4.392  14.635 -0.1164  0.0852 -0.6032
  627MPD2    N1 9347   3.487   4.721  14.656 -0.3541  0.2057  0.0451
  627MPD2    H7 9348   3.503   4.655  14.731 -0.7854 -1.6719 -1.5200
  628TMC3    C1 9349   3.681   0.072  14.745  0.7243  0.2179  0.3882
  628TMC3    C2 9350   3.680   4.721  14.844 -0.3793  0.5672 -0.6141
  628TMC3    C3 9351   3.782   4.725  14.935 -0.0940  0.0595  0.0916
  628TMC3    C4 9352   3.790   0.153  14.726  0.3249  0.2535 -0.9760
  628TMC3    C5 9353   3.893   0.144  14.820 -0.1492 -0.6378  0.1811
  628TMC3    C6 9354   3.895   0.052  14.918  0.5183  0.5924 -0.1254
  628TMC3     C 9355   3.574   0.081  14.643 -0.7695 -0.1198 -0.3967
  628TMC3     O 9356   3.576   0.184  14.577 -0.6506  0.1187  0.2473
  628TMC3     H 9357   3.596   4.654  14.860 -0.4076  1.0242  1.1241
  628TMC3    H1 9358   3.799   0.217  14.639  1.9382  2.3256  0.7210
  628TMC3    H2 9359   3.974   0.054  14.992  1.2042 -0.9934 -0.8174
  628TMC3    C7 9360   3.961   0.270  14.854 -0.0481  0.2157 -0.1771
  628TMC3    C8 9361   3.756   4.643  15.055 -0.3042 -0.3128 -0.2179
  628TMC3    O1 9362   4.031   0.271  14.956 -0.3545  0.1961  0.1014
  628TMC3    O2 9363   3.638   4.640  15.090  0.1948 -0.4956 -0.2323
  629MPD2     C 9364   1.522   3.315  17.222  0.1356 -0.2312 -0.3617
  629MPD2    C1 9365   1.516   3.348  17.085 -0.2510 -0.5334  0.3010
  629MPD2    C2 9366   1.422   3.437  17.042 -0.3930  0.8800  0.0035
  629MPD2    C3 9367   1.327   3.489  17.122  0.0977  0.1958  0.0213
  629MPD2    C4 9368   1.329   3.453  17.254 -0.3545  0.3395 -0.0593
  629MPD2    C5 9369   1.431   3.374  17.303 -0.1350 -0.0303 -0.7621
  629MPD2     H 9370   1.419   3.468  16.939 -0.9763  1.9258  0.3400
  629MPD2    H1 9371   1.253   3.482  17.325 -0.8808 -2.5098  0.5580
  629MPD2    H2 9372   1.597   3.247  17.260  1.2331  1.5676  0.6861
  629MPD2    H3 9373   1.432   3.360  17.410  2.2327 -0.7547 -0.8764
  629MPD2     N 9374   1.234   3.587  17.078 -0.8401 -0.1964  0.0139
  629MPD2    H5 9375   1.246   3.610  16.980  1.6623 -2.2455 -0.1565
  629MPD2    N1 9376   1.610   3.289  16.997 -0.0561 -0.8258  0.3176
  629MPD2    H7 9377   1.666   3.213  17.035  1.6955  0.6200  0.6410
  630TMC3    C1 9378   1.702   3.196  16.799  0.2374 -0.3025  0.7133
  630TMC3    C2 9379   1.765   3.225  16.682 -1.1268 -0.1600  0.3814
  630TMC3    C3 9380   1.867   3.148  16.638 -0.0574  0.2671 -0.4761
  630TMC3    C4 9381   1.740   3.081  16.871  0.0834 -0.1157  0.2964
  630TMC3    C5 9382   1.849   3.014  16.824 -0.6931 -0.2002 -0.0052
  630TMC3    C6 9383   1.918   3.041  16.709 -1.2252 -0.4314 -0.6417
  630TMC3     C 9384   1.612   3.297  16.856 -0.3314 -0.3775  0.0488
  630TMC3     O 9385   1.568   3.373  16.774 -0.3168 -0.5904 -0.1529
  630TMC3     H 9386   1.738   3.317  16.631  1.3618 -2.1791 -4.5995
  630TMC3    H1 9387   1.691   3.055  16.964  1.8292  0.5288  1.4053
  630TMC3    H2 9388   2.011   2.991  16.683 -0.1536  0.6159  1.2193
  630TMC3    C7 9389   1.924   2.951  16.935 -0.6554 -1.2862 -0.4401
  630TMC3    C8 9390   1.952   3.200  16.536  0.0425 -0.1024  0.0252
  630TMC3    O1 9391   1.890   2.972  17.052 -0.3934 -0.4165  0.5773
  630TMC3    O2 9392   2.073   3.203  16.554 -0.0178 -0.6094 -0.0893
  631MPD2     C 9393   0.243   3.022  15.853 -0.2105 -0.5171  0.5010
  631MPD2    C1 9394   0.328   3.058  15.752 -0.5253 -0.0459 -0.3798
  631MPD2    C2 9395   0.466   3.065  15.784 -0.0885  0.7153  0.9009
  631MPD2    C3 9396   0.510   3.059  15.912  0.5633 -0.2828 -0.9062
  631MPD2    C4 9397   0.425   3.018  16.008 -0.2824 -0.2316 -0.1678
  631MPD2    C5 9398   0.293   2.995  15.977 -0.1735  0.1008 -0.4140
  631MPD2     H 9399   0.530   3.100  15.704 -0.2077 -2.3778 -0.5471
  631MPD2    H1 9400   0.443   2.994  16.112 -2.1445 -1.1292 -0.0438
  631MPD2    H2 9401   0.135   3.027  15.838  0.4879  1.1430 -3.9883
  631MPD2    H3 9402   0.219   2.970  16.052  1.5412 -0.0005  1.2436
  631MPD2     N 9403   0.645   3.094  15.930  0.3749 -0.2040  0.0877
  631MPD2    H5 9404   0.694   3.143  15.855 -2.4181  1.7069 -0.4912
  631MPD2    N1 9405   0.276   3.074  15.618 -0.1171 -0.7794  0.1399
  631MPD2    H7 9406   0.176   3.083  15.624 -0.0634 -0.3226  0.3474
  632TMC3    C1 9407   0.293   3.112  15.383  0.4740  0.1522 -0.9073
  632TMC3    C2 9408   0.157   3.133  15.376  0.0821  0.1703 -0.0992
  632TMC3    C3 9409   0.100   3.224  15.283 -0.2649  0.0148  0.1429
  632TMC3    C4 9410   0.378   3.174  15.297  0.6366  0.6400 -0.7023
  632TMC3    C5 9411   0.320   3.248  15.198  0.1942 -0.4860  0.4578
  632TMC3    C6 9412   0.187   3.276  15.190 -0.0175 -0.4046 -0.0424
  632TMC3     C 9413   0.356   3.079  15.508 -0.4362  0.0960 -0.9580
  632TMC3     O 9414   0.469   3.034  15.495  0.2701 -0.3551  0.5397
  632TMC3     H 9415   0.094   3.066  15.435 -0.4843 -0.8661 -1.8810
  632TMC3    H1 9416   0.484   3.180  15.317  0.7028 -0.0284 -0.8489
  632TMC3    H2 9417   0.150   3.341  15.111  0.7602  0.2674  0.1485
  632TMC3    C7 9418   0.401   3.294  15.092 -0.5684  0.0930  0.1782
  632TMC3    C8 9419   4.713   3.276  15.313 -0.0949  0.7458 -0.2991
  632TMC3    O1 9420   0.359   3.381  15.015  0.0462  0.3218 -0.0133
  632TMC3    O2 9421   4.693   3.303  15.432  0.1641 -0.2429 -0.6533
  633MPD2     C 9422   4.653   1.430  17.616  0.0718  1.0545 -0.2422
  633MPD2    C1 9423   4.701   1.384  17.495 -1.5870 -0.5968  0.2893
  633MPD2    C2 9424   0.049   1.277  17.506 -0.4857 -0.2579  0.1426
  633MPD2    C3 9425   0.103   1.227  17.626  0.1691  0.2835  0.0925
  633MPD2    C4 9426   0.059   1.287  17.747  0.3362 -0.6391  0.4738
  633MPD2    C5 9427   4.710   1.391  17.734  0.0922 -0.7896  0.1737
  633MPD2     H 9428   0.090   1.240  17.412 -0.3247 -0.2181  0.1968
  633MPD2    H1 9429   0.102   1.266   0.081  0.1299 -0.2040  0.6580
  633MPD2    H2 9430   4.577   1.507  17.612  1.1093  2.2162  2.6255
  633MPD2    H3 9431   4.664   1.427   0.062 -0.6292  1.5396 -1.1268
  633MPD2     N 9432   0.203   1.136  17.628  0.3009 -0.6029 -0.6537
  633MPD2    H5 9433   0.248   1.115  17.717  0.0312 -1.6122 -0.7503
  633MPD2    N1 9434   4.655   1.417  17.366 -0.6179  1.1872 -0.8727
  633MPD2    H7 9435   4.697   1.372  17.285  1.0800  0.7372  0.2665
  634TMC3    C1 9436   4.561   1.545  17.190  0.3246  0.1649  0.4440
  634TMC3    C2 9437   4.554   1.440  17.107 -0.2016 -0.4742  0.4566
  634TMC3    C3 9438   4.551   1.459  16.973 -0.7214 -0.2053 -0.0987
  634TMC3    C4 9439   4.585   1.667  17.145  0.1382 -0.0096  0.2892
  634TMC3    C5 9440   4.591   1.687  17.011  0.0574 -0.4587  0.5268
  634TMC3    C6 9441   4.579   1.584  16.922  0.1778 -0.3316 -0.1741
  634TMC3     C 9442   4.579   1.521  17.339 -0.8661 -0.3497  0.0385
  634TMC3     O 9443   4.541   1.612  17.416  0.6447  0.3293 -0.6629
  634TMC3     H 9444   4.549   1.338  17.144  1.1726 -0.9034 -0.5354
  634TMC3    H1 9445   4.592   1.739  17.225  0.1216 -1.1803  1.3553
  634TMC3    H2 9446   4.591   1.599  16.816  0.7894 -0.6300 -0.1498
  634TMC3    C7 9447   4.624   1.819  16.959 -0.4360  0.0794 -0.4547
  634TMC3    C8 9448   4.572   1.342  16.890  0.2558  0.2995 -0.0706
  634TMC3    O1 9449   4.640   1.830  16.835  0.6050 -0.1996 -0.2096
  634TMC3    O2 9450   4.617   1.243  16.949 -0.5077 -0.2437 -0.1697
  635TMC3    C1 9451   0.670   3.127   0.162 -0.6322 -0.3061  1.0071
  635TMC3    C2 9452   0.724   3.145   0.039 -0.6760  0.1148 -0.6760
  635TMC3    C3 9453   0.631   3.130  17.704  0.0122 -0.0192  0.2975
  635TMC3    C4 9454   0.537   3.118   0.194 -0.2114  0.3765 -0.0091
  635TMC3    C5 9455   0.450   3.106   0.085 -0.5874  1.1450  0.3440
  635TMC3    C6 9456   0.498   3.096  17.724 -0.1178  0.2365 -0.4600
  635TMC3     C 9457   0.743   3.181   0.275  0.6043  0.1844  0.5277
  635TMC3     O 9458   0.714   3.141   0.385  0.0732  0.5014  0.0547
  635TMC3     H 9459   0.832   3.140   0.030 -0.8191  1.7198 -3.1239
  635TMC3    H1 9460   0.496   3.107   0.294  0.1256  1.7986  0.2928
  635TMC3    H2 9461   0.433   3.082  17.638 -0.9999 -0.6449  0.3395
  635TMC3    C7 9462   0.305   3.111   0.107  0.2873 -0.4241 -0.1312
  635TMC3    C8 9463   0.689   3.104  17.574  0.7042  0.5597 -0.9793
  635TMC3    O1 9464   0.280   3.161   0.215  0.2909 -0.1801  0.4585
  635TMC3    O2 9465   0.809   3.074  17.561 -0.3812  0.3422 -0.0838
  636MPD2     C 9466   1.463   1.563  15.974 -0.1973 -0.8038 -0.0765
  636MPD2    C1 9467   1.455   1.576  16.111  0.1166 -0.0626  0.4114
  636MPD2    C2 9468   1.461   1.462  16.191 -0.2888  0.6442  0.1912
  636MPD2    C3 9469   1.487   1.336  16.140 -0.1587  0.3701  1.1444
  636MPD2    C4 9470   1.512   1.330  16.003  0.1089  0.4094  0.4061
  636MPD2    C5 9471   1.495   1.436  15.919  0.6970  0.1028  0.1571
  636MPD2     H 9472   1.442   1.466  16.297  0.3813 -1.3807  0.3835
  636MPD2    H1 9473   1.550   1.237  15.964 -0.1490  0.8345 -0.8429
  636MPD2    H2 9474   1.463   1.654  15.916  1.4945  0.5792  2.0895
  636MPD2    H3 9475   1.521   1.420  15.815  2.2688 -0.8986  0.7041
  636MPD2     N 9476   1.499   1.225  16.232  0.4767  0.3700 -0.0385
  636MPD2    H5 9477   1.492   1.248  16.330  2.0359  0.9845 -0.0703
  636MPD2    N1 9478   1.421   1.694  16.177  0.0887 -0.0608  0.4060
  636MPD2    H7 9479   1.402   1.695  16.277 -1.2658  1.4648  0.1439
  637TMC3    C1 9480   1.513   1.014  16.317 -0.0479 -0.4842 -0.5734
  637TMC3    C2 9481   1.496   1.079  16.440 -0.2266  0.0374  0.5571
  637TMC3    C3 9482   1.573   1.034  16.547 -0.2872 -0.1761 -0.6673
  637TMC3    C4 9483   1.600   0.907  16.304  0.7254 -0.5167 -0.0740
  637TMC3    C5 9484   1.679   0.876  16.407 -0.4418 -0.2937  0.7174
  637TMC3    C6 9485   1.666   0.934  16.531 -0.0182 -0.4727  0.0034
  637TMC3     C 9486   1.489   1.092  16.195  0.1103 -0.2340 -0.0200
  637TMC3     O 9487   1.471   1.026  16.090  0.0355  0.0918  0.2832
  637TMC3     H 9488   1.434   1.167  16.451 -2.6340 -1.6257  0.3656
  637TMC3    H1 9489   1.620   0.873  16.203 -0.4889 -1.9527  0.1656
  637TMC3    H2 9490   1.726   0.899  16.614  0.7796  2.2685  0.5603
  637TMC3    C7 9491   1.784   0.766  16.391 -0.2012 -0.5514  0.6794
  637TMC3    C8 9492   1.600   1.142  16.646  0.4117 -0.3765 -1.2689
  637TMC3    O1 9493   1.779   0.671  16.470 -0.1346 -0.4039  0.1818
  637TMC3    O2 9494   1.543   1.249  16.622 -0.3608  0.1179  0.2624
  638MPD2     C 9495   0.905   0.458  15.021 -0.2705 -0.1018  0.4604
  638MPD2    C1 9496   0.848   0.386  14.912  0.4533  0.1440 -0.0733
  638MPD2    C2 9497   0.761   0.284  14.942  0.2568 -0.1076 -0.3681
  638MPD2    C3 9498   0.734   0.252  15.076 -0.0908  0.0549  0.0590
  638MPD2    C4 9499   0.804   0.314  15.180  0.0272  0.3215  0.6613
  638MPD2    C5 9500   0.874   0.430  15.149  0.0484  0.5497 -1.1497
  638MPD2     H 9501   0.705   0.229  14.867 -1.8217  0.0353  1.0911
  638MPD2    H1 9502   0.789   0.290  15.285 -0.6756 -1.5125  0.1282
  638MPD2    H2 9503   0.976   0.537  14.999  0.1767 -0.3530  1.0040
  638MPD2    H3 9504   0.913   0.491  15.230 -1.6586  0.5906 -0.3471
  638MPD2     N 9505   0.668   0.132  15.100  0.0577 -0.0525  0.2356
  638MPD2    H5 9506   0.650   0.075  15.018  0.0269 -0.9617  0.8709
  638MPD2    N1 9507   0.886   0.416  14.781 -0.0912 -0.3807 -0.2933
  638MPD2    H7 9508   0.952   0.493  14.772 -0.7034 -0.0919 -2.3994
  639TMC3    C1 9509   0.635   4.669  15.202 -0.4608  0.4206 -0.0148
  639TMC3    C2 9510   0.595   4.605  15.085  0.0352 -0.1750  1.3075
  639TMC3    C3 9511   0.653   4.485  15.053  0.3484 -0.0851 -0.3238
  639TMC3    C4 9512   0.713   4.594  15.293 -0.4274 -0.0045 -0.0346
  639TMC3    C5 9513   0.765   4.473  15.256  0.4898 -0.7323  0.3814
  639TMC3    C6 9514   0.736   4.414  15.135  0.9719 -0.1529 -0.0082
  639TMC3     C 9515   0.642   0.074  15.220  0.0557 -0.5841 -0.5525
  639TMC3     O 9516   0.670   0.112  15.333  0.1503 -0.4940  0.5231
  639TMC3     H 9517   0.538   4.659  15.010 -1.0784  0.6627  2.7732
  639TMC3    H1 9518   0.744   4.649  15.382  0.6841  0.2872 -0.6017
  639TMC3    H2 9519   0.767   4.312  15.117 -1.5943 -0.6753 -1.4116
  639TMC3    C7 9520   0.862   4.428  15.346  0.1180  0.5015  0.1590
  639TMC3    C8 9521   0.586   4.404  14.963  0.6487 -0.5555 -0.2349
  639TMC3    O1 9522   0.839   4.448  15.464  0.5700  0.0900  0.5139
  639TMC3    O2 9523   0.647   4.325  14.893  0.5559 -0.1431 -0.0078
  640MPD2     C 9524   0.986   3.615  10.201 -0.2300 -0.0108 -0.2206
  640MPD2    C1 9525   1.085   3.700  10.150 -0.2315  0.0567 -0.2378
  640MPD2    C2 9526   1.070   3.836  10.162  0.5265  0.4153 -0.0436
  640MPD2    C3 9527   0.958   3.895  10.222  0.5479 -0.2399 -0.1338
  640MPD2    C4 9528   0.865   3.807  10.263  0.3455  0.3173  0.5962
  640MPD2    C5 9529   0.873   3.672  10.254 -0.3490  0.1746  0.4991
  640MPD2     H 9530   1.153   3.900  10.138  0.9921  0.5119  1.8400
  640MPD2    H1 9531   0.779   3.847  10.316 -0.3324  1.1311 -1.1500
  640MPD2    H2 9532   0.987   3.507  10.192  0.2766 -0.1073  0.9113
  640MPD2    H3 9533   0.797   3.598  10.278 -0.8662  0.7275  0.5463
  640MPD2     N 9534   0.936   4.032  10.236  0.7451  0.2253  0.1086
  640MPD2    H5 9535   0.866   4.058  10.305 -0.5474  0.0512 -1.1282
  640MPD2    N1 9536   1.196   3.643  10.092 -0.4342  0.7643 -0.2635
  640MPD2    H7 9537   1.182   3.543  10.086  1.3641  0.4320  1.2210
  641TMC3    C1 9538   1.396   3.629   9.965 -0.1523  0.3807  0.3035
  641TMC3    C2 9539   1.401   3.499   9.998  0.7011 -0.0065 -0.3579
  641TMC3    C3 9540   1.483   3.419   9.920 -0.2396 -0.0572 -0.0143
  641TMC3    C4 9541   1.474   3.692   9.867 -0.9060  0.0995  0.3121
  641TMC3    C5 9542   1.558   3.613   9.800  0.1667  0.0834 -0.3627
  641TMC3    C6 9543   1.564   3.474   9.822 -0.1445 -0.0708  0.0843
  641TMC3     C 9544   1.296   3.714  10.030 -0.0606  0.0692  0.3106
  641TMC3     O 9545   1.317   3.834  10.014  0.4166 -0.1383  0.5811
  641TMC3     H 9546   1.340   3.451  10.074 -0.9357  0.3696 -1.4380
  641TMC3    H1 9547   1.453   3.795   9.840 -0.1600 -0.2348 -1.5150
  641TMC3    H2 9548   1.635   3.412   9.768 -0.2006 -1.2560  1.3731
  641TMC3    C7 9549   1.663   3.669   9.723 -0.2065  0.3761  0.2234
  641TMC3    C8 9550   1.515   3.282   9.949 -0.0191 -0.9687 -0.0484
  641TMC3    O1 9551   1.772   3.611   9.719 -0.6156  0.4363  0.1547
  641TMC3    O2 9552   1.574   3.231   9.855  0.8915  0.2846 -0.0328
  642TMC3    C1 9553   2.749   4.685  12.713 -1.0146  0.2674  0.0275
  642TMC3    C2 9554   2.886   4.672  12.715  0.3116 -0.6690  0.5947
  642TMC3    C3 9555   2.944   4.551  12.744 -0.3099  0.1045  0.4912
  642TMC3    C4 9556   2.673   4.580  12.741 -0.2270 -0.5921 -0.4601
  642TMC3    C5 9557   2.730   4.458  12.766 -0.2180 -0.0292 -0.1848
  642TMC3    C6 9558   2.865   4.441  12.763 -0.0979 -0.4652 -0.6499
  642TMC3     C 9559   2.690   0.040  12.628  0.2933  0.3241 -0.0112
  642TMC3     O 9560   2.766   0.111  12.561 -0.4565  0.3345  0.1669
  642TMC3     H 9561   2.938   0.021  12.686  0.0967 -1.2655 -1.5839
  642TMC3    H1 9562   2.564   4.586  12.737 -0.2651 -0.7687  0.2794
  642TMC3    H2 9563   2.912   4.351  12.799 -3.6326 -1.6966  0.9429
  642TMC3    C7 9564   2.639   4.339  12.755 -0.0175  0.2408  0.1846
  642TMC3    C8 9565   3.082   4.522  12.712  0.2254  0.1457  0.0434
  642TMC3    O1 9566   2.686   4.242  12.693  0.1991  0.2540  0.5655
  642TMC3    O2 9567   3.131   4.418  12.759 -0.1781 -0.4984  0.3542
  643TMC3    C1 9568   1.952   4.673   0.682  0.1417  0.1975 -0.5100
  643TMC3    C2 9569   1.819   4.659   0.651 -0.2779 -0.0315  0.3414
  643TMC3    C3 9570   1.780   4.546   0.585  0.2798  0.3181  0.0107
  643TMC3    C4 9571   2.028   4.567   0.656  0.3595 -0.8007  0.3889
  643TMC3    C5 9572   1.988   4.454   0.589 -0.7726  0.0283  0.9300
  643TMC3    C6 9573   1.860   4.438   0.553  0.6029 -0.1415 -0.2711
  643TMC3     C 9574   1.996   0.053   0.747  0.6281 -0.2834  0.6364
  643TMC3     O 9575   1.916   0.144   0.768 -0.6062  0.0389  0.5530
  643TMC3     H 9576   1.745   4.734   0.677 -0.3055 -0.2079  0.7682
  643TMC3    H1 9577   2.133   4.568   0.684 -0.0481 -0.8576  1.9213
  643TMC3    H2 9578   1.834   4.361   0.482 -1.8466 -0.0404  0.5183
  643TMC3    C7 9579   2.099   4.432   0.491  0.7067 -0.2623  0.4141
  643TMC3    C8 9580   1.663   4.559   0.498 -0.4959  0.0621  0.3323
  643TMC3    O1 9581   2.168   4.527   0.462 -0.1678 -0.0021  0.2785
  643TMC3    O2 9582   1.599   4.458   0.478 -0.1617  0.2444 -0.1431
  644MPD2     C 9583   1.766   4.316   9.614 -0.4884 -0.9731  0.2180
  644MPD2    C1 9584   1.730   4.287   9.739  0.5652 -0.3035  0.1869
  644MPD2    C2 9585   1.672   4.387   9.817  0.1730 -0.3371 -0.2201
  644MPD2    C3 9586   1.650   4.513   9.770  1.2555 -0.6838 -0.7587
  644MPD2    C4 9587   1.687   4.536   9.639  1.1295  0.1616  0.1291
  644MPD2    C5 9588   1.746   4.441   9.557  0.1498  0.0012  0.2427
  644MPD2     H 9589   1.660   4.374   9.924  2.1183  1.8422  0.2720
  644MPD2    H1 9590   1.664   4.630   9.590  0.0370 -1.1657 -1.9104
  644MPD2    H2 9591   1.816   4.241   9.554 -0.1597 -1.4088  1.0533
  644MPD2    H3 9592   1.793   4.457   9.461  0.0048 -0.6685  0.0634
  644MPD2     N 9593   1.601   4.613   9.860 -0.3987  0.0828 -0.2422
  644MPD2    H5 9594   1.571   4.589   9.954  2.1359 -0.3916  0.4524
  644MPD2    N1 9595   1.776   4.164   9.791 -0.3370  0.5887  0.2092
  644MPD2    H7 9596   1.833   4.107   9.728  2.0140  1.1986  1.7933
  645TMC3    C1 9597   1.581   0.095   9.940 -0.0168 -0.0850 -0.4103
  645TMC3    C2 9598   1.632   0.227   9.937  0.3160 -0.0003  0.0116
  645TMC3    C3 9599   1.574   0.320  10.018 -0.2740  0.5856 -0.3623
  645TMC3    C4 9600   1.476   0.062  10.018 -0.4357 -0.5246  0.1655
  645TMC3    C5 9601   1.410   0.164  10.082 -0.3716  0.5187 -0.7888
  645TMC3    C6 9602   1.463   0.290  10.097  0.0679  0.0670  0.7524
  645TMC3     C 9603   1.624   0.006   9.831  0.0173  0.4643  0.1639
  645TMC3     O 9604   1.648   0.075   9.731 -0.1125 -0.0120  0.3003
  645TMC3     H 9605   1.719   0.242   9.873 -1.2399  1.9944 -1.6219
  645TMC3    H1 9606   1.444   4.701  10.023  0.0689 -0.7952 -2.2564
  645TMC3    H2 9607   1.404   0.361  10.153 -1.3886 -0.9741  0.5201
  645TMC3    C7 9608   1.295   0.126  10.164 -0.3661 -0.5293  0.5501
  645TMC3    C8 9609   1.641   0.436  10.064 -0.3886  0.7432  0.6100
  645TMC3    O1 9610   1.279   0.182  10.271 -0.0547 -0.2992  0.2201
  645TMC3    O2 9611   1.580   0.507  10.144 -0.4097 -0.7909 -0.0146
  646MPD2     C 9612   1.022   3.635  14.519 -0.0145 -0.5509 -0.5253
  646MPD2    C1 9613   0.936   3.641  14.631 -0.4729 -0.0977  0.4925
  646MPD2    C2 9614   0.808   3.693  14.622 -0.2616  0.4380  0.1470
  646MPD2    C3 9615   0.759   3.734  14.498  0.4645  0.0964 -0.1883
  646MPD2    C4 9616   0.840   3.711  14.389  0.9185 -0.0244 -0.7091
  646MPD2    C5 9617   0.973   3.673  14.396  0.4631  0.7633 -0.0497
  646MPD2     H 9618   0.742   3.701  14.708 -0.1206  1.6975  0.1264
  646MPD2    H1 9619   0.795   3.731  14.292  1.2586  1.1704 -0.6130
  646MPD2    H2 9620   1.121   3.590  14.527 -0.8431 -2.4453 -0.9976
  646MPD2    H3 9621   1.036   3.673  14.308 -0.9360  1.9072 -1.0464
  646MPD2     N 9622   0.624   3.773  14.485  0.5441  0.3677  0.2406
  646MPD2    H5 9623   0.565   3.747  14.564  2.7285  0.6428  1.9713
  646MPD2    N1 9624   0.988   3.593  14.751 -0.0144 -0.1725 -0.8680
  646MPD2    H7 9625   1.083   3.559  14.741  0.6016  1.0059  1.0971
  647TMC3    C1 9626   1.013   3.528  14.980 -0.3626 -0.3192  0.0974
  647TMC3    C2 9627   0.966   3.458  15.087 -0.0515 -0.0954  0.1670
  647TMC3    C3 9628   1.040   3.460  15.204 -0.6748  0.6264  0.6582
  647TMC3    C4 9629   1.147   3.567  14.975  0.2534  0.0775  0.6007
  647TMC3    C5 9630   1.219   3.566  15.092 -0.6209 -0.6750  0.7504
  647TMC3    C6 9631   1.167   3.520  15.214 -0.0581 -0.0841 -0.5108
  647TMC3     C 9632   0.923   3.574  14.875 -0.0190  0.3734  0.2399
  647TMC3     O 9633   0.808   3.587  14.908 -0.0850  0.4269 -0.2243
  647TMC3     H 9634   0.864   3.420  15.087 -0.0832 -0.0089  0.3634
  647TMC3    H1 9635   1.195   3.608  14.887 -1.2847  1.4630  0.4201
  647TMC3    H2 9636   1.224   3.489  15.301 -0.2130 -1.7936 -1.0096
  647TMC3    C7 9637   1.361   3.537  15.091 -1.2835 -0.8664 -0.3259
  647TMC3    C8 9638   1.030   3.338  15.289  0.5378 -0.0374 -0.1368
  647TMC3    O1 9639   1.416   3.544  15.200  0.2484 -0.6032 -0.6276
  647TMC3    O2 9640   1.034   3.352  15.415 -0.0120 -0.1095 -0.2142
  648TMC3    C1 9641   0.301   1.443  16.219 -0.4332 -0.4506 -0.8238
  648TMC3    C2 9642   0.288   1.331  16.136  0.7031  0.2340  0.0865
  648TMC3    C3 9643   0.300   1.343  16.002  0.0531 -0.1759  0.0613
  648TMC3    C4 9644   0.342   1.567  16.175  0.5732 -0.0517  0.2193
  648TMC3    C5 9645   0.334   1.580  16.035  0.1996  0.0780  0.1633
  648TMC3    C6 9646   0.319   1.471  15.949 -0.3128  0.4777 -0.6573
  648TMC3     C 9647   0.352   1.422  16.353  0.7140  0.8128 -0.3463
  648TMC3     O 9648   0.436   1.499  16.405 -0.2300 -0.0979  0.4277
  648TMC3     H 9649   0.279   1.232  16.179 -2.7547  1.5786  2.5040
  648TMC3    H1 9650   0.376   1.647  16.240  1.0916 -0.3021  0.2538
  648TMC3    H2 9651   0.335   1.489  15.843  2.6366 -0.0494 -0.3219
  648TMC3    C7 9652   0.319   1.711  15.976  0.3673  0.4428  0.4145
  648TMC3    C8 9653   0.368   1.231  15.933  0.2532  0.4716  0.0882
  648TMC3    O1 9654   0.354   1.719  15.860 -0.0557 -0.0461  0.2699
  648TMC3    O2 9655   0.479   1.262  15.895 -0.2806 -0.1063  0.0159
  649TMC3    C1 9656   3.632   2.372  13.463  0.4444  0.2613  0.1787
  649TMC3    C2 9657   3.763   2.327  13.466 -0.0165 -0.0462  0.2344
  649TMC3    C3 9658   3.788   2.209  13.537  0.0655 -0.1670 -0.0065
  649TMC3    C4 9659   3.532   2.301  13.524  0.4549 -0.0482 -0.1102
  649TMC3    C5 9660   3.564   2.189  13.598 -0.1172  0.8103  0.3149
  649TMC3    C6 9661   3.691   2.145  13.608  0.6889 -0.1190 -0.3192
  649TMC3     C 9662   3.598   2.482  13.384  0.0647 -0.3826  0.2219
  649TMC3     O 9663   3.476   2.504  13.370 -0.2191  0.0279  0.1371
  649TMC3     H 9664   3.849   2.380  13.427 -0.6865  1.1465  0.4002
  649TMC3    H1 9665   3.428   2.332  13.520  0.3992 -0.4541 -2.0728
  649TMC3    H2 9666   3.722   2.053  13.658  0.0671  0.8693  1.9034
  649TMC3    C7 9667   3.453   2.133  13.669  0.0531  1.0148  0.0940
  649TMC3    C8 9668   3.925   2.178  13.567  0.7003  0.0595 -0.3464
  649TMC3    O1 9669   3.352   2.198  13.676 -0.0369 -0.3690  0.4234
  649TMC3    O2 9670   3.948   2.117  13.672 -0.4675 -0.1551  0.6667
  650TMC3    C1 9671   1.716   4.009  12.986  0.1929 -0.6672  0.5979
  650TMC3    C2 9672   1.759   4.127  13.039 -0.0595 -0.2010  0.2068
  650TMC3    C3 9673   1.822   4.222  12.968  0.1289  0.4873 -0.0490
  650TMC3    C4 9674   1.732   3.986  12.851  0.4330 -0.4931  0.4402
  650TMC3    C5 9675   1.770   4.094  12.775  0.0371  0.3043 -0.1036
  650TMC3    C6 9676   1.814   4.208  12.833 -0.8679  0.0314 -0.0965
  650TMC3     C 9677   1.691   3.898  13.074 -0.8730  0.8569 -0.0100
  650TMC3     O 9678   1.705   3.929  13.193  0.2288  0.4101 -0.2592
  650TMC3     H 9679   1.763   4.138  13.147 -1.0293  0.0338  0.2172
  650TMC3    H1 9680   1.696   3.893  12.808  0.0757 -0.0308 -0.2633
  650TMC3    H2 9681   1.863   4.283  12.771  1.6111 -1.7738 -0.3089
  650TMC3    C7 9682   1.732   4.091  12.640  0.4189  0.2407 -0.1482
  650TMC3    C8 9683   1.818   4.366  13.002  0.1994 -0.2038  0.0709
  650TMC3    O1 9684   1.726   3.982  12.585 -0.5189 -0.0242 -0.3812
  650TMC3    O2 9685   1.908   4.442  12.975  0.6279 -0.0432  0.0343
  651MPD2     C 9686   0.417   1.297  10.393  0.6556 -0.3090  0.1838
  651MPD2    C1 9687   0.395   1.407  10.469  0.2661  0.9191  0.3147
  651MPD2    C2 9688   0.493   1.490  10.521 -0.7694  0.5419 -0.2945
  651MPD2    C3 9689   0.625   1.462  10.487  0.0542  0.7164 -0.3745
  651MPD2    C4 9690   0.652   1.353  10.400  0.4085 -0.5684  0.2776
  651MPD2    C5 9691   0.548   1.273  10.357 -0.6838 -0.4680 -0.0795
  651MPD2     H 9692   0.465   1.582  10.570  0.3466  0.3047  0.7721
  651MPD2    H1 9693   0.751   1.340  10.358  0.2730 -0.9504  0.0799
  651MPD2    H2 9694   0.347   1.232  10.342  0.2666  0.8772 -0.8166
  651MPD2    H3 9695   0.562   1.199  10.280 -0.4361 -0.8807  0.3603
  651MPD2     N 9696   0.716   1.558  10.526  0.0400  0.2466 -0.7354
  651MPD2    H5 9697   0.681   1.641  10.573  0.5352 -2.0182  3.6244
  651MPD2    N1 9698   0.257   1.444  10.490 -0.2689 -0.2141  0.5071
  651MPD2    H7 9699   0.239   1.524  10.548  0.0084  0.9696 -1.0213
  652TMC3    C1 9700   1.124   1.797  10.557  0.4924  0.3158  0.0165
  652TMC3    C2 9701   1.041   1.700  10.502  0.4899  0.0432 -0.0643
  652TMC3    C3 9702   0.911   1.681  10.551  0.4946 -0.3982 -0.4496
  652TMC3    C4 9703   1.066   1.890  10.642  0.5562 -0.3333 -0.1892
  652TMC3    C5 9704   0.935   1.874  10.676 -0.2935  0.1362 -0.5173
  652TMC3    C6 9705   0.857   1.770  10.638 -0.4504  0.3416 -0.1482
  652TMC3     C 9706   1.271   1.791  10.550  0.3660  0.4515 -0.1499
  652TMC3     O 9707   1.335   1.826  10.647 -0.4816 -0.1194  0.6620
  652TMC3     H 9708   1.085   1.618  10.446  0.3834 -0.5961  0.7807
  652TMC3    H1 9709   1.127   1.965  10.692  0.2155 -0.9542  1.1649
  652TMC3    H2 9710   0.767   1.758  10.697  0.3702 -1.6569  0.6939
  652TMC3    C7 9711   0.873   1.967  10.774  0.0262 -0.1642 -0.1592
  652TMC3    C8 9712   0.849   1.553  10.516  0.1647  0.4358  0.1884
  652TMC3    O1 9713   0.786   1.921  10.851 -0.3567 -0.0230 -0.3728
  652TMC3    O2 9714   0.926   1.468  10.468  0.5939 -0.0361 -0.5274
  653MPD2     C 9715   4.308   1.438   0.078  0.0719  1.3147 -0.4141
  653MPD2    C1 9716   4.315   1.540  17.750  0.3011  0.5445  0.2406
  653MPD2    C2 9717   4.315   1.502  17.618 -0.1010 -0.6579 -0.6923
  653MPD2    C3 9718   4.301   1.368  17.579  0.6716  0.2900 -0.3367
  653MPD2    C4 9719   4.287   1.271  17.677  0.6912  0.5923 -0.3691
  653MPD2    C5 9720   4.297   1.306   0.043  0.0628 -0.2740 -0.3859
  653MPD2     H 9721   4.335   1.572  17.538  0.6290  1.6985  1.5567
  653MPD2    H1 9722   4.261   1.169  17.650  2.6459 -0.3103  1.1245
  653MPD2    H2 9723   4.304   1.464   0.183  1.7299  1.4789 -0.3800
  653MPD2    H3 9724   4.283   1.226   0.115 -2.2414  0.7307  0.2604
  653MPD2     N 9725   4.298   1.328  17.443 -0.2958  0.4612  0.2362
  653MPD2    H5 9726   4.263   1.396  17.376 -0.5391 -0.9340 -1.0304
  653MPD2    N1 9727   4.341   1.677   0.021 -0.0828  0.1611  0.4441
  653MPD2    H7 9728   4.344   1.751  17.715 -0.9052  0.4095  0.6663
  654TMC3    C1 9729   4.298   1.170  17.263  0.1702  0.4165 -0.2990
  654TMC3    C2 9730   4.251   1.259  17.174  0.3618 -0.3389  0.1044
  654TMC3    C3 9731   4.256   1.225  17.041  0.0892 -0.2012  0.1546
  654TMC3    C4 9732   4.361   1.049  17.224 -0.2735 -0.2362 -0.3347
  654TMC3    C5 9733   4.376   1.022  17.090 -0.5810 -0.0656  0.2484
  654TMC3    C6 9734   4.313   1.105  17.001 -0.4361  0.6268 -0.3776
  654TMC3     C 9735   4.332   1.205  17.400 -0.4538 -0.0527 -0.1555
  654TMC3     O 9736   4.408   1.128  17.454 -0.3005  0.5303 -0.6422
  654TMC3     H 9737   4.187   1.343  17.197 -0.3450 -0.2607 -2.1670
  654TMC3    H1 9738   4.377   0.973  17.299  0.7630  0.8795  0.5780
  654TMC3    H2 9739   4.323   1.078  16.897 -2.6030  0.8817 -0.6372
  654TMC3    C7 9740   4.428   0.894  17.054  0.2381  0.1375  0.2817
  654TMC3    C8 9741   4.156   1.277  16.945 -0.0411 -0.5248 -0.2478
  654TMC3    O1 9742   4.401   0.840  16.943 -0.0682 -0.0684 -0.0102
  654TMC3    O2 9743   4.094   1.379  16.974 -0.2998  0.5989  0.0239
  655MPD2     C 9744   1.084   1.518  15.972 -0.0912  0.2248 -0.4360
  655MPD2    C1 9745   0.986   1.578  15.903 -0.7249 -1.2661  0.3107
  655MPD2    C2 9746   0.957   1.547  15.775  0.6083  0.0992  0.5544
  655MPD2    C3 9747   1.029   1.443  15.723  0.2239  0.1755 -0.3523
  655MPD2    C4 9748   1.125   1.380  15.791 -0.3203  0.2226  0.1255
  655MPD2    C5 9749   1.162   1.426  15.913 -0.6863 -0.1691  0.6319
  655MPD2     H 9750   0.876   1.593  15.720 -2.2766 -2.3554  2.7375
  655MPD2    H1 9751   1.178   1.299  15.741 -0.4566 -0.3102  0.8446
  655MPD2    H2 9752   1.124   1.555  16.065  0.3310  0.4040 -0.6908
  655MPD2    H3 9753   1.239   1.367  15.961  0.1893  1.5533  1.3449
  655MPD2     N 9754   0.989   1.386  15.603  0.5269  0.1488  0.3251
  655MPD2    H5 9755   1.048   1.308  15.575 -0.7455 -1.1353  1.2715
  655MPD2    N1 9756   0.930   1.699  15.950 -0.6109 -0.3048  0.8821
  655MPD2    H7 9757   0.867   1.749  15.888 -1.3912  1.2882  2.9523
  656TMC3    C1 9758   0.852   1.856  16.116  0.5102 -0.3162 -0.0290
  656TMC3    C2 9759   0.777   1.862  16.233 -0.3532  0.1730 -0.6143
  656TMC3    C3 9760   0.671   1.946  16.233  0.1912  0.0118  0.2830
  656TMC3    C4 9761   0.832   1.941  16.015 -0.6504 -0.6024 -0.7647
  656TMC3    C5 9762   0.739   2.038  16.034 -0.0234  0.0901 -0.2928
  656TMC3    C6 9763   0.653   2.038  16.135  0.4846  0.5511 -0.2205
  656TMC3     C 9764   0.935   1.729  16.089 -0.1055  0.1539  0.2214
  656TMC3     O 9765   0.945   1.655  16.185  0.7440 -0.0423 -0.1595
  656TMC3     H 9766   0.791   1.787  16.309 -0.2988  1.2068  0.3892
  656TMC3    H1 9767   0.894   1.928  15.927  1.3536  1.8683  0.2651
  656TMC3    H2 9768   0.553   2.080  16.139  0.7483  1.1120  0.6498
  656TMC3    C7 9769   0.739   2.143  15.934  0.4583 -0.5560 -0.6371
  656TMC3    C8 9770   0.546   1.908  16.314 -0.4417  0.1901  0.7384
  656TMC3    O1 9771   0.776   2.098  15.824 -0.0149  0.3885  0.4238
  656TMC3    O2 9772   0.555   1.793  16.356  0.4641  0.1202  0.3547
  657TMC3    C1 9773   4.470   0.869  15.385 -0.0355 -0.3381  0.3550
  657TMC3    C2 9774   4.560   0.950  15.454 -0.5188 -0.1948  0.2008
  657TMC3    C3 9775   4.542   1.087  15.436 -0.0430  0.3489 -0.4810
  657TMC3    C4 9776   4.361   0.914  15.319  0.2254 -0.1987  0.1419
  657TMC3    C5 9777   4.349   1.049  15.308 -0.6266 -0.0113  0.2484
  657TMC3    C6 9778   4.433   1.138  15.370  0.0346 -0.2152 -0.6372
  657TMC3     C 9779   4.501   0.727  15.396 -0.4146 -0.1882 -0.1512
  657TMC3     O 9780   4.409   0.654  15.372  0.2982  0.4029 -0.5129
  657TMC3     H 9781   4.651   0.912  15.498 -0.6551 -0.1331  0.5372
  657TMC3    H1 9782   4.300   0.843  15.266  0.4401  1.2667 -2.0755
  657TMC3    H2 9783   4.428   1.245  15.353 -0.0361 -0.2278 -0.6973
  657TMC3    C7 9784   4.238   1.112  15.242  0.5820 -0.0414  0.4338
  657TMC3    C8 9785   4.608   1.183  15.530 -0.1970  0.7807 -0.1849
  657TMC3    O1 9786   4.210   1.227  15.269 -0.2705  0.1986 -0.0956
  657TMC3    O2 9787   4.599   1.300  15.499  0.1254 -0.4568 -0.2492
  658MPD2     C 9788   1.432   1.228  15.151 -1.1688 -0.2563 -0.3451
  658MPD2    C1 9789   1.316   1.247  15.089 -0.8568 -0.4540 -0.5133
  658MPD2    C2 9790   1.320   1.305  14.965 -0.4893  0.0204  0.0568
  658MPD2    C3 9791   1.435   1.345  14.902 -0.6388  0.1440 -0.5678
  658MPD2    C4 9792   1.555   1.314  14.963 -0.1881 -0.2003  0.0568
  658MPD2    C5 9793   1.555   1.253  15.090 -0.5040  0.3358 -0.5007
  658MPD2     H 9794   1.226   1.333  14.918 -0.4772  0.1396  0.1036
  658MPD2    H1 9795   1.648   1.357  14.928 -0.8911 -0.8144 -2.5979
  658MPD2    H2 9796   1.432   1.174  15.245 -1.0323  2.5974  1.3087
  658MPD2    H3 9797   1.649   1.242  15.142  1.0711  2.1059 -3.0134
  658MPD2     N 9798   1.419   1.426  14.786 -0.3379 -0.4005  0.2806
  658MPD2    H5 9799   1.320   1.435  14.763 -0.3466 -0.7331  0.1793
  658MPD2    N1 9800   1.195   1.237  15.162  0.6238  0.1195 -0.0854
  658MPD2    H7 9801   1.202   1.210  15.259  1.2512 -0.5024 -0.3066
  659TMC3    C1 9802   0.956   1.270  15.199  0.3811  0.1584 -0.4582
  659TMC3    C2 9803   0.985   1.317  15.329 -0.3668  0.5274  0.3092
  659TMC3    C3 9804   0.876   1.337  15.410  0.2900  0.1258 -0.2239
  659TMC3    C4 9805   0.828   1.253  15.143  0.0345  0.6226  0.3871
  659TMC3    C5 9806   0.722   1.266  15.230  0.1971 -0.1651 -0.3006
  659TMC3    C6 9807   0.746   1.312  15.360  0.4211  0.5153 -0.1138
  659TMC3     C 9808   1.072   1.261  15.111 -0.0825 -0.0195  0.1113
  659TMC3     O 9809   1.039   1.252  14.992 -0.0064 -0.8867 -0.0861
  659TMC3     H 9810   1.084   1.352  15.356 -0.3512 -0.1920  1.1794
  659TMC3    H1 9811   0.814   1.224  15.039 -0.8191 -0.6376  0.8518
  659TMC3    H2 9812   0.662   1.340  15.423 -0.2200 -1.1167 -0.2275
  659TMC3    C7 9813   0.580   1.254  15.186  1.1267  0.1567 -0.6894
  659TMC3    C8 9814   0.880   1.420  15.529 -0.7462  0.3065  0.2379
  659TMC3    O1 9815   0.494   1.288  15.269  0.1704  0.7373 -0.2845
  659TMC3    O2 9816   0.783   1.493  15.548 -0.0905  0.2772 -0.5996
  660MPD2     C 9817   3.820   0.597  12.623 -0.0121 -0.6124 -0.4739
  660MPD2    C1 9818   3.692   0.595  12.669 -0.0536 -0.2898  0.4828
  660MPD2    C2 9819   3.665   0.525  12.786  0.0082  0.1379 -0.1877
  660MPD2    C3 9820   3.758   0.444  12.849  0.2417  0.2514 -0.2146
  660MPD2    C4 9821   3.890   0.444  12.799 -0.4556 -0.1362  0.8333
  660MPD2    C5 9822   3.909   0.510  12.681  0.7087 -0.6863  0.4280
  660MPD2     H 9823   3.563   0.527  12.824  0.2071 -1.1253  0.4305
  660MPD2    H1 9824   3.969   0.411  12.866  0.6117  2.8065  1.0257
  660MPD2    H2 9825   3.848   0.650  12.533  1.4565 -0.7338 -0.0885
  660MPD2    H3 9826   4.009   0.512  12.639  0.0601 -0.1437 -1.0844
  660MPD2     N 9827   3.721   0.367  12.965 -0.2756  0.2394  0.1219
  660MPD2    H5 9828   3.627   0.384  12.999 -0.6865 -1.7639 -0.0388
  660MPD2    N1 9829   3.601   0.666  12.592  1.3181 -0.1904  0.3364
  660MPD2    H7 9830   3.636   0.736  12.528  0.5760 -0.1386 -0.0080
  661TMC3    C1 9831   3.396   0.724  12.487  0.4020 -0.4374  0.0495
  661TMC3    C2 9832   3.465   0.778  12.381  0.2480  0.4785 -0.1142
  661TMC3    C3 9833   3.394   0.806  12.262 -0.3426 -0.4984 -0.7798
  661TMC3    C4 9834   3.260   0.717  12.492  0.0421 -0.9245  0.1201
  661TMC3    C5 9835   3.197   0.743  12.375  0.0898  0.4175  0.3407
  661TMC3    C6 9836   3.258   0.782  12.256  0.0967  0.8059  0.1917
  661TMC3     C 9837   3.462   0.665  12.604 -0.3891 -0.0110  0.1662
  661TMC3     O 9838   3.393   0.593  12.674 -0.0220 -0.1129 -0.6405
  661TMC3     H 9839   3.570   0.802  12.390  0.1326  0.8808  0.1502
  661TMC3    H1 9840   3.208   0.684  12.582  0.7630  1.9079  1.5617
  661TMC3    H2 9841   3.201   0.789  12.164  0.8286  2.4393 -0.1336
  661TMC3    C7 9842   3.071   0.682  12.379  0.8295  0.6806  0.2901
  661TMC3    C8 9843   3.467   0.813  12.136 -0.1107 -0.5509 -0.3231
  661TMC3    O1 9844   2.969   0.747  12.398 -0.3275  0.1064  0.4919
  661TMC3    O2 9845   3.568   0.747  12.119 -0.1825 -0.0187 -0.3447
  662MPD2     C 9846   4.408   0.059  17.293 -0.0964  0.0151 -0.4796
  662MPD2    C1 9847   4.361   4.698  17.377 -0.7726 -0.6466 -0.1419
  662MPD2    C2 9848   4.298   4.737  17.491  0.2843  0.1681  0.3513
  662MPD2    C3 9849   4.262   0.128  17.519 -0.1034  0.1151  0.2884
  662MPD2    C4 9850   4.293   0.228  17.425  0.5018  0.0153 -0.0428
  662MPD2    C5 9851   4.375   0.187  17.326 -0.6353 -0.6008 -0.4712
  662MPD2     H 9852   4.258   4.658  17.553 -0.8998 -0.7920 -1.6469
  662MPD2    H1 9853   4.267   0.333  17.435  1.6975  0.1787  1.3691
  662MPD2    H2 9854   4.481   0.040  17.215  0.2609 -2.5419  0.4929
  662MPD2    H3 9855   4.420   0.254  17.253  0.3628 -1.4428 -0.6250
  662MPD2     N 9856   4.176   0.164  17.629  0.0789 -0.1239 -0.0003
  662MPD2    H5 9857   4.128   0.253  17.625  0.5334  0.2179  1.7889
  662MPD2    N1 9858   4.368   4.560  17.347  0.1797  0.1105  0.8500
  662MPD2    H7 9859   4.307   4.500  17.402  1.6198 -1.5195  0.6756
  663TMC3    C1 9860   4.393   4.363  17.237 -0.2953 -0.8313 -0.1177
  663TMC3    C2 9861   4.413   4.308  17.354 -0.2365 -0.0827 -0.2850
  663TMC3    C3 9862   4.410   4.168  17.362 -0.2562  0.3244 -0.2535
  663TMC3    C4 9863   4.328   4.297  17.144  0.0016  0.1484 -0.5168
  663TMC3    C5 9864   4.289   4.171  17.166  1.1213 -0.3980 -0.0003
  663TMC3    C6 9865   4.327   4.097  17.274 -0.1740  1.3621 -0.7333
  663TMC3     C 9866   4.407   4.506  17.227  0.0874 -0.2598 -0.2278
  663TMC3     O 9867   4.482   4.550  17.142  0.1016 -0.7974  0.5064
  663TMC3     H 9868   4.466   4.363  17.430 -2.1398 -0.3149  1.2201
  663TMC3    H1 9869   4.305   4.355  17.055  0.2445  0.9439 -0.0605
  663TMC3    H2 9870   4.298   3.998  17.307  1.2972  1.4561  0.8954
  663TMC3    C7 9871   4.169   4.123  17.093 -0.1648  0.1828 -0.5937
  663TMC3    C8 9872   4.399   4.102  17.485 -0.5769 -0.3463  0.8145
  663TMC3    O1 9873   4.141   4.176  16.990  0.0127 -0.1293 -0.1316
  663TMC3    O2 9874   4.446   3.988  17.495 -0.2135  0.4694 -0.8169
  664MPD2     C 9875   2.432   2.942   0.263 -0.2086 -0.1433  0.2630
  664MPD2    C1 9876   2.477   3.074   0.244  0.6404 -0.0971  0.5292
  664MPD2    C2 9877   2.507   3.148   0.359 -0.6639  0.0869 -0.0010
  664MPD2    C3 9878   2.510   3.090   0.487  0.3770 -0.0713 -0.7880
  664MPD2    C4 9879   2.467   2.961   0.502 -0.4348 -0.5762 -0.6822
  664MPD2    C5 9880   2.417   2.891   0.394  0.1145  0.4397  0.3338
  664MPD2     H 9881   2.526   3.251   0.331  0.7156 -0.5828 -1.5423
  664MPD2    H1 9882   2.466   2.909   0.597 -1.8892 -1.7749 -1.3608
  664MPD2    H2 9883   2.394   2.884   0.180 -1.1058  2.5439 -1.2120
  664MPD2    H3 9884   2.396   2.787   0.419  0.1642  0.1591 -0.7595
  664MPD2     N 9885   2.538   3.178   0.593 -0.2264 -0.2392 -0.3537
  664MPD2    H5 9886   2.563   3.274   0.572 -1.0939 -0.1712 -1.0532
  664MPD2    N1 9887   2.468   3.133   0.116  0.3756 -0.2237  0.2579
  664MPD2    H7 9888   2.456   3.233   0.115  1.0602 -0.1349  0.8332
  665TMC3    C1 9889   2.611   3.239   0.815 -0.5416 -0.3930  0.5925
  665TMC3    C2 9890   2.662   3.192   0.933 -0.0545 -0.0830  0.0360
  665TMC3    C3 9891   2.723   3.279   1.016 -0.4450 -0.3268  0.1597
  665TMC3    C4 9892   2.614   3.369   0.781  0.6211 -0.2788  0.4742
  665TMC3    C5 9893   2.680   3.453   0.862 -0.1271 -0.1407  0.9905
  665TMC3    C6 9894   2.743   3.406   0.972  0.2918  0.3077 -0.1778
  665TMC3     C 9895   2.546   3.141   0.727 -0.1394 -0.0417  1.0905
  665TMC3     O 9896   2.510   3.032   0.778 -0.1678  0.1262  0.8414
  665TMC3     H 9897   2.648   3.086   0.954 -0.9618  0.2119  0.8749
  665TMC3    H1 9898   2.564   3.413   0.695 -0.7789 -0.8005  1.0209
  665TMC3    H2 9899   2.804   3.476   1.029 -0.9041  0.5978  0.7365
  665TMC3    C7 9900   2.670   3.595   0.823  0.1439  0.2044 -0.3433
  665TMC3    C8 9901   2.744   3.256   1.151 -0.5902 -0.1407  0.4059
  665TMC3    O1 9902   2.625   3.629   0.717 -0.0448  0.2942  0.4559
  665TMC3    O2 9903   2.793   3.342   1.225  0.1521 -0.4332  0.2546
  666TMC3    C1 9904   0.674   2.730  10.287  0.8834 -0.1091  0.4663
  666TMC3    C2 9905   0.691   2.679  10.162 -0.2209 -0.3497 -0.2516
  666TMC3    C3 9906   0.691   2.780  10.060 -0.4957  0.2465  0.0387
  666TMC3    C4 9907   0.653   2.866  10.312 -1.2026  0.1108 -0.0958
  666TMC3    C5 9908   0.647   2.953  10.209  0.3186  0.1373 -1.3308
  666TMC3    C6 9909   0.663   2.911  10.083  0.1606 -0.3072  0.3718
  666TMC3     C 9910   0.657   2.651  10.408 -0.0290  0.4898  0.3758
  666TMC3     O 9911   0.622   2.699  10.515 -0.1854 -0.0827 -0.3121
  666TMC3     H 9912   0.704   2.576  10.131 -0.1905  0.0085 -1.4286
  666TMC3    H1 9913   0.649   2.907  10.412 -1.5733 -0.4352  0.1102
  666TMC3    H2 9914   0.673   2.980  10.000 -0.6829  0.2615  0.7538
  666TMC3    C7 9915   0.647   3.100  10.231 -0.8506  0.1051  0.1213
  666TMC3    C8 9916   0.761   2.750   9.932 -0.9126 -0.7262 -0.5275
  666TMC3    O1 9917   0.692   3.135  10.339  0.3254 -0.0803 -0.0549
  666TMC3    O2 9918   0.721   2.646   9.885 -0.0057 -0.2763  0.0699
  667MPD2     C 9919   2.455   3.240  14.892 -0.1752 -0.6094  0.0698
  667MPD2    C1 9920   2.509   3.176  14.997 -0.7105 -0.0374 -1.0612
  667MPD2    C2 9921   2.443   3.059  15.036  0.2870  0.4222  0.3274
  667MPD2    C3 9922   2.329   3.009  14.974 -0.0196 -0.1164 -0.6730
  667MPD2    C4 9923   2.274   3.086  14.876 -0.2444  0.0010 -0.8835
  667MPD2    C5 9924   2.336   3.200  14.830 -0.4069 -0.4571 -0.3021
  667MPD2     H 9925   2.488   3.002  15.116  1.1176  1.8075  0.8261
  667MPD2    H1 9926   2.196   3.039  14.818 -0.8432  0.4761 -0.4583
  667MPD2    H2 9927   2.484   3.334  14.847 -2.7794  1.0845  1.9522
  667MPD2    H3 9928   2.293   3.271  14.760  2.7320  1.4693 -0.2788
  667MPD2     N 9929   2.259   2.888  15.004 -0.7000 -0.0067 -0.1960
  667MPD2    H5 9930   2.178   2.867  14.946  0.3473 -0.3312 -1.5356
  667MPD2    N1 9931   2.631   3.217  15.055 -0.7395 -0.0110 -0.1915
  667MPD2    H7 9932   2.671   3.161  15.129 -1.8164 -0.8647 -0.2531
  668TMC3    C1 9933   2.811   3.344  15.118  0.0944 -0.3795  0.0133
  668TMC3    C2 9934   2.884   3.459  15.095 -0.9291 -0.6615  0.0763
  668TMC3    C3 9935   2.956   3.514  15.194 -0.0122 -0.0714  0.6112
  668TMC3    C4 9936   2.798   3.293  15.243  0.0404 -0.4908 -0.0482
  668TMC3    C5 9937   2.867   3.360  15.341  0.2113  0.7388 -0.1735
  668TMC3    C6 9938   2.953   3.460  15.318  0.0369  0.5686 -0.1214
  668TMC3     C 9939   2.698   3.332  15.023 -0.5110 -0.4636 -0.4011
  668TMC3     O 9940   2.700   3.400  14.919  0.3869  0.0366  0.9304
  668TMC3     H 9941   2.880   3.505  14.997  0.1433  2.1157  1.3323
  668TMC3    H1 9942   2.731   3.209  15.260 -0.8256  0.3161  0.4559
  668TMC3    H2 9943   3.010   3.508  15.397  0.1259 -0.5680  0.5070
  668TMC3    C7 9944   2.859   3.304  15.481  0.8781  0.0589 -0.2127
  668TMC3    C8 9945   2.985   3.660  15.191 -0.0948  0.0587 -0.5612
  668TMC3    O1 9946   2.946   3.347  15.554 -0.1578  0.0387  0.3505
  668TMC3    O2 9947   2.995   3.720  15.295  0.3468 -0.4037  0.0942
  669TMC3    C1 9948   0.927   2.896  14.600  0.4846  0.8243 -0.6681
  669TMC3    C2 9949   0.798   2.939  14.582 -0.4022 -0.4209  0.5393
  669TMC3    C3 9950   0.756   2.994  14.470 -0.7695 -0.4600  0.1138
  669TMC3    C4 9951   1.020   2.936  14.504  0.7868  0.0337  0.3955
  669TMC3    C5 9952   0.966   2.989  14.387  0.6904  0.4273 -0.1627
  669TMC3    C6 9953   0.834   3.002  14.359 -0.2388 -0.0778 -0.1473
  669TMC3     C 9954   0.962   2.826  14.726 -0.2074  0.3318  0.1434
  669TMC3     O 9955   0.878   2.842  14.813  0.3366 -0.5650 -0.7009
  669TMC3     H 9956   0.739   2.916  14.671 -0.1704  3.5182  1.6924
  669TMC3    H1 9957   1.127   2.915  14.502  0.6360 -0.6704 -0.3607
  669TMC3    H2 9958   0.792   3.047  14.270  0.1981 -0.2851 -0.4570
  669TMC3    C7 9959   1.054   3.056  14.298 -0.0337  0.6216  0.6065
  669TMC3    C8 9960   0.622   3.043  14.464 -0.8517  0.0863 -0.2426
  669TMC3    O1 9961   1.149   3.111  14.351 -0.4946  0.0163  0.5634
  669TMC3    O2 9962   0.580   3.080  14.354 -0.3228  0.5043  0.4148
  670MPD2     C 9963   3.944   0.681  13.561 -0.4091 -0.3507  0.7735
  670MPD2    C1 9964   4.021   0.604  13.642 -0.5576 -0.3125  0.0135
  670MPD2    C2 9965   3.995   0.582  13.775 -0.2761  0.1566  0.0063
  670MPD2    C3 9966   3.893   0.652  13.840 -0.2339 -0.1782 -0.2701
  670MPD2    C4 9967   3.817   0.733  13.764 -0.1808  0.0919 -0.0161
  670MPD2    C5 9968   3.840   0.742  13.627 -0.0053  0.3969  0.4470
  670MPD2     H 9969   4.045   0.503  13.830  0.5048 -0.0892 -1.0695
  670MPD2    H1 9970   3.723   0.781  13.788  0.4141  0.3722  1.7873
  670MPD2    H2 9971   3.961   0.696  13.455 -1.5789  0.3570  0.6819
  670MPD2    H3 9972   3.775   0.813  13.578 -1.1304 -0.2046  1.0792
  670MPD2     N 9973   3.863   0.635  13.977 -0.1346  0.5061 -0.3633
  670MPD2    H5 9974   3.910   0.555  14.018 -1.1084 -0.0163 -0.2566
  670MPD2    N1 9975   4.134   0.555  13.590  0.3509  0.4320 -0.4194
  670MPD2    H7 9976   4.199   0.504  13.649  0.3706 -0.6608 -1.3884
  671TMC3    C1 9977   3.736   0.657  14.179 -1.0135  0.1021 -0.0241
  671TMC3    C2 9978   3.844   0.631  14.262  0.7340 -0.6682  0.1255
  671TMC3    C3 9979   3.820   0.537  14.358 -0.0394 -0.1684 -0.2187
  671TMC3    C4 9980   3.612   0.612  14.190 -0.0825 -0.3315  0.6478
  671TMC3    C5 9981   3.588   0.514  14.290  0.1189  0.8247 -0.7073
  671TMC3    C6 9982   3.698   0.468  14.362 -0.2232 -0.1650 -0.3134
  671TMC3     C 9983   3.772   0.714  14.051 -0.5951 -0.4461 -0.0196
  671TMC3     O 9984   3.723   0.825  14.023  0.1548 -0.3559 -0.3542
  671TMC3     H 9985   3.946   0.651  14.233 -0.2367  0.5647 -2.4717
  671TMC3    H1 9986   3.537   0.632  14.115  0.8840 -1.5453 -0.6297
  671TMC3    H2 9987   3.673   0.409  14.449  0.0402 -0.9014 -0.7361
  671TMC3    C7 9988   3.504   0.402  14.241  0.1260  0.3166 -0.0255
  671TMC3    C8 9989   3.929   0.446  14.376  0.0794 -1.5981 -0.5963
  671TMC3    O1 9990   3.421   0.441  14.158  0.3853 -0.3191 -0.0897
  671TMC3    O2 9991   3.894   0.332  14.386 -0.2945 -0.2506  0.4363
  672MPD2     C 9992   0.264   1.776   0.151  0.5404  0.0945  0.7118
  672MPD2    C1 9993   0.299   1.720   0.271 -0.0842 -0.3351 -0.0881
  672MPD2    C2 9994   0.413   1.759   0.340 -0.1850 -0.3961 -0.4601
  672MPD2    C3 9995   0.490   1.859   0.297  0.5567  0.8329  0.7006
  672MPD2    C4 9996   0.447   1.925   0.183 -0.2756 -0.5394 -0.3907
  672MPD2    C5 9997   0.346   1.878   0.106 -0.4218 -0.1940 -1.2099
  672MPD2     H 9998   0.428   1.720   0.440  0.1178 -0.3938 -0.5031
  672MPD2    H1 9999   0.492   2.020   0.157  1.8092 -1.2957  0.4757
  672MPD2    H210000   0.184   1.734   0.091 -0.7907  2.1426  1.0578
  672MPD2    H310001   0.316   1.926   0.013  0.5644  0.0706 -1.3900
  672MPD2     N10002   0.601   1.918   0.363  0.0653  0.0213  0.3667
  672MPD2    H510003   0.643   2.000   0.322  0.8030 -0.5542 -0.0285
  672MPD2    N110004   0.218   1.613   0.324 -0.4856 -0.1307 -0.2119
  672MPD2    H710005   0.256   1.545   0.388 -1.8835  0.5380  1.3378
  673TMC3    C110006   0.019   1.478   0.354  0.5946 -0.0623  0.4173
  673TMC3    C210007   0.087   1.362   0.356  0.7164 -0.1534 -0.7709
  673TMC3    C310008   0.013   1.251   0.380  0.1762 -0.2004 -0.0099
  673TMC3    C410009   4.630   1.484   0.389  0.1318  0.2030  0.2536
  673TMC3    C510010   4.556   1.368   0.412  0.8962  0.1417 -0.3030
  673TMC3    C610011   4.620   1.253   0.408  0.4096  0.0166  0.0984
  673TMC3     C10012   0.078   1.606   0.303 -0.0681  0.3067  0.3225
  673TMC3     O10013   0.001   1.690   0.256 -0.0861 -0.2036 -0.4590
  673TMC3     H10014   0.189   1.361   0.321  1.3261  1.0608  0.9700
  673TMC3    H110015   4.592   1.584   0.407  3.2095  1.3256  0.3794
  673TMC3    H210016   4.568   1.165   0.443  1.2747 -0.1671  0.9160
  673TMC3    C710017   4.426   1.362   0.473 -0.9408 -0.1025 -0.2081
  673TMC3    C810018   0.075   1.132   0.431 -0.3931  0.0378  0.2775
  673TMC3    O110019   4.397   1.264   0.536 -0.2669  0.3480  0.0741
  673TMC3    O210020   0.002   1.041   0.456  0.1392  0.7232  0.3523
  674MPD2     C10021   4.452   0.318  17.762 -0.5726  0.0251 -0.5743
  674MPD2    C110022   4.426   0.323   0.132 -1.1921 -0.0693 -0.0741
  674MPD2    C210023   4.392   0.438   0.193  0.2887  0.1744  0.4569
  674MPD2    C310024   4.408   0.557   0.126 -0.6615 -0.2796  0.2094
  674MPD2    C410025   4.419   0.557  17.755 -0.3119 -0.2077 -0.0985
  674MPD2    C510026   4.428   0.436  17.693  0.5666  0.2904 -0.0615
  674MPD2     H10027   4.379   0.446   0.300 -0.4697  2.5959  0.1751
  674MPD2    H110028   4.412   0.649  17.697  1.1868 -0.8199 -1.2674
  674MPD2    H210029   4.457   0.220  17.715 -1.5279 -0.6036  0.6394
  674MPD2    H310030   4.430   0.439  17.584  0.3124 -0.6031 -0.0942
  674MPD2     N10031   4.396   0.676   0.205  0.4290  0.3195 -0.2877
  674MPD2    H510032   4.385   0.672   0.305 -0.2516  1.3760 -0.3247
  674MPD2    N110033   4.428   0.198   0.197  0.3203 -0.2229  0.0251
  674MPD2    H710034   4.430   0.117   0.136 -0.1271  0.7135 -1.2088
  675TMC3    C110035   4.485   0.267   0.424 -0.0483 -0.0876  0.1010
  675TMC3    C210036   4.427   0.283   0.549 -0.0575 -0.2511  0.1401
  675TMC3    C310037   4.502   0.356   0.644 -0.7058  1.3597  0.2926
  675TMC3    C410038   4.601   0.324   0.384  0.1067  0.0632 -0.2796
  675TMC3    C510039   4.669   0.399   0.479  0.1318  0.6619 -0.7151
  675TMC3    C610040   4.619   0.414   0.607  0.0377 -0.0388 -0.3326
  675TMC3     C10041   4.417   0.176   0.339  0.2636 -0.5375  0.0642
  675TMC3     O10042   4.377   0.069   0.390  0.0181 -0.1117 -0.1342
  675TMC3     H10043   4.325   0.248   0.562 -1.0283  2.2834 -0.3965
  675TMC3    H110044   4.655   0.297   0.294  0.5136  2.7284 -0.8568
  675TMC3    H210045   4.670   0.484   0.673 -0.8651  0.3172 -0.0026
  675TMC3    C710046   0.016   0.501   0.431  0.1890  1.2420 -0.0524
  675TMC3    C810047   4.450   0.376   0.778  0.4160  0.4065 -0.0885
  675TMC3    O110048   0.085   0.562   0.508 -0.1652 -0.9582 -0.1139
  675TMC3    O210049   4.365   0.295   0.820  0.0021 -0.1420 -0.1882
  676MPD2     C10050   2.492   3.689  11.191  0.3483 -0.6573 -0.4066
  676MPD2    C110051   2.397   3.617  11.258  0.0949  0.0383  0.0021
  676MPD2    C210052   2.351   3.502  11.194 -0.6634  0.2115  0.0852
  676MPD2    C310053   2.400   3.463  11.067 -0.6946  0.0909  0.0024
  676MPD2    C410054   2.501   3.529  11.009 -0.1052 -0.2858  0.4906
  676MPD2    C510055   2.549   3.640  11.072  0.3770 -0.7773  0.0298
  676MPD2     H10056   2.261   3.458  11.234 -0.9756 -0.2052 -1.0661
  676MPD2    H110057   2.545   3.505  10.913 -2.6602  2.0588 -1.3072
  676MPD2    H210058   2.542   3.778  11.229  0.6829  0.1046 -2.6282
  676MPD2    H310059   2.631   3.693  11.025 -1.5804  2.8415  0.6922
  676MPD2     N10060   2.353   3.359  10.975  0.3078 -0.6738 -0.1951
  676MPD2    H510061   2.387   3.360  10.880  2.4940 -5.2507  0.5051
  676MPD2    N110062   2.338   3.661  11.377  0.8812  0.4042  0.3575
  676MPD2    H710063   2.270   3.598  11.420  1.6246 -0.6966 -0.0966
  677TMC3    C110064   2.264   3.814  11.545  0.0992  0.0849  0.1316
  677TMC3    C210065   2.180   3.717  11.594 -0.0057 -0.1668 -0.0691
  677TMC3    C310066   2.065   3.757  11.655 -0.5349  0.0868  0.3683
  677TMC3    C410067   2.260   3.946  11.582  0.0106 -0.4011 -0.4090
  677TMC3    C510068   2.141   3.980  11.643  0.4646 -0.4501 -0.8172
  677TMC3    C610069   2.038   3.889  11.657  0.1909  0.0301 -0.0583
  677TMC3     C10070   2.355   3.782  11.432 -0.3136 -0.0256  0.0551
  677TMC3     O10071   2.432   3.874  11.406  0.0631 -0.1841 -0.7766
  677TMC3     H10072   2.213   3.615  11.579 -0.5330 -0.2105 -0.9300
  677TMC3    H110073   2.334   4.018  11.551  0.4066 -0.7380 -0.2423
  677TMC3    H210074   1.948   3.930  11.700 -0.9217 -2.2406 -0.1925
  677TMC3    C710075   2.156   4.068  11.761 -0.0130  0.5682 -0.1257
  677TMC3    C810076   2.012   3.660  11.754 -0.1998  0.0310  0.3291
  677TMC3    O110077   2.093   4.027  11.859 -0.1595  0.5399  0.3046
  677TMC3    O210078   2.082   3.562  11.787  0.4072 -0.1801 -0.8367
  678MPD2     C10079   3.884   4.143   1.764  0.1623 -0.0087  0.5231
  678MPD2    C110080   3.826   4.149   1.638  0.1561 -0.2059  0.3498
  678MPD2    C210081   3.703   4.217   1.620 -0.4007 -0.5698 -0.4481
  678MPD2    C310082   3.636   4.270   1.729 -0.0332 -0.1664  0.1235
  678MPD2    C410083   3.697   4.271   1.851 -0.2303 -0.2227 -0.7315
  678MPD2    C510084   3.818   4.205   1.869  0.2157  0.1273 -0.1143
  678MPD2     H10085   3.647   4.220   1.527 -1.1570  1.6757  0.0805
  678MPD2    H110086   3.650   4.324   1.932 -1.6030 -0.4704 -1.3692
  678MPD2    H210087   3.983   4.104   1.783 -0.9673 -1.9555  2.5024
  678MPD2    H310088   3.861   4.194   1.968  0.2519  0.1377 -0.1286
  678MPD2     N10089   3.508   4.323   1.712 -0.0591 -0.2052 -0.1036
  678MPD2    H510090   3.464   4.311   1.621 -1.2193 -3.9433  0.9587
  678MPD2    N110091   3.879   4.093   1.513  0.0167  0.0841 -0.1794
  678MPD2    H710092   3.833   4.115   1.426 -1.2447  0.4156  0.5767
  679TMC3    C110093   4.057   3.730   1.262  0.2009 -1.2325 -0.8833
  679TMC3    C210094   4.069   3.820   1.361  0.7097 -0.3636  0.0701
  679TMC3    C310095   3.992   3.933   1.371  0.6311 -0.5545 -0.2321
  679TMC3    C410096   3.979   3.752   1.158 -0.5082  0.2712  0.3795
  679TMC3    C510097   3.900   3.865   1.165  0.7172  0.0256  0.1515
  679TMC3    C610098   3.902   3.955   1.267  0.2039 -0.2923  0.2079
  679TMC3     C10099   4.129   3.604   1.281  0.6156  0.0896 -0.2634
  679TMC3     O10100   4.214   3.593   1.365 -0.4627 -0.4026 -0.3561
  679TMC3     H10101   4.121   3.796   1.453  2.0522  2.5671  0.0933
  679TMC3    H110102   3.996   3.684   1.075 -1.0442  0.1724  0.3530
  679TMC3    H210103   3.860   4.055   1.258  0.9366 -0.0978 -1.0682
  679TMC3    C710104   3.845   3.922   1.039 -0.0173 -0.4695 -0.7405
  679TMC3    C810105   3.975   3.996   1.509 -0.4280  0.4736  0.9402
  679TMC3    O110106   3.870   4.041   1.023 -0.4258 -0.2565  0.5607
  679TMC3    O210107   4.031   3.951   1.609 -0.1409  0.3955  0.4808
  680MPD2     C10108   2.896   2.679  14.143 -0.2139  0.6763  0.5421
  680MPD2    C110109   2.969   2.594  14.226  0.1819  0.3571 -0.1791
  680MPD2    C210110   3.081   2.640  14.297  0.2014  0.6800 -0.4788
  680MPD2    C310111   3.121   2.771  14.281 -0.2792 -0.6257  0.1179
  680MPD2    C410112   3.044   2.851  14.196  0.6017  0.4331  0.3526
  680MPD2    C510113   2.932   2.812  14.133 -0.5215  0.0135  0.7573
  680MPD2     H10114   3.143   2.580  14.363 -0.1450 -1.3180 -1.9812
  680MPD2    H110115   3.074   2.953  14.179  0.6219 -0.0953 -2.7294
  680MPD2    H210116   2.805   2.649  14.092  1.1803 -1.5538 -0.5789
  680MPD2    H310117   2.883   2.879  14.062  0.1342  0.1779  0.4530
  680MPD2     N10118   3.232   2.834  14.341 -0.1474 -0.3274 -0.6450
  680MPD2    H510119   3.241   2.932  14.320 -1.5718 -0.0200  0.1812
  680MPD2    N110120   2.932   2.462  14.242  0.2894 -0.1956  0.2176
  680MPD2    H710121   2.986   2.411  14.311 -1.8279 -0.5426  1.6132
  681TMC3    C110122   2.847   2.250  14.219 -0.1030  0.2602 -0.1777
  681TMC3    C210123   2.844   2.258  14.357  0.0646  0.5426 -0.4214
  681TMC3    C310124   2.918   2.172  14.430  0.1429  0.0228  0.2828
  681TMC3    C410125   2.922   2.154  14.154 -0.9098 -0.0511 -0.1472
  681TMC3    C510126   2.999   2.080  14.235 -0.6407  0.1626 -0.4689
  681TMC3    C610127   2.999   2.084  14.370 -0.2287 -0.4573 -0.0975
  681TMC3     C10128   2.841   2.386  14.163 -0.4671 -0.1715 -0.2983
  681TMC3     O10129   2.789   2.397  14.054  0.1588  0.4745  0.2010
  681TMC3     H10130   2.783   2.334  14.405 -0.9765 -1.3352  1.2367
  681TMC3    H110131   2.923   2.159  14.046 -0.0016  2.3498 -0.0470
  681TMC3    H210132   3.055   2.008  14.423  0.6137 -0.6234 -1.2040
  681TMC3    C710133   3.090   1.981  14.176 -0.1457  0.5807 -0.0987
  681TMC3    C810134   2.939   2.193  14.571  0.1948  0.5040 -0.2005
  681TMC3    O110135   3.114   1.879  14.239 -0.4243 -0.0205  0.1758
  681TMC3    O210136   2.843   2.212  14.641 -0.1231 -0.4356 -0.5355
  682MPD2     C10137   0.668   4.211  10.919  0.1050  0.0994 -0.3421
  682MPD2    C110138   0.580   4.117  10.977  0.1833 -0.1504 -0.3989
  682MPD2    C210139   0.562   4.131  11.114  0.5778 -0.2034 -0.2743
  682MPD2    C310140   0.626   4.224  11.195 -0.0049  0.5387 -0.2235
  682MPD2    C410141   0.717   4.310  11.137 -0.1809 -0.4774 -0.3385
  682MPD2    C510142   0.738   4.295  11.008 -0.4426  0.0809  0.5931
  682MPD2     H10143   0.511   4.047  11.160  1.2962 -0.4506  0.0703
  682MPD2    H110144   0.766   4.385  11.198 -1.1321  0.5587 -0.8389
  682MPD2    H210145   0.667   4.217  10.811  1.6550  0.9315 -0.3018
  682MPD2    H310146   0.813   4.359  10.963 -1.3469  1.3144  0.8409
  682MPD2     N10147   0.609   4.242  11.333 -0.1423 -0.2072  0.2044
  682MPD2    H510148   0.681   4.292  11.385 -2.6957  0.9561  2.6201
  682MPD2    N110149   0.512   4.019  10.911  0.1882  0.3814 -0.1351
  682MPD2    H710150   0.451   3.955  10.960 -0.9593 -0.3456 -2.5168
  683TMC3    C110151   0.611   4.275  11.751 -0.3658 -0.4779 -0.2790
  683TMC3    C210152   0.508   4.219  11.823  1.1194  0.5655 -0.3111
  683TMC3    C310153   0.407   4.163  11.750  0.6576  0.3895  0.3577
  683TMC3    C410154   0.609   4.275  11.614 -0.5944  0.0879  0.9254
  683TMC3    C510155   0.499   4.217  11.544 -0.4723 -0.5032 -0.0938
  683TMC3    C610156   0.398   4.159  11.619 -0.5922 -0.2440 -0.6291
  683TMC3     C10157   0.727   4.324  11.820 -0.5291 -0.7679  0.2325
  683TMC3     O10158   0.711   4.378  11.931 -0.0719  0.2899 -0.0573
  683TMC3     H10159   0.503   4.221  11.931 -4.2209 -0.5332 -0.5040
  683TMC3    H110160   0.688   4.327  11.561  0.0744 -2.5138 -0.5855
  683TMC3    H210161   0.317   4.109  11.567  1.5471 -3.7948 -0.5480
  683TMC3    C710162   0.502   4.188  11.399 -0.3122 -0.1085 -0.7774
  683TMC3    C810163   0.338   4.058  11.825  0.0345 -0.3122  0.0656
  683TMC3    O110164   0.408   4.123  11.352 -0.1370 -0.1354  0.5429
  683TMC3    O210165   0.316   4.076  11.944 -0.1891 -0.1329 -0.1364
  684MPD2     C10166   4.254   3.093  16.527  0.7367 -1.0955 -0.4050
  684MPD2    C110167   4.231   3.174  16.419 -0.7220  0.4324 -0.1195
  684MPD2    C210168   4.183   3.298  16.438 -0.4121 -0.3228 -0.6317
  684MPD2    C310169   4.159   3.349  16.562  0.0978  0.2494 -0.0032
  684MPD2    C410170   4.193   3.272  16.675 -0.0245  0.1448 -0.1129
  684MPD2    C510171   4.238   3.145  16.652 -0.2338  0.0371  1.6332
  684MPD2     H10172   4.174   3.363  16.352  3.1736  0.3594 -0.5130
  684MPD2    H110173   4.190   3.306  16.778 -0.8976 -0.4608  0.0636
  684MPD2    H210174   4.299   2.994  16.527  1.6955 -0.6512  2.0955
  684MPD2    H310175   4.258   3.083  16.738  0.7750 -1.6677  0.1566
  684MPD2     N10176   4.132   3.487  16.584  0.1115  0.6922  0.1767
  684MPD2    H510177   4.132   3.520  16.680  1.8912 -2.4935  1.3023
  684MPD2    N110178   4.245   3.135  16.283  0.5356 -0.3460  0.0273
  684MPD2    H710179   4.225   3.208  16.215 -1.1831  0.6735  1.6472
  685TMC3    C110180   4.362   3.049  16.101  0.1865  0.0904 -0.5420
  685TMC3    C210181   4.273   3.107  16.016 -0.6820  0.5210 -0.0025
  685TMC3    C310182   4.318   3.168  15.904 -0.0612 -0.2558  0.6695
  685TMC3    C410183   4.494   3.074  16.086 -0.0231  0.3937 -0.5461
  685TMC3    C510184   4.537   3.149  15.984  0.1664  0.5165  0.7214
  685TMC3    C610185   4.453   3.198  15.887  0.2118  0.6579 -0.0891
  685TMC3     C10186   4.321   3.030  16.237  0.3015  0.3206 -0.0412
  685TMC3     O10187   4.380   2.937  16.290 -0.4629 -0.2614 -0.3772
  685TMC3     H10188   4.169   3.089  16.037 -0.4949 -0.6058 -0.0486
  685TMC3    H110189   4.554   3.042  16.170 -1.4336 -0.1192  0.2689
  685TMC3    H210190   4.483   3.262  15.805  0.9116 -2.4378 -2.2633
  685TMC3    C710191   4.668   3.215  16.011 -0.0060 -0.0962 -0.1592
  685TMC3    C810192   4.226   3.192  15.797 -0.4389 -1.1989  0.6510
  685TMC3    O110193   0.000   3.155  16.088 -0.3113 -0.6020  0.8111
  685TMC3    O210194   4.269   3.185  15.679 -0.4017  0.7845  0.8616
  686MPD2     C10195   0.501   3.406  15.626 -0.4883  0.0874 -0.8349
  686MPD2    C110196   0.551   3.399  15.750 -0.3067  0.2825  0.3231
  686MPD2    C210197   0.687   3.382  15.765 -0.1370  0.0435 -0.2026
  686MPD2    C310198   0.778   3.370  15.666 -0.0828  0.4533  0.1114
  686MPD2    C410199   0.716   3.354  15.541  0.1314  0.0726 -0.1527
  686MPD2    C510200   0.583   3.378  15.521 -0.1838  0.1026  0.5979
  686MPD2     H10201   0.723   3.394  15.867  1.4192  0.6306 -0.8274
  686MPD2    H110202   0.765   3.321  15.449  0.0858  0.4280 -0.3016
  686MPD2    H210203   0.396   3.422  15.607 -0.9002  1.9356  3.1132
  686MPD2    H310204   0.538   3.366  15.423  3.6171 -1.4311 -0.9586
  686MPD2     N10205   0.921   3.349  15.675  0.1043 -0.2398 -0.4100
  686MPD2    H510206   0.969   3.345  15.586  0.5686 -2.6029 -0.0530
  686MPD2    N110207   0.468   3.396  15.860  0.0380  0.0425  0.3707
  686MPD2    H710208   0.368   3.400  15.842  0.3871 -0.3801 -1.6949
  687TMC3    C110209   0.953   3.322  15.911  0.0409  0.1170  0.2266
  687TMC3    C210210   0.890   3.203  15.919 -0.1805 -1.1022  0.8553
  687TMC3    C310211   0.847   3.162  16.040  0.4046 -0.1245  0.3138
  687TMC3    C410212   0.995   3.391  16.029 -0.4006 -0.2202 -0.3546
  687TMC3    C510213   0.973   3.326  16.148 -0.8254  0.0808  0.2086
  687TMC3    C610214   0.882   3.225  16.158 -0.4030  0.1128  0.3697
  687TMC3     C10215   1.001   3.362  15.780  0.0261 -0.1422 -0.1880
  687TMC3     O10216   1.114   3.410  15.792 -0.4139  0.0788  0.0371
  687TMC3     H10217   0.855   3.162  15.825 -0.1107 -1.3706  0.9453
  687TMC3    H110218   1.043   3.487  16.016 -0.2721 -0.2209  0.1375
  687TMC3    H210219   0.841   3.205  16.257 -1.5635 -1.8816 -0.5272
  687TMC3    C710220   1.002   3.399  16.270 -0.4892  0.0642 -0.6253
  687TMC3    C810221   0.721   3.095  16.046  0.2114 -0.1683  0.1976
  687TMC3    O110222   0.928   3.392  16.364  0.2855  0.0240 -0.4025
  687TMC3    O210223   0.692   3.037  16.155  0.0350  0.3888 -0.1357
  688MPD2     C10224   0.168   2.313  17.676 -0.6492 -0.3317  0.3986
  688MPD2    C110225   0.113   2.186  17.653 -0.7156  0.1155  0.4041
  688MPD2    C210226   0.161   2.114  17.546  0.2323  0.1613 -0.3449
  688MPD2    C310227   0.222   2.174  17.443  0.1543 -0.8165 -0.7545
  688MPD2    C410228   0.259   2.307  17.456 -0.0711 -0.2273 -0.2322
  688MPD2    C510229   0.245   2.369  17.572 -0.1886  0.0895  0.2892
  688MPD2     H10230   0.128   2.010  17.544  1.0091 -0.0584 -2.0700
  688MPD2    H110231   0.300   2.357  17.369 -3.3483  0.7322 -1.2293
  688MPD2    H210232   0.145   2.368   0.003  0.4685  0.6802  0.0696
  688MPD2    H310233   0.287   2.467  17.593  1.0565 -0.3722 -0.0485
  688MPD2     N10234   0.252   2.110  17.318  0.1273  0.0105 -0.0495
  688MPD2    H510235   0.310   2.162  17.253 -1.9389  2.2580 -0.1083
  688MPD2    N110236   0.029   2.126  17.746  0.2115 -0.2276 -0.3509
  688MPD2    H710237   0.008   2.187   0.061  0.1687  1.6732 -1.8389
  689TMC3    C110238   4.606   1.992   0.067 -0.4880  0.9179  0.1171
  689TMC3    C210239   4.606   2.064   0.182 -0.3826  0.8140  0.3478
  689TMC3    C310240   4.508   2.031   0.267  0.2028  0.4972 -0.1152
  689TMC3    C410241   4.520   1.890   0.039  0.2675 -0.5313  0.1500
  689TMC3    C510242   4.420   1.864   0.134 -0.1171  0.3342  0.2925
  689TMC3    C610243   4.411   1.931   0.250  0.4905 -0.1157  0.6278
  689TMC3     C10244   4.712   1.997  17.741 -0.2757 -0.3136  0.9885
  689TMC3     O10245   4.733   1.896  17.669  0.2740  0.2090 -0.4998
  689TMC3     H10246   4.670   2.148   0.205  3.3050 -1.3965 -1.9171
  689TMC3    H110247   4.525   1.818  17.721  2.5134  1.1410 -1.1991
  689TMC3    H210248   4.344   1.892   0.325 -0.5009  2.7326  1.2351
  689TMC3    C710249   4.381   1.724   0.144 -0.0608 -0.3948 -0.1207
  689TMC3    C810250   4.499   2.103   0.393 -1.0132 -0.9238 -0.5440
  689TMC3    O110251   4.398   1.666   0.248 -0.1734 -0.1364 -0.0073
  689TMC3    O210252   4.580   2.194   0.409  0.1167  0.0547 -0.0324
  690MPD2     C10253   2.295   3.875  15.869  0.5928 -0.5364  0.6608
  690MPD2    C110254   2.240   3.860  15.745  0.2288  0.3082 -0.4244
  690MPD2    C210255   2.311   3.898  15.635 -0.5096  0.2581 -0.4808
  690MPD2    C310256   2.437   3.950  15.643 -0.3130 -0.2386  0.0490
  690MPD2    C410257   2.498   3.960  15.766  0.1778 -0.1349 -0.1986
  690MPD2    C510258   2.424   3.924  15.874  0.0473  0.1362  0.0111
  690MPD2     H10259   2.273   3.881  15.536 -0.3079 -2.2102 -0.1428
  690MPD2    H110260   2.595   4.007  15.779 -0.4524  1.3186 -0.7108
  690MPD2    H210261   2.255   3.843  15.964  0.3754 -1.1871  0.3456
  690MPD2    H310262   2.472   3.926  15.972  0.3534  1.3930 -0.1612
  690MPD2     N10263   2.494   3.998  15.524  0.1257  0.3818 -0.5312
  690MPD2    H510264   2.435   3.983  15.443 -0.0921  0.0708 -0.3115
  690MPD2    N110265   2.108   3.811  15.731  0.8500  0.1431  0.1553
  690MPD2    H710266   2.070   3.810  15.637  1.2473  2.4253 -0.0376
  691TMC3    C110267   1.892   3.696  15.806 -0.7873  0.1183  0.5861
  691TMC3    C210268   1.817   3.753  15.707  0.4003  0.6783 -0.6646
  691TMC3    C310269   1.680   3.755  15.720  0.0632  0.2343  0.2580
  691TMC3    C410270   1.839   3.642  15.915  0.4254 -0.4536  0.2164
  691TMC3    C510271   1.701   3.638  15.917 -0.2188  0.4325  0.0222
  691TMC3    C610272   1.616   3.701  15.832  0.2655  0.5073  0.1125
  691TMC3     C10273   2.026   3.752  15.836 -0.2679 -0.4183 -0.1462
  691TMC3     O10274   2.051   3.755  15.958 -0.3689 -0.0447  0.2174
  691TMC3     H10275   1.867   3.782  15.615  0.1406 -1.8075 -1.6033
  691TMC3    H110276   1.896   3.605  15.999 -0.4110 -0.0670  0.9510
  691TMC3    H210277   1.509   3.683  15.839  0.4131  0.1491  1.3719
  691TMC3    C710278   1.641   3.574  16.030  0.4958 -0.7081 -0.6405
  691TMC3    C810279   1.594   3.797  15.616  0.1898 -0.2905  0.3379
  691TMC3    O110280   1.701   3.582  16.136 -0.1971  0.2895  0.1209
  691TMC3    O210281   1.640   3.797  15.502 -0.2633 -0.5924 -0.0953
  692TMC3    C110282   3.734   0.113  15.933  0.6765  0.4488  0.6267
  692TMC3    C210283   3.869   0.134  15.956  0.6009 -0.2191 -0.8810
  692TMC3    C310284   3.955   0.027  15.980  0.0691 -0.3865  1.2056
  692TMC3    C410285   3.688   4.729  15.963 -0.2076 -0.2138  0.3896
  692TMC3    C510286   3.773   4.625  15.985 -0.0285 -0.2002  0.5388
  692TMC3    C610287   3.903   4.642  16.009  0.1282 -0.0880  0.3747
  692TMC3     C10288   3.639   0.223  15.948 -0.5457  0.1567 -0.1739
  692TMC3     O10289   3.519   0.200  15.931 -1.0425  0.3450  0.3964
  692TMC3     H10290   3.916   0.225  15.921 -0.3781  0.3893 -0.6160
  692TMC3    H110291   3.583   4.707  15.972 -0.3302  1.0603  2.0583
  692TMC3    H210292   3.973   4.561  16.025  3.2610  2.0369 -2.6469
  692TMC3    C710293   3.712   4.493  15.981  0.0967  0.1900  0.4072
  692TMC3    C810294   4.065   0.061  16.066  0.7480  0.2086 -0.2066
  692TMC3    O110295   3.607   4.482  15.914 -0.1721  0.3858 -0.4975
  692TMC3    O210296   4.119   4.710  16.128 -0.0773 -0.4838 -0.4385
  693MPD2     C10297   2.940   2.322  10.841  0.3006 -0.5748  0.3971
  693MPD2    C110298   2.896   2.259  10.963  0.5195 -0.5548 -0.1892
  693MPD2    C210299   2.988   2.217  11.056 -0.7145  0.4576  0.6895
  693MPD2    C310300   3.125   2.235  11.036  0.0886  0.7053 -0.0940
  693MPD2    C410301   3.165   2.310  10.928  0.2203 -0.0181 -0.3364
  693MPD2    C510302   3.076   2.364  10.841  0.7010  0.0870  0.2024
  693MPD2     H10303   2.947   2.176  11.148  0.6670 -0.1374  1.0362
  693MPD2    H110304   3.270   2.332  10.908  0.6288 -0.2648  1.5475
  693MPD2    H210305   2.874   2.384  10.782  0.1261 -0.5272  0.6402
  693MPD2    H310306   3.110   2.437  10.768 -2.2113  2.2177  0.9673
  693MPD2     N10307   3.230   2.192  11.116  0.3841 -0.0420  1.3774
  693MPD2    H510308   3.319   2.235  11.092 -0.1121 -1.1778 -2.4002
  693MPD2    N110309   2.760   2.256  10.996 -0.0337  0.2737  0.6629
  693MPD2    H710310   2.747   2.225  11.092 -2.0260 -2.7705 -0.5875
  694TMC3    C110311   2.525   2.269  10.951 -0.9361 -0.2889 -0.3534
  694TMC3    C210312   2.427   2.243  10.861  0.0589 -0.3778 -0.3649
  694TMC3    C310313   2.297   2.222  10.902  0.1691 -0.2003 -0.3095
  694TMC3    C410314   2.500   2.288  11.084 -0.2075 -0.1272 -0.1357
  694TMC3    C510315   2.370   2.256  11.123 -0.2614 -0.5863 -0.5915
  694TMC3    C610316   2.269   2.228  11.032 -0.4490 -0.6196  0.1968
  694TMC3     C10317   2.663   2.268  10.900 -0.1868 -0.2029  0.6076
  694TMC3     O10318   2.683   2.268  10.778  0.2410  0.0201 -0.3813
  694TMC3     H10319   2.464   2.230  10.760  0.4606 -1.3031 -0.0914
  694TMC3    H110320   2.585   2.310  11.148 -1.8742  2.3367  1.2069
  694TMC3    H210321   2.166   2.218  11.066 -0.7764 -0.0140 -0.6089
  694TMC3    C710322   2.362   2.211  11.258 -0.2392 -0.0121 -0.1991
  694TMC3    C810323   2.185   2.202  10.811 -0.3669  0.2397  0.2226
  694TMC3    O110324   2.472   2.189  11.304 -0.1477 -0.0520 -0.0900
  694TMC3    O210325   2.074   2.210  10.860 -0.3434 -0.2192 -0.1372
  695MPD2     C10326   4.092   0.133  13.542 -0.4268 -0.9144  0.5858
  695MPD2    C110327   4.039   0.112  13.666  0.3824  0.6437  0.0797
  695MPD2    C210328   3.907   0.152  13.689 -0.8308 -0.1303  0.3906
  695MPD2    C310329   3.829   0.226  13.599  0.1853 -0.3631 -0.7348
  695MPD2    C410330   3.894   0.244  13.481 -0.2354 -0.0829 -0.2170
  695MPD2    C510331   4.012   0.189  13.449 -0.3921 -0.6265 -0.1301
  695MPD2     H10332   3.868   0.130  13.788 -1.7748 -0.1778  0.0108
  695MPD2    H110333   3.850   0.302  13.401  0.4474  0.9064  0.1273
  695MPD2    H210334   4.191   0.104  13.510  1.3331  4.0514  1.5365
  695MPD2    H310335   4.055   0.193  13.350  0.2077  1.3882  0.2188
  695MPD2     N10336   3.705   0.280  13.633 -0.0313 -0.2273  0.6363
  695MPD2    H510337   3.670   0.251  13.724 -0.5388  0.7106  0.7465
  695MPD2    N110338   4.098   0.037  13.766  0.0542 -0.4224  0.8568
  695MPD2    H710339   4.036   0.023  13.846 -0.4906  1.0395  0.6735
  696TMC3    C110340   3.487   0.346  13.599 -0.3381 -0.7833 -0.2732
  696TMC3    C210341   3.442   0.230  13.661  0.4942  0.2768  0.2723
  696TMC3    C310342   3.311   0.223  13.697 -0.0624 -0.2705  0.6881
  696TMC3    C410343   3.411   0.463  13.595  0.0611 -0.4695 -0.1912
  696TMC3    C510344   3.282   0.450  13.638  1.0069 -0.6889 -0.5570
  696TMC3    C610345   3.230   0.330  13.679 -0.2230 -0.0521 -0.5966
  696TMC3     C10346   3.623   0.356  13.557 -0.2484  0.4946 -0.3089
  696TMC3     O10347   3.641   0.417  13.455  0.2380  0.6646  0.3950
  696TMC3     H10348   3.519   0.153  13.665 -0.2201 -0.4046  0.8677
  696TMC3    H110349   3.451   0.560  13.567  1.1013 -0.6759  0.5785
  696TMC3    H210350   3.129   0.328  13.716 -0.3050 -2.3473 -0.9600
  696TMC3    C710351   3.204   0.569  13.675 -0.2920 -0.1540 -0.0595
  696TMC3    C810352   3.281   0.158  13.813 -0.1898 -0.0009 -0.1549
  696TMC3    O110353   3.081   0.562  13.698 -0.1617 -0.1846 -0.5094
  696TMC3    O210354   3.211   0.217  13.894 -0.1013 -0.1406 -0.1863
  697MPD2     C10355   3.573   1.739  16.090  0.0442 -0.1701  0.1964
  697MPD2    C110356   3.554   1.684  15.963  0.0618  0.2949 -1.1571
  697MPD2    C210357   3.560   1.768  15.853  0.8029 -0.3535  0.3247
  697MPD2    C310358   3.576   1.902  15.869  0.1849 -0.1876  0.6785
  697MPD2    C410359   3.596   1.955  15.998 -0.2679  0.3813 -0.5050
  697MPD2    C510360   3.599   1.870  16.107 -0.8596  0.0751  0.1195
  697MPD2     H10361   3.546   1.722  15.756 -1.9613  0.7281  0.2218
  697MPD2    H110362   3.602   2.058  16.031  0.2719 -0.1821  1.1656
  697MPD2    H210363   3.584   1.675  16.176  0.7188 -1.6673 -1.0101
  697MPD2    H310364   3.610   1.916  16.205  0.4135  0.7347 -0.3295
  697MPD2     N10365   3.577   1.976  15.748 -0.1514  0.4457 -0.4423
  697MPD2    H510366   3.573   1.928  15.659 -0.2979  1.0517 -0.7628
  697MPD2    N110367   3.535   1.544  15.944  0.1023 -0.1367 -0.2785
  697MPD2    H710368   3.520   1.515  15.847 -1.0731 -2.9379  0.7280
  698TMC3    C110369   3.572   2.167  15.617  1.0774  0.6967  0.9191
  698TMC3    C210370   3.571   2.305  15.610 -0.3917 -0.0283 -0.2650
  698TMC3    C310371   3.508   2.361  15.494  0.0422  0.0774 -0.1201
  698TMC3    C410372   3.535   2.085  15.516  0.0519 -0.1662 -0.0226
  698TMC3    C510373   3.490   2.145  15.395  0.0894  0.5242  0.4792
  698TMC3    C610374   3.474   2.282  15.388  0.2673  0.0142 -0.0959
  698TMC3     C10375   3.583   2.111  15.746  0.3666 -0.0820  0.3773
  698TMC3     O10376   3.594   2.187  15.838 -0.1865 -0.0844  0.8284
  698TMC3     H10377   3.624   2.373  15.676 -1.3033  0.8064 -0.3950
  698TMC3    H110378   3.548   1.978  15.525 -0.6813 -0.1813  0.8349
  698TMC3    H210379   3.441   2.338  15.301  1.3358 -0.0253 -0.5231
  698TMC3    C710380   3.459   2.042  15.293  0.0332 -0.3637  0.0863
  698TMC3    C810381   3.541   2.501  15.471  0.1291  0.6959  0.4908
  698TMC3    O110382   3.520   1.939  15.293  0.2706 -0.2563 -0.5464
  698TMC3    O210383   3.444   2.568  15.437  0.0424  1.0810  0.0845
  699TMC3    C110384   3.727   0.190  13.122  0.3334 -0.2910  0.9750
  699TMC3    C210385   3.791   0.084  13.189  0.0049  0.6213  0.6929
  699TMC3    C310386   3.731   0.016  13.294 -0.6303  0.1316  0.3593
  699TMC3    C410387   3.602   0.222  13.163 -0.1638  0.0399  0.5427
  699TMC3    C510388   3.546   0.141  13.257 -0.5087  0.1532  0.3906
  699TMC3    C610389   3.600   0.037  13.328  0.3672  0.7940  0.2123
  699TMC3     C10390   3.803   0.276  13.032 -0.5389  0.6007 -0.2540
  699TMC3     O10391   3.923   0.263  13.036 -0.7299  0.1331  0.0870
  699TMC3     H10392   3.888   0.052  13.152 -0.3862  0.1533  0.0732
  699TMC3    H110393   3.544   0.292  13.103  0.8448  0.7936  0.4582
  699TMC3    H210394   3.545   4.716  13.397  1.1491 -0.4614 -0.3044
  699TMC3    C710395   3.417   0.170  13.317 -0.1913  0.2091  0.6463
  699TMC3    C810396   3.785   4.628  13.339 -0.2359 -0.6462  0.4127
  699TMC3    O110397   3.356   0.074  13.360  0.3204  0.1736 -0.3497
  699TMC3    O210398   3.908   4.620  13.348 -0.5479 -0.0862  0.5491
  700TMC3    C110399   2.584   2.051  17.128 -0.3916  0.3278  0.2794
  700TMC3    C210400   2.658   1.941  17.162  0.1721 -0.2288  0.1198
  700TMC3    C310401   2.707   1.927  17.290 -0.1890 -0.3019  0.1508
  700TMC3    C410402   2.539   2.142  17.223 -0.0837  0.0416  0.0113
  700TMC3    C510403   2.587   2.122  17.350 -0.3310  0.1760  0.1385
  700TMC3    C610404   2.680   2.024  17.380 -0.1338 -0.6500 -1.1958
  700TMC3     C10405   2.579   2.088  16.989  0.3374 -0.1800 -0.0678
  700TMC3     O10406   2.579   1.995  16.904  0.5165 -0.1245  0.2504
  700TMC3     H10407   2.678   1.869  17.083  0.8531  0.5924 -0.4584
  700TMC3    H110408   2.496   2.238  17.196  1.1299  0.6386  0.2062
  700TMC3    H210409   2.729   2.016  17.476 -0.0264 -1.9751 -1.3656
  700TMC3    C710410   2.581   2.238  17.435 -0.5956 -0.1858  0.2424
  700TMC3    C810411   2.827   1.854  17.307 -0.1503  0.1352  0.7941
  700TMC3    O110412   2.668   2.248  17.519 -0.0814 -0.0297 -0.4922
  700TMC3    O210413   2.898   1.887  17.403  0.4094  0.0415  0.3037
  701TMC3    C110414   2.294   1.273  15.994  0.5673 -0.2863  0.4341
  701TMC3    C210415   2.275   1.136  16.017 -0.2834 -0.1460  0.3940
  701TMC3    C310416   2.318   1.051  15.919  0.0785 -0.2120 -0.1172
  701TMC3    C410417   2.355   1.318  15.877 -0.4821 -0.2860  0.1742
  701TMC3    C510418   2.415   1.228  15.796 -0.5579  0.4733  0.2393
  701TMC3    C610419   2.396   1.101  15.812  0.2672 -0.0123 -0.1870
  701TMC3     C10420   2.266   1.380  16.089  0.9067  0.1634 -0.3279
  701TMC3     O10421   2.252   1.492  16.046  0.4247 -0.3810 -0.3079
  701TMC3     H10422   2.232   1.090  16.105  1.5099 -0.8484  0.9027
  701TMC3    H110423   2.387   1.421  15.865 -1.1455 -0.1177 -0.1530
  701TMC3    H210424   2.435   1.035  15.736  1.3894 -2.0543  2.1484
  701TMC3    C710425   2.515   1.276  15.698  0.2231 -0.5560 -0.1092
  701TMC3    C810426   2.297   0.908  15.943  0.0915 -1.2435  0.0634
  701TMC3    O110427   2.479   1.356  15.613 -0.1835  0.1279  0.0844
  701TMC3    O210428   2.321   0.860  16.058 -0.4689 -0.4413 -0.2555
  702MPD2     C10429   2.188   3.420  10.292  0.1256 -0.5507 -0.4394
  702MPD2    C110430   2.102   3.460  10.397 -0.3464  0.1289 -0.0389
  702MPD2    C210431   2.052   3.589  10.381 -0.3855  0.2046  0.2156
  702MPD2    C310432   2.106   3.679  10.291 -0.2577 -0.3733  0.1841
  702MPD2    C410433   2.185   3.635  10.190 -0.6494  0.4474 -0.5560
  702MPD2    C510434   2.233   3.508  10.194  0.7645 -0.0000  0.1002
  702MPD2     H10435   1.998   3.627  10.467 -3.1372 -0.9267 -0.9985
  702MPD2    H110436   2.218   3.701  10.111 -1.4860  2.5523  0.8557
  702MPD2    H210437   2.217   3.316  10.292 -0.6299 -0.7591 -2.7189
  702MPD2    H310438   2.294   3.469  10.113 -0.4668 -1.1534 -0.2681
  702MPD2     N10439   2.070   3.810  10.311  0.5375  0.0524 -0.1455
  702MPD2    H510440   2.011   3.833  10.391  0.4508 -0.7955  0.0326
  702MPD2    N110441   2.059   3.375  10.504 -0.0489 -0.0630 -0.2428
  702MPD2    H710442   1.984   3.411  10.563 -0.5721 -1.5364 -0.0116
  703TMC3    C110443   2.084   4.042  10.313  0.7331 -0.5841 -0.9432
  703TMC3    C210444   1.952   4.062  10.351  0.2286 -0.4055  0.0220
  703TMC3    C310445   1.921   4.132  10.465  0.3384  0.3004 -0.2037
  703TMC3    C410446   2.182   4.101  10.383  0.5008  0.1296  0.0264
  703TMC3    C510447   2.153   4.173  10.493  0.6769  0.0506 -0.4497
  703TMC3    C610448   2.026   4.191  10.535  0.3528 -0.4515  0.2370
  703TMC3     C10449   2.125   3.918  10.247 -0.2646 -0.5217 -0.1548
  703TMC3     O10450   2.212   3.923  10.158 -0.4193 -0.1672  0.0154
  703TMC3     H10451   1.867   4.010  10.309 -0.5758  0.3629  0.6963
  703TMC3    H110452   2.283   4.089  10.344 -0.1367  0.9095 -1.8413
  703TMC3    H210453   2.008   4.261  10.616 -2.9947 -1.3925  0.3321
  703TMC3    C710454   2.249   4.176  10.600 -0.7678  0.3138 -0.2889
  703TMC3    C810455   1.779   4.143  10.495 -0.1786 -0.4752  0.1197
  703TMC3    O110456   2.202   4.157  10.709 -0.2266  0.0131 -0.2784
  703TMC3    O210457   1.696   4.106  10.418  0.2133  0.1218  0.1705
  704TMC3    C110458   4.314   1.864  12.711  0.0192  0.8919 -0.3591
  704TMC3    C210459   4.412   1.914  12.628  0.2023 -0.6111 -0.2487
  704TMC3    C310460   4.543   1.880  12.640 -0.1453 -0.3862 -0.2286
  704TMC3    C410461   4.341   1.764  12.796 -0.3626  0.2151  0.2357
  704TMC3    C510462   4.478   1.722  12.801  0.5954 -0.2474  0.1187
  704TMC3    C610463   4.579   1.789  12.737  0.4484 -0.1353  0.9722
  704TMC3     C10464   4.189   1.941  12.725 -0.3559 -0.3064 -0.9266
  704TMC3     O10465   4.141   1.943  12.837  0.5603  0.7026  0.1133
  704TMC3     H10466   4.400   1.993  12.554  0.5751  1.3247  1.7381
  704TMC3    H110467   4.264   1.720  12.858 -1.3924  3.5238  1.2798
  704TMC3    H210468   4.678   1.750  12.754  1.4283  1.6793 -0.6148
  704TMC3    C710469   4.513   1.591  12.852 -0.4873  0.0825  0.4662
  704TMC3    C810470   4.609   1.863  12.509 -0.9003  0.2114  1.0777
  704TMC3    O110471   4.634   1.562  12.860  0.0004  0.5916  0.0553
  704TMC3    O210472   4.537   1.868  12.409  0.2503  0.3857 -0.2058
  705MPD2     C10473   4.070   4.433  16.570  0.1380  0.3509 -0.5679
  705MPD2    C110474   4.127   4.558  16.544  0.1169  0.1392 -0.0714
  705MPD2    C210475   4.057   4.671  16.589  0.8694  0.3529 -1.1606
  705MPD2    C310476   3.930   4.667  16.649 -0.2496  0.3134  0.5747
  705MPD2    C410477   3.882   4.546  16.679 -0.3165  0.2987 -0.5812
  705MPD2    C510478   3.957   4.437  16.641 -0.0054  0.3075  0.8048
  705MPD2     H10479   4.093   0.028  16.564 -0.5393  1.5967  1.7038
  705MPD2    H110480   3.786   4.531  16.727  0.9473 -0.9482  1.5814
  705MPD2    H210481   4.110   4.335  16.546  0.6435  0.5694 -0.6232
  705MPD2    H310482   3.911   4.339  16.653 -0.4443  0.5373  1.0036
  705MPD2     N10483   3.844   0.029  16.685  0.5333  0.0798  0.0380
  705MPD2    H510484   3.751   0.005  16.720  0.2707 -1.1656 -1.4748
  705MPD2    N110485   4.247   4.575  16.470  0.3539  0.1312  0.3560
  705MPD2    H710486   4.291   4.666  16.467 -1.7257  1.1205 -0.1633
  706TMC3    C110487   4.601   4.489  16.150 -0.3099 -1.2033  0.1733
  706TMC3    C210488   4.631   4.625  16.159 -0.6181  0.1236 -0.5001
  706TMC3    C310489   4.561   4.705  16.244 -0.0855  0.0945  0.0171
  706TMC3    C410490   4.494   4.440  16.226 -0.1146 -0.1632 -0.2657
  706TMC3    C510491   4.421   4.526  16.307 -0.3213 -0.3163 -0.0046
  706TMC3    C610492   4.462   4.659  16.320 -0.3113  0.0572 -0.1194
  706TMC3     C10493   4.607   4.423  16.018 -0.2813 -0.1951 -0.0308
  706TMC3     O10494   4.544   4.323  15.997 -0.0323 -0.0101 -0.2072
  706TMC3     H10495   4.687   4.675  16.080  1.0525 -1.3180 -0.2332
  706TMC3    H110496   4.455   4.340  16.215  1.7876 -1.0315  0.9251
  706TMC3    H210497   4.396   4.725  16.377 -1.2204 -2.3950  1.6556
  706TMC3    C710498   4.304   4.480  16.385  0.3814 -0.4480 -0.6288
  706TMC3    C810499   4.546   0.102  16.209 -0.5333  0.2542 -0.3079
  706TMC3    O110500   4.255   4.371  16.354 -0.0654  0.0747  0.0369
  706TMC3    O210501   4.553   0.126  16.092 -0.7408 -0.3474 -0.3575
  707TMC3    C110502   2.270   3.956   1.012 -0.3408  0.1176  0.8079
  707TMC3    C210503   2.293   4.009   1.137  0.4474 -0.3160  0.3028
  707TMC3    C310504   2.220   4.116   1.178  0.0511 -0.0537 -1.0446
  707TMC3    C410505   2.157   4.000   0.945 -0.5206 -0.2861 -0.1413
  707TMC3    C510506   2.081   4.103   0.989 -0.1355  0.1692  0.5018
  707TMC3    C610507   2.110   4.167   1.108 -0.6399  0.5038 -0.7019
  707TMC3     C10508   2.309   3.824   0.974  0.2631  0.5411 -0.5339
  707TMC3     O10509   2.307   3.806   0.853  0.4761 -0.2323 -0.4662
  707TMC3     H10510   2.393   3.983   1.169  0.2863 -1.4119 -0.0795
  707TMC3    H110511   2.116   3.938   0.866  0.4783 -1.8686  0.6025
  707TMC3    H210512   2.053   4.246   1.155  0.6468  0.3449  1.1599
  707TMC3    C710513   1.946   4.137   0.938  0.1138  0.2352 -0.2306
  707TMC3    C810514   2.238   4.175   1.311  0.3547  0.9272 -0.2105
  707TMC3    O110515   1.910   4.057   0.850  0.0554  0.0814  0.0125
  707TMC3    O210516   2.163   4.266   1.351  0.2047 -0.0880 -0.3619
  708MPD2     C10517   2.289   3.476  13.817 -0.2100 -0.5753 -0.0421
  708MPD2    C110518   2.286   3.387  13.919 -0.2116 -0.3203 -0.2904
  708MPD2    C210519   2.388   3.356  14.000  1.3619  0.5972  0.7538
  708MPD2    C310520   2.511   3.406  13.977  0.1191 -0.3353 -0.1936
  708MPD2    C410521   2.527   3.490  13.870  0.4324  0.1040  0.5932
  708MPD2    C510522   2.414   3.525  13.791  0.0855  0.0486  0.5733
  708MPD2     H10523   2.376   3.289  14.084  1.6142  2.3499  2.1773
  708MPD2    H110524   2.625   3.524  13.839 -0.3425  0.9075 -0.9751
  708MPD2    H210525   2.212   3.503  13.745 -0.6615  0.3107  0.7768
  708MPD2    H310526   2.414   3.592  13.706 -0.1929 -0.5760  0.0848
  708MPD2     N10527   2.624   3.375  14.059 -0.0231 -0.5106  0.6432
  708MPD2    H510528   2.703   3.439  14.057  0.5006 -1.2133 -0.8712
  708MPD2    N110529   2.159   3.340  13.962 -0.1584 -0.5177  0.2140
  708MPD2    H710530   2.157   3.278  14.042  0.3124 -1.4406 -0.4781
  709TMC3    C110531   1.930   3.288  13.971 -0.3297 -1.1530  0.0346
  709TMC3    C210532   1.888   3.176  13.905  0.0472  0.3120 -0.7865
  709TMC3    C310533   1.898   3.058  13.965 -0.3407 -0.0282 -0.0001
  709TMC3    C410534   1.945   3.284  14.107 -0.9692  0.0509  0.2291
  709TMC3    C510535   1.932   3.163  14.166 -0.2474 -0.9121 -0.9249
  709TMC3    C610536   1.917   3.049  14.101 -0.0583 -0.1247 -0.0618
  709TMC3     C10537   2.039   3.349  13.894  0.5669 -0.7747 -0.2838
  709TMC3     O10538   2.013   3.368  13.775 -0.0358  0.2533  0.1946
  709TMC3     H10539   1.863   3.189  13.800  1.2153  0.6995 -1.0156
  709TMC3    H110540   1.975   3.373  14.161 -0.0509 -0.5250  0.6742
  709TMC3    H210541   1.912   2.951  14.145 -1.8149 -0.3790 -0.8388
  709TMC3    C710542   2.042   3.158  14.254  0.1216 -0.1414 -0.3197
  709TMC3    C810543   1.837   2.942  13.899  0.3179  0.1097 -0.4995
  709TMC3    O110544   2.131   3.243  14.231 -0.6837 -0.0399  0.3497
  709TMC3    O210545   1.802   2.844  13.969 -0.0718 -0.3064 -0.2757
  710TMC3    C110546   3.812   4.536   0.406  0.0026 -0.3756 -0.3605
  710TMC3    C210547   3.877   4.495   0.296  0.8138 -0.2494  0.0077
  710TMC3    C310548   3.935   4.368   0.300  0.0914  0.0253  0.1511
  710TMC3    C410549   3.783   4.454   0.509 -0.2366 -0.6061  0.2750
  710TMC3    C510550   3.816   4.322   0.494  0.1822 -0.0122 -0.3582
  710TMC3    C610551   3.901   4.276   0.398  0.1403 -0.8893  0.1674
  710TMC3     C10552   3.720   4.652   0.387  0.0684 -0.1781 -0.6177
  710TMC3     O10553   3.681   4.678   0.272  0.4647 -0.3723 -0.1384
  710TMC3     H10554   3.908   4.571   0.225  1.5307  0.7821  1.4108
  710TMC3    H110555   3.722   4.493   0.590  2.2660  2.8715  0.4723
  710TMC3    H210556   3.917   4.170   0.383 -1.0839 -0.9231 -0.9327
  710TMC3    C710557   3.789   4.232   0.597  0.0465 -0.6488  0.5833
  710TMC3    C810558   4.033   4.348   0.204 -0.3355 -0.1402  0.2743
  710TMC3    O110559   3.819   4.265   0.714  0.3114 -0.4061 -0.2240
  710TMC3    O210560   4.057   4.435   0.122 -0.2856 -0.2299 -0.4597
  711TMC3    C110561   3.407   0.671  14.933  0.7839  0.1153  0.1162
  711TMC3    C210562   3.387   0.670  15.070 -0.1964 -0.1231 -0.2931
  711TMC3    C310563   3.490   0.711  15.154  0.5298  0.2649  1.1456
  711TMC3    C410564   3.533   0.685  14.876  0.3074  0.1981  0.1170
  711TMC3    C510565   3.633   0.701  14.972  0.5807 -0.0869  0.3871
  711TMC3    C610566   3.609   0.745  15.102  0.2243  0.2328  0.2047
  711TMC3     C10567   3.320   0.602  14.842 -0.1721  0.1596 -0.3114
  711TMC3     O10568   3.253   0.513  14.884 -0.1930  0.1801  0.7484
  711TMC3     H10569   3.283   0.652  15.097  0.3132  2.1737  3.1662
  711TMC3    H110570   3.558   0.676  14.770  0.2263  0.2158  0.0960
  711TMC3    H210571   3.696   0.768  15.161 -0.2264  1.5719  0.3665
  711TMC3    C710572   3.723   0.586  14.995  0.2039 -0.1019  0.2282
  711TMC3    C810573   3.484   0.632  15.278  0.3992 -0.7606  0.3544
  711TMC3    O110574   3.825   0.590  15.070 -0.0904  0.1649 -0.2073
  711TMC3    O210575   3.414   0.531  15.270 -0.5025 -0.1124 -0.0913
  712MPD2     C10576   4.311   1.587  14.084  0.5382  0.0482 -0.0071
  712MPD2    C110577   4.231   1.632  13.982  0.1276  0.4789 -0.1918
  712MPD2    C210578   4.238   1.762  13.938 -0.0676  0.3119  0.3741
  712MPD2    C310579   4.339   1.835  13.982  0.2319  0.3963  0.5150
  712MPD2    C410580   4.445   1.775  14.054  0.0798 -0.0810 -0.6048
  712MPD2    C510581   4.421   1.656  14.113 -0.7731 -0.0128  0.2768
  712MPD2     H10582   4.158   1.811  13.884 -0.8136 -1.5734 -0.2661
  712MPD2    H110583   4.532   1.834  14.082 -0.1086 -0.0043 -0.1923
  712MPD2    H210584   4.295   1.497  14.141 -0.2938 -0.1684 -0.5772
  712MPD2    H310585   4.490   1.602  14.177 -1.3249 -2.0848 -0.8702
  712MPD2     N10586   4.348   1.973  13.950  0.2254  0.4121  0.5776
  712MPD2    H510587   4.443   2.006  13.943  0.4365 -0.2712  0.1627
  712MPD2    N110588   4.119   1.555  13.955 -0.6476 -0.3185 -0.0455
  712MPD2    H710589   4.086   1.487  14.022 -1.3400  1.5898  1.5717
  713TMC3    C110590   4.275   2.185  13.883  0.0977 -0.1962  0.7464
  713TMC3    C210591   4.411   2.220  13.868  0.5352  0.2709 -0.1058
  713TMC3    C310592   4.440   2.333  13.802 -0.2195  0.4389 -0.3497
  713TMC3    C410593   4.167   2.272  13.849 -1.2590  0.5853 -0.1367
  713TMC3    C510594   4.215   2.390  13.783 -0.4926  0.4592  0.1644
  713TMC3    C610595   4.349   2.418  13.764 -0.0701  0.3498  0.7507
  713TMC3     C10596   4.240   2.057  13.934 -0.0292  0.2898  0.0066
  713TMC3     O10597   4.129   2.049  13.984 -0.0134 -0.2210 -0.2982
  713TMC3     H10598   4.488   2.148  13.892 -2.0836 -1.0068  4.5108
  713TMC3    H110599   4.064   2.239  13.851 -0.7237 -0.9707  2.0494
  713TMC3    H210600   4.384   2.511  13.721  1.7236 -0.3625  0.6480
  713TMC3    C710601   4.126   2.490  13.719 -0.4106  0.3467 -0.2866
  713TMC3    C810602   4.573   2.385  13.813  0.2661 -0.2655 -0.4475
  713TMC3    O110603   4.170   2.568  13.629  0.1067 -0.0662 -0.2134
  713TMC3    O210604   4.608   2.458  13.721 -0.4324  0.4935 -0.3160
  714MPD2     C10605   3.107   1.631   1.099  0.2969 -0.0309  0.0932
  714MPD2    C110606   3.060   1.505   1.082 -0.2345  0.0286  0.5941
  714MPD2    C210607   2.928   1.493   1.043  0.5558  0.6354  0.3679
  714MPD2    C310608   2.841   1.603   1.041 -0.6388  0.0472 -0.1563
  714MPD2    C410609   2.888   1.727   1.075 -0.4629 -0.5506 -0.0610
  714MPD2    C510610   3.023   1.739   1.091 -0.1794  0.2368  0.3389
  714MPD2     H10611   2.884   1.397   1.019 -0.9427  1.8689 -1.7144
  714MPD2    H110612   2.831   1.819   1.070 -0.9366 -0.7195  2.5821
  714MPD2    H210613   3.214   1.647   1.113  0.4708  1.6330 -3.2485
  714MPD2    H310614   3.074   1.835   1.097  0.9134 -0.3394  0.2546
  714MPD2     N10615   2.709   1.571   1.026 -0.1605 -0.0779  0.7739
  714MPD2    H510616   2.691   1.471   1.027 -0.7902  0.0355  0.7564
  714MPD2    N110617   3.147   1.398   1.101  0.5704 -0.6153  0.6734
  714MPD2    H710618   3.241   1.414   1.137  0.1606 -1.0440  1.9538
  715TMC3    C110619   3.211   1.176   1.155  0.1473  0.1390 -0.7776
  715TMC3    C210620   3.176   1.042   1.162 -0.1005  0.6558 -0.5046
  715TMC3    C310621   3.260   0.944   1.223  0.3792  0.4748  0.1917
  715TMC3    C410622   3.320   1.214   1.226  0.0253  0.0235  0.3413
  715TMC3    C510623   3.397   1.117   1.294  1.1764  0.2719 -0.7819
  715TMC3    C610624   3.374   0.986   1.285  0.2832  0.1623  0.5791
  715TMC3     C10625   3.109   1.266   1.109  0.3273  0.6356 -0.5640
  715TMC3     O10626   3.000   1.219   1.091  0.4242 -0.2690  0.4105
  715TMC3     H10627   3.082   1.010   1.119  0.9659 -2.7837 -0.2429
  715TMC3    H110628   3.362   1.314   1.221 -0.6301  0.2844  0.1086
  715TMC3    H210629   3.441   0.919   1.337  0.7247 -0.5801 -0.9623
  715TMC3    C710630   3.506   1.172   1.367 -0.0570  0.8180 -0.3124
  715TMC3    C810631   3.219   0.809   1.217  0.0667  0.0674 -0.7862
  715TMC3    O110632   3.601   1.106   1.381 -0.2968 -0.3177 -0.5833
  715TMC3    O210633   3.100   0.787   1.212 -0.2514  0.0410 -0.3879
  716MPD2     C10634   1.476   3.062  10.251  0.6098  0.1801 -0.1490
  716MPD2    C110635   1.475   3.094  10.109  0.1608  1.0158  0.0410
  716MPD2    C210636   1.477   2.986  10.017 -1.1401 -0.1884  0.6476
  716MPD2    C310637   1.491   2.852  10.056 -0.2710 -0.3427  0.4037
  716MPD2    C410638   1.505   2.825  10.195 -0.0195 -0.3070 -0.6210
  716MPD2    C510639   1.498   2.928  10.289  0.9941  0.9486 -0.2112
  716MPD2     H10640   1.485   3.009   9.912  1.6232  2.7277  1.4938
  716MPD2    H110641   1.515   2.723  10.232  0.8605 -0.1600 -0.4547
  716MPD2    H210642   1.476   3.135  10.330 -0.3241  1.7034 -1.5677
  716MPD2    H310643   1.501   2.912  10.396 -1.3717 -1.6245 -0.5330
  716MPD2     N10644   1.496   2.756   9.952  0.3771 -0.3307 -0.1238
  716MPD2    H510645   1.486   2.792   9.858 -1.4385  2.2101  1.0524
  716MPD2    N110646   1.473   3.228  10.067 -0.3302  0.0022  0.1726
  716MPD2    H710647   1.439   3.289  10.141 -0.8979 -0.6923  0.4866
  717TMC3    C110648   1.512   2.564   9.836 -0.7969  0.1323  0.4696
  717TMC3    C210649   1.405   2.579   9.745 -0.1602  0.0380  0.2561
  717TMC3    C310650   1.413   2.525   9.617  0.3127  0.1802  0.5011
  717TMC3    C410651   1.628   2.503   9.800 -0.2071 -0.7054  0.4428
  717TMC3    C510652   1.632   2.454   9.668  0.6070  0.9041 -0.2653
  717TMC3    C610653   1.526   2.465   9.576 -0.2606 -0.3949  0.2656
  717TMC3     C10654   1.524   2.622   9.964 -0.1128 -0.1166  0.2636
  717TMC3     O10655   1.541   2.551  10.064 -0.3346  0.1160 -0.8777
  717TMC3     H10656   1.308   2.613   9.780  0.5792  0.6662  1.6901
  717TMC3    H110657   1.699   2.472   9.876 -1.5503 -0.1416  1.9045
  717TMC3    H210658   1.524   2.438   9.471  0.9484 -0.8132  0.3588
  717TMC3    C710659   1.755   2.405   9.612  0.2383 -0.0790 -0.1999
  717TMC3    C810660   1.283   2.499   9.555  0.2950  0.0685 -1.2054
  717TMC3    O110661   1.744   2.348   9.501  0.1168 -0.0550  0.3456
  717TMC3    O210662   1.183   2.536   9.616  0.0589  0.5416  0.2169
  718MPD2     C10663   1.050   1.411  13.140 -1.8157  0.3410  1.5560
  718MPD2    C110664   1.015   1.493  13.038 -0.0437 -0.0299  0.4149
  718MPD2    C210665   0.921   1.446  12.953  0.0170 -0.3998  0.2482
  718MPD2    C310666   0.869   1.318  12.964  0.2016  0.8175 -0.2348
  718MPD2    C410667   0.907   1.225  13.055 -0.3050 -0.4278 -0.4137
  718MPD2    C510668   0.998   1.281  13.148 -0.4209  0.0971 -0.1100
  718MPD2     H10669   0.891   1.503  12.866 -2.2963  1.0192  1.9849
  718MPD2    H110670   0.883   1.120  13.068 -0.0413 -0.6465 -1.6680
  718MPD2    H210671   1.117   1.440  13.220 -0.9003 -0.5615  1.1196
  718MPD2    H310672   1.033   1.220  13.230  3.0739  0.2425 -1.4846
  718MPD2     N10673   0.757   1.298  12.886  0.1409 -0.1231  0.2252
  718MPD2    H510674   0.729   1.371  12.821  0.0517 -0.9234 -0.6336
  718MPD2    N110675   1.059   1.632  13.044 -0.3846 -0.0400 -0.1293
  718MPD2    H710676   1.130   1.656  13.113  1.3891  1.5362 -2.5362
  719TMC3    C110677   1.076   1.856  12.953 -0.4607  0.6749  0.3708
  719TMC3    C210678   1.014   1.947  12.866  0.1937  0.3764 -0.0470
  719TMC3    C310679   1.073   2.005  12.750  0.3995 -0.6875 -0.0025
  719TMC3    C410680   1.211   1.846  12.926  0.4472  0.8679  0.0386
  719TMC3    C510681   1.266   1.908  12.818 -0.2164  0.9386  0.1905
  719TMC3    C610682   1.199   1.984  12.730  0.9264 -0.2291 -0.1273
  719TMC3     C10683   1.016   1.730  12.960  0.6984  0.6399  0.0663
  719TMC3     O10684   0.915   1.723  12.887 -0.1481  0.0291  0.5287
  719TMC3     H10685   0.907   1.962  12.882 -0.0226 -0.7530 -0.4258
  719TMC3    H110686   1.260   1.772  12.988  1.1698  1.3442  0.0403
  719TMC3    H210687   1.248   2.016  12.638  0.6185 -0.4809 -0.3769
  719TMC3    C710688   1.397   1.874  12.776  0.2759  0.1437  0.8560
  719TMC3    C810689   0.993   1.973  12.636  0.0446  0.2963 -0.1791
  719TMC3    O110690   1.416   1.894  12.654 -0.2033 -0.3907 -0.9106
  719TMC3    O210691   1.023   2.024  12.526 -0.3720  0.4557 -0.3689
  720MPD2     C10692   4.500   3.693  14.451  0.2223 -0.0310  0.6499
  720MPD2    C110693   4.560   3.731  14.322  0.2882 -0.0533  0.6323
  720MPD2    C210694   4.700   3.703  14.305  0.7050 -0.0751 -0.0360
  720MPD2    C310695   0.031   3.638  14.407 -0.6408 -0.0133 -0.0005
  720MPD2    C410696   4.712   3.609  14.523  0.2127 -0.0126  0.4648
  720MPD2    C510697   4.585   3.645  14.546 -0.1432 -0.5560 -0.2010
  720MPD2     H10698   4.741   3.710  14.205 -0.9506 -1.1998 -0.8033
  720MPD2    H110699   0.018   3.543  14.595 -0.1739  1.4476  2.0505
  720MPD2    H210700   4.395   3.708  14.470  0.5942  2.7524  0.5233
  720MPD2    H310701   4.545   3.624  14.645 -1.4630 -1.8010 -0.9963
  720MPD2     N10702   0.169   3.604  14.375  0.1134  0.1607 -0.1336
  720MPD2    H510703   0.196   3.615  14.277 -0.8320  1.3435 -0.2573
  720MPD2    N110704   4.483   3.776  14.213  0.4694 -0.2470 -0.4594
  720MPD2    H710705   4.536   3.768  14.127  0.9378 -1.0282 -0.1008
  721TMC3    C110706   0.389   3.509  14.400 -0.8007 -0.2049 -0.4611
  721TMC3    C210707   0.476   3.459  14.487  0.0542  0.6759  0.3245
  721TMC3    C310708   0.603   3.431  14.444  0.6162 -0.0671  0.2222
  721TMC3    C410709   0.416   3.534  14.269  0.3919  0.2287 -0.1057
  721TMC3    C510710   0.543   3.497  14.224 -0.0300 -0.2686  0.1734
  721TMC3    C610711   0.641   3.446  14.311 -0.1478  0.3729  0.3158
  721TMC3     C10712   0.259   3.545  14.459 -0.1878 -0.5571  0.9916
  721TMC3     O10713   0.245   3.531  14.579  0.3344  0.2268  0.5792
  721TMC3     H10714   0.434   3.435  14.584 -1.1095 -0.1742 -0.3848
  721TMC3    H110715   0.344   3.592  14.212  1.1265  0.4878 -0.7747
  721TMC3    H210716   0.744   3.428  14.284 -0.1540  1.0194 -0.1480
  721TMC3    C710717   0.594   3.573  14.108 -0.0509  0.1947 -0.3224
  721TMC3    C810718   0.709   3.396  14.531  0.0122  0.5769  0.5531
  721TMC3    O110719   0.547   3.684  14.089 -0.6491  0.0667 -0.6126
  721TMC3    O210720   0.811   3.342  14.488 -0.1232  0.1808 -0.1455
  722MPD2     C10721   2.939   2.090  13.773 -0.6295  0.2918 -0.2148
  722MPD2    C110722   2.912   2.211  13.713 -0.5922 -0.1512 -0.7147
  722MPD2    C210723   2.813   2.227  13.618 -1.0053  0.1559  0.8999
  722MPD2    C310724   2.756   2.111  13.567 -1.1766 -0.4584 -0.6215
  722MPD2    C410725   2.796   1.986  13.615 -0.3741  0.3476 -0.6376
  722MPD2    C510726   2.876   1.983  13.724 -0.3162  0.8740 -0.4720
  722MPD2     H10727   2.794   2.327  13.581  1.1874  0.6296  1.0746
  722MPD2    H110728   2.744   1.895  13.590 -0.0013 -0.2401  0.7315
  722MPD2    H210729   3.015   2.084  13.850 -0.2624 -0.8939 -0.6760
  722MPD2    H310730   2.901   1.885  13.763  0.8051  1.9988  1.6508
  722MPD2     N10731   2.653   2.126  13.470 -0.1640 -0.1192 -0.2047
  722MPD2    H510732   2.616   2.218  13.449 -0.4881 -0.0072  0.8341
  722MPD2    N110733   2.987   2.333  13.747  0.0380  0.1417 -0.4026
  722MPD2    H710734   2.961   2.411  13.688  0.1843  0.2044 -0.3843
  723TMC3    C110735   2.471   2.073  13.345  0.3866  0.4993 -0.6257
  723TMC3    C210736   2.432   2.014  13.229 -0.1858  0.4463 -0.7389
  723TMC3    C310737   2.319   2.059  13.166 -0.0723  0.2096 -0.1465
  723TMC3    C410738   2.407   2.178  13.406 -0.4065 -0.1149 -0.3626
  723TMC3    C510739   2.295   2.214  13.342  0.4319 -0.6094  0.5794
  723TMC3    C610740   2.257   2.168  13.222 -0.7454 -0.5399 -0.5327
  723TMC3     C10741   2.592   2.023  13.406 -0.6443  0.2744 -0.2686
  723TMC3     O10742   2.627   1.907  13.394 -0.3893  0.4881  0.1473
  723TMC3     H10743   2.492   1.932  13.192  1.3064  1.0456  0.3866
  723TMC3    H110744   2.424   2.203  13.510 -2.6286 -1.2557  0.2898
  723TMC3    H210745   2.166   2.212  13.184 -0.7298 -2.2827 -2.6277
  723TMC3    C710746   2.206   2.314  13.396 -0.7713 -0.3210 -0.3374
  723TMC3    C810747   2.297   2.028  13.026  0.1377  0.1442  0.9945
  723TMC3    O110748   2.087   2.295  13.370 -0.1992  0.3182  0.0173
  723TMC3    O210749   2.196   2.062  12.971 -0.0440  0.4289  0.2237
  724TMC3    C110750   3.842   0.271  10.884  0.4389  0.1391 -0.1211
  724TMC3    C210751   3.812   0.185  10.779 -0.4153  0.5302  0.0572
  724TMC3    C310752   3.846   0.228  10.657 -0.5151  0.5147  0.1907
  724TMC3    C410753   3.903   0.393  10.860 -0.2077  0.1189 -0.5894
  724TMC3    C510754   3.936   0.426  10.734 -0.2640 -0.0922  0.7811
  724TMC3    C610755   3.914   0.342  10.627 -0.0206  0.1062 -0.5214
  724TMC3     C10756   3.875   0.212  11.013 -0.5444  0.1655  0.2867
  724TMC3     O10757   3.954   0.280  11.078  0.1444 -0.0211  0.2328
  724TMC3     H10758   3.791   0.084  10.813  0.6929  0.5107  0.6983
  724TMC3    H110759   3.946   0.455  10.938  0.0890 -1.9835  0.8813
  724TMC3    H210760   3.964   0.361  10.533 -0.1931  1.8393 -0.2694
  724TMC3    C710761   3.978   0.562  10.710  0.2388  0.6595  0.1907
  724TMC3    C810762   3.768   0.174  10.557  0.1411 -0.2474  0.1482
  724TMC3    O110763   4.039   0.601  10.611  0.1019  0.1264 -0.2295
  724TMC3    O210764   3.727   0.062  10.572 -0.3734  0.4641  0.0668
  725TMC3    C110765   0.857   4.021  12.917  0.6763  0.3373 -0.4172
  725TMC3    C210766   0.740   4.084  12.898 -0.2129  0.3747  0.5080
  725TMC3    C310767   0.679   4.071  12.777 -0.0477 -0.1092 -0.4438
  725TMC3    C410768   0.916   3.937  12.826  0.1273 -0.2845  0.0349
  725TMC3    C510769   0.855   3.934  12.704 -0.4020 -0.5728  0.1074
  725TMC3    C610770   0.735   4.002  12.676  0.7104 -0.0961  0.0070
  725TMC3     C10771   0.935   4.057  13.038  0.8050  0.3554 -0.1220
  725TMC3     O10772   1.053   4.072  13.021 -0.0896 -0.0939  0.1736
  725TMC3     H10773   0.694   4.143  12.976  1.8444 -1.3832  3.0490
  725TMC3    H110774   1.012   3.893  12.849  0.4410  1.3238  1.7950
  725TMC3    H210775   0.691   3.997  12.577  1.2479  1.5665 -0.3108
  725TMC3    C710776   0.860   3.807  12.629  0.4713  0.1946  0.0120
  725TMC3    C810777   0.560   4.152  12.750 -0.1180 -0.2428 -0.1745
  725TMC3    O110778   0.823   3.809  12.510  0.3275 -0.1764 -0.5216
  725TMC3    O210779   0.490   4.172  12.850 -0.1862  0.0564 -0.2343
  726MPD2     C10780   2.969   0.728  10.342 -0.0695  0.1797 -0.1080
  726MPD2    C110781   2.847   0.783  10.314  0.1965  0.4950 -0.0112
  726MPD2    C210782   2.747   0.778  10.410 -0.0524  0.1990 -0.3781
  726MPD2    C310783   2.767   0.718  10.531 -1.1974 -0.0652 -0.0904
  726MPD2    C410784   2.892   0.684  10.568  0.5930  0.8458  0.7065
  726MPD2    C510785   2.985   0.686  10.469  0.0991  0.3675  0.6580
  726MPD2     H10786   2.653   0.830  10.392 -1.0864 -1.6875 -0.4210
  726MPD2    H110787   2.916   0.648  10.667 -0.2473 -0.6502  0.3628
  726MPD2    H210788   3.057   0.730  10.280  0.2727  1.4591  0.4335
  726MPD2    H310789   3.085   0.656  10.499  1.3131  2.3570 -1.4333
  726MPD2     N10790   2.655   0.717  10.621 -0.3638 -0.2215 -0.1988
  726MPD2    H510791   2.678   0.693  10.717 -1.0082 -2.9910 -0.7209
  726MPD2    N110792   2.813   0.844  10.191  0.2909  0.1004 -0.9806
  726MPD2    H710793   2.716   0.872  10.180  0.7683  1.4150 -1.9189
  727TMC3    C110794   2.833   0.914   9.975 -0.6643 -0.1886  0.6687
  727TMC3    C210795   2.922   0.996   9.905  0.1749  0.7924 -1.0274
  727TMC3    C310796   2.864   1.056   9.796  0.3066 -0.4606  0.1277
  727TMC3    C410797   2.700   0.907   9.952 -0.8004 -0.4137  0.1022
  727TMC3    C510798   2.650   0.992   9.868 -0.4172 -0.1053  0.0415
  727TMC3    C610799   2.725   1.057   9.780 -0.1277  1.4773 -0.1314
  727TMC3     C10800   2.898   0.852  10.082  0.1915  0.3629  0.1692
  727TMC3     O10801   3.022   0.836  10.074  0.4297  0.2323  0.3081
  727TMC3     H10802   3.026   1.011   9.930  0.6580 -0.0107 -2.5539
  727TMC3    H110803   2.640   0.836  10.008  0.0951  0.6876  2.4205
  727TMC3    H210804   2.683   1.094   9.688  1.9835  2.1608 -0.8075
  727TMC3    C710805   2.503   1.003   9.869 -0.1203  0.2648  0.0061
  727TMC3    C810806   2.946   1.154   9.739  0.6042  0.5858 -0.1646
  727TMC3    O110807   2.442   0.926   9.942  0.3921 -0.8171  0.2147
  727TMC3    O210808   3.061   1.125   9.703 -0.7158 -0.2614 -0.3259
  728TMC3    C110809   2.669   4.091  15.389  0.2825  0.2364 -1.0421
  728TMC3    C210810   2.804   4.121  15.386  0.2867 -0.1665  0.3053
  728TMC3    C310811   2.834   4.216  15.290  0.0958  0.2721  0.6687
  728TMC3    C410812   2.575   4.144  15.302  0.5684 -0.3033  0.3064
  728TMC3    C510813   2.615   4.230  15.206  0.2926  0.4750 -0.3536
  728TMC3    C610814   2.747   4.270  15.204  0.1146  0.1220 -0.4502
  728TMC3     C10815   2.630   4.021  15.513  0.1264  0.2510  0.3160
  728TMC3     O10816   2.721   4.002  15.595  0.7446 -0.0287  0.1566
  728TMC3     H10817   2.868   4.090  15.467  1.2358  2.0390  0.3842
  728TMC3    H110818   2.481   4.092  15.289 -0.5220  1.3061  1.9193
  728TMC3    H210819   2.775   4.357  15.145  1.2909  0.4623  0.6070
  728TMC3    C710820   2.525   4.260  15.103  0.4458  0.0622  0.1473
  728TMC3    C810821   2.960   4.292  15.315  0.4329 -0.5614 -0.9303
  728TMC3    O110822   2.406   4.232  15.115 -0.2319  0.4077  0.3083
  728TMC3    O210823   3.048   4.226  15.367  0.0275 -0.3939 -0.7435
  729MPD2     C10824   0.210   0.466  16.971  0.2101  0.0736 -0.0498
  729MPD2    C110825   0.254   0.593  16.929  0.1836  0.2543  0.1190
  729MPD2    C210826   0.331   0.667  17.018 -0.0971 -0.0935  1.2791
  729MPD2    C310827   0.349   0.624  17.150  1.8912 -0.1267  0.4025
  729MPD2    C410828   0.293   0.506  17.190 -0.0989 -0.1158  0.2887
  729MPD2    C510829   0.232   0.425  17.100 -0.2545 -0.1560  0.7357
  729MPD2     H10830   0.366   0.766  16.990  0.0773  0.1276  2.2952
  729MPD2    H110831   0.302   0.467  17.291 -1.5659  1.0934  0.8981
  729MPD2    H210832   0.158   0.400  16.902 -0.1555  0.9914 -0.6599
  729MPD2    H310833   0.196   0.335  17.147  0.8876  0.0832  2.0537
  729MPD2     N10834   0.409   0.704  17.248  0.1135 -0.7063 -0.1012
  729MPD2    H510835   0.414   0.667  17.343 -0.1812 -1.2055 -0.2852
  729MPD2    N110836   0.228   0.633  16.795 -0.1488  0.2416 -0.3183
  729MPD2    H710837   0.159   0.576  16.747 -0.1138 -0.2776  0.2480
  730TMC3    C110838   0.473   0.909  17.343  0.5402 -0.4894 -0.1923
  730TMC3    C210839   0.549   1.026  17.339 -0.0024  0.0925 -0.0712
  730TMC3    C310840   0.553   1.102  17.451 -0.1276  0.4554  0.2793
  730TMC3    C410841   0.370   0.898  17.431 -0.8538 -0.0602 -0.0108
  730TMC3    C510842   0.361   0.986  17.533  0.3611 -0.6260  0.3199
  730TMC3    C610843   0.465   1.076  17.554  0.6656  0.0628 -0.2781
  730TMC3     C10844   0.467   0.826  17.227 -0.7987  0.6585 -0.1208
  730TMC3     O10845   0.473   0.884  17.122 -0.3460 -0.3080 -0.2687
  730TMC3     H10846   0.623   1.042  17.261  1.7837 -0.7508  1.4494
  730TMC3    H110847   0.285   0.834  17.408 -0.5338 -0.1392 -1.0030
  730TMC3    H210848   0.446   1.150  17.630 -0.4138 -0.4383 -0.0504
  730TMC3    C710849   0.240   1.060  17.518 -0.0041  0.5336 -0.1275
  730TMC3    C810850   0.583   1.239  17.432 -0.0351 -0.6198 -0.8294
  730TMC3    O110851   0.175   1.019  17.418  0.5251  0.2769 -0.6073
  730TMC3    O210852   0.599   1.298  17.538 -0.3116 -0.3470 -0.3956
  731MPD2     C10853   0.410   3.769  12.664  0.3633 -0.3372 -0.2276
  731MPD2    C110854   0.306   3.692  12.601  0.2150  0.1529 -0.6299
  731MPD2    C210855   0.189   3.686  12.677  0.3611 -0.1313 -0.2472
  731MPD2    C310856   0.173   3.741  12.799  0.1145 -0.4551 -0.4956
  731MPD2    C410857   0.279   3.804  12.861  0.4889  0.5756 -0.3770
  731MPD2    C510858   0.400   3.816  12.792 -0.4181 -0.1371  0.2595
  731MPD2     H10859   0.100   3.635  12.640 -0.5043  1.6214 -0.5698
  731MPD2    H110860   0.277   3.848  12.960  0.3306  1.8543 -0.9521
  731MPD2    H210861   0.499   3.796  12.609 -0.2752 -0.4667 -1.3098
  731MPD2    H310862   0.473   3.885  12.832 -0.8132 -0.3691  1.3793
  731MPD2     N10863   0.048   3.727  12.862 -0.1560  0.3209  0.2374
  731MPD2    H510864   4.717   3.673  12.815 -0.7192  1.0122  0.3052
  731MPD2    N110865   0.317   3.659  12.470  0.7802 -0.4096 -0.2614
  731MPD2    H710866   0.393   3.692  12.412  0.8463  0.2238  0.1926
  732TMC3    C110867   0.265   3.553  12.261 -0.0510  0.6795  0.2437
  732TMC3    C210868   0.190   3.447  12.207 -0.0257  0.6454  0.4177
  732TMC3    C310869   0.235   3.403  12.083 -0.2469 -0.1613 -0.7259
  732TMC3    C410870   0.349   3.632  12.184 -0.3275  0.1852 -0.6918
  732TMC3    C510871   0.383   3.586  12.060 -0.0166  0.6673 -0.4071
  732TMC3    C610872   0.325   3.477  12.007  0.6317  0.3101  0.6072
  732TMC3     C10873   0.226   3.586  12.396  0.2694 -0.1111  0.3783
  732TMC3     O10874   0.113   3.548  12.433  0.4015  0.2658 -0.3494
  732TMC3     H10875   0.125   3.402  12.280 -1.3807  2.4586  0.3346
  732TMC3    H110876   0.405   3.716  12.223  0.6195 -0.3246 -0.9471
  732TMC3    H210877   0.369   3.436  11.917 -1.0251 -0.1654  0.0070
  732TMC3    C710878   0.512   3.627  12.010  0.2852  0.1795 -0.1809
  732TMC3    C810879   0.144   3.309  12.020  0.4648 -0.0390 -0.7259
  732TMC3    O110880   0.601   3.651  12.094  0.2806 -0.4133 -0.1333
  732TMC3    O210881   0.173   3.272  11.907 -1.1709 -0.0735 -0.3871
  733TMC3    C110882   0.350   1.181  12.734  0.6540 -0.5103  0.4536
  733TMC3    C210883   0.457   1.144  12.811 -0.3286 -0.7278 -0.4095
  733TMC3    C310884   0.578   1.199  12.781  0.2156 -0.3515 -0.4221
  733TMC3    C410885   0.365   1.270  12.633 -0.3260  0.0896  0.5445
  733TMC3    C510886   0.480   1.329  12.615 -0.7351  0.1978  1.0804
  733TMC3    C610887   0.594   1.295  12.683  0.4054  0.2232  0.5800
  733TMC3     C10888   0.216   1.161  12.786 -0.0213 -0.3448  0.1570
  733TMC3     O10889   0.134   1.234  12.737 -0.2903 -0.0678  0.1545
  733TMC3     H10890   0.444   1.066  12.885  0.5764 -1.2654 -0.8255
  733TMC3    H110891   0.286   1.298  12.564 -2.2972  3.7681  4.3238
  733TMC3    H210892   0.694   1.330  12.659  0.6097  0.9673  2.5337
  733TMC3    C710893   0.483   1.462  12.550 -0.4013  0.4837  0.1161
  733TMC3    C810894   0.675   1.191  12.885 -0.3623 -0.1559 -0.3741
  733TMC3    O110895   0.415   1.473  12.449  0.0558 -0.3054  0.2297
  733TMC3    O210896   0.683   1.086  12.949  0.2466  0.1347 -0.2844
  734MPD2     C10897   2.521   3.755  12.739 -0.1118 -1.0164 -0.3777
  734MPD2    C110898   2.540   3.654  12.655 -0.6496  0.5833 -0.8634
  734MPD2    C210899   2.621   3.677  12.545  0.3736  0.3496 -1.0007
  734MPD2    C310900   2.684   3.798  12.522  0.5267  0.2990 -0.6803
  734MPD2    C410901   2.653   3.903  12.607  1.1016  0.2243 -0.3617
  734MPD2    C510902   2.580   3.875  12.714  0.0113 -0.5333 -0.3638
  734MPD2     H10903   2.637   3.597  12.474  0.6354 -1.1856  0.7904
  734MPD2    H110904   2.684   4.006  12.592  1.6620 -0.1233 -1.5744
  734MPD2    H210905   2.454   3.740  12.823 -1.0059  0.9963 -0.7323
  734MPD2    H310906   2.567   3.950  12.792 -0.8541 -1.0890  0.0269
  734MPD2     N10907   2.771   3.792  12.415  0.5847 -0.0183  0.2396
  734MPD2    H510908   2.794   3.699  12.381  0.1230  0.1600 -0.5529
  734MPD2    N110909   2.495   3.518  12.676  0.2930  0.0705 -0.5336
  734MPD2    H710910   2.479   3.501  12.775  3.0495  1.9610  0.2578
  735TMC3    C110911   2.514   3.289  12.651  0.0825  0.1311  0.4526
  735TMC3    C210912   2.477   3.197  12.558  0.2126  0.1041 -0.0122
  735TMC3    C310913   2.539   3.080  12.541 -0.1128  0.2105  0.1352
  735TMC3    C410914   2.633   3.268  12.721 -0.1933 -0.0088 -0.1868
  735TMC3    C510915   2.697   3.154  12.699  0.0856  0.2495 -0.6561
  735TMC3    C610916   2.651   3.054  12.615  0.5299 -0.3027 -0.0827
  735TMC3     C10917   2.511   3.421  12.589 -0.3442 -0.0050 -0.4883
  735TMC3     O10918   2.505   3.413  12.471 -0.0598  0.2140 -0.0993
  735TMC3     H10919   2.389   3.226  12.502 -0.1597 -0.2326  0.3973
  735TMC3    H110920   2.667   3.345  12.789 -0.3208  1.7716 -2.1175
  735TMC3    H210921   2.716   2.971  12.590  1.9091  1.0878 -1.1914
  735TMC3    C710922   2.841   3.163  12.690 -0.2235  0.0433  0.2395
  735TMC3    C810923   2.574   3.054  12.400 -0.7129 -0.5009  0.5614
  735TMC3    O110924   2.901   3.112  12.600 -0.0298 -0.2386 -0.1411
  735TMC3    O210925   2.610   2.939  12.370  0.1483 -0.2233 -0.0577
  736MPD2     C10926   3.066   3.285  12.956  0.3138  0.1528 -0.2090
  736MPD2    C110927   3.031   3.244  12.827 -0.0826 -0.4921 -0.2851
  736MPD2    C210928   3.128   3.246  12.728 -0.3050 -0.6524  0.0705
  736MPD2    C310929   3.257   3.288  12.755  0.0700 -0.3530 -0.0583
  736MPD2    C410930   3.285   3.325  12.880  0.4952 -0.1059  0.3799
  736MPD2    C510931   3.195   3.324  12.980  0.0629 -0.1245  0.0365
  736MPD2     H10932   3.099   3.221  12.626  1.4045 -0.8668 -0.3710
  736MPD2    H110933   3.388   3.349  12.906 -0.0143  2.5633 -0.0232
  736MPD2    H210934   2.993   3.293  13.036  1.7704  0.6900  1.0648
  736MPD2    H310935   3.237   3.370  13.068 -1.4902  1.8048 -0.2067
  736MPD2     N10936   3.362   3.270  12.663 -0.0836  0.3692  0.9578
  736MPD2    H510937   3.451   3.313  12.683  1.3067 -1.2810 -1.7076
  736MPD2    N110938   2.891   3.216  12.803 -0.3728  0.6394 -0.1106
  736MPD2    H710939   2.821   3.238  12.873  1.1326 -2.2569  2.3090
  737TMC3    C110940   3.472   3.224  12.460 -0.0984  0.2833 -0.0892
  737TMC3    C210941   3.504   3.357  12.431 -0.5648 -0.0278 -0.0464
  737TMC3    C310942   3.552   3.382  12.305  0.4159  0.0152 -0.7442
  737TMC3    C410943   3.498   3.125  12.376 -0.3775 -0.0067  0.1398
  737TMC3    C510944   3.567   3.146  12.254 -0.5808  0.5626 -0.1328
  737TMC3    C610945   3.586   3.278  12.221 -0.1072 -0.6046 -0.4736
  737TMC3     C10946   3.356   3.200  12.545 -0.0741 -0.4209  0.0931
  737TMC3     O10947   3.284   3.109  12.512  0.0071 -0.0629  0.5645
  737TMC3     H10948   3.469   3.435  12.498 -2.0320 -0.6615 -0.0754
  737TMC3    H110949   3.480   3.021  12.401  3.8010 -0.4511  1.2307
  737TMC3    H210950   3.625   3.301  12.123  0.4364  0.1932 -0.0681
  737TMC3    C710951   3.582   3.045  12.155  0.3703 -0.3005 -0.1205
  737TMC3    C810952   3.574   3.517  12.274  0.3790  0.2181 -0.1837
  737TMC3    O110953   3.542   2.936  12.184  0.3264 -0.3954  0.7755
  737TMC3    O210954   3.598   3.591  12.368  0.1281  0.2188 -0.0330
  738MPD2     C10955   3.655   2.762  15.406  0.0060  0.0799  0.2584
  738MPD2    C110956   3.736   2.651  15.440 -0.1954 -0.2924 -0.2823
  738MPD2    C210957   3.870   2.676  15.447  0.0878  0.8965 -0.5000
  738MPD2    C310958   3.925   2.796  15.415 -0.2220 -1.1248  0.3663
  738MPD2    C410959   3.844   2.903  15.389 -0.2077 -0.4642  0.0125
  738MPD2    C510960   3.713   2.883  15.384  0.3136  0.3403 -0.4079
  738MPD2     H10961   3.932   2.591  15.475 -0.0348  1.5874  1.9106
  738MPD2    H110962   3.878   3.004  15.373 -3.3976  0.6368  0.0593
  738MPD2    H210963   3.548   2.748  15.400  0.3767 -2.5028 -0.2362
  738MPD2    H310964   3.646   2.967  15.367 -0.5756 -0.3320 -0.2180
  738MPD2     N10965   4.064   2.823  15.409  0.9755  0.0126  0.2351
  738MPD2    H510966   4.102   2.902  15.358 -1.5218  1.1920  0.2206
  738MPD2    N110967   3.679   2.524  15.470 -0.0107 -0.5962 -0.7605
  738MPD2    H710968   3.736   2.440  15.482  2.2620  0.7113 -2.5252
  739TMC3    C110969   4.226   2.705  15.318 -0.1152 -0.2225  0.2842
  739TMC3    C210970   4.148   2.684  15.207  0.3548  0.0905  0.7075
  739TMC3    C310971   4.205   2.638  15.092  0.3765  0.4205  0.3080
  739TMC3    C410972   4.359   2.674  15.325 -0.0007 -0.5117  0.4005
  739TMC3    C510973   4.406   2.612  15.209 -0.2274 -0.0843 -0.2005
  739TMC3    C610974   4.339   2.603  15.088 -0.1964  0.0295  0.0370
  739TMC3     C10975   4.151   2.723  15.439 -0.0607  0.3011  0.1927
  739TMC3     O10976   4.149   2.648  15.531 -0.0620  0.1710 -0.3142
  739TMC3     H10977   4.040   2.697  15.204  0.2900 -0.6191 -0.2429
  739TMC3    H110978   4.416   2.695  15.415 -2.0450  1.2728  1.2607
  739TMC3    H210979   4.383   2.562  14.998 -2.8263 -1.2334 -0.6576
  739TMC3    C710980   4.540   2.569  15.210  0.0792  0.3250 -0.6875
  739TMC3    C810981   4.127   2.657  14.966 -0.7186 -0.2154 -0.1868
  739TMC3    O110982   4.600   2.551  15.104  0.0094 -0.0188 -0.6084
  739TMC3    O210983   4.013   2.679  14.985  0.1975  0.3594  0.4579
  740TMC3    C110984   4.257   4.318  14.426 -0.3751  0.9063 -0.2261
  740TMC3    C210985   4.308   4.275  14.550 -0.2463 -0.5051 -0.1269
  740TMC3    C310986   4.418   4.188  14.560 -0.3279 -0.4645 -0.0364
  740TMC3    C410987   4.319   4.271  14.310 -0.2378  1.0406  0.1443
  740TMC3    C510988   4.420   4.178  14.323  0.1271  0.2112  0.1902
  740TMC3    C610989   4.464   4.119  14.446 -0.1119 -0.1399 -0.2737
  740TMC3     C10990   4.114   4.355  14.409  0.3396 -1.1936 -0.0235
  740TMC3     O10991   4.079   4.401  14.300  0.6899 -0.1607  0.0884
  740TMC3     H10992   4.264   4.313  14.641  1.0927  1.7725 -0.4467
  740TMC3    H110993   4.285   4.300  14.211  0.1812 -1.0201 -0.6177
  740TMC3    H210994   4.556   4.062  14.441 -0.2785 -0.4926  0.6721
  740TMC3    C710995   4.490   4.133  14.204 -0.3726  0.0177 -0.1163
  740TMC3    C810996   4.463   4.144  14.691  0.3126 -0.0212 -0.6284
  740TMC3    O110997   4.597   4.081  14.227  0.9458  0.4691 -0.5654
  740TMC3    O210998   4.413   4.195  14.789  0.4413 -0.1690 -0.2202
  741TMC3    C110999   4.137   3.128  14.796 -0.9424 -0.0923  0.4965
  741TMC3    C211000   4.008   3.095  14.786  0.0855 -0.3190  0.0550
  741TMC3    C311001   3.951   3.037  14.893  0.0844  0.3954 -0.1846
  741TMC3    C411002   4.215   3.102  14.903  0.2857  0.0882 -0.9552
  741TMC3    C511003   4.151   3.045  15.016  0.6322 -0.7009  0.3203
  741TMC3    C611004   4.017   3.013  15.005  0.4403 -0.4066  0.6143
  741TMC3     C11005   4.219   3.134  14.676 -0.1856 -0.7717 -0.3240
  741TMC3     O11006   4.344   3.128  14.687 -0.6320 -0.5111 -0.1845
  741TMC3     H11007   3.956   3.097  14.691  0.7836  0.7594 -0.3115
  741TMC3    H111008   4.316   3.139  14.911  0.5265 -1.3092  2.5296
  741TMC3    H211009   3.970   2.996  15.101  0.2871  1.1133  0.7955
  741TMC3    C711010   4.214   3.043  15.150  0.7968  0.1936 -0.5650
  741TMC3    C811011   3.808   3.038  14.887 -0.6087 -0.4559 -0.1798
  741TMC3    O111012   4.146   3.036  15.251 -0.4001 -0.1194  0.1293
  741TMC3    O211013   3.745   3.106  14.809  0.1014  0.0693 -0.1274
  742TMC3    C111014   3.979   2.044  15.433  0.7002  0.5336  0.1053
  742TMC3    C211015   3.907   1.997  15.330 -0.7625 -0.3669 -0.4033
  742TMC3    C311016   3.970   1.919  15.235 -0.4050 -0.0490  0.2946
  742TMC3    C411017   4.107   1.996  15.462  0.1418  0.7186  0.3579
  742TMC3    C511018   4.162   1.905  15.376 -0.1210 -0.6272  0.5254
  742TMC3    C611019   4.090   1.857  15.265  0.1979  0.4674 -0.2596
  742TMC3     C11020   3.921   2.157  15.514  0.1481  0.1968 -0.8079
  742TMC3     O11021   3.834   2.224  15.463  0.3077  0.3727 -0.4366
  742TMC3     H11022   3.816   2.049  15.305  0.4984  3.0902  2.2835
  742TMC3    H111023   4.160   2.044  15.543  2.6346 -1.9297  0.2801
  742TMC3    H211024   4.137   1.791  15.192 -1.8543 -1.0650 -0.1908
  742TMC3    C711025   4.293   1.846  15.398  0.0422 -0.0114 -0.4109
  742TMC3    C811026   3.895   1.873  15.119  0.2152  0.3048  0.3304
  742TMC3    O111027   4.330   1.754  15.328 -0.1533 -0.3654  0.1156
  742TMC3    O211028   3.955   1.804  15.041 -0.8977 -0.1522  0.6014
  743MPD2     C11029   2.892   3.912   2.283 -0.6421  0.3242  0.3390
  743MPD2    C111030   2.910   3.788   2.229  0.2352  0.0483  0.3681
  743MPD2    C211031   3.041   3.732   2.221  0.1803  0.9550 -0.3845
  743MPD2    C311032   3.154   3.809   2.261  0.2892 -0.1414  0.0434
  743MPD2    C411033   3.130   3.934   2.317 -0.1713  0.5163 -0.3334
  743MPD2    C511034   3.004   3.984   2.327  0.1001 -0.5401  0.0619
  743MPD2     H11035   3.055   3.635   2.176 -1.0675  0.7121 -0.2597
  743MPD2    H111036   3.206   3.991   2.369 -1.0344  2.7709 -1.5390
  743MPD2    H211037   2.799   3.966   2.297 -1.1995 -0.2518 -1.1740
  743MPD2    H311038   2.989   4.080   2.374  0.4834 -1.6871  2.5128
  743MPD2     N11039   3.284   3.757   2.247  0.0597 -0.5766 -0.0280
  743MPD2    H511040   3.296   3.662   2.213  1.6378 -1.4468  2.9299
  743MPD2    N111041   2.799   3.729   2.161  0.2417  0.1117  0.1886
  743MPD2    H711042   2.714   3.784   2.163  0.2290  0.1247 -0.4800
  744TMC3    C111043   2.682   3.596   2.008 -0.2349 -0.3052  0.3186
  744TMC3    C211044   2.637   3.702   1.934 -0.4742 -0.2574  0.1156
  744TMC3    C311045   2.582   3.681   1.811  0.3562 -0.0175  0.2472
  744TMC3    C411046   2.673   3.464   1.949  0.6643 -0.3910 -0.1266
  744TMC3    C511047   2.618   3.450   1.827 -0.4613  0.0627  0.7674
  744TMC3    C611048   2.573   3.555   1.755 -0.5588  0.1375  0.8850
  744TMC3     C11049   2.789   3.606   2.105 -0.5965  0.4010 -0.0522
  744TMC3     O11050   2.859   3.506   2.117 -0.1866 -0.0886 -0.1444
  744TMC3     H11051   2.652   3.802   1.974  2.2052 -0.7171  0.2537
  744TMC3    H111052   2.705   3.374   2.000  0.2858  0.0038  0.8101
  744TMC3    H211053   2.527   3.535   1.659  0.0802 -0.0737  0.6248
  744TMC3    C711054   2.617   3.314   1.782  0.4058 -0.4815  0.7911
  744TMC3    C811055   2.539   3.788   1.722 -0.7375 -0.3473 -0.5800
  744TMC3    O111056   2.592   3.223   1.863  0.1746  0.7372 -0.5681
  744TMC3    O211057   2.546   3.756   1.605 -0.0363  0.1214 -0.5800
  745TMC3    C111058   3.914   1.521  13.844 -0.1599 -0.5241  0.2871
  745TMC3    C211059   3.870   1.564  13.967  0.4093 -0.4714  0.3918
  745TMC3    C311060   3.766   1.653  13.967  0.2348 -0.2694  0.2483
  745TMC3    C411061   3.858   1.558  13.723 -0.1675 -0.5768  0.1904
  745TMC3    C511062   3.759   1.656  13.728 -0.3002  0.0742 -0.2530
  745TMC3    C611063   3.707   1.699  13.851  0.0633 -0.5838 -0.3433
  745TMC3     C11064   4.046   1.570  13.837  1.2203 -0.5289 -0.1702
  745TMC3     O11065   4.090   1.600  13.727  0.3171  0.7389 -0.5069
  745TMC3     H11066   3.911   1.516  14.055  0.6211 -0.4761  0.2907
  745TMC3    H111067   3.885   1.498  13.638  0.6349 -0.0273  0.0589
  745TMC3    H211068   3.636   1.781  13.849  2.3852  1.4091 -1.0591
  745TMC3    C711069   3.765   1.764  13.636  0.4770  0.0329 -0.2708
  745TMC3    C811070   3.746   1.726  14.090  0.0466  0.3184 -0.2518
  745TMC3    O111071   3.660   1.820  13.606 -0.0219  0.5581 -0.1594
  745TMC3    O211072   3.641   1.781  14.115 -0.4693  0.6820 -0.3982
  746TMC3    C111073   2.169   3.209  10.914  0.2036 -0.5779 -0.4950
  746TMC3    C211074   2.203   3.238  10.782 -0.5158  0.0585  0.4951
  746TMC3    C311075   2.099   3.236  10.688 -1.4208 -0.6558  0.0284
  746TMC3    C411076   2.038   3.182  10.948 -0.0500 -0.0602 -0.1742
  746TMC3    C511077   1.939   3.210  10.857 -0.7714  0.5894  0.4145
  746TMC3    C611078   1.970   3.223  10.725  0.0368  0.0240 -0.2244
  746TMC3     C11079   2.248   3.270  11.021  0.0920 -0.0935 -0.1307
  746TMC3     O11080   2.212   3.251  11.138 -0.2661 -0.0049 -0.8133
  746TMC3     H11081   2.307   3.242  10.752 -0.1506 -0.8012  1.6613
  746TMC3    H111082   2.014   3.168  11.053  0.6561  0.8432  0.1073
  746TMC3    H211083   1.894   3.221  10.647 -0.3434 -1.0313  0.1620
  746TMC3    C711084   1.807   3.232  10.892 -0.3055 -0.4002  0.7342
  746TMC3    C811085   2.131   3.272  10.552 -0.1210 -0.7659 -0.3251
  746TMC3    O111086   1.717   3.199  10.816  0.0220  1.0018 -0.0677
  746TMC3    O211087   2.227   3.224  10.499 -0.2307 -0.2996 -0.2420
  747TMC3    C111088   3.968   3.114  11.219 -0.0329  0.0806  0.3813
  747TMC3    C211089   3.960   3.009  11.309  0.4024  0.6122 -0.5982
  747TMC3    C311090   3.993   3.031  11.435  0.1641 -0.0010 -0.0014
  747TMC3    C411091   4.040   3.225  11.252  0.4529 -0.0795 -0.9268
  747TMC3    C511092   4.080   3.237  11.376 -0.1573 -0.2664  0.4895
  747TMC3    C611093   4.050   3.149  11.473  0.2147  0.1074  1.0294
  747TMC3     C11094   3.948   3.102  11.071 -0.1336 -0.7959  0.9675
  747TMC3     O11095   3.906   3.203  11.012  0.1205 -0.3381 -0.3600
  747TMC3     H11096   3.892   2.927  11.285  1.1583  0.2949 -1.6792
  747TMC3    H111097   4.069   3.297  11.176  1.4941 -1.4181 -1.8122
  747TMC3    H211098   4.087   3.161  11.574  2.0708  0.5426  0.2961
  747TMC3    C711099   4.168   3.344  11.406  0.2803 -0.6847  0.0813
  747TMC3    C811100   3.928   2.939  11.528 -0.2648 -0.3351 -0.0296
  747TMC3    O111101   4.153   3.444  11.342 -0.3838  0.0785  1.0575
  747TMC3    O211102   3.889   2.830  11.489  0.4136  0.0780 -0.4619
  748MPD2     C11103   1.332   4.631   1.289 -0.3535  0.3399 -0.3274
  748MPD2    C111104   1.338   0.024   1.313  0.3448  0.1686 -0.0387
  748MPD2    C211105   1.455   0.090   1.278  0.8201 -0.0252 -0.1552
  748MPD2    C311106   1.565   0.027   1.221 -0.2950 -0.0744  0.0666
  748MPD2    C411107   1.560   4.641   1.183  0.5616  0.2357  0.0951
  748MPD2    C511108   1.446   4.574   1.230 -0.1287 -0.3391 -0.6950
  748MPD2     H11109   1.456   0.198   1.287 -0.7278  0.0607 -1.0204
  748MPD2    H111110   1.636   4.585   1.130 -1.2190 -0.8783 -1.2915
  748MPD2    H211111   1.244   4.572   1.311 -0.7334  1.5705  1.3555
  748MPD2    H311112   1.432   4.469   1.207  0.1378 -0.2314 -1.3538
  748MPD2     N11113   1.686   0.096   1.202 -0.1316  0.2729  0.1792
  748MPD2    H511114   1.674   0.197   1.206 -0.9735  0.1689  0.2727
  748MPD2    N111115   1.231   0.083   1.394 -0.5528  0.1693 -0.0176
  748MPD2    H711116   1.144   0.032   1.397  0.6865 -1.9473 -0.5541
  749TMC3    C111117   1.902   0.138   1.106  0.3191  0.2990  0.7576
  749TMC3    C211118   2.022   0.131   1.175 -1.0694 -0.2321  0.1968
  749TMC3    C311119   2.098   0.241   1.176  0.0101  0.9488  0.8168
  749TMC3    C411120   1.850   0.248   1.045 -0.4277  0.6171 -0.0523
  749TMC3    C511121   1.938   0.351   1.048  0.4562  0.2886 -0.1017
  749TMC3    C611122   2.063   0.359   1.115  0.4956 -0.5010 -0.5858
  749TMC3     C11123   1.804   0.040   1.150  0.0267  0.2618  0.2088
  749TMC3     O11124   1.861   4.679   1.181 -0.4444  0.4890 -0.3437
  749TMC3     H11125   2.047   0.047   1.239  1.0523  0.9764  0.9650
  749TMC3    H111126   1.757   0.259   0.990 -1.4579 -0.0847  1.5666
  749TMC3    H211127   2.139   0.436   1.111  0.1897 -0.1202  0.8768
  749TMC3    C711128   1.923   0.455   0.952  0.2079 -0.7419 -0.1471
  749TMC3    C811129   2.219   0.248   1.257 -0.0052  0.5253  0.1903
  749TMC3    O111130   1.971   0.570   0.974 -0.3734 -0.4747  0.1587
  749TMC3    O211131   2.264   0.363   1.274  0.1240  0.0346  0.4931
  750MPD2     C11132   2.172   1.014  11.710  0.1380  0.1245 -0.7730
  750MPD2    C111133   2.081   0.956  11.794  0.1212  0.3285 -0.5760
  750MPD2    C211134   2.081   0.821  11.818 -0.0620  0.3488  0.1820
  750MPD2    C311135   2.169   0.742  11.752  0.4090  0.3899 -0.7742
  750MPD2    C411136   2.259   0.802  11.663  0.2594 -0.4691 -0.5328
  750MPD2    C511137   2.259   0.936  11.639 -0.3074 -0.2755 -0.0336
  750MPD2     H11138   2.021   0.780  11.898  3.4376 -1.0532  2.0645
  750MPD2    H111139   2.323   0.745  11.596 -1.1441 -1.5545 -0.9498
  750MPD2    H211140   2.183   1.119  11.689  2.1965  0.1431  0.3713
  750MPD2    H311141   2.337   0.980  11.578 -0.7897 -2.6872 -2.3829
  750MPD2     N11142   2.164   0.595  11.766 -0.3317  0.6830  0.1515
  750MPD2    H511143   2.240   0.542  11.725  0.6326  2.6558 -0.6277
  750MPD2    N111144   2.000   1.050  11.859 -0.3724 -0.1122  0.1678
  750MPD2    H711145   2.019   1.145  11.831  2.9213 -0.2686  1.9348
  751TMC3    C111146   2.068   0.365  11.787  0.0636  0.2078 -1.3459
  751TMC3    C211147   1.995   0.288  11.873 -0.2368 -0.5414 -0.2515
  751TMC3    C311148   2.044   0.168  11.903 -0.4112 -0.2612  0.0640
  751TMC3    C411149   2.174   0.309  11.706  0.1944 -0.0248  0.5555
  751TMC3    C511150   2.213   0.176  11.736  0.2373 -0.3442  0.8808
  751TMC3    C611151   2.159   0.113  11.846 -0.3531  0.0489 -0.2379
  751TMC3     C11152   2.054   0.514  11.799  0.1957  0.1580  0.0173
  751TMC3     O11153   1.952   0.550  11.858 -0.8775 -0.0131  0.4391
  751TMC3     H11154   1.895   0.308  11.909  0.1567  1.3111 -0.2166
  751TMC3    H111155   2.238   0.367  11.641  2.5095 -1.3136  1.6756
  751TMC3    H211156   2.197   0.014  11.865  0.9103  0.4710 -0.5637
  751TMC3    C711157   2.198   0.086  11.620  0.0343 -0.4202 -0.3899
  751TMC3    C811158   1.945   0.064  11.888 -0.1647  0.3321 -0.2376
  751TMC3    O111159   2.221   0.141  11.515 -0.0161  0.3169  0.1448
  751TMC3    O211160   1.850   0.100  11.821 -0.1954  0.2063 -0.0797
  752TMC3    C111161   0.818   1.412  16.954  0.2467  0.3681 -0.5542
  752TMC3    C211162   0.845   1.296  17.021  0.4620  0.6151 -0.0630
  752TMC3    C311163   0.879   1.310  17.150  0.1841  0.3156 -0.1643
  752TMC3    C411164   0.829   1.533  17.013  0.1403 -0.4820  0.2597
  752TMC3    C511165   0.874   1.538  17.143  0.3904  0.2392  0.0173
  752TMC3    C611166   0.895   1.428  17.219 -0.6484 -0.0400 -0.0245
  752TMC3     C11167   0.778   1.409  16.819 -0.1502  0.0882  0.0765
  752TMC3     O11168   0.777   1.513  16.757 -0.3290  0.0231  0.1868
  752TMC3     H11169   0.848   1.194  16.983 -1.5180  0.6755 -0.3851
  752TMC3    H111170   0.832   1.626  16.957  0.4378 -1.7295 -1.7853
  752TMC3    H211171   0.931   1.437  17.321 -2.3580  1.8350  0.4140
  752TMC3    C711172   0.892   1.668  17.205  0.5141 -0.1890  0.1462
  752TMC3    C811173   0.878   1.181  17.223  0.8953  0.8750  0.0806
  752TMC3    O111174   0.942   1.671  17.315  0.4154 -0.1998 -0.0713
  752TMC3    O211175   0.836   1.078  17.171  0.5846 -0.3526  1.0214
  753TMC3    C111176   2.135   1.999  13.825 -0.2363  0.1637 -0.2394
  753TMC3    C211177   2.247   1.967  13.895 -0.1968 -0.5028 -0.3257
  753TMC3    C311178   2.343   1.892  13.829 -1.2173 -0.1057 -0.0122
  753TMC3    C411179   2.121   1.976  13.691  0.2335  0.3364 -0.7989
  753TMC3    C511180   2.217   1.909  13.626  0.3593 -0.3698  0.4174
  753TMC3    C611181   2.325   1.865  13.695 -0.7083 -0.3321 -0.1176
  753TMC3     C11182   2.056   2.119  13.867 -0.4894  0.4669 -0.5619
  753TMC3     O11183   1.931   2.130  13.844  0.0226  0.2092 -0.1330
  753TMC3     H11184   2.249   1.982  14.002 -2.8092  1.7082 -0.5920
  753TMC3    H111185   2.034   2.017  13.642 -0.1775  0.8520  0.3581
  753TMC3    H211186   2.404   1.818  13.637  1.0796  0.8252  1.3862
  753TMC3    C711187   2.190   1.874  13.493  0.3570  0.4819 -0.2770
  753TMC3    C811188   2.461   1.832  13.894 -0.1700 -0.4462 -0.7519
  753TMC3    O111189   2.092   1.932  13.437 -0.6275 -0.3917 -0.0967
  753TMC3    O211190   2.528   1.757  13.819 -0.0714  0.1575 -0.6136
  754MPD2     C11191   1.923   0.268  13.286  0.5639  0.3746 -0.6623
  754MPD2    C111192   1.904   0.132  13.298  0.3757  0.0621  0.2582
  754MPD2    C211193   1.788   0.071  13.331 -0.4254 -0.4821 -0.5787
  754MPD2    C311194   1.682   0.153  13.362 -0.2329 -0.9262 -0.1578
  754MPD2    C411195   1.692   0.290  13.346  0.2838  0.1164  0.0192
  754MPD2    C511196   1.812   0.346  13.303  0.3971  0.3514 -0.1668
  754MPD2     H11197   1.760   4.708  13.323 -1.0460 -0.4597  1.2737
  754MPD2    H111198   1.605   0.349  13.373 -0.5532 -0.6305 -1.0003
  754MPD2    H211199   2.017   0.307  13.248  1.6988 -0.0439  1.7536
  754MPD2    H311200   1.818   0.454  13.297  1.3131  0.2781 -0.6613
  754MPD2     N11201   1.560   0.100  13.406  0.3556  0.4966 -0.2880
  754MPD2    H511202   1.476   0.154  13.391  1.2759  1.7094 -1.0517
  754MPD2    N111203   2.028   0.055  13.295  0.2223 -0.2452  0.1947
  754MPD2    H711204   2.107   0.115  13.273  1.2072 -1.9164 -0.8217
  755MPD2     C11205   0.609   0.253  13.707  0.4339  1.1503  0.0855
  755MPD2    C111206   0.733   0.298  13.753 -1.0378 -0.5604 -0.3400
  755MPD2    C211207   0.850   0.246  13.695 -0.2522  0.3961  0.8886
  755MPD2    C311208   0.847   0.155  13.596  0.0652 -0.0875  0.1317
  755MPD2    C411209   0.722   0.124  13.543  0.0247 -0.8477  0.7925
  755MPD2    C511210   0.606   0.173  13.597  0.0575  0.8389 -0.7865
  755MPD2     H11211   0.946   0.285  13.727 -0.2462  2.0021 -1.0387
  755MPD2    H111212   0.717   0.053  13.461  0.6162 -1.4459  1.2783
  755MPD2    H211213   0.517   0.298  13.743 -0.0743 -0.8271  1.2259
  755MPD2    H311214   0.509   0.159  13.550 -0.7356 -0.3226  1.2140
  755MPD2     N11215   0.962   0.090  13.543 -1.2581  0.5225  0.1705
  755MPD2    H511216   0.943   0.047  13.453  0.4177  2.6663 -1.2001
  755MPD2    N111217   0.757   0.397  13.853  0.6126  0.2783 -0.3506
  755MPD2    H711218   0.848   0.398  13.898  1.3681 -0.6017 -1.8596
  756MPD2     C11219   1.677   1.034   9.801 -0.3077  0.0911  0.1820
  756MPD2    C111220   1.627   0.992   9.925  0.3992 -0.5350 -0.2208
  756MPD2    C211221   1.532   0.893   9.923  0.4555 -0.6896  0.2075
  756MPD2    C311222   1.511   0.818   9.813  0.5455  0.1735 -1.1768
  756MPD2    C411223   1.551   0.872   9.691 -0.9317  0.0204 -0.0815
  756MPD2    C511224   1.646   0.974   9.691 -0.3662  0.6768  0.4420
  756MPD2     H11225   1.489   0.854  10.015  0.1872  0.8258  0.7190
  756MPD2    H111226   1.519   0.825   9.599  1.0045  0.0494 -0.7778
  756MPD2    H211227   1.751   1.112   9.787  0.1425 -0.1936  1.0179
  756MPD2    H311228   1.678   1.004   9.592 -0.5364  0.5192  0.3392
  756MPD2     N11229   1.416   0.712   9.835 -0.0977 -0.0071 -0.9230
  756MPD2    H511230   1.385   0.687   9.928  2.7567  2.8638  0.8355
  756MPD2    N111231   1.660   1.054  10.048 -0.1378 -0.3352 -0.9770
  756MPD2    H711232   1.604   1.029  10.128 -1.0150 -0.8386 -1.7436
  757MPD2     C11233   0.812   0.270  10.467 -0.8036  0.2594  0.4922
  757MPD2    C111234   0.746   0.250  10.352 -0.0660  0.6742 -0.1509
  757MPD2    C211235   0.805   0.284  10.234 -0.4156 -0.0234  0.4591
  757MPD2    C311236   0.924   0.345  10.231 -0.0065 -0.0891 -0.3743
  757MPD2    C411237   0.996   0.362  10.345 -0.4318 -0.0019 -0.0592
  757MPD2    C511238   0.933   0.334  10.465 -0.1754 -0.2020 -0.1577
  757MPD2     H11239   0.756   0.266  10.139  2.0009  0.9237 -0.9550
  757MPD2    H111240   1.099   0.395  10.344  0.6316 -3.3347 -0.2114
  757MPD2    H211241   0.777   0.240  10.565  2.1769  2.3697  2.1585
  757MPD2    H311242   0.981   0.355  10.560 -1.7351  1.1100  0.3470
  757MPD2     N11243   0.983   0.368  10.103  0.5567  0.1389  0.3285
  757MPD2    H511244   0.930   0.327  10.027  0.1636  2.6719 -0.7857
  757MPD2    N111245   0.621   0.179  10.368  0.2106  0.2109  0.1668
  757MPD2    H711246   0.591   0.159  10.463  0.1461 -0.8570 -0.0810
  758MPD2     C11247   1.295   4.395  16.163  0.4691  0.0176 -0.7073
  758MPD2    C111248   1.416   4.375  16.239 -0.1959 -0.1537 -0.0305
  758MPD2    C211249   1.465   4.472  16.324  0.0109  0.1758  0.2175
  758MPD2    C311250   1.408   4.604  16.325  0.0941  0.1362  0.4195
  758MPD2    C411251   1.296   4.625  16.241  0.1052 -0.2947  0.2288
  758MPD2    C511252   1.244   4.519  16.165  0.4411  0.2831  0.1678
  758MPD2     H11253   1.544   4.457  16.397  1.1564 -1.2938 -1.3118
  758MPD2    H111254   1.240   4.718  16.237 -0.2487 -0.4721  1.0267
  758MPD2    H211255   1.255   4.335  16.082  0.3661 -0.5906 -0.1979
  758MPD2    H311256   1.159   4.536  16.101  0.3042  1.0476  0.5543
  758MPD2     N11257   1.458   4.710  16.402 -0.2887 -0.1138  0.3780
  758MPD2    H511258   1.404   0.054  16.403  0.6413  0.4483  2.0729
  758MPD2    N111259   1.484   4.248  16.220 -0.0324 -0.5265 -0.5636
  758MPD2    H711260   1.443   4.195  16.144  1.1227 -1.1045 -0.7822
  759MPD2     C11261   0.224   2.541  10.318 -0.2864 -0.0148 -0.5958
  759MPD2    C111262   0.109   2.571  10.244  0.7476 -0.2704 -0.0161
  759MPD2    C211263   0.088   2.699  10.199  0.0017 -0.2631  0.6862
  759MPD2    C311264   0.169   2.799  10.241 -0.1308  0.7569 -0.0743
  759MPD2    C411265   0.281   2.773  10.321 -0.1550  0.1954  0.0130
  759MPD2    C511266   0.312   2.643  10.350 -0.5322  1.0468  0.2372
  759MPD2     H11267   0.007   2.717  10.129 -0.6171 -1.6560  1.0400
  759MPD2    H111268   0.357   2.851  10.332 -0.4675  0.4231  0.5486
  759MPD2    H211269   0.254   2.445  10.360  2.0780  0.5164 -1.0501
  759MPD2    H311270   0.402   2.625  10.407 -0.4541  1.5472  0.2661
  759MPD2     N11271   0.150   2.938  10.192  0.2568  0.3450 -0.4811
  759MPD2    H511272   0.092   2.949  10.109 -1.2996  1.0061  0.6925
  759MPD2    N111273   0.010   2.473  10.217  0.4408  0.0691  0.3090
  759MPD2    H711274   4.664   2.495  10.171  0.0464 -0.0785  0.9983
  760MPD2     C11275   4.619   0.487  11.844 -1.2638  0.2869 -0.8491
  760MPD2    C111276   0.011   0.509  11.832 -0.2311  0.2558 -0.0794
  760MPD2    C211277   0.104   0.407  11.845 -0.4350 -0.5146  0.6872
  760MPD2    C311278   0.062   0.283  11.874  0.6872 -0.2229  0.3364
  760MPD2    C411279   4.666   0.257  11.890  0.2793  0.0703  0.2330
  760MPD2    C511280   4.578   0.355  11.868  0.2360  0.2958 -0.4102
  760MPD2     H11281   0.204   0.446  11.837  0.0599 -1.9264 -0.0693
  760MPD2    H111282   4.637   0.155  11.913  0.4017 -0.2559 -1.0495
  760MPD2    H211283   4.545   0.566  11.838 -1.0841  0.7095  2.2899
  760MPD2    H311284   4.471   0.341  11.870  0.2918 -0.2397 -1.3206
  760MPD2     N11285   0.148   0.173  11.901  0.0732 -0.3712  0.1811
  760MPD2    H511286   0.100   0.089  11.929 -1.3936  0.3086 -0.3040
  760MPD2    N111287   0.061   0.637  11.827  0.2535  0.5616 -0.6468
  760MPD2    H711288   0.162   0.646  11.834  0.3165 -1.2475  0.5872
  761MPD2     C11289   1.816   4.322  11.858 -0.9328  0.1385 -0.3194
  761MPD2    C111290   1.780   4.429  11.781 -0.5676 -0.1468 -0.0269
  761MPD2    C211291   1.834   4.553  11.801 -0.3725 -0.6285  0.0980
  761MPD2    C311292   1.925   4.567  11.905  0.4911 -0.1947  0.0511
  761MPD2    C411293   1.967   4.459  11.975 -0.0358  0.2254 -0.6492
  761MPD2    C511294   1.913   4.335  11.952  0.2718  1.0044 -0.2949
  761MPD2     H11295   1.812   4.634  11.732 -0.1154  0.0292  0.7921
  761MPD2    H111296   2.034   4.464  12.060  0.7784  0.7093 -1.3111
  761MPD2    H211297   1.764   4.228  11.848 -0.8928  0.0015  0.8462
  761MPD2    H311298   1.943   4.247  12.010  1.2816  2.5868  1.5822
  761MPD2     N11299   1.980   4.687  11.943  0.2683 -0.1965  0.6620
  761MPD2    H511300   2.052   4.688  12.015  0.2081  2.5696  0.6766
  761MPD2    N111301   1.715   4.390  11.665  0.0473  0.0308 -0.6966
  761MPD2    H711302   1.698   4.290  11.661  2.7519 -0.4122 -1.6844
  762MPD2     C11303   1.417   4.308  10.803 -0.5080  0.5995  0.1935
  762MPD2    C111304   1.534   4.321  10.868 -0.0463 -0.3481 -0.1855
  762MPD2    C211305   1.654   4.295  10.804 -0.3390  0.3731  0.8545
  762MPD2    C311306   1.651   4.247  10.675 -0.7330  0.2064  0.0231
  762MPD2    C411307   1.532   4.231  10.612  0.6616  0.0634 -0.5044
  762MPD2    C511308   1.424   4.270  10.670 -0.0330 -0.3048  0.1954
  762MPD2     H11309   1.746   4.303  10.861  0.1602  1.5340 -0.1126
  762MPD2    H111310   1.526   4.205  10.507 -1.7931 -0.9968 -0.1034
  762MPD2    H211311   1.321   4.334  10.846 -1.3640  0.4509 -1.6110
  762MPD2    H311312   1.331   4.264  10.615  0.3453  0.0084 -0.4808
  762MPD2     N11313   1.769   4.195  10.620  0.3687 -0.6110  0.1785
  762MPD2    H511314   1.849   4.206  10.682  0.7664 -2.3081 -0.0241
  762MPD2    N111315   1.517   4.344  11.002  0.2353 -0.8052 -0.3932
  762MPD2    H711316   1.424   4.352  11.042 -0.2963 -1.4731 -1.5126
  763MPD2     C11317   3.669   0.059  16.291 -0.7829  0.7485 -0.0743
  763MPD2    C111318   3.558   0.139  16.287  0.5883 -0.1096 -0.3478
  763MPD2    C211319   3.578   0.265  16.326 -0.1343 -0.2668 -0.0848
  763MPD2    C311320   3.708   0.314  16.343  0.0651  0.1210 -0.0788
  763MPD2    C411321   3.814   0.234  16.337  0.3568  0.1624  0.2030
  763MPD2    C511322   3.788   0.102  16.326  0.4235 -0.0679  0.1682
  763MPD2     H11323   3.497   0.336  16.320 -0.7356 -1.0245 -0.8185
  763MPD2    H111324   3.914   0.263  16.365  0.7391  0.2055 -1.2395
  763MPD2    H211325   3.668   4.700  16.251  0.7910  0.6201  0.1878
  763MPD2    H311326   3.870   0.032  16.337  0.6878 -0.1110 -2.2133
  763MPD2     N11327   3.741   0.443  16.379 -0.6774  0.3611  0.5107
  763MPD2    H511328   3.834   0.481  16.392  0.1565 -1.5800  0.1847
  763MPD2    N111329   3.434   0.091  16.228 -0.2417 -0.2352  0.1948
  763MPD2    H711330   3.368   0.161  16.194  2.3012  1.6795 -0.8021
  764MPD2     C11331   1.626   1.524  17.169  0.8920 -0.2141 -0.3882
  764MPD2    C111332   1.516   1.588  17.219 -0.8249 -0.0351 -0.5752
  764MPD2    C211333   1.501   1.608  17.355  0.1435 -0.1525  0.1764
  764MPD2    C311334   1.591   1.544  17.447 -0.7552  0.0695  0.1771
  764MPD2    C411335   1.699   1.484  17.397  1.0844  0.3452 -0.3458
  764MPD2    C511336   1.714   1.468  17.259  0.2750  0.1021  0.3580
  764MPD2     H11337   1.411   1.662  17.384 -1.0265 -0.7931 -2.2481
  764MPD2    H111338   1.771   1.442  17.466  0.1688  1.6965  1.4243
  764MPD2    H211339   1.633   1.512  17.062  1.6531  0.1440 -0.3725
  764MPD2    H311340   1.810   1.422  17.237 -1.4096 -0.8144 -5.1968
  764MPD2     N11341   1.563   1.559  17.584 -0.5550 -0.0683 -0.5487
  764MPD2    H511342   1.487   1.619  17.617  0.3021 -0.0329  1.3102
  764MPD2    N111343   1.415   1.608  17.124  0.1329  0.1005  0.4504
  764MPD2    H711344   1.427   1.567  17.032  1.4497 -0.4395  0.8587
  765MPD2     C11345   1.149   3.989  15.482  0.5766 -0.5886  0.1181
  765MPD2    C111346   1.172   4.019  15.617 -0.0929  0.1297  0.3146
  765MPD2    C211347   1.289   3.977  15.680 -0.0189 -0.0811  0.5603
  765MPD2    C311348   1.380   3.912  15.600 -0.5591 -0.6197 -0.2647
  765MPD2    C411349   1.352   3.881  15.474 -0.0233  0.6005 -0.1631
  765MPD2    C511350   1.235   3.916  15.418 -0.1681 -0.4191 -0.6771
  765MPD2     H11351   1.300   3.999  15.786  0.3672  1.7778  0.1327
  765MPD2    H111352   1.425   3.823  15.419 -1.1722 -0.5047 -0.5300
  765MPD2    H211353   1.053   4.009  15.437 -0.6857 -0.5675  2.8100
  765MPD2    H311354   1.210   3.870  15.323 -2.5309 -1.9419  0.6965
  765MPD2     N11355   1.487   3.860  15.667  0.0552  0.3054  0.4769
  765MPD2    H511356   1.493   3.871  15.768  1.2856  1.6941  0.2570
  765MPD2    N111357   1.062   4.087  15.687  0.6042 -0.4291  0.0201
  765MPD2    H711358   0.976   4.106  15.636  1.1793 -2.5597 -1.7249
  766MPD2     C11359   0.413   4.201  15.429  0.0027  0.4901  0.7839
  766MPD2    C111360   0.549   4.187  15.434 -0.3178 -0.3150 -0.1410
  766MPD2    C211361   0.622   4.135  15.327  0.6361 -1.0723 -0.3228
  766MPD2    C311362   0.554   4.101  15.210  0.3606  0.4399 -0.6256
  766MPD2    C411363   0.416   4.114  15.211  0.4275 -0.6082  0.2895
  766MPD2    C511364   0.348   4.172  15.313  0.0416 -0.5067 -0.3713
  766MPD2     H11365   0.729   4.127  15.340  0.5757 -0.8720  0.2878
  766MPD2    H111366   0.363   4.083  15.122  1.3741 -0.9292 -0.1681
  766MPD2    H211367   0.352   4.229  15.514 -0.7475 -0.4187  0.5478
  766MPD2    H311368   0.241   4.185  15.309  0.2264  0.3771 -2.5447
  766MPD2     N11369   0.614   4.049  15.097  0.1109 -0.5884 -0.2516
  766MPD2    H511370   0.551   4.028  15.021  1.7961  1.3387 -2.1799
  766MPD2    N111371   0.608   4.218  15.558  0.2530  0.1387  0.1854
  766MPD2    H711372   0.543   4.257  15.625  1.2746  0.3011  1.0727
  767MPD2     C11373   0.221   4.368  14.977  0.5527 -0.2991 -0.3645
  767MPD2    C111374   0.349   4.346  14.924 -0.7034 -0.3802  0.3712
  767MPD2    C211375   0.372   4.256  14.821  1.1729  0.4415  0.2743
  767MPD2    C311376   0.263   4.198  14.760  0.7263 -0.5205 -0.1188
  767MPD2    C411377   0.137   4.234  14.811  0.1252  0.0720  0.1002
  767MPD2    C511378   0.115   4.309  14.916  0.5721 -0.2998  0.4754
  767MPD2     H11379   0.467   4.242  14.771  0.3412 -2.6286 -0.4340
  767MPD2    H111380   0.045   4.202  14.763 -0.0649 -1.9933  1.8230
  767MPD2    H211381   0.206   4.417  15.073  1.0821  3.0944 -2.0413
  767MPD2    H311382   0.012   4.338  14.935  0.1586 -1.1938 -0.4146
  767MPD2     N11383   0.289   4.112  14.658  0.2998  0.2647 -0.2064
  767MPD2    H511384   0.387   4.091  14.640  0.2599  0.1564 -0.2959
  767MPD2    N111385   0.453   4.417  14.980  0.1934 -0.0662 -0.9648
  767MPD2    H711386   0.427   4.477  15.058 -1.3562 -1.2283 -0.5883
  768MPD2     C11387   1.152   2.520  11.238  0.1515  0.0214 -0.4238
  768MPD2    C111388   1.229   2.632  11.260  0.1896 -0.1740  0.4818
  768MPD2    C211389   1.355   2.623  11.307  0.3332 -0.0246  0.0828
  768MPD2    C311390   1.409   2.500  11.339  0.6417 -0.2993 -0.2562
  768MPD2    C411391   1.328   2.387  11.334  0.3428 -0.4948  1.0101
  768MPD2    C511392   1.202   2.400  11.284 -0.6655 -0.7925 -0.8863
  768MPD2     H11393   1.419   2.710  11.314  0.7615 -0.2522 -1.0620
  768MPD2    H111394   1.367   2.288  11.354  1.1966  0.0515  2.0382
  768MPD2    H211395   1.055   2.518  11.189  0.7412  1.3128 -1.6550
  768MPD2    H311396   1.142   2.311  11.268 -1.1154 -0.9815  1.8268
  768MPD2     N11397   1.542   2.478  11.386  0.1352  0.3305 -0.4073
  768MPD2    H511398   1.555   2.381  11.414 -0.4002  0.2994 -0.2679
  768MPD2    N111399   1.183   2.762  11.229  0.0819  0.0072 -0.1524
  768MPD2    H711400   1.241   2.839  11.263  2.0235 -1.2278 -0.6437
  769MPD2     C11401   2.153   0.442  15.750 -0.3524 -0.1684 -0.2855
  769MPD2    C111402   2.132   0.535  15.649  0.1052 -0.4834 -0.3810
  769MPD2    C211403   2.179   0.663  15.680 -0.0362 -0.2863 -0.7814
  769MPD2    C311404   2.230   0.702  15.802  0.4681 -0.3405  0.0084
  769MPD2    C411405   2.243   0.606  15.896 -0.0613  0.0982  0.0653
  769MPD2    C511406   2.207   0.477  15.874 -1.0277 -0.4036  0.3003
  769MPD2     H11407   2.186   0.738  15.601 -2.8133  1.4169  0.5718
  769MPD2    H111408   2.289   0.625  15.992  1.5126 -0.1406 -0.6539
  769MPD2    H211409   2.134   0.337  15.736 -1.1031  0.1406 -1.5939
  769MPD2    H311410   2.231   0.403  15.950  1.5100  1.1591  0.9942
  769MPD2     N11411   2.271   0.838  15.827 -0.2959  0.0461  0.5415
  769MPD2    H511412   2.253   0.905  15.753  0.5894 -0.8501 -0.4811
  769MPD2    N111413   2.074   0.485  15.526 -0.0221  0.6645 -0.4395
  769MPD2    H711414   2.061   0.385  15.517  2.5229  0.1603  1.4495
  770MPD2     C11415   2.117   4.465  14.937 -0.5387 -0.1775 -0.1496
  770MPD2    C111416   1.987   4.469  14.976 -0.2283 -0.5756  0.6361
  770MPD2    C211417   1.940   4.582  15.034  0.2038 -0.4234 -0.2274
  770MPD2    C311418   2.026   4.689  15.058 -0.5134 -0.1916 -1.2111
  770MPD2    C411419   2.152   4.691  15.007 -0.1483  1.1836  0.2913
  770MPD2    C511420   2.198   4.574  14.946  0.3642 -0.0044  0.9841
  770MPD2     H11421   1.840   4.599  15.070  1.3886 -0.1451  2.8968
  770MPD2    H111422   2.216   0.036  15.013  2.7902 -0.8477 -1.2419
  770MPD2    H211423   2.158   4.371  14.901 -1.9683 -0.6505 -0.5676
  770MPD2    H311424   2.295   4.579  14.897 -0.1661 -0.7216 -0.1340
  770MPD2     N11425   1.972   0.063  15.120  0.3343  0.1660 -0.3893
  770MPD2    H511426   1.872   0.074  15.114  0.2947 -0.6306 -1.2709
  770MPD2    N111427   1.919   4.350  14.969 -0.9390  0.1544  0.1953
  770MPD2    H711428   1.975   4.266  14.965 -2.1165 -0.5713 -1.0098
  771MPD2     C11429   3.092   3.411  13.850 -0.4129 -0.2691 -0.2004
  771MPD2    C111430   3.022   3.489  13.762  0.1038 -0.1764 -0.4595
  771MPD2    C211431   2.895   3.440  13.735  0.1495  0.3778  0.7878
  771MPD2    C311432   2.844   3.322  13.779  0.2811 -0.3726  0.0054
  771MPD2    C411433   2.915   3.251  13.870 -0.1503  0.4388 -0.4396
  771MPD2    C511434   3.035   3.304  13.913 -0.1521 -0.5017 -0.1576
  771MPD2     H11435   2.845   3.499  13.658  0.8915 -0.3854 -0.2871
  771MPD2    H111436   2.881   3.158  13.915 -2.7139  1.1041 -0.9959
  771MPD2    H211437   3.188   3.434  13.896  0.2228 -0.8961 -1.2048
  771MPD2    H311438   3.089   3.247  13.988 -0.1650  0.2551  0.4383
  771MPD2     N11439   2.723   3.274  13.735  0.4492 -0.1162 -0.2781
  771MPD2    H511440   2.677   3.339  13.672  2.0979  1.3072 -0.0240
  771MPD2    N111441   3.069   3.608  13.701  0.0248 -0.2828 -0.2150
  771MPD2    H711442   3.005   3.639  13.628  1.9343 -1.3544 -2.3361
  772MPD2     C11443   2.734   4.168  13.441 -0.3158 -0.2549  0.0687
  772MPD2    C111444   2.765   4.124  13.564  0.4916  0.1213 -0.4336
  772MPD2    C211445   2.675   4.137  13.665  0.4520 -0.6218  0.0564
  772MPD2    C311446   2.550   4.197  13.640 -0.2407  0.6222  0.9758
  772MPD2    C411447   2.526   4.249  13.517 -0.5098 -0.1347 -0.0730
  772MPD2    C511448   2.609   4.229  13.412 -0.3988 -0.1729  0.3641
  772MPD2     H11449   2.698   4.109  13.767  0.2914 -3.9996 -0.8523
  772MPD2    H111450   2.440   4.310  13.492 -1.3117 -1.3832 -0.3361
  772MPD2    H211451   2.788   4.143  13.350 -1.1004 -2.0497  0.0920
  772MPD2    H311452   2.593   4.263  13.310  0.3211 -3.5141 -0.8556
  772MPD2     N11453   2.463   4.207  13.745 -0.0404 -0.1662 -0.1202
  772MPD2    H511454   2.378   4.258  13.723 -1.2046 -0.7653  3.0225
  772MPD2    N111455   2.888   4.059  13.596 -0.4717 -0.2633 -0.9321
  772MPD2    H711456   2.881   4.016  13.688  1.8989  0.7073 -0.3099
  773MPD2     C11457   2.110   0.668   0.262 -0.2131 -0.1560 -0.2045
  773MPD2    C111458   2.102   0.533   0.221  0.7642 -0.4709  0.6967
  773MPD2    C211459   2.180   0.433   0.283 -0.1331  0.1284 -0.1250
  773MPD2    C311460   2.268   0.471   0.375 -0.6688  0.1960 -0.2401
  773MPD2    C411461   2.281   0.604   0.409 -0.4866 -0.3391 -0.5597
  773MPD2    C511462   2.211   0.699   0.348 -0.4957  0.2414  0.0096
  773MPD2     H11463   2.177   0.327   0.264 -0.0368  0.2456 -0.7843
  773MPD2    H111464   2.352   0.646   0.479  0.6604  0.2321 -2.0597
  773MPD2    H211465   2.032   0.739   0.237 -0.8697 -0.5681  0.6550
  773MPD2    H311466   2.213   0.794   0.401 -0.3809 -0.1395  0.6787
  773MPD2     N11467   2.347   0.371   0.443  1.0124 -0.1273  0.0355
  773MPD2    H511468   2.329   0.275   0.414  1.4311  0.0937 -0.9799
  773MPD2    N111469   2.013   0.490   0.121 -0.1072 -0.0334 -0.5547
  773MPD2    H711470   2.005   0.389   0.123  1.3640 -0.1412 -0.1654
  774MPD2     C11471   1.314   4.115  13.553  0.1597 -0.2483  0.0213
  774MPD2    C111472   1.339   4.212  13.645 -0.6304  0.3467 -1.0227
  774MPD2    C211473   1.453   4.283  13.633  0.1198 -0.6727  0.3401
  774MPD2    C311474   1.558   4.245  13.552 -0.3339  0.7624  0.5833
  774MPD2    C411475   1.536   4.146  13.467 -0.2383 -0.1003  0.5010
  774MPD2    C511476   1.411   4.090  13.450  0.2664 -0.2553 -0.1169
  774MPD2     H11477   1.476   4.367  13.698  0.2706  0.3931 -1.0861
  774MPD2    H111478   1.619   4.112  13.406 -1.1734  2.2535 -2.0949
  774MPD2    H211479   1.214   4.073  13.544  0.7237 -1.5106 -0.3684
  774MPD2    H311480   1.394   4.009  13.381 -0.0514  0.2408 -0.6219
  774MPD2     N11481   1.682   4.321  13.555  0.3611 -0.1756 -0.0815
  774MPD2    H511482   1.691   4.405  13.612  0.2634 -0.5316  0.4489
  774MPD2    N111483   1.238   4.244  13.736 -0.0588  0.5419  0.6278
  774MPD2    H711484   1.159   4.181  13.735  0.6869 -0.3988  0.9840
  775MPD2     C11485   2.975   0.640  16.062  0.4943  0.5050 -0.2907
  775MPD2    C111486   2.960   0.761  16.125 -0.3966  0.6674 -0.2310
  775MPD2    C211487   3.053   0.858  16.110  0.3517 -1.3064  0.2140
  775MPD2    C311488   3.169   0.837  16.034 -0.3938 -0.4153 -0.8782
  775MPD2    C411489   3.186   0.718  15.962  0.2379 -0.7981  0.1291
  775MPD2    C511490   3.089   0.617  15.985  0.3721  0.0890  0.2956
  775MPD2     H11491   3.043   0.942  16.177 -0.9589 -2.2886  1.2570
  775MPD2    H111492   3.279   0.692  15.912  0.3914 -3.3956  1.8008
  775MPD2    H211493   2.909   0.554  16.072  1.7379 -0.1880  1.7731
  775MPD2    H311494   3.103   0.515  15.951 -1.6724  0.1837 -0.7824
  775MPD2     N11495   3.276   0.922  16.024  0.1785 -0.6366  1.1223
  775MPD2    H511496   3.347   0.884  15.962  1.3340  0.7557  1.5744
  775MPD2    N111497   2.845   0.790  16.195  0.8251  0.1701 -0.3318
  775MPD2    H711498   2.788   0.708  16.208  2.1857 -0.8697 -0.8661
  776MPD2     C11499   1.415   1.521  11.566 -0.1649  0.0264  0.1112
  776MPD2    C111500   1.543   1.505  11.616 -0.1393 -0.3573  0.2815
  776MPD2    C211501   1.655   1.580  11.568  0.0293  0.0339  0.2713
  776MPD2    C311502   1.641   1.650  11.454  0.5895  0.0669  0.1181
  776MPD2    C411503   1.520   1.655  11.390  0.5225 -0.4488 -0.7107
  776MPD2    C511504   1.405   1.603  11.451 -0.4591 -0.2112  0.1209
  776MPD2     H11505   1.748   1.564  11.622  1.9752  1.1124 -2.7673
  776MPD2    H111506   1.511   1.696  11.290 -2.2226  0.5651 -0.0428
  776MPD2    H211507   1.324   1.477  11.605 -0.8883  2.1645  0.8390
  776MPD2    H311508   1.312   1.643  11.413 -0.8027 -1.6744 -0.5860
  776MPD2     N11509   1.756   1.703  11.387  0.7331  0.3506 -0.1091
  776MPD2    H511510   1.749   1.735  11.290 -1.2191 -0.4346 -0.2168
  776MPD2    N111511   1.566   1.410  11.716 -0.1896 -0.0759  0.4719
  776MPD2    H711512   1.481   1.375  11.761 -0.5778  0.1944 -0.0504
  777MPD2     C11513   2.705   4.090   0.935 -0.0854 -0.2655 -0.4129
  777MPD2    C111514   2.698   4.012   1.053 -0.1632 -0.8306  0.5288
  777MPD2    C211515   2.695   3.878   1.047 -0.3567  0.5595 -1.0176
  777MPD2    C311516   2.703   3.821   0.921 -0.3864 -0.4765 -0.4959
  777MPD2    C411517   2.698   3.890   0.805  0.0240  0.4276  0.1702
  777MPD2    C511518   2.706   4.027   0.809 -0.4130 -0.3431 -0.3649
  777MPD2     H11519   2.700   3.814   1.134  0.8639  1.0065 -0.7572
  777MPD2    H111520   2.688   3.852   0.704 -0.0243 -1.5876  0.9385
  777MPD2    H211521   2.717   4.198   0.931 -1.7155 -0.1492 -1.8428
  777MPD2    H311522   2.716   4.083   0.717 -0.5171  0.4610  0.1129
  777MPD2     N11523   2.706   3.679   0.928  0.4560 -0.1335  0.5020
  777MPD2    H511524   2.732   3.637   1.017  0.0940 -1.1936  0.1089
  777MPD2    N111525   2.691   4.084   1.179  0.0840  0.1556 -0.1518
  777MPD2    H711526   2.692   4.186   1.174 -0.6640  0.1442 -0.5546
  778MPD2     C11527   3.077   3.935  15.111 -0.5723 -0.3422 -0.2021
  778MPD2    C111528   3.086   3.822  15.025 -0.2135  0.4507 -0.0035
  778MPD2    C211529   3.157   3.839  14.906  0.0642  0.1055 -0.0760
  778MPD2    C311530   3.204   3.965  14.872  0.1894  0.2842 -0.3783
  778MPD2    C411531   3.186   4.075  14.957  0.4760 -0.1723  0.3186
  778MPD2    C511532   3.119   4.062  15.072 -0.1231 -0.6761 -0.1097
  778MPD2     H11533   3.177   3.756  14.839 -0.5705 -0.2136  0.1308
  778MPD2    H111534   3.229   4.174  14.948 -0.7281  0.3046 -0.1938
  778MPD2    H211535   3.028   3.929  15.208 -1.8538 -2.2069 -0.9665
  778MPD2    H311536   3.124   4.150  15.136  2.6209 -1.2886  0.5157
  778MPD2     N11537   3.286   3.972  14.755 -0.3780 -0.0996  0.3585
  778MPD2    H511538   3.319   3.887  14.710  1.7905  0.4889  0.8645
  778MPD2    N111539   3.039   3.696  15.067  0.9281  0.7423  0.4312
  778MPD2    H711540   3.031   3.623  14.996  2.9592  0.8700  0.0947
  779MPD2     C11541   2.534   2.557  14.852  0.8380  0.1304  0.1464
  779MPD2    C111542   2.656   2.495  14.813 -0.1625  0.2764  0.4375
  779MPD2    C211543   2.754   2.564  14.749  0.6556 -0.3478 -0.0805
  779MPD2    C311544   2.749   2.697  14.723 -0.2409  0.7283 -0.0769
  779MPD2    C411545   2.633   2.760  14.768  0.2145 -0.0710  0.9903
  779MPD2    C511546   2.528   2.690  14.830  0.3447  0.2380  0.1874
  779MPD2     H11547   2.838   2.512  14.704  2.1065  0.6971  1.4318
  779MPD2    H111548   2.606   2.865  14.760 -0.1359 -0.1853  0.6499
  779MPD2    H211549   2.454   2.508  14.907  0.0002 -0.5359 -1.6624
  779MPD2    H311550   2.440   2.748  14.858  0.9152  0.9154  0.5613
  779MPD2     N11551   2.864   2.754  14.665 -0.2997  0.4951 -0.6759
  779MPD2    H511552   2.950   2.702  14.680 -0.1393  0.7120 -0.8487
  779MPD2    N111553   2.663   2.355  14.815 -0.3642  0.3268 -0.4353
  779MPD2    H711554   2.735   2.302  14.767  0.7781  2.8411 -1.4758
  780MPD2     C11555   2.836   2.486   0.995  0.6583 -0.4228  0.0078
  780MPD2    C111556   2.794   2.542   0.873 -0.5613 -0.1201 -0.3904
  780MPD2    C211557   2.877   2.637   0.818  0.4166  0.1444 -0.6028
  780MPD2    C311558   2.993   2.674   0.880  0.0779 -0.3124 -0.3772
  780MPD2    C411559   3.025   2.625   1.010  0.0202  0.5707 -0.2908
  780MPD2    C511560   2.949   2.528   1.065 -0.5529  0.0795 -0.2075
  780MPD2     H11561   2.860   2.670   0.716 -2.2702 -1.6021 -0.7033
  780MPD2    H111562   3.112   2.659   1.065  1.6099 -0.0536 -2.3914
  780MPD2    H211563   2.776   2.403   1.032  0.9484  0.0748  1.6234
  780MPD2    H311564   2.970   2.495   1.166  0.4141  2.8526  0.5109
  780MPD2     N11565   3.090   2.751   0.811  0.3343  0.0539  0.1701
  780MPD2    H511566   3.067   2.760   0.713 -1.1343 -0.3926  0.4720
  780MPD2    N111567   2.676   2.499   0.805 -0.3430  0.3286 -0.1593
  780MPD2    H711568   2.656   2.401   0.821 -1.0378  0.6039  0.6431
  781MPD2     C11569   3.995   4.224  12.212 -0.0991 -0.0055  0.0153
  781MPD2    C111570   4.065   4.112  12.200  0.2270 -0.1916  0.0516
  781MPD2    C211571   4.145   4.088  12.091  0.2153 -0.3099  0.2891
  781MPD2    C311572   4.157   4.190  11.998  0.4671  0.9188 -0.1783
  781MPD2    C411573   4.090   4.314  12.016 -0.3342  0.8365  0.0092
  781MPD2    C511574   4.012   4.325  12.128 -0.2565  0.1347  0.0726
  781MPD2     H11575   4.191   3.992  12.075  0.5260 -0.2083  0.5780
  781MPD2    H111576   4.098   4.399  11.949 -1.7682 -0.0739 -1.2897
  781MPD2    H211577   3.932   4.240  12.299 -0.7401  0.0587 -0.4608
  781MPD2    H311578   3.968   4.423  12.140  0.6804  0.4858  0.6760
  781MPD2     N11579   4.236   4.163  11.886  0.2478 -0.4689 -0.1752
  781MPD2    H511580   4.266   4.066  11.878  0.7176 -0.3065 -0.4013
  781MPD2    N111581   4.053   4.008  12.298 -0.1162 -0.3314 -0.5497
  781MPD2    H711582   4.122   3.933  12.297 -1.1006 -1.2378  2.1925
  782MPD2     C11583   1.835   0.288  10.724  0.5686  0.5122 -0.7020
  782MPD2    C111584   1.966   0.258  10.760  0.5244 -0.0374 -0.0071
  782MPD2    C211585   2.050   0.366  10.791 -0.1745  0.2689 -0.6974
  782MPD2    C311586   2.010   0.494  10.777 -0.5445 -0.3534  0.0309
  782MPD2    C411587   1.888   0.523  10.721  0.0879 -1.3782  0.8262
  782MPD2    C511588   1.802   0.416  10.690 -0.1194  0.2855 -0.1692
  782MPD2     H11589   2.154   0.349  10.816 -0.4218 -0.0230  0.1501
  782MPD2    H111590   1.842   0.618  10.699  2.4753 -0.7288 -1.3845
  782MPD2    H211591   1.760   0.209  10.718  2.0777 -0.9915  0.4852
  782MPD2    H311592   1.706   0.433  10.642 -0.6509 -0.3535  0.6786
  782MPD2     N11593   2.108   0.592  10.805 -0.6931  0.0597 -0.1674
  782MPD2    H511594   2.194   0.554  10.843 -1.0383 -0.3955  0.1610
  782MPD2    N111595   1.995   0.125  10.790 -0.4622  0.1807  0.5096
  782MPD2    H711596   1.923   0.053  10.786  1.4699 -1.7732  0.5378
  783MPD2     C11597   2.067   4.478  11.592 -0.0926 -0.0140 -0.3739
  783MPD2    C111598   2.102   4.602  11.548 -0.1492 -0.4085  0.1965
  783MPD2    C211599   2.082   4.627  11.416  0.3072  0.5912 -0.1469
  783MPD2    C311600   2.042   4.528  11.327  0.5801  0.6063 -0.3573
  783MPD2    C411601   2.000   4.403  11.378  0.0080  0.0457 -0.2912
  783MPD2    C511602   2.021   4.382  11.510 -0.3558  0.4871  0.0763
  783MPD2     H11603   2.107   4.724  11.374 -0.0596  0.4980 -0.5801
  783MPD2    H111604   1.964   4.314  11.327  1.5996 -0.8895  0.2263
  783MPD2    H211605   2.081   4.443  11.694  0.0830  1.1897  0.0176
  783MPD2    H311606   1.991   4.288  11.555  1.8581 -0.4283 -0.3799
  783MPD2     N11607   2.050   4.558  11.193  0.3907  0.2674  0.2331
  783MPD2    H511608   2.067   4.654  11.166 -0.2517  0.3930  0.2892
  783MPD2    N111609   2.147   4.698  11.646 -0.2335 -0.5094  0.3631
  783MPD2    H711610   2.140   4.672  11.744  2.6092 -1.5322  0.2979
  784MPD2     C11611   0.425   0.846   0.642  0.3480  0.0370 -0.0241
  784MPD2    C111612   0.477   0.976   0.653 -0.0744 -0.4796 -0.8288
  784MPD2    C211613   0.403   1.079   0.594 -0.0199  0.3266 -0.7394
  784MPD2    C311614   0.290   1.044   0.523  1.0281  0.0019  0.1697
  784MPD2    C411615   0.251   0.912   0.505 -0.1430 -0.0833  0.6479
  784MPD2    C511616   0.322   0.810   0.560  0.3067  0.1914  0.9185
  784MPD2     H11617   0.433   1.181   0.613  0.8906 -0.7742  3.7965
  784MPD2    H111618   0.174   0.885   0.433  0.8243 -1.5142  0.1497
  784MPD2    H211619   0.477   0.763   0.687  0.9941  1.5462  2.0263
  784MPD2    H311620   0.302   0.704   0.548  1.3638 -0.0742  1.4703
  784MPD2     N11621   0.208   1.149   0.466  0.6933 -0.6419  0.3987
  784MPD2    H511622   0.240   1.245   0.468  1.7380 -0.9512 -1.1189
  784MPD2    N111623   0.586   1.009   0.736  0.3237  0.0879  1.0058
  784MPD2    H711624   0.604   1.105   0.765  1.0430 -0.2709  1.7375
  785MPD2     C11625   0.221   3.002  11.244  0.6929 -0.0297 -0.4528
  785MPD2    C111626   0.105   3.074  11.227 -0.0178 -0.3078 -0.5951
  785MPD2    C211627   4.737   3.020  11.157  0.1055 -0.0013  0.2710
  785MPD2    C311628   4.741   2.897  11.106  0.2507 -0.3337  0.0732
  785MPD2    C411629   0.110   2.820  11.121  0.6120 -0.0717  0.7652
  785MPD2    C511630   0.219   2.873  11.198 -0.3575  0.8028 -0.7803
  785MPD2     H11631   4.655   3.086  11.132  1.4818  2.6988  2.8455
  785MPD2    H111632   0.104   2.721  11.078  0.6844  0.1671  0.1978
  785MPD2    H211633   0.307   3.025  11.306 -1.1645  2.1099  1.2782
  785MPD2    H311634   0.302   2.803  11.197 -0.2923  0.8488  1.5836
  785MPD2     N11635   4.632   2.865  11.027  0.2156 -0.6662  0.6834
  785MPD2    H511636   4.557   2.933  11.036  1.2822  0.8733 -2.0666
  785MPD2    N111637   0.118   3.212  11.262 -0.3030  0.0057  0.6866
  785MPD2    H711638   0.210   3.250  11.283  0.9184 -2.6858  0.1965
  786MPD2     C11639   3.540   1.923  14.760 -0.5124  0.0201  0.5145
  786MPD2    C111640   3.636   1.823  14.780  0.6740  0.1748 -0.8776
  786MPD2    C211641   3.704   1.825  14.896 -0.1844 -0.2223  0.1561
  786MPD2    C311642   3.678   1.924  14.995  0.3509  0.0187 -0.1946
  786MPD2    C411643   3.577   2.024  14.975  0.1459 -0.2830  0.1721
  786MPD2    C511644   3.512   2.024  14.852  0.2621  0.2992  0.7500
  786MPD2     H11645   3.780   1.750  14.914 -0.7247 -0.7598  0.2326
  786MPD2    H111646   3.555   2.101  15.048  2.3166 -1.2123  1.8321
  786MPD2    H211647   3.488   1.940  14.666 -0.6405 -0.0808  0.5685
  786MPD2    H311648   3.427   2.090  14.839 -1.2546 -1.4712  1.7125
  786MPD2     N11649   3.774   1.942  15.094 -0.1357  0.2316 -0.2064
  786MPD2    H511650   3.755   2.014  15.164 -0.0038  0.6866 -0.6368
  786MPD2    N111651   3.668   1.727  14.680  0.2988 -0.0648  0.0117
  786MPD2    H711652   3.742   1.666  14.714  0.2680 -0.3619 -0.4574
  787MPD2     C11653   4.042   1.189  14.593 -0.0067  0.2119  0.1998
  787MPD2    C111654   4.049   1.269  14.479  0.2720  0.4026 -0.2718
  787MPD2    C211655   4.143   1.240  14.385  0.3747  0.1807 -0.0052
  787MPD2    C311656   4.230   1.141  14.403  0.2159 -0.6046  0.1039
  787MPD2    C411657   4.222   1.066  14.515  0.3983 -0.1075 -0.3286
  787MPD2    C511658   4.129   1.087  14.608  0.3025 -0.2344 -0.5784
  787MPD2     H11659   4.155   1.291  14.290  1.8916 -1.4611 -0.7006
  787MPD2    H111660   4.286   0.981  14.538  0.9228  0.6293  0.9334
  787MPD2    H211661   3.981   1.212  14.680 -2.6208  0.1196 -1.6008
  787MPD2    H311662   4.126   1.022  14.695 -1.3513  0.7605  0.1173
  787MPD2     N11663   4.325   1.115  14.303 -0.5317 -0.7012  0.2312
  787MPD2    H511664   4.321   1.181  14.226  0.6999  0.0613  0.8186
  787MPD2    N111665   3.944   1.350  14.463 -0.1918  0.0081 -0.3321
  787MPD2    H711666   3.877   1.365  14.537 -1.1177  0.1540 -1.1962
  788MPD2     C11667   1.450   0.971   0.867 -0.1542  0.9882 -0.4202
  788MPD2    C111668   1.381   0.898   0.767  0.7410 -0.1496 -0.8229
  788MPD2    C211669   1.269   0.954   0.716  0.2923 -0.1007 -0.4138
  788MPD2    C311670   1.234   1.091   0.738 -0.8914  0.4556  0.3108
  788MPD2    C411671   1.303   1.163   0.832 -0.3751  0.0238 -0.1094
  788MPD2    C511672   1.407   1.102   0.899 -0.1429  0.5523  0.2437
  788MPD2     H11673   1.212   0.893   0.648  1.7094 -1.5325 -0.3168
  788MPD2    H111674   1.282   1.265   0.863  1.4742  0.5246 -0.4700
  788MPD2    H211675   1.537   0.943   0.926 -0.5281 -1.6328 -1.0889
  788MPD2    H311676   1.458   1.156   0.978 -2.5117 -0.9806  2.8163
  788MPD2     N11677   1.123   1.151   0.676 -0.3610  0.1630 -1.1110
  788MPD2    H511678   1.127   1.252   0.686 -0.1077  0.0714 -0.2813
  788MPD2    N111679   1.422   0.770   0.728 -0.1325  0.1499 -0.7281
  788MPD2    H711680   1.380   0.728   0.646  1.1037  0.8445 -1.7111
  789MPD2     C11681   1.303   4.511  16.631 -0.2679 -0.3854 -0.2271
  789MPD2    C111682   1.182   4.548  16.589 -0.1165  0.0065 -0.1262
  789MPD2    C211683   1.116   4.654  16.648  0.4242  0.2274  0.4144
  789MPD2    C311684   1.177   4.721  16.748 -0.1863 -0.6061  0.1721
  789MPD2    C411685   1.291   4.671  16.800 -0.8927 -0.2516  0.4021
  789MPD2    C511686   1.358   4.566  16.740  0.0505 -0.2954  0.0409
  789MPD2     H11687   1.027   4.692  16.600 -0.3656  2.2500  3.4486
  789MPD2    H111688   1.331   4.713  16.892 -1.7899  0.4112  0.4874
  789MPD2    H211689   1.360   4.434  16.579  1.1128  0.0552  0.6373
  789MPD2    H311690   1.452   4.535  16.786 -0.0941  1.0159  1.1954
  789MPD2     N11691   1.125   0.099  16.804 -0.8221 -0.5007  0.1782
  789MPD2    H511692   1.167   0.139  16.888 -0.1642  1.0793 -0.9172
  789MPD2    N111693   1.113   4.480  16.483  0.0553  0.6893 -0.3188
  789MPD2    H711694   1.027   4.526  16.451 -0.5748  0.1492  0.6131
  790MPD2     C11695   1.985   0.886  14.210  0.0727 -0.1805  0.5182
  790MPD2    C111696   2.111   0.864  14.160 -0.1656 -0.2224  0.2931
  790MPD2    C211697   2.127   0.890  14.026 -0.5975 -0.1236 -0.7687
  790MPD2    C311698   2.012   0.924  13.950  0.7610  0.6256  0.0590
  790MPD2    C411699   1.890   0.943  14.008 -0.7399  0.5563 -0.3169
  790MPD2    C511700   1.877   0.920  14.143 -0.1987  0.3001  0.2562
  790MPD2     H11701   2.227   0.894  13.986 -0.0983 -0.6400  0.4309
  790MPD2    H111702   1.805   0.979  13.952  0.1786  1.7568 -0.9441
  790MPD2    H211703   1.971   0.874  14.317  2.8141  0.3607  0.9396
  790MPD2    H311704   1.778   0.941  14.182 -0.5057  0.6364 -0.7149
  790MPD2     N11705   2.035   0.947  13.813  0.2387  0.2155  0.2229
  790MPD2    H511706   2.130   0.936  13.777 -0.2762 -1.9944 -0.4680
  790MPD2    N111707   2.214   0.825  14.247  0.2597  0.3148  0.1882
  790MPD2    H711708   2.188   0.803  14.342  1.2924 -0.1585  0.3664
  791MPD2     C11709   1.431   1.125  13.332  0.1278 -0.2282  0.7816
  791MPD2    C111710   1.536   1.071  13.265 -0.2195 -0.5270  0.3370
  791MPD2    C211711   1.508   0.991  13.153 -1.1615 -0.6448 -0.6047
  791MPD2    C311712   1.385   0.998  13.094  0.1714  0.1140  0.0034
  791MPD2    C411713   1.280   1.053  13.164  0.7588 -0.1123  0.2937
  791MPD2    C511714   1.309   1.111  13.281 -0.7544 -0.0440 -0.0927
  791MPD2     H11715   1.593   0.946  13.103  0.3619  0.1962  1.2319
  791MPD2    H111716   1.179   1.046  13.125 -0.1230 -0.9980  2.7372
  791MPD2    H211717   1.441   1.173  13.428 -0.0429 -0.1780  0.7730
  791MPD2    H311718   1.226   1.152  13.337  0.4845  0.8943  1.0581
  791MPD2     N11719   1.352   0.923  12.970 -0.2049 -0.0175 -0.4486
  791MPD2    H511720   1.418   0.852  12.939  1.5211  1.6927 -0.6992
  791MPD2    N111721   1.665   1.082  13.323 -0.6225 -0.2207 -0.2674
  791MPD2    H711722   1.676   1.146  13.401 -0.2470  0.6235 -1.0124
  792MPD2     C11723   2.189   1.308  11.225  0.2762  0.0412  0.8451
  792MPD2    C111724   2.090   1.376  11.161 -0.1318  0.9627 -0.3021
  792MPD2    C211725   1.970   1.389  11.216  0.3159 -0.2622 -0.1138
  792MPD2    C311726   1.936   1.321  11.330  0.5955 -0.1708 -0.6368
  792MPD2    C411727   2.031   1.255  11.403 -0.5716 -0.0284 -0.0503
  792MPD2    C511728   2.158   1.254  11.348 -0.3672  0.3180  0.0790
  792MPD2     H11729   1.901   1.451  11.161  0.1055 -0.0226  0.4167
  792MPD2    H111730   2.006   1.187  11.484 -1.7264  2.3824  1.6015
  792MPD2    H211731   2.293   1.310  11.194 -0.4707 -0.6679 -1.7482
  792MPD2    H311732   2.235   1.208  11.410  0.0823 -0.3298 -0.9609
  792MPD2     N11733   1.805   1.316  11.378  0.0517  0.1085 -0.9727
  792MPD2    H511734   1.786   1.278  11.470  4.1473  2.3759  0.8364
  792MPD2    N111735   2.125   1.430  11.035  0.2090 -0.3018  0.5817
  792MPD2    H711736   2.220   1.412  11.005  0.6785  1.0951  1.1989
  793MPD2     C11737   1.298   1.363  10.647 -0.7795 -0.3459 -0.4864
  793MPD2    C111738   1.406   1.286  10.680 -0.7002  0.8670  0.8136
  793MPD2    C211739   1.426   1.237  10.808 -0.1039  0.6195  0.4976
  793MPD2    C311740   1.331   1.261  10.909 -0.3808  0.5154  0.2626
  793MPD2    C411741   1.233   1.353  10.875  0.0931  0.5736 -0.0029
  793MPD2    C511742   1.214   1.395  10.747 -0.1195 -0.2411  0.0946
  793MPD2     H11743   1.503   1.165  10.835 -0.6732  0.2268  1.0891
  793MPD2    H111744   1.164   1.398  10.946  0.0547  0.8694 -0.2333
  793MPD2    H211745   1.287   1.409  10.549 -0.0077 -0.1187 -0.4677
  793MPD2    H311746   1.138   1.471  10.731 -0.6892 -0.8024  0.1525
  793MPD2     N11747   1.348   1.221  11.044  0.2394 -0.7009  0.7261
  793MPD2    H511748   1.292   1.254  11.122 -1.3396 -1.0370 -0.2667
  793MPD2    N111749   1.509   1.261  10.587  0.3931 -0.0484 -0.4957
  793MPD2    H711750   1.593   1.222  10.629  0.2554 -0.8849 -0.9966
  794MPD2     C11751   1.922   0.473  17.064 -0.1023  0.0758 -0.6846
  794MPD2    C111752   1.796   0.491  17.117 -0.3376  0.7146 -0.9599
  794MPD2    C211753   1.697   0.529  17.027 -0.3520 -0.3976  0.0251
  794MPD2    C311754   1.724   0.542  16.892 -0.1448  0.3248 -1.0490
  794MPD2    C411755   1.851   0.517  16.846  0.0885  0.1061  0.1609
  794MPD2    C511756   1.955   0.486  16.932 -0.0017  0.2837 -0.4866
  794MPD2     H11757   1.597   0.526  17.069  1.2535 -0.4915  3.8793
  794MPD2    H111758   1.866   0.511  16.739  2.3580 -0.9336  0.5245
  794MPD2    H211759   1.999   0.435  17.131 -1.3065 -0.3453  0.4477
  794MPD2    H311760   2.054   0.464  16.894 -0.0055 -1.2618  0.4032
  794MPD2     N11761   1.622   0.570  16.800  0.5259  0.2293 -0.3575
  794MPD2    H511762   1.637   0.541  16.704  1.1441  0.9402 -0.4776
  794MPD2    N111763   1.769   0.484  17.254 -0.0441  0.0929 -0.6504
  794MPD2    H711764   1.673   0.486  17.286 -0.0819 -0.9350 -0.6921
  795MPD2     C11765   3.676   2.733  13.650  0.8205  0.1486 -0.3597
  795MPD2    C111766   3.658   2.635  13.742  0.4817  0.5169 -0.5312
  795MPD2    C211767   3.759   2.559  13.773  0.3535 -0.3340 -0.3310
  795MPD2    C311768   3.889   2.582  13.719  0.1960 -0.0057 -0.7611
  795MPD2    C411769   3.906   2.672  13.617  0.6410 -0.6710 -0.5621
  795MPD2    C511770   3.799   2.749  13.586  0.4827  0.7707 -0.4919
  795MPD2     H11771   3.740   2.479  13.843 -1.2999  0.5629  0.2364
  795MPD2    H111772   3.996   2.696  13.562 -0.0098 -0.6028 -1.6062
  795MPD2    H211773   3.598   2.801  13.617  1.2072  1.1499  0.7829
  795MPD2    H311774   3.799   2.822  13.506  1.4294  1.6538  0.3145
  795MPD2     N11775   3.995   2.489  13.766 -0.0937 -0.1287  0.0250
  795MPD2    H511776   3.970   2.431  13.845  2.7362 -1.8044 -0.3000
  795MPD2    N111777   3.531   2.617  13.825  0.1033 -0.0052 -0.8726
  795MPD2    H711778   3.537   2.539  13.889 -0.1975 -0.9343 -1.9784
  796MPD2     C11779   3.683   4.001  16.127  0.1774  0.3540 -1.1883
  796MPD2    C111780   3.783   4.060  16.202  0.1976 -0.3146 -0.0911
  796MPD2    C211781   3.814   4.193  16.173 -0.7066  0.7255  0.4626
  796MPD2    C311782   3.744   4.262  16.076 -0.1948  0.3311 -0.0308
  796MPD2    C411783   3.643   4.203  16.006  0.5385  0.3404 -0.5226
  796MPD2    C511784   3.616   4.070  16.033 -0.1901 -0.4142 -0.0477
  796MPD2     H11785   3.886   4.240  16.239  0.4876  1.0021 -1.0563
  796MPD2    H111786   3.573   4.252  15.939  0.9984  1.7664  0.0333
  796MPD2    H211787   3.649   3.898  16.135 -0.1554  0.5853  0.4321
  796MPD2    H311788   3.540   4.027  15.969 -0.8885 -0.4310  0.8042
  796MPD2     N11789   3.778   4.402  16.065 -0.5528 -1.0662 -0.5667
  796MPD2    H511790   3.851   4.438  16.126 -1.2733 -1.9034  0.8030
  796MPD2    N111791   3.839   3.975  16.309 -0.0934 -0.1395 -0.1591
  796MPD2    H711792   3.813   3.878  16.321 -1.0302  0.3026  1.3507
  797MPD2     C11793   0.553   3.915  17.712  0.4213 -0.2763 -0.1617
  797MPD2    C111794   0.515   4.042  17.717 -0.1652  0.2973 -0.4980
  797MPD2    C211795   0.406   4.078  17.638 -0.4295 -0.1337 -0.5046
  797MPD2    C311796   0.331   3.986  17.561  0.4448 -0.3432 -0.5091
  797MPD2    C411797   0.368   3.852  17.568  0.6261 -0.5557 -0.4328
  797MPD2    C511798   0.475   3.817  17.644  0.4664  0.7490 -0.2348
  797MPD2     H11799   0.390   4.185  17.633 -2.4825 -0.4755 -1.3570
  797MPD2    H111800   0.316   3.773  17.515 -2.7670  0.5006  1.2559
  797MPD2    H211801   0.642   3.876  17.759  1.0967 -1.3739 -2.3370
  797MPD2    H311802   0.504   3.713  17.643 -1.8803  0.0879 -0.6293
  797MPD2     N11803   0.223   4.038  17.496  0.8536  1.2357 -0.9456
  797MPD2    H511804   0.207   4.138  17.504 -1.0013  0.7063  1.9374
  797MPD2    N111805   0.593   4.144   0.023 -0.4925 -0.4125 -0.1865
  797MPD2    H711806   0.565   4.240   0.006 -0.5621 -0.4352 -0.1977
  798MPD2     C11807   0.216   4.706  17.571 -0.1717 -0.3177  0.3711
  798MPD2    C111808   0.238   4.568  17.554  0.1473 -0.6683 -0.1097
  798MPD2    C211809   0.362   4.515  17.602 -0.0683  0.1117  0.6200
  798MPD2    C311810   0.450   4.595  17.676 -0.1533 -0.0081 -0.5253
  798MPD2    C411811   0.417   4.729  17.692 -0.1414  0.2433 -0.0726
  798MPD2    C511812   0.310   0.042  17.637  1.0177  0.1587  0.5434
  798MPD2     H11813   0.386   4.410  17.595 -2.0119 -0.1823 -1.3377
  798MPD2    H111814   0.476   0.058  17.749  1.8281 -1.6057  0.1865
  798MPD2    H211815   0.129   0.014  17.530 -0.4901 -3.1752 -2.4240
  798MPD2    H311816   0.297   0.150  17.639  1.7775  0.2265  1.7992
  798MPD2     N11817   0.565   4.533  17.729  0.5398  0.3883 -0.7967
  798MPD2    H511818   0.583   4.440  17.695  1.0092 -0.3777  1.5279
  798MPD2    N111819   0.150   4.497  17.472 -0.3074 -0.2032  0.0580
  798MPD2    H711820   0.076   4.555  17.434 -0.3211  0.5467  1.2103
  799MPD2     C11821   4.087   0.530  14.805  0.3600  0.0201  0.3661
  799MPD2    C111822   3.964   0.501  14.755 -0.2750 -0.6821 -0.0977
  799MPD2    C211823   3.898   0.599  14.676 -0.1339 -0.1480 -0.2995
  799MPD2    C311824   3.961   0.722  14.657  0.6153 -0.1068 -0.1813
  799MPD2    C411825   4.086   0.746  14.708 -0.6179  0.5424  0.3938
  799MPD2    C511826   4.154   0.649  14.775 -0.6915 -0.4217  0.3584
  799MPD2     H11827   3.804   0.572  14.630  0.0730 -0.7359 -0.3891
  799MPD2    H111828   4.147   0.832  14.685 -0.6100  0.2699 -0.6127
  799MPD2    H211829   4.145   0.461  14.865  1.4473 -0.9956 -1.8424
  799MPD2    H311830   4.259   0.667  14.794 -1.1454  1.5776  0.9769
  799MPD2     N11831   3.909   0.827  14.574 -0.0175 -0.2356  0.1587
  799MPD2    H511832   3.977   0.894  14.539 -0.9886  0.8174  0.2814
  799MPD2    N111833   3.906   0.369  14.775  0.4989 -0.3043  0.0805
  799MPD2    H711834   3.835   0.354  14.704  1.0862  1.9732 -0.9885
  800MPD2     C11835   3.946   1.902  14.540  0.4961 -0.1170 -0.4399
  800MPD2    C111836   4.038   1.830  14.465 -0.3989 -0.1343  0.0331
  800MPD2    C211837   4.004   1.766  14.347  0.3091  0.0134 -0.2411
  800MPD2    C311838   3.880   1.788  14.290  0.1982 -0.2749  0.6917
  800MPD2    C411839   3.795   1.879  14.352  0.4929 -1.0099  0.2429
  800MPD2    C511840   3.828   1.931  14.475 -0.0325 -0.2021 -0.3298
  800MPD2     H11841   4.068   1.701  14.289  0.4885  0.7757 -0.8920
  800MPD2    H111842   3.697   1.900  14.312  1.3438  1.8068 -0.3847
  800MPD2    H211843   3.964   1.944  14.638  0.6257  1.8602 -1.3140
  800MPD2    H311844   3.746   1.973  14.533 -0.1371 -3.3327  1.7765
  800MPD2     N11845   3.866   1.735  14.160  0.1109 -0.8831  0.3571
  800MPD2    H511846   3.942   1.698  14.103 -0.7400 -0.5897 -0.9514
  800MPD2    N111847   4.167   1.814  14.518 -0.3996 -0.3028  0.3302
  800MPD2    H711848   4.192   1.870  14.599  2.6328  1.6247 -1.9575
  801MPD2     C11849   4.123   2.385  14.244  0.1096  0.1849  0.0812
  801MPD2    C111850   4.147   2.300  14.350  0.6083  0.2558  1.2243
  801MPD2    C211851   4.072   2.312  14.461 -0.3969  0.0135  0.5562
  801MPD2    C311852   3.973   2.405  14.478  0.2388 -0.2416  0.0038
  801MPD2    C411853   3.951   2.485  14.372 -0.1311 -0.0010  0.0311
  801MPD2    C511854   4.022   2.476  14.255  0.5323  0.3636  0.2018
  801MPD2     H11855   4.085   2.229  14.530 -1.1418  0.3746  1.1214
  801MPD2    H111856   3.870   2.557  14.362 -0.7397 -1.0778 -3.0210
  801MPD2    H211857   4.180   2.387  14.152 -1.4039  0.6941 -0.8387
  801MPD2    H311858   4.011   2.534  14.164 -4.1464  1.3414  1.4019
  801MPD2     N11859   3.915   2.425  14.604 -0.3558  0.2951 -0.3082
  801MPD2    H511860   3.869   2.516  14.612  0.6552  0.8190 -0.4916
  801MPD2    N111861   4.246   2.201  14.348  0.4276  0.3520  0.5226
  801MPD2    H711862   4.236   2.135  14.425 -0.3547  2.0518  1.8771
  802MPD2     C11863   3.160   3.402  17.518  0.8149 -0.1827 -0.2739
  802MPD2    C111864   3.196   3.385  17.654  0.1830  0.3437  0.2326
  802MPD2    C211865   3.244   3.264  17.694 -0.3473  0.2239  0.5628
  802MPD2    C311866   3.239   3.153  17.611 -0.8562 -0.3747  0.3745
  802MPD2    C411867   3.174   3.158  17.492  0.7174 -0.0397 -0.0799
  802MPD2    C511868   3.146   3.283  17.450  0.1423 -0.3005  0.0457
  802MPD2     H11869   3.280   3.250   0.032  0.3482 -0.0140  0.2842
  802MPD2    H111870   3.170   3.077  17.420 -1.2580  1.0008 -1.1640
  802MPD2    H211871   3.103   3.487  17.484  2.2172  0.7995 -0.1647
  802MPD2    H311872   3.106   3.282  17.349 -1.3922  1.0376  0.6332
  802MPD2     N11873   3.302   3.043  17.669 -0.3575  0.0329  0.6930
  802MPD2    H511874   3.366   3.055  17.747 -0.3638  2.4223  0.3312
  802MPD2    N111875   3.154   3.484  17.748  0.1510  0.1466 -0.3853
  802MPD2    H711876   3.162   3.464   0.084  1.2766 -0.0856 -0.5316
  803MPD2     C11877   4.509   1.102  11.964  0.1133 -0.2907  0.2084
  803MPD2    C111878   4.608   1.187  12.004 -0.4511 -1.0060  0.0717
  803MPD2    C211879   4.680   1.146  12.114  0.1120  0.4189 -0.5857
  803MPD2    C311880   4.670   1.019  12.171  0.8639 -0.0490  0.9807
  803MPD2    C411881   4.582   0.927  12.112 -0.5970  0.4727 -0.0613
  803MPD2    C511882   4.504   0.974  12.007  0.3758 -0.7276  0.6275
  803MPD2     H11883   0.012   1.215  12.153 -0.2964  1.0282 -0.8849
  803MPD2    H111884   4.565   0.830  12.158  1.2681  0.0328 -0.3020
  803MPD2    H211885   4.450   1.123  11.875  1.0008 -3.6928 -1.1910
  803MPD2    H311886   4.420   0.912  11.977  0.8659 -1.6207  1.1033
  803MPD2     N11887   4.722   0.981  12.295 -0.1991  0.4142 -0.7225
  803MPD2    H511888   4.681   0.897  12.334  1.1022 -0.3905 -1.0808
  803MPD2    N111889   4.639   1.318  11.952  0.5211 -0.1189  0.2936
  803MPD2    H711890   4.735   1.344  11.973 -0.1788  1.5132  1.4504
  804MPD2     C11891   4.555   2.710  17.096 -0.2918 -0.0844  0.0958
  804MPD2    C111892   4.464   2.739  17.201  0.1278 -0.1244 -0.4507
  804MPD2    C211893   4.480   2.856  17.267 -0.1931  1.0277 -0.2729
  804MPD2    C311894   4.574   2.951  17.222 -0.0795 -0.5829 -0.0395
  804MPD2    C411895   4.637   2.928  17.100  0.6994  0.6255  0.2217
  804MPD2    C511896   4.642   2.805  17.048 -0.3909 -0.1318  0.1021
  804MPD2     H11897   4.416   2.880  17.351  1.1238  1.8313  0.5097
  804MPD2    H111898   4.695   3.011  17.061  0.2964  0.8495  0.0974
  804MPD2    H211899   4.563   2.614  17.048 -2.2101  0.0112 -0.3995
  804MPD2    H311900   4.698   2.788  16.957  0.7672 -2.1223  1.1758
  804MPD2     N11901   4.594   3.062  17.308  0.3329  1.0017 -0.0686
  804MPD2    H511902   4.542   3.059  17.395  1.8298 -0.2960  0.7724
  804MPD2    N111903   4.360   2.642  17.239 -0.4613 -0.2019 -0.4933
  804MPD2    H711904   4.316   2.656  17.330  1.5134 -1.8620  0.7196
  805MPD2     C11905   3.584   0.458  15.501 -0.2837 -0.4451 -0.7741
  805MPD2    C111906   3.632   0.589  15.473  0.0336 -0.4246  0.0298
  805MPD2    C211907   3.739   0.630  15.539 -0.3636  0.8768  0.1027
  805MPD2    C311908   3.817   0.546  15.627  0.0433  0.2148 -0.5628
  805MPD2    C411909   3.774   0.418  15.659 -0.5337  0.7465  0.9065
  805MPD2    C511910   3.659   0.383  15.595 -0.3516 -1.0147  0.1940
  805MPD2     H11911   3.771   0.730  15.514 -0.2033  0.7043 -0.3797
  805MPD2    H111912   3.833   0.352  15.723  1.9493  0.9253 -1.2203
  805MPD2    H211913   3.496   0.410  15.459 -1.7195 -0.3415  2.1277
  805MPD2    H311914   3.630   0.279  15.608 -0.4357 -0.9788  0.2966
  805MPD2     N11915   3.923   0.611  15.688  0.7001  0.5465 -0.1741
  805MPD2    H511916   3.944   0.701  15.647  2.7433  1.3961  2.7347
  805MPD2    N111917   3.579   0.668  15.369 -0.4752  0.1641  0.1387
  805MPD2    H711918   3.636   0.748  15.344 -0.1354 -0.4653 -1.1014
  806MPD2     C11919   4.452   0.627   1.238  0.5083 -0.1910  0.0414
  806MPD2    C111920   4.523   0.702   1.146  0.7814  0.0660  0.2749
  806MPD2    C211921   4.541   0.649   1.014  0.6653  0.1521 -0.1751
  806MPD2    C311922   4.469   0.539   0.968 -0.2904 -0.2292  0.0040
  806MPD2    C411923   4.395   0.478   1.066 -0.8691  0.5467 -0.2720
  806MPD2    C511924   4.385   0.509   1.202 -0.4608 -0.1676  0.2425
  806MPD2     H11925   4.607   0.700   0.946  0.0212  0.3775 -0.6307
  806MPD2    H111926   4.338   0.392   1.032  0.7178 -1.0056  0.9772
  806MPD2    H211927   4.442   0.654   1.343  0.4829  0.9251 -0.2454
  806MPD2    H311928   4.327   0.442   1.265 -2.0415  2.8490  1.9931
  806MPD2     N11929   4.497   0.495   0.837 -0.9504  0.5291  0.0482
  806MPD2    H511930   4.551   0.557   0.777  0.2145 -0.1288  0.4205
  806MPD2    N111931   4.584   0.820   1.192  0.4060  0.0528  0.3641
  806MPD2    H711932   4.570   0.846   1.289  2.2346  1.1636  0.3350
  807MPD2     C11933   4.411   1.327   1.675  0.7547 -0.2838  0.5835
  807MPD2    C111934   4.397   1.209   1.608 -0.2059 -0.2015 -0.3456
  807MPD2    C211935   4.274   1.158   1.607  0.3982  0.1357 -0.6752
  807MPD2    C311936   4.173   1.201   1.683  0.0332  0.0242  0.6779
  807MPD2    C411937   4.192   1.307   1.762  0.0319  0.0568  0.1555
  807MPD2    C511938   4.309   1.373   1.750 -0.0853 -0.3101  0.2078
  807MPD2     H11939   4.268   1.059   1.563 -0.8504  1.0139 -2.4920
  807MPD2    H111940   4.113   1.348   1.824 -2.5576 -2.3947 -1.5481
  807MPD2    H211941   4.496   1.393   1.665 -0.4329  1.1286 -0.1762
  807MPD2    H311942   4.304   1.472   1.793  0.9374 -0.2345  0.1663
  807MPD2     N11943   4.053   1.130   1.676  0.3760  0.3285 -0.0101
  807MPD2    H511944   4.042   1.055   1.609  1.0759 -1.1246  1.4900
  807MPD2    N111945   4.493   1.142   1.527  0.4485  0.6776  0.2109
  807MPD2    H711946   4.472   1.050   1.490  0.5297  0.8189 -0.1871
  808MPD2     C11947   3.889   1.252  10.070 -0.0842 -0.4683 -0.2476
  808MPD2    C111948   3.936   1.149   9.994  0.2889 -0.3264  0.3335
  808MPD2    C211949   4.071   1.143   9.961  0.0127 -0.2110 -0.1935
  808MPD2    C311950   4.161   1.237  10.015 -0.4365  0.1191  0.0929
  808MPD2    C411951   4.100   1.337  10.089 -0.6371 -0.2891  0.0165
  808MPD2    C511952   3.968   1.350  10.109 -0.1277 -0.0044 -0.1156
  808MPD2     H11953   4.099   1.057   9.902  2.1236  0.4949 -0.2180
  808MPD2    H111954   4.162   1.418  10.126  0.4186 -0.7038 -0.8472
  808MPD2    H211955   3.787   1.255  10.106  0.7800 -3.4006  2.4864
  808MPD2    H311956   3.924   1.426  10.174 -2.1315 -1.6258  0.4287
  808MPD2     N11957   4.302   1.253   9.984  0.1427 -0.1818 -0.2809
  808MPD2    H511958   4.355   1.337  10.007 -0.1347  0.7517 -3.0900
  808MPD2    N111959   3.852   1.037   9.975  0.7587  0.5122  0.1517
  808MPD2    H711960   3.890   0.954   9.930  1.2434  1.3285 -0.9425
  809MPD2     C11961   0.338   0.665   9.679 -0.4999 -0.5973 -0.2511
  809MPD2    C111962   0.392   0.792   9.701  0.6443  0.1254  0.5393
  809MPD2    C211963   0.311   0.891   9.746  0.0710  0.5651  0.1043
  809MPD2    C311964   0.174   0.871   9.773 -0.0090 -0.1237 -0.4663
  809MPD2    C411965   0.123   0.743   9.759  0.0139  0.7551 -0.1629
  809MPD2    C511966   0.206   0.643   9.717 -0.0425  0.9526  0.5720
  809MPD2     H11967   0.358   0.988   9.745  1.4887 -0.1405 -1.2710
  809MPD2    H111968   0.018   0.729   9.782  0.0506 -0.3665 -0.7103
  809MPD2    H211969   0.399   0.584   9.642  0.8582  0.1214  0.4117
  809MPD2    H311970   0.161   0.546   9.698 -0.7790  1.1512  1.2658
  809MPD2     N11971   0.083   0.976   9.806 -0.1183 -0.4332 -0.1921
  809MPD2    H511972   4.730   0.944   9.824 -1.3219  0.9132 -4.0400
  809MPD2    N111973   0.524   0.827   9.665  0.2524 -0.1251 -0.8018
  809MPD2    H711974   0.556   0.918   9.696  1.1596  0.6717 -4.1514
  810MPD2     C11975   3.792   0.881  10.414 -0.3219 -0.1278  0.0803
  810MPD2    C111976   3.655   0.879  10.383 -0.0591 -0.1993 -0.2034
  810MPD2    C211977   3.605   1.001  10.353  0.4456 -0.8404 -0.0312
  810MPD2    C311978   3.682   1.114  10.345 -0.4773  0.4239 -0.2021
  810MPD2    C411979   3.814   1.115  10.386  0.2979 -1.3010  0.0049
  810MPD2    C511980   3.864   0.996  10.422 -0.1214 -0.1337  0.4752
  810MPD2     H11981   3.498   1.011  10.339  0.3424 -1.8669  0.0568
  810MPD2    H111982   3.872   1.207  10.387  0.9201 -1.7196  1.8111
  810MPD2    H211983   3.836   0.785  10.435 -1.6464 -0.7408  0.0569
  810MPD2    H311984   3.967   0.980  10.454 -0.1759 -1.3295  0.0374
  810MPD2     N11985   3.621   1.237  10.331 -0.1750  0.2079 -0.2586
  810MPD2    H511986   3.681   1.311  10.367 -0.3863 -1.1031  2.7439
  810MPD2    N111987   3.563   0.767  10.391 -0.5622 -0.1174 -0.4780
  810MPD2    H711988   3.469   0.793  10.363 -1.5293 -2.9405  0.1346
  811MPD2     C11989   2.864   0.406  10.140 -0.6346  0.3946  0.0351
  811MPD2    C111990   2.986   0.456  10.104 -0.1071 -0.3517  0.0663
  811MPD2    C211991   3.002   0.520   9.982 -0.2101 -0.6235  0.2420
  811MPD2    C311992   2.897   0.539   9.898  0.0527 -0.1822  0.8864
  811MPD2    C411993   2.777   0.486   9.929  0.2356  0.5551  0.4722
  811MPD2    C511994   2.762   0.421  10.048 -0.0949 -0.1853  0.2486
  811MPD2     H11995   3.089   0.577   9.949  0.7749 -1.0749  2.0920
  811MPD2    H111996   2.688   0.499   9.869 -1.3346 -1.3154  2.3587
  811MPD2    H211997   2.857   0.365  10.240 -2.9981 -0.6574 -0.5786
  811MPD2    H311998   2.663   0.392  10.081 -0.0222  1.9708  2.4436
  811MPD2     N11999   2.923   0.629   9.784 -0.1290  0.2278  0.2452
  811MPD2    H512000   3.022   0.649   9.774 -0.3000  1.1090  0.2888
  811MPD2    N112001   3.086   0.440  10.199  0.4630  0.3867  0.9563
  811MPD2    H712002   3.053   0.413  10.291  0.3926 -1.3690  0.4081
  812MPD2     C12003   2.073   0.858  12.636  0.7331  0.0592 -0.1950
  812MPD2    C112004   2.176   0.888  12.550  0.8104 -0.7238 -0.2891
  812MPD2    C212005   2.297   0.827  12.580 -0.1287 -0.5642  0.2515
  812MPD2    C312006   2.313   0.743  12.688 -0.2278 -0.2071  0.3381
  812MPD2    C412007   2.206   0.722  12.778 -0.2447 -0.3614 -0.1940
  812MPD2    C512008   2.092   0.785  12.755 -0.2749 -0.1672  0.1239
  812MPD2     H12009   2.378   0.850  12.512 -1.1275  0.1399 -0.6983
  812MPD2    H112010   2.212   0.659  12.866  2.6431  2.1907  1.4456
  812MPD2    H212011   1.974   0.891  12.607  0.3349 -0.6381  0.3711
  812MPD2    H312012   2.012   0.759  12.823 -0.4167 -0.2783 -0.0840
  812MPD2     N12013   2.440   0.676  12.699 -0.0369 -0.0972  0.0287
  812MPD2    H512014   2.513   0.698  12.632  1.1265  1.5069  1.8384
  812MPD2    N112015   2.159   0.960  12.436 -0.2368  0.6906  0.1334
  812MPD2    H712016   2.063   0.994  12.437  0.2965  2.2274  0.0012
  813MPD2     C12017   1.138   2.613  13.109  0.2108 -0.0432  0.0837
  813MPD2    C112018   1.161   2.746  13.132  0.7138 -0.7603 -0.3429
  813MPD2    C212019   1.067   2.809  13.215  0.4348 -0.6781 -0.0444
  813MPD2    C312020   0.960   2.745  13.276  0.6994  0.4680  0.1697
  813MPD2    C412021   0.942   2.612  13.253  0.2461  0.0142  0.5164
  813MPD2    C512022   1.031   2.547  13.167  0.4187 -0.3701 -0.0431
  813MPD2     H12023   1.079   2.911  13.249  3.0829 -0.4752 -1.5220
  813MPD2    H112024   0.868   2.558  13.311  0.3786 -2.4738 -1.6210
  813MPD2    H212025   1.206   2.551  13.051  1.9956  1.1723  0.8938
  813MPD2    H312026   1.007   2.447  13.132 -1.9163 -0.4136  1.6771
  813MPD2     N12027   0.879   2.818  13.366  0.0334 -0.0759 -0.3937
  813MPD2    H512028   0.894   2.918  13.370  1.0254 -0.3073  1.8253
  813MPD2    N112029   1.275   2.801  13.077  0.3827 -0.1628  0.0950
  813MPD2    H712030   1.333   2.737  13.023 -1.0296 -1.5628  0.2033
  814MPD2     C12031   2.176   4.129  12.775  0.0953 -0.3758 -0.5611
  814MPD2    C112032   2.286   4.094  12.697  0.5354 -0.6971 -0.1551
  814MPD2    C212033   2.399   4.172  12.710 -1.3581 -0.0616 -0.6720
  814MPD2    C312034   2.404   4.290  12.783 -0.0235  0.0121 -0.0761
  814MPD2    C412035   2.288   4.335  12.841  0.0336  0.4713  0.1124
  814MPD2    C512036   2.172   4.252  12.835 -0.3155  0.2339  0.4312
  814MPD2     H12037   2.488   4.139  12.658 -0.5022  2.4569 -0.7750
  814MPD2    H112038   2.288   4.433  12.887  1.5056  0.8531 -0.7052
  814MPD2    H212039   2.084   4.073  12.787 -0.2140 -0.0747 -1.5629
  814MPD2    H312040   2.089   4.272  12.902 -0.5964  0.9827 -0.1458
  814MPD2     N12041   2.517   4.369  12.799  0.1370  0.2899  0.5705
  814MPD2    H512042   2.518   4.462  12.839  2.1991  1.6269 -2.6133
  814MPD2    N112043   2.298   3.993  12.599  0.3699 -0.3187  0.2218
  814MPD2    H712044   2.392   3.989  12.561  0.4618  0.8046  0.3391
  815MPD2     C12045   2.673   1.531  11.852  0.1862 -0.0828  0.7814
  815MPD2    C112046   2.606   1.635  11.790  0.2494  0.2288  0.3907
  815MPD2    C212047   2.503   1.694  11.865  0.0299 -0.1153  0.2065
  815MPD2    C312048   2.464   1.646  11.985 -0.3721  0.5873  0.5794
  815MPD2    C412049   2.534   1.545  12.043 -0.1895 -0.0540  0.1408
  815MPD2    C512050   2.642   1.489  11.981 -0.1528 -0.8431  0.0643
  815MPD2     H12051   2.441   1.771  11.821 -0.2865  0.4450  1.6483
  815MPD2    H112052   2.515   1.498  12.139  0.3064 -0.1008  0.2178
  815MPD2    H212053   2.757   1.476  11.812 -0.1269  0.1153 -0.1599
  815MPD2    H312054   2.684   1.404  12.033 -0.2534 -0.8021  0.2155
  815MPD2     N12055   2.360   1.710  12.050 -0.0267  0.1022  0.6484
  815MPD2    H512056   2.335   1.802  12.015 -0.6674 -1.0424 -1.9242
  815MPD2    N112057   2.634   1.655  11.650  0.3753 -0.1006  0.0644
  815MPD2    H712058   2.707   1.597  11.611 -0.0567  1.6898 -3.4059
  816MPD2     C12059   3.052   1.682  17.296  0.5484 -0.0889 -0.4550
  816MPD2    C112060   2.989   1.730  17.185 -0.3006 -0.0514 -0.2102
  816MPD2    C212061   3.045   1.728  17.054  0.1566  0.0085 -0.0368
  816MPD2    C312062   3.170   1.666  17.046  0.6289  0.2534 -0.9599
  816MPD2    C412063   3.243   1.631  17.160  0.3034 -0.3432 -0.1821
  816MPD2    C512064   3.182   1.642  17.283 -0.1068 -0.4161 -0.0969
  816MPD2     H12065   2.982   1.765  16.974 -0.4347 -1.2876 -0.1721
  816MPD2    H112066   3.348   1.603  17.151 -0.0925 -1.4496 -1.3388
  816MPD2    H212067   3.011   1.698  17.394  0.8323  0.8580 -0.4920
  816MPD2    H312068   3.239   1.616  17.371  1.8388  0.6916 -1.0429
  816MPD2     N12069   3.221   1.648  16.915  0.6504  0.7901 -0.8446
  816MPD2    H512070   3.153   1.671  16.843 -0.5478  1.5643  0.5372
  816MPD2    N112071   2.857   1.773  17.198 -0.1420  0.3947  0.3715
  816MPD2    H712072   2.789   1.780  17.123  0.4233 -1.2833 -0.2971
  817MPD2     C12073   1.704   3.267  10.457 -0.1791 -0.5578 -0.5361
  817MPD2    C112074   1.774   3.237  10.347 -0.0974 -0.4499 -0.4467
  817MPD2    C212075   1.809   3.341  10.254  0.0563 -0.5862  0.0584
  817MPD2    C312076   1.755   3.470  10.272  0.1773 -0.0221  0.7537
  817MPD2    C412077   1.682   3.493  10.380 -0.1371 -0.4844  0.8388
  817MPD2    C512078   1.667   3.396  10.478  0.3378 -0.0241 -0.5706
  817MPD2     H12079   1.873   3.327  10.168  1.9562  0.1684  1.3550
  817MPD2    H112080   1.631   3.586  10.402 -0.3990  0.4214 -3.6530
  817MPD2    H212081   1.692   3.198  10.540  3.1773  0.1683  0.5605
  817MPD2    H312082   1.636   3.424  10.578 -1.0221  3.0650 -1.8453
  817MPD2     N12083   1.782   3.572  10.171  0.3242  0.2132 -0.1812
  817MPD2    H512084   1.853   3.555  10.101 -0.1680 -0.2792 -0.5630
  817MPD2    N112085   1.817   3.102  10.317  0.8767  0.1369 -0.0623
  817MPD2    H712086   1.852   3.087  10.223 -1.4557  1.8722 -1.2051
  818MPD2     C12087   0.462   3.580  10.148 -0.6409 -0.5149  0.6704
  818MPD2    C112088   0.512   3.522  10.260  0.0480  0.9211 -0.6871
  818MPD2    C212089   0.546   3.390  10.260 -0.9360  0.3989 -0.1152
  818MPD2    C312090   0.542   3.315  10.147 -0.1603  0.3743  0.3342
  818MPD2    C412091   0.496   3.375  10.033  0.0975 -0.0506 -0.0761
  818MPD2    C512092   0.444   3.504  10.034  0.0850  0.1594  0.8894
  818MPD2     H12093   0.578   3.342  10.352 -0.0950  0.4178 -0.4029
  818MPD2    H112094   0.480   3.318   9.942  1.2833  0.4332 -0.5838
  818MPD2    H212095   0.414   3.678  10.143  0.7327  0.0701 -1.2019
  818MPD2    H312096   0.395   3.537   9.942 -0.7699 -3.3254  0.0978
  818MPD2     N12097   0.587   3.179  10.136 -0.2116  0.3548 -0.2651
  818MPD2    H512098   0.571   3.138  10.044 -1.7238  0.4260 -0.0228
  818MPD2    N112099   0.501   3.592  10.384 -0.3383  0.5710  0.4607
  818MPD2    H712100   0.537   3.540  10.463  3.2795  3.1117  0.4702
  819MPD2     C12101   4.373   0.527  15.685 -0.2721  0.7272 -0.0631
  819MPD2    C112102   4.363   0.394  15.723  0.4522 -0.2259  0.1959
  819MPD2    C212103   4.455   0.344  15.810 -0.4044  0.8213  0.2029
  819MPD2    C312104   4.555   0.424  15.865 -0.9237  0.5849  0.2155
  819MPD2    C412105   4.559   0.551  15.826  0.2609 -0.2521 -0.0674
  819MPD2    C512106   4.472   0.602  15.741 -0.2863 -0.4580  0.2142
  819MPD2     H12107   4.456   0.241  15.843 -0.0502  0.4499 -0.9781
  819MPD2    H112108   4.636   0.622  15.855  0.5902 -0.8928  0.6100
  819MPD2    H212109   4.304   0.574  15.616  0.3653 -0.5949 -1.6118
  819MPD2    H312110   4.495   0.701  15.701  0.1390 -1.0224 -0.9395
  819MPD2     N12111   4.652   0.364  15.956 -0.5796 -0.2922 -0.6068
  819MPD2    H512112   4.631   0.273  15.995  2.6322  1.3711  5.0635
  819MPD2    N112113   4.256   0.319  15.663  0.1042 -0.1349  0.1708
  819MPD2    H712114   4.210   0.357  15.581  0.1128 -0.0135  0.2233
  820MPD2     C12115   3.518   0.292  15.015  0.5652 -0.1117  0.5233
  820MPD2    C112116   3.638   0.360  15.025  0.2829  0.0004  0.7630
  820MPD2    C212117   3.722   0.332  15.134  0.2518 -0.0311  0.1741
  820MPD2    C312118   3.683   0.233  15.227  1.0192  0.1057  0.6519
  820MPD2    C412119   3.569   0.164  15.219  0.1610 -0.0742 -0.2084
  820MPD2    C512120   3.487   0.188  15.106 -1.0107 -0.1797  0.5563
  820MPD2     H12121   3.818   0.382  15.141 -0.7400  1.6327  1.7312
  820MPD2    H112122   3.541   0.087  15.290 -0.4032 -0.1091 -0.4653
  820MPD2    H212123   3.440   0.312  14.943 -0.1709  1.7014  1.8124
  820MPD2    H312124   3.407   0.116  15.092  0.1603 -1.9039  2.7349
  820MPD2     N12125   3.770   0.200  15.329  0.1208  0.1610  0.1515
  820MPD2    H512126   3.728   0.138  15.396 -2.8759  0.5979 -1.3195
  820MPD2    N112127   3.663   0.477  14.948 -0.6296 -0.0934  0.1700
  820MPD2    H712128   3.596   0.497  14.874  0.6428  1.0985 -0.6715
  821MPD2     C12129   3.862   1.901  13.382  0.9309  1.0340 -0.8055
  821MPD2    C112130   3.937   1.809  13.453 -0.5093 -0.1427 -0.1619
  821MPD2    C212131   4.060   1.766  13.406  0.0138  0.4228 -0.0126
  821MPD2    C312132   4.114   1.826  13.296 -0.0121  0.2576 -0.2792
  821MPD2    C412133   4.036   1.916  13.229 -0.2813  0.1190  0.0562
  821MPD2    C512134   3.912   1.960  13.270  0.1927 -0.2208  0.6070
  821MPD2     H12135   4.119   1.705  13.474 -0.2399 -1.8097 -1.8053
  821MPD2    H112136   4.072   1.959  13.136  0.3369  0.1833  0.3229
  821MPD2    H212137   3.767   1.934  13.421  0.9712  0.1024  0.0657
  821MPD2    H312138   3.850   2.029  13.214 -0.1308 -0.1422  1.0677
  821MPD2     N12139   4.248   1.803  13.248 -0.0382  0.0457  0.5369
  821MPD2    H512140   4.288   1.857  13.172  0.0052  0.2766  0.7247
  821MPD2    N112141   3.889   1.759  13.581  0.3401  0.3009 -0.3137
  821MPD2    H712142   3.962   1.712  13.634  0.3993  1.2733  0.4622
  822MPD2     C12143   0.304   2.004  15.936  0.2983 -0.7225 -0.0610
  822MPD2    C112144   0.254   1.940  16.046 -0.5145 -0.1592 -0.1241
  822MPD2    C212145   0.215   2.019  16.151  0.5135  0.6096 -0.4684
  822MPD2    C312146   0.206   2.159  16.140  0.2303  0.3528 -0.7534
  822MPD2    C412147   0.245   2.217  16.024  0.0376  0.1336  0.1641
  822MPD2    C512148   0.294   2.138  15.924 -0.6388 -0.8668 -0.4985
  822MPD2     H12149   0.203   1.973  16.248 -2.1280  1.3140 -0.4625
  822MPD2    H112150   0.242   2.325  16.008  0.8479 -0.0209 -0.9985
  822MPD2    H212151   0.363   1.956  15.859 -0.9171 -2.9022  0.3846
  822MPD2    H312152   0.347   2.182  15.840 -0.4406  1.9577  1.0862
  822MPD2     N12153   0.156   2.236  16.247  0.4642  0.6835 -0.0550
  822MPD2    H512154   0.123   2.185  16.328 -0.3451  1.1497 -0.0896
  822MPD2    N112155   0.260   1.800  16.065 -0.3522 -0.2740 -0.2772
  822MPD2    H712156   0.221   1.758  16.149  1.6490 -2.8947 -0.6705
  823MPD2     C12157   4.726   2.311  17.069 -0.9111  0.0161  0.0003
  823MPD2    C112158   4.702   2.253  16.944  0.1196  0.9932  0.3225
  823MPD2    C212159   4.660   2.119  16.942  0.1327  0.1124 -0.0730
  823MPD2    C312160   4.644   2.055  17.060 -0.1159  0.4201  0.3435
  823MPD2    C412161   4.668   2.108  17.186  0.0440 -0.3553 -0.2821
  823MPD2    C512162   4.707   2.241  17.189  0.5649 -0.3537 -0.4905
  823MPD2     H12163   4.646   2.065  16.849  0.1676  1.9429 -1.1340
  823MPD2    H112164   4.679   2.050  17.277  3.6116 -1.0681 -1.1776
  823MPD2    H212165   0.028   2.408  17.092 -0.4733 -0.4855  1.3286
  823MPD2    H312166   4.721   2.290  17.285 -1.4605  1.5938 -1.2008
  823MPD2     N12167   4.614   1.912  17.066  0.1699 -0.2187  0.0256
  823MPD2    H512168   4.596   1.869  17.157  1.1910 -0.1938  0.2499
  823MPD2    N112169   4.731   2.331  16.834 -0.0552  0.0600  0.0501
  823MPD2    H712170   0.021   2.426  16.846  0.2282 -0.0438  0.1122
  824MPD2     C12171   0.288   0.879  15.990 -0.1800 -0.1612 -0.1472
  824MPD2    C112172   0.368   0.982  15.953 -0.4017  0.1151 -0.1617
  824MPD2    C212173   0.499   0.955  15.926 -0.2373 -0.1764 -0.1917
  824MPD2    C312174   0.552   0.829  15.943  0.2398  0.5349  0.1184
  824MPD2    C412175   0.467   0.721  15.971  0.2240  0.2457 -0.2367
  824MPD2    C512176   0.337   0.749  16.005  0.2227 -0.2988 -0.3008
  824MPD2     H12177   0.565   1.034  15.892  1.0516  0.1158  2.9932
  824MPD2    H112178   0.491   0.616  15.987  1.1069  0.1509 -2.2082
  824MPD2    H212179   0.182   0.895  16.008 -0.4835  1.3608 -3.3099
  824MPD2    H312180   0.267   0.672  16.033 -1.0468  1.1875  0.6336
  824MPD2     N12181   0.692   0.814  15.932  0.5590 -0.3902  0.5698
  824MPD2    H512182   0.729   0.900  15.893 -0.4524 -0.5081 -0.6604
  824MPD2    N112183   0.306   1.110  15.945 -0.1541 -0.4220 -0.4074
  824MPD2    H712184   0.214   1.116  15.988 -0.6605 -0.7928 -1.4543
  825MPD2     C12185   1.531   0.953  15.768  0.8057 -0.0342  0.1939
  825MPD2    C112186   1.399   0.983  15.732  0.0662  0.4846  0.6395
  825MPD2    C212187   1.373   1.102  15.664 -0.2396  0.0705 -0.2172
  825MPD2    C312188   1.478   1.183  15.635  0.3037  0.2205  0.2766
  825MPD2    C412189   1.611   1.153  15.682 -0.4960 -0.3853 -0.1671
  825MPD2    C512190   1.633   1.036  15.744  0.1154 -0.1815 -0.0841
  825MPD2     H12191   1.274   1.138  15.639 -1.1019 -1.0750  1.5418
  825MPD2    H112192   1.703   1.206  15.665 -0.8926 -0.4742 -2.5410
  825MPD2    H212193   1.546   0.858  15.818  1.7046 -0.2968 -0.5757
  825MPD2    H312194   1.733   1.012  15.778  0.4156 -0.3984 -1.1163
  825MPD2     N12195   1.476   1.309  15.570 -0.4543  0.1854 -0.4702
  825MPD2    H512196   1.557   1.369  15.579 -0.1340 -0.2465 -0.4733
  825MPD2    N112197   1.308   0.885  15.770 -0.5852  0.1480 -0.0991
  825MPD2    H712198   1.348   0.812  15.828 -0.5914  0.4676  0.3065
  826MPD2     C12199   1.146   0.796  14.161  0.6611  0.1223  0.7676
  826MPD2    C112200   1.087   0.799  14.041 -0.5480  0.1434 -0.6049
  826MPD2    C212201   0.990   0.903  14.019  0.6142  0.0034 -0.1829
  826MPD2    C312202   0.964   0.999  14.117  0.4018 -0.0496 -0.2374
  826MPD2    C412203   1.034   0.995  14.234  0.6389  0.5873 -0.1311
  826MPD2    C512204   1.121   0.895  14.260 -0.6213  0.8001 -0.4349
  826MPD2     H12205   0.950   0.916  13.919 -0.3021  0.3479  0.2354
  826MPD2    H112206   1.020   1.076  14.304  0.2503 -0.0143  0.4801
  826MPD2    H212207   1.222   0.721  14.175 -1.7521 -2.6121 -0.8308
  826MPD2    H312208   1.162   0.904  14.360  0.7112 -0.7812 -0.8476
  826MPD2     N12209   0.867   1.106  14.107  0.5580  0.0787  0.8365
  826MPD2    H512210   0.846   1.167  14.186  0.0919 -0.3296  1.0286
  826MPD2    N112211   1.118   0.694  13.948 -0.6503  0.1204  0.1633
  826MPD2    H712212   1.197   0.638  13.977  0.4435  0.6341 -1.8534
  827MPD2     C12213   1.519   1.887   9.989  0.7880  0.0910 -0.0285
  827MPD2    C112214   1.417   1.943  10.063  0.4470  0.4537  0.4378
  827MPD2    C212215   1.291   1.917  10.020 -0.0926  0.9486 -0.3898
  827MPD2    C312216   1.272   1.852   9.895 -0.9332 -0.1575  0.3006
  827MPD2    C412217   1.372   1.802   9.819  0.1943  0.1136  0.1474
  827MPD2    C512218   1.500   1.816   9.866 -0.9918 -0.4805 -0.0030
  827MPD2     H12219   1.203   1.960  10.067 -0.0289  1.4735 -0.7490
  827MPD2    H112220   1.365   1.754   9.722  1.3771 -0.4843  0.3537
  827MPD2    H212221   1.619   1.911  10.021  0.1255  0.7319  1.5316
  827MPD2    H312222   1.583   1.778   9.807 -0.5470 -0.7377  0.7886
  827MPD2     N12223   1.141   1.857   9.842  0.4682  0.1362  0.4685
  827MPD2    H512224   1.070   1.893   9.905 -2.6549 -2.0614 -1.7765
  827MPD2    N112225   1.444   2.000  10.188 -0.7050 -0.2271 -0.4599
  827MPD2    H712226   1.540   2.006  10.221 -1.2349 -0.1125  1.0620
  828MPD2     C12227   4.631   2.180  12.840 -0.1996 -0.4133 -0.3407
  828MPD2    C112228   4.554   2.222  12.736  0.5879 -0.0268  0.3690
  828MPD2    C212229   4.596   2.222  12.608  0.6532  0.1408 -0.2854
  828MPD2    C312230   4.725   2.176  12.579  0.5349 -0.4922 -0.0891
  828MPD2    C412231   0.066   2.147  12.685  0.2778 -0.3255  0.2776
  828MPD2    C512232   0.019   2.135  12.812 -0.3523  0.0675  0.0577
  828MPD2     H12233   4.527   2.247  12.529 -0.1209  0.0186  0.3583
  828MPD2    H112234   0.172   2.128  12.669  0.3408  2.0296 -1.9329
  828MPD2    H212235   4.597   2.180  12.943  3.4592 -1.3420  0.8656
  828MPD2    H312236   0.081   2.111  12.898 -2.9605 -1.1820  1.5884
  828MPD2     N12237   0.026   2.171  12.444  0.7652 -0.1596  0.1469
  828MPD2    H512238   0.127   2.165  12.438  1.0504  1.5598  3.1187
  828MPD2    N112239   4.425   2.274  12.754  0.7031  0.5972  0.0511
  828MPD2    H712240   4.377   2.307  12.670  0.7346  1.0860  0.2239
  829MPD2     C12241   3.864   2.750  12.285  0.2783  0.3330  0.2247
  829MPD2    C112242   3.792   2.725  12.404 -0.2221  0.0763 -0.6765
  829MPD2    C212243   3.862   2.656  12.502 -0.3045  0.5702  0.4108
  829MPD2    C312244   3.993   2.616  12.494 -0.1937 -0.3431  0.7656
  829MPD2    C412245   4.054   2.637  12.372  0.4224 -0.1386  0.4321
  829MPD2    C512246   3.992   2.706  12.272 -0.3936 -0.9178 -0.0234
  829MPD2     H12247   3.815   2.643  12.599 -0.7703  0.3424  0.1541
  829MPD2    H112248   4.149   2.592  12.346 -0.0350 -0.0074 -1.4978
  829MPD2    H212249   3.828   2.807  12.200  0.8736 -0.0371 -0.2755
  829MPD2    H312250   4.029   2.731  12.173  0.2351  1.7228  0.8817
  829MPD2     N12251   4.080   2.578  12.606 -0.4016  0.2745  0.0525
  829MPD2    H512252   4.175   2.547  12.588 -0.3663  0.3265  0.1512
  829MPD2    N112253   3.653   2.757  12.394 -0.0379 -0.1539  0.2994
  829MPD2    H712254   3.629   2.791  12.302  1.1853 -1.3166 -0.4421
  830MPD2     C12255   0.404   4.612  15.856 -0.2992 -0.1627 -0.3135
  830MPD2    C112256   0.422   0.002  15.893 -0.3848  0.9552 -0.1912
  830MPD2    C212257   0.505   0.077  15.816  0.3792 -0.7157  0.0270
  830MPD2    C312258   0.554   0.031  15.693 -0.0962 -0.0397  0.2985
  830MPD2    C412259   0.514   4.646  15.641  0.3777 -0.1541 -0.2991
  830MPD2    C512260   0.442   4.568  15.730  0.6982 -0.2264  0.9232
  830MPD2     H12261   0.533   0.174  15.855  1.5063 -0.4443 -1.4034
  830MPD2    H112262   0.534   4.612  15.540  0.0744 -0.1619 -0.3578
  830MPD2    H212263   0.345   4.544  15.917 -0.2119 -1.4311 -1.6417
  830MPD2    H312264   0.401   4.475  15.693 -1.3133  1.6837 -1.6635
  830MPD2     N12265   0.625   0.127  15.618  0.1256 -0.2490  0.4357
  830MPD2    H512266   0.619   0.119  15.517  2.0513 -0.9284  0.3692
  830MPD2    N112267   0.349   0.064  15.999 -0.1458 -0.4187 -0.7139
  830MPD2    H712268   0.377   0.154  16.036 -0.2529  0.2989 -2.3638
  831MPD2     C12269   0.342   2.111  16.545  0.1888 -0.2746 -0.0044
  831MPD2    C112270   0.374   2.004  16.463 -0.0621 -1.4625  0.7005
  831MPD2    C212271   0.287   1.895  16.466 -0.0140  0.0214  0.2005
  831MPD2    C312272   0.170   1.908  16.536  0.7743 -0.6598 -0.5702
  831MPD2    C412273   0.158   2.009  16.632 -0.0510  0.3358  0.3492
  831MPD2    C512274   0.245   2.112  16.642  0.9131 -0.1509  0.2076
  831MPD2     H12275   0.312   1.806  16.408 -0.5627  0.0523 -0.0841
  831MPD2    H112276   0.071   2.009  16.697  0.2606 -0.6440  0.7681
  831MPD2    H212277   0.407   2.198  16.549 -1.6545  1.2326 -2.9187
  831MPD2    H312278   0.226   2.191  16.713  0.7332  0.7977 -0.8960
  831MPD2     N12279   0.061   1.819  16.510 -0.4393 -0.0264 -0.6154
  831MPD2    H512280   4.721   1.822  16.570 -0.8903 -2.1822 -1.1075
  831MPD2    N112281   0.487   2.012  16.378 -0.4765  0.7116  0.4282
  831MPD2    H712282   0.528   2.104  16.360 -1.3285  0.9587 -0.2444
  832MPD2     C12283   3.455   2.911  17.260  0.5211 -0.4556 -0.1404
  832MPD2    C112284   3.402   3.037  17.239 -0.7456  0.8258  0.9731
  832MPD2    C212285   3.293   3.047  17.150  0.2481  0.4613  0.5649
  832MPD2    C312286   3.238   2.934  17.090  0.8179  0.4346 -0.3127
  832MPD2    C412287   3.281   2.809  17.127 -1.1108  0.1143 -0.0072
  832MPD2    C512288   3.383   2.800  17.222  0.4952  0.1740 -0.0606
  832MPD2     H12289   3.262   3.146  17.119  0.9438  0.5437  0.1229
  832MPD2    H112290   3.233   2.719  17.090 -2.2856  1.6424 -2.1904
  832MPD2    H212291   3.534   2.898  17.332  1.6849  0.5780 -1.2308
  832MPD2    H312292   3.422   2.703  17.252  1.5200  1.3659  2.4828
  832MPD2     N12293   3.124   2.931  17.001 -0.2164 -0.1593 -0.6781
  832MPD2    H512294   3.088   2.839  16.979  3.3307 -1.1993 -1.9170
  832MPD2    N112295   3.467   3.148  17.299 -0.0202  0.2108  0.1962
  832MPD2    H712296   3.530   3.122  17.374 -0.2368  0.5064  0.4832
  833MPD2     C12297   1.093   4.493  12.955  0.6937  0.0259  0.4044
  833MPD2    C112298   1.006   4.541  12.860 -0.1678  0.1826  0.4301
  833MPD2    C212299   1.052   4.604  12.746  0.2421  0.4699  0.6319
  833MPD2    C312300   1.185   4.614  12.727 -0.5443  1.0398  0.2254
  833MPD2    C412301   1.274   4.561  12.821  0.1007 -0.1758  0.1903
  833MPD2    C512302   1.233   4.507  12.942 -0.1909  0.5623 -0.3770
  833MPD2     H12303   0.985   4.645  12.672 -0.3717  0.4188  1.1549
  833MPD2    H112304   1.381   4.573  12.823 -0.0960  1.0688  2.3237
  833MPD2    H212305   1.054   4.465  13.052  3.7711 -1.6390  1.1522
  833MPD2    H312306   1.294   4.482  13.028 -1.9822  0.7397  0.9354
  833MPD2     N12307   1.235   4.668  12.600  0.4696  0.1053 -0.0679
  833MPD2    H512308   1.165   4.717  12.545  1.8370  2.6933  0.5168
  833MPD2    N112309   0.862   4.530  12.860  0.0539 -0.2013  0.0966
  833MPD2    H712310   0.808   4.567  12.784  1.0385  1.1151  0.0437
  834MPD2     C12311   1.085   4.238  11.745  0.2229  0.1253 -0.2791
  834MPD2    C112312   0.977   4.301  11.808 -0.5572  0.2053  0.3436
  834MPD2    C212313   1.005   4.386  11.910  0.2190 -0.7632 -0.4959
  834MPD2    C312314   1.137   4.412  11.946 -0.3649  0.3528  0.4672
  834MPD2    C412315   1.239   4.344  11.881  0.0216 -0.5137  0.0597
  834MPD2    C512316   1.214   4.251  11.786 -0.1455  0.5644  0.1917
  834MPD2     H12317   0.930   4.433  11.973  0.2650 -3.4509  1.5752
  834MPD2    H112318   1.342   4.360  11.913  0.5602 -0.1986 -1.8419
  834MPD2    H212319   1.072   4.161  11.669  0.8821  1.4154 -1.6894
  834MPD2    H312320   1.288   4.189  11.738  0.4604  1.8399 -0.5299
  834MPD2     N12321   1.159   4.505  12.052  0.6013  0.3759  0.1633
  834MPD2    H512322   1.072   4.538  12.092  0.7539  0.1284  0.6964
  834MPD2    N112323   0.843   4.284  11.755 -0.2307 -0.1015  0.4578
  834MPD2    H712324   0.810   4.231  11.675  1.1732  2.0812 -1.5753
  835MPD2     C12325   0.319   2.371  11.045  0.4978 -0.3060 -0.2211
  835MPD2    C112326   0.241   2.418  11.155  0.4314 -0.2550 -0.1597
  835MPD2    C212327   0.295   2.445  11.276  0.1043  0.7554  0.6114
  835MPD2    C312328   0.431   2.415  11.297 -0.1429 -0.2894 -0.6580
  835MPD2    C412329   0.498   2.361  11.189  0.4496 -0.6726 -0.6613
  835MPD2    C512330   0.446   2.344  11.067  0.4007  0.0364  0.2144
  835MPD2     H12331   0.225   2.480  11.351 -0.2815  0.7254  0.2653
  835MPD2    H112332   0.601   2.326  11.191 -0.2939 -2.9153 -0.7299
  835MPD2    H212333   0.281   2.348  10.946 -1.5060  1.8929  0.0273
  835MPD2    H312334   0.513   2.316  10.987  1.9979 -3.3255  2.7016
  835MPD2     N12335   0.503   2.423  11.422  0.2402  0.5344 -0.1151
  835MPD2    H512336   0.591   2.372  11.428 -0.3897 -1.1740 -5.7772
  835MPD2    N112337   0.106   2.439  11.150  0.7328  0.5338 -0.2718
  835MPD2    H712338   0.066   2.448  11.243 -0.6381  1.1431 -0.9317
  836MPD2     C12339   0.021   2.456  11.999 -0.0258 -0.2053 -0.5767
  836MPD2    C112340   0.149   2.485  12.048  0.0546 -0.4031 -0.0518
  836MPD2    C212341   0.166   2.503  12.185 -0.7143  0.6697 -0.3566
  836MPD2    C312342   0.057   2.513  12.263  0.5410  0.6799 -0.5086
  836MPD2    C412343   4.675   2.496  12.215 -0.3921  0.2845 -0.3959
  836MPD2    C512344   4.659   2.470  12.078  0.6106 -0.2466 -0.1506
  836MPD2     H12345   0.265   2.514  12.230 -0.6383 -1.7315  0.0914
  836MPD2    H112346   4.585   2.523  12.269 -0.0793 -2.7322  1.6638
  836MPD2    H212347   0.014   2.439  11.892 -2.7540 -0.8053 -0.3000
  836MPD2    H312348   4.558   2.453  12.040 -0.4103 -2.8252  3.7272
  836MPD2     N12349   0.059   2.513  12.400 -0.1641 -0.2731 -0.0217
  836MPD2    H512350   4.710   2.511  12.444  0.2774 -1.0610  0.8442
  836MPD2    N112351   0.264   2.475  11.965  0.3901 -0.4898  0.9737
  836MPD2    H712352   0.244   2.455  11.868 -1.2679  1.5075  0.9036
  837MPD2     C12353   3.494   1.008   9.590 -0.0088  1.1856 -0.3230
  837MPD2    C112354   3.363   1.048   9.559 -0.2381 -0.4859  0.4184
  837MPD2    C212355   3.333   1.181   9.573  0.2008  0.7212  0.0372
  837MPD2    C312356   3.423   1.278   9.608  0.6003 -0.0668  0.7376
  837MPD2    C412357   3.548   1.245   9.646 -0.7342  0.3535  0.4331
  837MPD2    C512358   3.587   1.108   9.639  0.3391  0.3491  0.0605
  837MPD2     H12359   3.229   1.198   9.548  0.1373  1.5570  0.8737
  837MPD2    H112360   3.627   1.320   9.645 -1.2484  0.9108  1.0298
  837MPD2    H212361   3.532   0.907   9.600  0.7106  1.2168 -2.8270
  837MPD2    H312362   3.674   1.074   9.693 -0.0625 -1.3306 -0.3686
  837MPD2     N12363   3.366   1.407   9.601 -0.1665  0.2795  0.5070
  837MPD2    H512364   3.272   1.416   9.563 -0.1964  0.6293  0.6587
  837MPD2    N112365   3.264   0.948   9.534  0.2543 -0.9545 -0.2696
  837MPD2    H712366   3.286   0.852   9.556  1.2907 -0.4367  0.9340
  838MPD2     C12367   2.399   0.521  12.023 -0.1252  0.1386  0.1536
  838MPD2    C112368   2.406   0.386  12.018 -0.5068 -0.1330  0.3825
  838MPD2    C212369   2.307   0.314  12.091  0.1432 -0.6909 -0.2543
  838MPD2    C312370   2.217   0.381  12.168  0.2737 -0.4428  0.0206
  838MPD2    C412371   2.219   0.521  12.178 -0.1951  0.1108 -1.3277
  838MPD2    C512372   2.307   0.593  12.101 -0.2422 -0.9855 -0.2370
  838MPD2     H12373   2.306   0.206  12.101 -1.7340 -0.8790 -2.4368
  838MPD2    H112374   2.148   0.570  12.242  2.1125  0.7399  0.7516
  838MPD2    H212375   2.466   0.582  11.963 -1.0917 -0.3939 -1.4653
  838MPD2    H312376   2.297   0.700  12.093  2.7176 -0.5892  1.3811
  838MPD2     N12377   2.130   0.301  12.251  0.2681 -0.5831 -0.4204
  838MPD2    H512378   2.120   0.202  12.232 -0.1158 -0.5969 -0.1526
  838MPD2    N112379   2.499   0.329  11.929 -0.5375  0.4658 -0.0873
  838MPD2    H712380   2.564   0.390  11.882  0.0963  0.1886  0.4236
  839MPD2     C12381   2.245   4.249  11.972 -0.3517  0.2201 -0.3783
  839MPD2    C112382   2.271   4.266  11.836  0.2618 -0.6566 -0.6781
  839MPD2    C212383   2.328   4.380  11.779 -0.8212  0.3654  0.3585
  839MPD2    C312384   2.372   4.482  11.865  0.5174 -0.3756  0.2457
  839MPD2    C412385   2.348   4.471  11.999 -0.6276  0.0595  0.3508
  839MPD2    C512386   2.278   4.358  12.046 -0.0451 -0.4111  0.2870
  839MPD2     H12387   2.319   4.389  11.672 -1.5078  2.3207  0.5761
  839MPD2    H112388   2.368   4.551  12.069  2.0953 -1.8452  1.7253
  839MPD2    H212389   2.198   4.162  12.017  0.2255 -0.2786 -0.7385
  839MPD2    H312390   2.258   4.344  12.152  0.9158  2.2822  0.8164
  839MPD2     N12391   2.449   4.592  11.814 -0.0849 -0.0288 -0.4927
  839MPD2    H512392   2.471   4.668  11.878 -1.1402 -1.0238  1.0625
  839MPD2    N112393   2.230   4.179  11.736 -0.6463 -0.3805  1.0905
  839MPD2    H712394   2.253   4.198  11.639 -0.5661  0.2539  1.2399
  840MPD2     C12395   2.026   1.987  10.388  0.3137  0.0556  0.5491
  840MPD2    C112396   1.954   2.016  10.498 -0.2193  0.2718  0.3098
  840MPD2    C212397   2.028   2.083  10.598 -0.2342  0.2164 -0.2670
  840MPD2    C312398   2.158   2.113  10.586  0.3085  0.5161  0.1202
  840MPD2    C412399   2.225   2.073  10.473 -0.3040  0.6788 -0.3291
  840MPD2    C512400   2.166   2.008  10.372  0.1872 -0.0434  0.5061
  840MPD2     H12401   1.969   2.110  10.685  1.5586 -0.3811  1.1160
  840MPD2    H112402   2.332   2.085  10.456 -0.3427  1.9714  0.3613
  840MPD2    H212403   1.981   1.935  10.304 -3.6834  1.6607  1.6967
  840MPD2    H312404   2.217   1.974  10.283 -1.3888  0.8693 -0.7570
  840MPD2     N12405   2.234   2.155  10.687 -0.3269  0.2804  0.2870
  840MPD2    H512406   2.333   2.141  10.671 -0.8997  0.7784 -3.7420
  840MPD2    N112407   1.811   1.990  10.501  0.0648 -0.4101  0.0059
  840MPD2    H712408   1.778   1.958  10.410 -2.2214 -0.4530  0.8460
  841MPD2     C12409   1.709   2.163  14.594 -0.0571  0.2814  0.1620
  841MPD2    C112410   1.822   2.093  14.630 -0.1597 -0.0363  0.2440
  841MPD2    C212411   1.911   2.160  14.711  0.3078 -0.1308  0.3866
  841MPD2    C312412   1.897   2.289  14.743  0.3404  0.3962 -0.6757
  841MPD2    C412413   1.789   2.364  14.701  0.3843  0.2391  0.7192
  841MPD2    C512414   1.694   2.296  14.630  0.3479 -0.0310 -0.4420
  841MPD2     H12415   1.992   2.108  14.761  0.3285 -1.5541 -1.1206
  841MPD2    H112416   1.764   2.469  14.714  1.5325  0.1816  3.4026
  841MPD2    H212417   1.635   2.114  14.533  0.3102  0.9575 -0.8133
  841MPD2    H312418   1.598   2.342  14.607  0.0904 -0.2027  0.2652
  841MPD2     N12419   1.982   2.338  14.842  0.3020 -0.2217  0.1375
  841MPD2    H512420   2.041   2.276  14.897 -0.4076 -2.6124 -1.7555
  841MPD2    N112421   1.858   1.958  14.603  0.1146  0.5517 -0.3467
  841MPD2    H712422   1.937   1.922  14.655 -1.6736 -1.7256  0.7855
  842MPD2     C12423   2.223   2.745  16.931 -0.3011  0.0300 -0.5121
  842MPD2    C112424   2.141   2.843  16.975  0.8692 -0.2144  0.5660
  842MPD2    C212425   2.170   2.906  17.094  0.1384 -0.4182 -0.2719
  842MPD2    C312426   2.280   2.875  17.170 -0.5639  0.4133  0.4402
  842MPD2    C412427   2.355   2.765  17.131  0.5421  0.0353 -0.3899
  842MPD2    C512428   2.333   2.705  17.007 -0.5174  0.0445  0.1671
  842MPD2     H12429   2.098   2.976  17.135  0.3731  0.3783 -1.2176
  842MPD2    H112430   2.439   2.730  17.189 -0.8045 -0.1481  1.4481
  842MPD2    H212431   2.208   2.694  16.837  0.4099  1.9703 -1.6641
  842MPD2    H312432   2.397   2.632  16.960  0.5406  1.4290 -0.5321
  842MPD2     N12433   2.328   2.949  17.278  0.0706  0.7874 -0.0869
  842MPD2    H512434   2.400   2.898  17.328 -0.4096  0.4029  0.2115
  842MPD2    N112435   2.032   2.883  16.892  0.4251 -0.3278  0.1722
  842MPD2    H712436   2.019   2.856  16.795  3.1636  0.2500 -0.3463
  843MPD2     C12437   0.195   4.390   0.152  0.2661 -0.1430 -0.2109
  843MPD2    C112438   0.292   4.353   0.240  0.4118 -0.0096 -0.3239
  843MPD2    C212439   0.365   4.448   0.304 -0.7410  0.3466  0.6935
  843MPD2    C312440   0.331   4.577   0.287 -0.0558 -0.5760  0.0039
  843MPD2    C412441   0.225   4.617   0.214  0.0854 -0.3356  0.3810
  843MPD2    C512442   0.155   4.519   0.146  0.2613 -0.9297 -0.3343
  843MPD2     H12443   0.444   4.429   0.376 -0.8441  2.6983  1.4430
  843MPD2    H112444   0.206   4.722   0.194 -0.0497 -0.1501  1.4833
  843MPD2    H212445   0.150   4.320   0.083 -0.4016 -0.3203  0.4021
  843MPD2    H312446   0.072   4.545   0.082  0.0436 -1.6995 -0.3641
  843MPD2     N12447   0.400   4.687   0.338  0.0725 -0.4763 -0.2032
  843MPD2    H512448   0.383   0.036   0.295  0.3503  0.3084  1.3510
  843MPD2    N112449   0.301   4.210   0.244  0.2346  0.4723 -0.4795
  843MPD2    H712450   0.218   4.160   0.214 -0.3687  1.7485 -0.9246
  844MPD2     C12451   2.999   2.459  16.625  0.2510 -0.1610 -0.4224
  844MPD2    C112452   3.050   2.522  16.513 -0.9014  0.4203 -0.2387
  844MPD2    C212453   3.133   2.632  16.535  0.5175  0.3730  0.5043
  844MPD2    C312454   3.188   2.660  16.665  0.6248 -0.2933  0.1952
  844MPD2    C412455   3.147   2.584  16.776  0.2894 -0.1032 -0.1704
  844MPD2    C512456   3.045   2.493  16.749  0.0997 -0.0125  0.1631
  844MPD2     H12457   3.161   2.686  16.445  0.3896  1.8784  1.3726
  844MPD2    H112458   3.184   2.583  16.878  0.8805 -0.0100 -0.3830
  844MPD2    H212459   2.912   2.395  16.615  0.6565 -0.6686 -0.6924
  844MPD2    H312460   2.997   2.448  16.835 -1.2132  0.3178 -0.3865
  844MPD2     N12461   3.300   2.759  16.674 -0.1260  0.1160  0.3349
  844MPD2    H512462   3.308   2.824  16.597 -1.2356  0.7490  0.7549
  844MPD2    N112463   3.001   2.501  16.380 -0.0898  0.2650  0.1774
  844MPD2    H712464   3.026   2.566  16.307 -3.1463  1.4974  0.2131
  845MPD2     C12465   3.228   3.703  16.819  0.6323  0.7513  0.4275
  845MPD2    C112466   3.196   3.620  16.924  0.5884 -0.3114  0.2211
  845MPD2    C212467   3.268   3.505  16.940  0.1910 -0.5656  0.2003
  845MPD2    C312468   3.346   3.458  16.839  0.6347 -0.5233 -0.0622
  845MPD2    C412469   3.366   3.535  16.723  0.3797 -0.0997 -0.0453
  845MPD2    C512470   3.312   3.660  16.717 -0.2656  0.3276 -0.2066
  845MPD2     H12471   3.262   3.440  17.026  3.1686 -0.4840  0.4751
  845MPD2    H112472   3.428   3.502  16.641  2.8252  1.0452  1.3286
  845MPD2    H212473   3.180   3.800  16.808 -2.5206 -0.7250  1.1789
  845MPD2    H312474   3.334   3.728  16.635  1.4088  1.2435  0.9987
  845MPD2     N12475   3.394   3.328  16.846 -0.2650 -0.2329  0.3535
  845MPD2    H512476   3.408   3.287  16.938  0.0023 -0.6536  0.1268
  845MPD2    N112477   3.103   3.668  17.014 -0.2651  0.1951 -0.1751
  845MPD2    H712478   3.063   3.755  16.981  0.6034  0.2246 -1.1485
  846MPD2     C12479   4.631   4.080  13.720  0.8078  0.5334  0.4498
  846MPD2    C112480   4.536   4.189  13.731 -0.2341  0.1551  1.2827
  846MPD2    C212481   4.462   4.214  13.843  0.2233 -0.1928 -0.4325
  846MPD2    C312482   4.492   4.137  13.957  0.3674 -0.3587 -0.4881
  846MPD2    C412483   4.581   4.031  13.942  0.8067  0.0366 -0.3170
  846MPD2    C512484   4.650   4.008  13.826  0.3697  0.4207 -0.7232
  846MPD2     H12485   4.397   4.300  13.835 -1.8206 -1.6920  0.0169
  846MPD2    H112486   4.595   3.966  14.028 -1.2717  0.7591  0.5740
  846MPD2    H212487   4.677   4.050  13.627  1.0343 -0.5749  0.9132
  846MPD2    H312488   4.724   3.929  13.823 -1.4058 -1.2410 -0.4607
  846MPD2     N12489   4.437   4.169  14.079  0.4556  0.6973  0.6002
  846MPD2    H512490   4.371   4.246  14.081  1.2483  1.3186  2.5636
  846MPD2    N112491   4.525   4.278  13.624 -0.1973  0.0851  0.1905
  846MPD2    H712492   4.467   4.361  13.630  2.3292  1.9678 -1.0944
  847MPD2     C12493   4.529   0.061  14.870 -0.6477 -0.2013 -0.4019
  847MPD2    C112494   4.611   0.166  14.835  0.5333  0.1752  0.5780
  847MPD2    C212495   4.713   0.138  14.739  0.3013 -0.8662 -0.9493
  847MPD2    C312496   4.737   0.011  14.685 -0.1337  0.5999  0.3920
  847MPD2    C412497   4.650   4.648  14.725 -0.2265 -1.1899 -0.0294
  847MPD2    C512498   4.548   4.676  14.817  0.4465 -0.1010  0.4339
  847MPD2     H12499   0.028   0.221  14.699 -0.7962  1.7586  2.9076
  847MPD2    H112500   4.646   4.545  14.692  2.2226 -0.8703 -1.2515
  847MPD2    H212501   4.460   0.067  14.954  2.4794 -0.4310  2.2066
  847MPD2    H312502   4.476   4.599  14.841 -0.3780  0.8618  1.0654
  847MPD2     N12503   0.104   0.007  14.598 -0.5143  0.5998 -0.4466
  847MPD2    H512504   0.157   0.092  14.581 -0.2699  1.1035  2.8415
  847MPD2    N112505   4.602   0.304  14.878  0.2804  0.3254 -0.6931
  847MPD2    H712506   4.663   0.371  14.831  0.8925  0.0341 -0.3127
  848MPD2     C12507   2.964   3.173  16.232  0.0943  0.1972 -0.7565
  848MPD2    C112508   2.908   3.228  16.344 -0.1128  0.3508 -0.6386
  848MPD2    C212509   2.836   3.347  16.343 -0.5401 -0.1139 -0.0817
  848MPD2    C312510   2.814   3.416  16.220 -0.6277  0.0510 -0.2427
  848MPD2    C412511   2.882   3.367  16.111  0.1779 -0.5674 -0.0132
  848MPD2    C512512   2.945   3.248  16.112 -0.0803  0.5529 -0.3997
  848MPD2     H12513   2.781   3.376  16.432  1.6296 -0.5208  1.3670
  848MPD2    H112514   2.883   3.426  16.020 -0.7433 -0.5482 -0.0056
  848MPD2    H212515   3.016   3.078  16.224  0.7616  0.4504  0.5594
  848MPD2    H312516   2.988   3.219  16.017  1.0358  1.6312 -0.2319
  848MPD2     N12517   2.732   3.531  16.211  0.5126  0.0420 -0.4493
  848MPD2    H512518   2.711   3.575  16.122  0.4487 -0.2464 -0.5738
  848MPD2    N112519   2.896   3.163  16.467 -0.7868 -0.5828 -0.0997
  848MPD2    H712520   2.854   3.215  16.543  0.1724 -1.6738  1.1841
  849MPD2     C12521   2.122   2.892  14.505  0.3503  0.0697 -0.2443
  849MPD2    C112522   2.146   3.007  14.429 -0.4947  0.5135 -0.3267
  849MPD2    C212523   2.269   3.074  14.444 -0.5137  0.5011  0.2036
  849MPD2    C312524   2.371   3.025  14.535 -0.1545  0.4956 -0.6983
  849MPD2    C412525   2.344   2.903  14.589  0.0222  0.5673 -0.2008
  849MPD2    C512526   2.224   2.836  14.579  0.2422  0.0483  0.0068
  849MPD2     H12527   2.294   3.147  14.368 -0.9699 -0.9174 -1.3253
  849MPD2    H112528   2.426   2.848  14.634  0.5900  0.7560 -0.9921
  849MPD2    H212529   2.028   2.838  14.498 -0.3864  1.6115 -1.9983
  849MPD2    H312530   2.214   2.739  14.628 -0.8862  0.7441  1.1574
  849MPD2     N12531   2.492   3.080  14.535 -0.1787  0.0184 -0.6026
  849MPD2    H512532   2.576   3.032  14.567 -1.6829 -3.5324 -1.9860
  849MPD2    N112533   2.043   3.053  14.344  0.3182  0.0909 -0.4147
  849MPD2    H712534   1.956   3.000  14.344  0.7153 -0.5620 -2.8043
  850MPD2     C12535   0.208   1.205  14.849 -0.3722  0.0468  0.1109
  850MPD2    C112536   0.199   1.238  14.977 -0.4936  0.4448 -0.3167
  850MPD2    C212537   0.319   1.264  15.044  0.3652  0.3258 -0.0840
  850MPD2    C312538   0.440   1.234  14.984 -0.6134 -0.8117  0.4219
  850MPD2    C412539   0.440   1.199  14.850 -0.2595 -0.1297 -0.8109
  850MPD2    C512540   0.329   1.184  14.786 -0.3973  0.3353  0.4786
  850MPD2     H12541   0.321   1.305  15.144  1.4114 -1.7841  0.7547
  850MPD2    H112542   0.527   1.176  14.790 -3.0008 -3.0579 -3.6890
  850MPD2    H212543   0.118   1.210  14.789 -0.9889 -1.1115  0.9307
  850MPD2    H312544   0.325   1.151  14.682 -0.3037 -0.3596  0.6947
  850MPD2     N12545   0.565   1.228  15.049 -0.9460 -0.3449 -0.8759
  850MPD2    H512546   0.641   1.195  14.991  2.8016  1.3240  3.1205
  850MPD2    N112547   0.068   1.255  15.025 -0.2204  0.3887 -0.2836
  850MPD2    H712548   4.735   1.248  14.956 -0.4124  0.9436 -0.1307
  851MPD2     C12549   0.655   1.158  15.635  0.2920  0.1036  0.6967
  851MPD2    C112550   0.544   1.102  15.580  0.7491  0.1411  0.7131
  851MPD2    C212551   0.553   0.967  15.545 -0.7823  0.0308 -0.1825
  851MPD2    C312552   0.663   0.892  15.576  0.1501 -0.9808  0.1098
  851MPD2    C412553   0.768   0.948  15.638 -0.5736  0.0829 -0.2712
  851MPD2    C512554   0.761   1.077  15.663  0.1911 -0.0394  0.0104
  851MPD2     H12555   0.474   0.901  15.510  0.1781 -0.5682 -1.2547
  851MPD2    H112556   0.850   0.889  15.678 -1.0298  0.0009  0.5357
  851MPD2    H212557   0.662   1.263  15.663  1.1762  0.1729  0.2093
  851MPD2    H312558   0.832   1.120  15.732 -0.5032  0.7594  0.2189
  851MPD2     N12559   0.661   0.761  15.527  0.3208  0.9528  0.3692
  851MPD2    H512560   0.573   0.719  15.501  0.4438 -0.0954  1.6558
  851MPD2    N112561   0.428   1.179  15.554  0.5786  0.0041 -0.2639
  851MPD2    H712562   0.435   1.277  15.579 -0.3221  0.4732 -1.8159
  852MPD2     C12563   4.530   3.042  10.269 -0.0541  0.0246 -0.5693
  852MPD2    C112564   4.519   3.114  10.386  0.4446  0.1721  0.4617
  852MPD2    C212565   4.520   3.256  10.385 -0.1907  0.1139 -0.5578
  852MPD2    C312566   4.532   3.325  10.263  0.3445 -0.3489  0.0903
  852MPD2    C412567   4.546   3.248  10.145 -0.5754  0.4073  0.4150
  852MPD2    C512568   4.549   3.111  10.151  0.0892  0.8881 -0.0793
  852MPD2     H12569   4.510   3.315  10.475 -0.7850 -0.8245 -0.0230
  852MPD2    H112570   4.569   3.305  10.056  0.0796  1.6111  1.3438
  852MPD2    H212571   4.527   2.934  10.259 -0.8192  0.1773 -2.1033
  852MPD2    H312572   4.568   3.057  10.060 -2.3650  1.5036 -0.9708
  852MPD2     N12573   4.514   3.466  10.269 -0.4297  0.0989  0.1793
  852MPD2    H512574   4.503   3.512  10.359 -2.7602 -0.1053 -0.0017
  852MPD2    N112575   4.504   3.045  10.511 -0.1902  0.6158 -0.6919
  852MPD2    H712576   4.497   3.105  10.592 -1.5077  0.2501 -0.5427
  853MPD2     C12577   1.465   3.132  12.540 -0.1601  0.4031  0.1704
  853MPD2    C112578   1.434   3.262  12.503 -0.2244 -0.0532  0.6229
  853MPD2    C212579   1.446   3.304  12.368  0.5191  0.7064 -0.3869
  853MPD2    C312580   1.497   3.213  12.278  0.1439 -0.0551 -0.3955
  853MPD2    C412581   1.540   3.089  12.315 -0.4203 -0.2164  0.3097
  853MPD2    C512582   1.520   3.056  12.443  0.2864 -0.5223 -0.2370
  853MPD2     H12583   1.415   3.405  12.345  3.4715  1.5703 -0.5338
  853MPD2    H112584   1.597   3.031  12.244  0.0663  0.5885  0.0408
  853MPD2    H212585   1.467   3.093  12.641 -0.6789  0.7720  0.3224
  853MPD2    H312586   1.548   2.955  12.473 -2.0819 -0.8377  0.9028
  853MPD2     N12587   1.517   3.242  12.137 -0.2817 -0.2404 -0.5887
  853MPD2    H512588   1.545   3.171  12.071 -0.3081 -0.4056 -0.4242
  853MPD2    N112589   1.373   3.351  12.597  0.4393 -0.4377 -0.2956
  853MPD2    H712590   1.366   3.449  12.571 -0.9501 -0.1815  1.0503
  854MPD2     C12591   3.202   3.511  13.310  0.1749  0.8043 -0.3387
  854MPD2    C112592   3.319   3.524  13.235 -0.1248  0.0139 -0.3554
  854MPD2    C212593   3.424   3.435  13.262 -0.3717  0.3267  1.2955
  854MPD2    C312594   3.409   3.328  13.347  1.1223 -0.3384 -0.2917
  854MPD2    C412595   3.289   3.316  13.413  0.8383  0.6297 -0.5603
  854MPD2    C512596   3.188   3.410  13.396 -0.0509  0.5039  0.1896
  854MPD2     H12597   3.522   3.454  13.220  0.2570 -0.0041  2.6071
  854MPD2    H112598   3.285   3.236  13.487  0.5651  0.2284 -1.0058
  854MPD2    H212599   3.126   3.587  13.295 -1.2611 -0.3413  1.1164
  854MPD2    H312600   3.099   3.394  13.457  0.0814 -2.9243 -0.5142
  854MPD2     N12601   3.516   3.238  13.376 -0.1395  0.6080 -0.0995
  854MPD2    H512602   3.497   3.179  13.457  0.1257 -1.0221 -1.2244
  854MPD2    N112603   3.327   3.629  13.143  0.4187 -0.1726  0.1270
  854MPD2    H712604   3.250   3.694  13.130  1.2540  0.9568  0.8256
  855MPD2     C12605   3.694   3.370  14.167 -0.3648  0.1398 -0.2988
  855MPD2    C112606   3.708   3.236  14.142 -0.8416  0.0672 -0.6489
  855MPD2    C212607   3.761   3.199  14.023  0.2331  0.8031 -0.3227
  855MPD2    C312608   3.766   3.287  13.923 -0.8972 -0.7834 -0.0540
  855MPD2    C412609   3.752   3.421  13.947  0.3678  0.8113 -0.0226
  855MPD2    C512610   3.711   3.465  14.070  0.3423  0.3561 -0.0686
  855MPD2     H12611   3.771   3.091  14.022 -0.9765  0.7029 -1.7119
  855MPD2    H112612   3.777   3.494  13.870 -0.5184 -0.7471 -1.7677
  855MPD2    H212613   3.646   3.409  14.255 -2.4733  0.0906 -1.4337
  855MPD2    H312614   3.717   3.570  14.097 -2.6336  0.5895 -0.2868
  855MPD2     N12615   3.794   3.247  13.786 -0.0161 -0.0219 -0.0386
  855MPD2    H512616   3.785   3.322  13.718  2.0329 -0.5883 -0.9318
  855MPD2    N112617   3.676   3.140  14.243  0.7900  0.2368  0.4187
  855MPD2    H712618   3.714   3.046  14.242 -0.7234 -0.3661 -0.3252
  856MPD2     C12619   1.314   4.278  14.471 -0.8669 -0.4484 -0.2062
  856MPD2    C112620   1.340   4.397  14.411  0.0085  0.0182  0.2553
  856MPD2    C212621   1.250   4.474  14.333 -0.4607 -0.4906 -0.3512
  856MPD2    C312622   1.128   4.416  14.305 -0.4161  0.3870  0.6128
  856MPD2    C412623   1.097   4.299  14.369  0.1264 -0.2915  0.3098
  856MPD2    C512624   1.187   4.233  14.452 -0.3339 -0.0701 -0.1910
  856MPD2     H12625   1.280   4.565  14.284  1.6834 -0.3145  1.2655
  856MPD2    H112626   0.995   4.261  14.371 -1.7599  4.5182 -3.5270
  856MPD2    H212627   1.385   4.216  14.524 -2.2107 -1.3385  0.5567
  856MPD2    H312628   1.156   4.150  14.514  0.5759  0.3873  0.8753
  856MPD2     N12629   1.032   4.483  14.229  0.0906  0.3051  0.1997
  856MPD2    H512630   0.955   4.424  14.198  1.2831 -1.1806  0.0957
  856MPD2    N112631   1.466   4.464  14.432  0.0460 -0.0688  0.1064
  856MPD2    H712632   1.476   4.557  14.393  0.8618  0.5925  1.9176
  857MPD2     C12633   2.459   1.795  12.580 -0.1600 -0.1691 -0.1543
  857MPD2    C112634   2.542   1.752  12.681  0.6338 -0.4260 -0.5257
  857MPD2    C212635   2.511   1.794  12.810  0.1258  0.1515 -0.5567
  857MPD2    C312636   2.411   1.894  12.838  0.4077 -0.7987 -0.3834
  857MPD2    C412637   2.343   1.946  12.727  0.2265 -0.4893 -0.3928
  857MPD2    C512638   2.366   1.895  12.604  0.4536 -0.3852 -0.0274
  857MPD2     H12639   2.554   1.751  12.900  1.5522  0.6431 -0.9922
  857MPD2    H112640   2.267   2.022  12.741  0.5335 -0.5041  1.3421
  857MPD2    H212641   2.465   1.760  12.478  0.4506 -1.9582  0.4883
  857MPD2    H312642   2.310   1.931  12.519 -0.8222 -0.9401  0.5802
  857MPD2     N12643   2.398   1.952  12.972 -0.1756 -0.7283  0.0308
  857MPD2    H512644   2.474   1.921  13.032 -0.5474 -0.7249  0.4976
  857MPD2    N112645   2.626   1.640  12.656 -0.0827 -0.0175  0.0928
  857MPD2    H712646   2.628   1.611  12.559 -1.1336 -2.1907  0.7163
  858MPD2     C12647   3.576   1.095  16.775 -0.4383  0.1258 -0.1461
  858MPD2    C112648   3.692   1.025  16.803  0.4030  0.5802  0.5977
  858MPD2    C212649   3.767   1.064  16.916 -0.1251 -0.3958  0.3190
  858MPD2    C312650   3.709   1.154  17.009  0.5469  0.3310  0.4308
  858MPD2    C412651   3.601   1.227  16.973  0.0094  0.6004  0.2681
  858MPD2    C512652   3.539   1.206  16.852  0.2047  0.6782 -0.4131
  858MPD2     H12653   3.856   1.011  16.947 -0.4547 -1.9148 -1.3584
  858MPD2    H112654   3.561   1.308  17.033  0.8266  0.4539  1.0030
  858MPD2    H212655   3.523   1.096  16.680 -0.6088  0.9141 -0.0406
  858MPD2    H312656   3.454   1.269  16.830 -0.9088  0.1392  2.4242
  858MPD2     N12657   3.762   1.186  17.141  0.0911 -0.0637  0.0753
  858MPD2    H512658   3.715   1.257  17.197  2.0291  0.9616  0.3830
  858MPD2    N112659   3.731   0.927  16.716 -0.4013  0.1414 -0.5355
  858MPD2    H712660   3.677   0.906  16.633 -1.7087 -1.3825  0.6983
  859MPD2     C12661   1.754   3.281  15.611  0.0421 -0.7607  0.1898
  859MPD2    C112662   1.841   3.178  15.601  0.0308 -0.0335  0.6758
  859MPD2    C212663   1.846   3.079  15.696  0.0534  0.0669  0.6491
  859MPD2    C312664   1.752   3.075  15.793  0.1374  0.9712  0.4007
  859MPD2    C412665   1.667   3.179  15.807 -0.2738  0.3674  0.3753
  859MPD2    C512666   1.672   3.288  15.724 -0.1787 -0.2775 -0.2409
  859MPD2     H12667   1.916   2.998  15.679 -0.1934  0.0104 -0.0700
  859MPD2    H112668   1.600   3.167  15.892 -0.7226  0.1491 -0.0140
  859MPD2    H212669   1.772   3.365  15.545 -0.7001 -0.8248 -0.0895
  859MPD2    H312670   1.606   3.371  15.748 -1.2141 -0.8004 -1.2979
  859MPD2     N12671   1.749   2.973  15.892 -0.4939  0.2744  0.2274
  859MPD2    H512672   1.684   2.978  15.969 -0.0901 -1.0678  0.6536
  859MPD2    N112673   1.921   3.180  15.480 -0.0867  0.0483  0.1732
  859MPD2    H712674   1.902   3.260  15.421 -1.1594  0.9946  1.8108
  860MPD2     C12675   4.651   3.158  11.921 -0.0406 -0.3116  0.4696
  860MPD2    C112676   4.667   3.196  12.054 -0.1289  0.0133 -0.2250
  860MPD2    C212677   4.571   3.168  12.148 -0.1375  0.3873 -0.6577
  860MPD2    C312678   4.452   3.114  12.110  0.3706 -0.1701  0.6290
  860MPD2    C412679   4.444   3.067  11.984 -0.0280 -0.6030 -0.0478
  860MPD2    C512680   4.538   3.088  11.888 -0.5261  0.1849 -0.3256
  860MPD2     H12681   4.593   3.196  12.251  3.8716  2.1047 -1.9929
  860MPD2    H112682   4.361   3.006  11.949  0.9197 -1.2233 -1.2253
  860MPD2    H212683   4.724   3.183  11.845  0.3057 -1.6449  0.3548
  860MPD2    H312684   4.517   3.057  11.786  0.1797 -0.3880 -0.2985
  860MPD2     N12685   4.353   3.088  12.207  0.2455 -0.5965  0.1549
  860MPD2    H512686   4.380   3.122  12.298 -1.2167 -0.9591  0.7180
  860MPD2    N112687   0.033   3.279  12.094  0.2315  0.3545  0.0978
  860MPD2    H712688   0.045   3.297  12.193 -1.4933 -0.8562  0.5377
  861MPD2     C12689   3.536   1.511  10.659 -0.2936 -0.3224 -0.1301
  861MPD2    C112690   3.407   1.451  10.656  0.7313 -0.3111 -0.1572
  861MPD2    C212691   3.306   1.515  10.586  0.0823 -0.1513  0.2197
  861MPD2    C312692   3.331   1.637  10.532 -0.1952  0.5946 -0.1895
  861MPD2    C412693   3.449   1.702  10.550  0.0610 -0.1379 -0.1150
  861MPD2    C512694   3.554   1.633  10.605 -0.2290  0.9910 -0.3576
  861MPD2     H12695   3.212   1.460  10.581 -0.5801  1.2168 -2.5259
  861MPD2    H112696   3.454   1.808  10.525  0.4229 -0.2572 -0.5603
  861MPD2    H212697   3.621   1.472  10.713  0.9545  0.2606 -1.6733
  861MPD2    H312698   3.642   1.694  10.623  2.0833 -2.6456  0.5474
  861MPD2     N12699   3.223   1.705  10.473 -0.4428 -0.3822 -0.2586
  861MPD2    H512700   3.129   1.683  10.507 -0.4254  2.0295  1.3667
  861MPD2    N112701   3.387   1.325  10.713  0.2582  0.4703 -0.2280
  861MPD2    H712702   3.290   1.295  10.719  0.0218  1.7049  2.2053
  862MPD2     C12703   2.590   1.480  10.022  0.4231  1.4967 -1.2608
  862MPD2    C112704   2.709   1.481  10.089  0.8586 -0.7093  0.4188
  862MPD2    C212705   2.746   1.374  10.160  0.4540  0.1280  0.0178
  862MPD2    C312706   2.670   1.261  10.153  0.0063 -0.2560  1.0183
  862MPD2    C412707   2.557   1.261  10.078 -0.4140 -0.2561 -0.1388
  862MPD2    C512708   2.516   1.371  10.013 -0.2131 -0.9117 -0.2640
  862MPD2     H12709   2.819   1.388  10.239  0.0028  0.5919  0.3500
  862MPD2    H112710   2.488   1.178  10.075 -0.0224 -0.5225 -1.5692
  862MPD2    H212711   2.553   1.565   9.967 -1.7297  1.9958  0.9439
  862MPD2    H312712   2.422   1.376   9.959 -0.7127  0.2917  0.7085
  862MPD2     N12713   2.692   1.151  10.241  0.3324 -0.7933 -0.5869
  862MPD2    H512714   2.613   1.092  10.263 -0.0980 -0.3077 -0.8064
  862MPD2    N112715   2.786   1.602  10.108  0.1128 -0.0545 -0.5089
  862MPD2    H712716   2.743   1.688  10.076 -0.1905 -0.3453 -0.8877
  863MPD2     C12717   2.049   4.519  16.845 -0.0351  0.0110 -0.0858
  863MPD2    C112718   2.009   4.641  16.892  0.0277  0.4961  0.1969
  863MPD2    C212719   2.077   4.697  16.997 -0.1725 -0.0357 -0.0587
  863MPD2    C312720   2.163   4.613  17.070 -0.4901  0.7025  0.8519
  863MPD2    C412721   2.192   4.487  17.025  0.8082 -0.5313  0.9550
  863MPD2    C512722   2.138   4.444  16.911  0.2751  0.1676 -0.0167
  863MPD2     H12723   2.062   0.059  17.025  2.6017  0.1843  0.6074
  863MPD2    H112724   2.264   4.425  17.078  0.7947 -0.6911  0.7843
  863MPD2    H212725   1.992   4.468  16.768 -1.8550 -0.9711  1.8993
  863MPD2    H312726   2.160   4.347  16.868  0.6462  1.0723 -1.8333
  863MPD2     N12727   2.232   4.662  17.183  0.2223  0.1530 -0.3722
  863MPD2    H512728   2.230   0.021  17.201  1.9096 -0.2083  1.8277
  863MPD2    N112729   1.899   4.700  16.822  0.0754 -0.3290 -0.3623
  863MPD2    H712730   1.856   4.648  16.746 -1.8388 -1.0306  1.2001
  864MPD2     C12731   2.094   0.851  17.233 -0.4338 -0.3780  0.0169
  864MPD2    C112732   2.195   0.831  17.323 -0.6408  0.3212 -0.7341
  864MPD2    C212733   2.295   0.926  17.340 -0.5154  0.0731  0.0513
  864MPD2    C312734   2.286   1.046  17.267  0.4069  0.0748  0.1205
  864MPD2    C412735   2.171   1.075  17.204  0.5204 -0.0953  0.0849
  864MPD2    C512736   2.082   0.975  17.179  0.2646  0.3430 -0.0935
  864MPD2     H12737   2.384   0.899  17.395 -0.2902 -0.8600 -0.7766
  864MPD2    H112738   2.157   1.170  17.154 -1.0452 -0.4476 -0.1346
  864MPD2    H212739   2.005   0.792  17.213 -0.1382 -1.8062  2.8754
  864MPD2    H312740   1.991   0.990  17.123 -0.2294  1.7881  1.1117
  864MPD2     N12741   2.396   1.136  17.248 -0.3185  0.3385 -1.1588
  864MPD2    H512742   2.384   1.206  17.176 -1.3360  1.4544  0.0958
  864MPD2    N112743   2.211   0.699  17.373  0.0168  0.8658  0.1648
  864MPD2    H712744   2.139   0.633  17.344  0.8339  0.1383 -0.1835
  865MPD2     C12745   2.624   1.441  16.568  0.1717  0.0561  0.5417
  865MPD2    C112746   2.571   1.332  16.624 -1.0078  0.0533 -0.2148
  865MPD2    C212747   2.551   1.330  16.765  0.3399 -0.3816 -0.0011
  865MPD2    C312748   2.585   1.442  16.837  0.1780 -0.1737  0.6334
  865MPD2    C412749   2.646   1.553  16.774 -0.6411 -0.0638  0.1035
  865MPD2    C512750   2.654   1.553  16.641  0.4899  0.5128 -0.0178
  865MPD2     H12751   2.505   1.248  16.818  0.4039  0.1515  0.8839
  865MPD2    H112752   2.677   1.639  16.833  2.1331  0.0500 -1.5444
  865MPD2    H212753   2.653   1.447  16.464  0.2479  0.3808  0.5799
  865MPD2    H312754   2.705   1.639  16.601 -1.9093  2.6054  1.4588
  865MPD2     N12755   2.578   1.427  16.976  0.1210 -0.1682 -0.3639
  865MPD2    H512756   2.546   1.340  17.017  1.6576  0.7760  2.8187
  865MPD2    N112757   2.550   1.226  16.534  0.4245  0.1762  0.0821
  865MPD2    H712758   2.568   1.242  16.435 -1.3926 -0.9902 -0.4278
  866MPD2     C12759   3.947   1.636  11.308  0.4787  0.5111 -0.4084
  866MPD2    C112760   3.910   1.521  11.244 -0.1947 -0.0975 -1.0609
  866MPD2    C212761   3.801   1.523  11.156 -0.1285  0.1457 -0.1963
  866MPD2    C312762   3.736   1.643  11.132 -0.3449 -0.0606  0.5086
  866MPD2    C412763   3.781   1.762  11.183  0.3984  0.9515  0.5993
  866MPD2    C512764   3.888   1.752  11.269  0.4542  0.6128  0.2561
  866MPD2     H12765   3.761   1.434  11.108 -1.1715  0.8154 -0.5636
  866MPD2    H112766   3.731   1.858  11.175 -2.0014 -0.2233  1.6059
  866MPD2    H212767   4.033   1.641  11.374  0.9229  2.2050 -1.1226
  866MPD2    H312768   3.920   1.851  11.298  0.2452  0.1027  2.2612
  866MPD2     N12769   3.617   1.646  11.059 -0.3375 -0.8014 -0.7434
  866MPD2    H512770   3.584   1.734  11.020 -0.1379 -1.1294 -1.6425
  866MPD2    N112771   3.978   1.402  11.271  0.2779  0.4792  0.5475
  866MPD2    H712772   4.038   1.394  11.352  1.1193  2.1848  0.0922
  867MPD2     C12773   1.133   1.194  16.349  0.2936  0.0740  0.0302
  867MPD2    C112774   1.153   1.154  16.481  0.1325 -0.0288  0.4092
  867MPD2    C212775   1.139   1.252  16.576  0.2363  0.0318 -0.3688
  867MPD2    C312776   1.120   1.383  16.542  0.1301  0.2072 -0.4871
  867MPD2    C412777   1.101   1.418  16.409  0.0129  0.5276 -0.1177
  867MPD2    C512778   1.108   1.328  16.310 -0.0109  0.4945 -0.0634
  867MPD2     H12779   1.121   1.219  16.678  0.0204  2.5055  0.3850
  867MPD2    H112780   1.082   1.519  16.376  0.5479  0.7908  0.3678
  867MPD2    H212781   1.133   1.116  16.274  2.6272  1.7971 -1.7250
  867MPD2    H312782   1.109   1.355  16.205 -2.1843  1.0656  0.0519
  867MPD2     N12783   1.107   1.491  16.632 -0.2237 -0.3659 -0.3338
  867MPD2    H512784   1.105   1.584  16.592  0.9449 -0.1774  0.0500
  867MPD2    N112785   1.184   1.015  16.500  0.1174 -0.5746  0.6108
  867MPD2    H712786   1.200   0.961  16.415 -0.4089 -0.7671  0.6342
  868MPD2     C12787   3.216   0.470  13.320 -0.0603  0.0018 -0.5356
  868MPD2    C112788   3.239   0.338  13.319 -0.6249 -0.1125 -0.0308
  868MPD2    C212789   3.136   0.247  13.330  0.0132 -0.7753 -0.2489
  868MPD2    C312790   3.010   0.287  13.358  0.1223  0.5328 -0.4689
  868MPD2    C412791   2.983   0.425  13.373 -0.3622 -0.6387 -0.1695
  868MPD2    C512792   3.089   0.515  13.355 -0.0797  0.0872  0.0370
  868MPD2     H12793   3.155   0.145  13.298  0.1522  0.7488 -5.0221
  868MPD2    H112794   2.889   0.467  13.407  1.2612  0.5404  2.8520
  868MPD2    H212795   3.289   0.549  13.314  0.3411 -0.4404 -1.4660
  868MPD2    H312796   3.072   0.622  13.365 -4.3135 -0.6232  0.5661
  868MPD2     N12797   2.915   0.186  13.372  0.0323 -0.7327  0.3399
  868MPD2    H512798   2.944   0.093  13.345 -0.2003 -0.3282 -1.3039
  868MPD2    N112799   3.373   0.296  13.288 -0.3593  0.5425  0.0466
  868MPD2    H712800   3.440   0.370  13.267 -1.5761  1.7307  0.3508
  869MPD2     C12801   0.116   2.613   0.699  0.2245  0.5009  0.2881
  869MPD2    C112802   4.737   2.671   0.738  0.4974 -0.1162 -0.7858
  869MPD2    C212803   4.739   2.771   0.837  0.3470  0.1669 -1.0634
  869MPD2    C312804   0.123   2.827   0.874 -0.1492  0.2068 -0.4396
  869MPD2    C412805   0.238   2.775   0.822 -0.2775 -0.4692 -0.0894
  869MPD2    C512806   0.232   2.670   0.737  0.5015  0.2136  0.1296
  869MPD2     H12807   4.646   2.819   0.864 -0.0699 -0.1751 -1.8983
  869MPD2    H112808   0.330   2.829   0.837  0.6545 -2.1185  0.1444
  869MPD2    H212809   0.116   2.548   0.612  0.5795 -0.1367  0.7720
  869MPD2    H312810   0.321   2.638   0.685  0.5415 -1.7456  1.3827
  869MPD2     N12811   0.139   2.931   0.965  0.0647  0.0518 -0.0025
  869MPD2    H512812   0.233   2.968   0.979  1.1691 -2.3563 -0.8917
  869MPD2    N112813   4.621   2.617   0.679  0.2851 -0.3351 -0.0778
  869MPD2    H712814   4.650   2.550   0.609 -0.6358 -1.8532  0.9833
  870MPD2     C12815   4.378   2.585   1.517  0.1686 -0.2256 -0.3882
  870MPD2    C112816   4.316   2.487   1.443  0.1456  0.5949  0.8069
  870MPD2    C212817   4.184   2.501   1.405  0.7430 -0.2931 -0.4901
  870MPD2    C312818   4.109   2.593   1.469 -0.4531  0.0513  0.3988
  870MPD2    C412819   4.171   2.691   1.552 -0.3293 -0.2024  0.8767
  870MPD2    C512820   4.308   2.689   1.565 -0.0221 -0.2633 -0.1844
  870MPD2     H12821   4.131   2.430   1.342  0.5522  0.2657 -0.9577
  870MPD2    H112822   4.114   2.775   1.590 -0.2014 -0.1139  0.8719
  870MPD2    H212823   4.481   2.590   1.551 -0.1337  0.9791  0.3253
  870MPD2    H312824   4.365   2.762   1.622  0.6585 -0.7939 -0.1997
  870MPD2     N12825   3.968   2.596   1.431  0.0491 -0.3434  0.0094
  870MPD2    H512826   3.935   2.523   1.370 -1.3448  0.0831  0.2575
  870MPD2    N112827   4.393   2.364   1.424  0.6148 -0.1441  0.4942
  870MPD2    H712828   4.492   2.372   1.447  0.7371  1.5747 -0.6788
  871MPD2     C12829   4.411   1.311  16.557 -0.3844  0.3331 -0.1655
  871MPD2    C112830   4.492   1.272  16.665 -0.1430 -0.3806 -0.4846
  871MPD2    C212831   4.563   1.152  16.662 -0.1468  0.6541 -0.1643
  871MPD2    C312832   4.578   1.079  16.550  0.0122 -0.1834 -0.1300
  871MPD2    C412833   4.495   1.117  16.444  0.4417 -0.3621 -0.2307
  871MPD2    C512834   4.412   1.231  16.448  0.7374 -0.1870  0.1576
  871MPD2     H12835   4.619   1.121  16.749 -2.5606  1.4073  1.6426
  871MPD2    H112836   4.486   1.057  16.355 -1.6808  1.2814 -1.1079
  871MPD2    H212837   4.346   1.398  16.561  0.8613  1.2261  0.4521
  871MPD2    H312838   4.343   1.252  16.367 -0.2784  2.4739  1.7222
  871MPD2     N12839   4.670   0.977  16.548 -0.1047  0.5259  0.2343
  871MPD2    H512840   4.720   0.967  16.636 -0.3822 -0.4432  0.2768
  871MPD2    N112841   4.501   1.357  16.774  0.1900  0.0404 -0.3212
  871MPD2    H712842   4.446   1.442  16.766  0.8325  0.7801  3.1476
  872MPD2     C12843   1.005   3.691  13.832 -0.2848  0.2466  0.2333
  872MPD2    C112844   0.936   3.766  13.927  1.3132  0.5611 -0.1739
  872MPD2    C212845   0.835   3.715  14.002 -0.2563 -0.1308 -1.2726
  872MPD2    C312846   0.803   3.584  13.990 -0.1876 -0.6086  0.3139
  872MPD2    C412847   0.887   3.510  13.912 -0.2103 -0.7678  0.0371
  872MPD2    C512848   0.988   3.558  13.841 -0.5819 -0.2270 -0.6162
  872MPD2     H12849   0.781   3.780  14.070  0.3450 -0.2035 -0.7244
  872MPD2    H112850   0.881   3.402  13.916  4.4178 -1.0117  0.9897
  872MPD2    H212851   1.097   3.727  13.786 -0.2232 -0.2711 -0.0481
  872MPD2    H312852   1.060   3.487  13.803  1.1822  0.4397  1.4452
  872MPD2     N12853   0.699   3.518  14.053 -0.5075 -0.3289 -0.0221
  872MPD2    H512854   0.695   3.417  14.065 -0.5190 -0.3610 -0.3047
  872MPD2    N112855   0.956   3.905  13.951  0.0145 -0.5109  0.0038
  872MPD2    H712856   0.922   3.940  14.040  3.1775  1.0091  0.6189
  873MPD2     C12857   3.024   4.231   1.156 -1.2643  0.2377 -0.4432
  873MPD2    C112858   3.061   4.171   1.276  0.3294  0.6405 -0.1792
  873MPD2    C212859   3.089   4.035   1.263 -0.0703  0.6342  0.0846
  873MPD2    C312860   3.095   3.972   1.144 -0.6165  0.0231 -0.0761
  873MPD2    C412861   3.077   4.041   1.032  0.5928 -0.1380  0.0520
  873MPD2    C512862   3.037   4.165   1.035 -0.1957  0.0047  0.6600
  873MPD2     H12863   3.090   3.980   1.356  0.2409  0.8253  0.1915
  873MPD2    H112864   3.058   4.009   0.930  1.8901 -0.0877 -0.1981
  873MPD2    H212865   2.988   4.333   1.157  0.0340  0.6760  0.8975
  873MPD2    H312866   2.986   4.217   0.954 -0.3617 -0.5632  0.3951
  873MPD2     N12867   3.124   3.834   1.139  0.5077 -0.8299  0.3950
  873MPD2    H512868   3.138   3.803   1.043  0.6535  1.4919 -0.3537
  873MPD2    N112869   3.062   4.252   1.396  0.4084 -0.1060  0.0742
  873MPD2    H712870   3.044   4.351   1.383  0.5410 -0.0197  0.5577
  874MPD2     C12871   1.878   3.265  16.194 -0.1432  0.7397 -0.2256
  874MPD2    C112872   1.930   3.287  16.318  0.3810 -0.0404  0.0828
  874MPD2    C212873   2.031   3.383  16.330  0.5039  0.1131 -0.3128
  874MPD2    C312874   2.088   3.441  16.219  0.5434 -0.7713  0.8767
  874MPD2    C412875   2.050   3.398  16.097 -1.1288  0.4811 -0.2596
  874MPD2    C512876   1.943   3.312  16.085 -0.4434 -0.7214 -0.0253
  874MPD2     H12877   2.070   3.412  16.427 -1.3324 -1.1079  0.7845
  874MPD2    H112878   2.103   3.433  16.009 -2.0068 -2.5280 -2.0056
  874MPD2    H212879   1.792   3.199  16.183  0.1596  0.3050  0.0135
  874MPD2    H312880   1.908   3.290  15.984 -0.9051 -0.2017  0.0278
  874MPD2     N12881   2.180   3.547  16.238 -0.6206 -0.4794 -0.2473
  874MPD2    H512882   2.171   3.597  16.326 -1.3160  0.2399 -0.7229
  874MPD2    N112883   1.880   3.217  16.420 -0.5691  0.8678 -0.5118
  874MPD2    H712884   1.788   3.174  16.418 -0.6079  0.9477 -0.4652
  875MPD2     C12885   3.097   1.777  15.033  0.0050 -0.6427  0.5903
  875MPD2    C112886   3.061   1.912  15.026  0.2169 -0.3593 -0.6354
  875MPD2    C212887   3.149   2.005  15.081 -0.3174 -0.1361  0.7812
  875MPD2    C312888   3.266   1.968  15.149 -0.0680  0.1162  0.4238
  875MPD2    C412889   3.301   1.837  15.140 -0.0594  0.2202  0.9818
  875MPD2    C512890   3.217   1.747  15.079 -0.0009 -0.7564  0.3552
  875MPD2     H12891   3.129   2.112  15.082 -1.3925 -0.3311 -1.1404
  875MPD2    H112892   3.375   1.782  15.196  2.2492  0.3353 -1.9344
  875MPD2    H212893   3.023   1.703  15.007  0.5109  0.0540 -2.7709
  875MPD2    H312894   3.234   1.640  15.092  0.4628 -0.4123  2.7180
  875MPD2     N12895   3.346   2.068  15.217  0.0664  0.5191 -0.3411
  875MPD2    H512896   3.305   2.159  15.229 -0.0535  0.2354  1.3794
  875MPD2    N112897   2.933   1.953  14.991  0.4410  0.2466 -0.1032
  875MPD2    H712898   2.916   2.048  15.022  0.7446  0.9379 -2.0262
  876MPD2     C12899   2.493   3.222  16.238 -0.4852 -0.5200 -0.0991
  876MPD2    C112900   2.457   3.162  16.119 -0.0161 -0.0746  0.0039
  876MPD2    C212901   2.467   3.026  16.106  0.0822 -0.3323  0.2956
  876MPD2    C312902   2.523   2.949  16.207 -0.2016 -0.0454  0.5975
  876MPD2    C412903   2.584   3.011  16.309  0.5054 -0.3402 -0.0236
  876MPD2    C512904   2.558   3.143  16.330  0.3063  0.6385 -0.7126
  876MPD2     H12905   2.433   2.968  16.020 -0.3312 -1.4652  1.2219
  876MPD2    H112906   2.627   2.953  16.389  0.8437  0.6707  0.5172
  876MPD2    H212907   2.494   3.330  16.254  1.2824 -0.2636 -1.9067
  876MPD2    H312908   2.603   3.196  16.413  0.1477  0.6128 -0.6104
  876MPD2     N12909   2.526   2.808  16.188  0.8076 -0.4602  0.1125
  876MPD2    H512910   2.479   2.774  16.105 -0.8219 -0.7997  1.1634
  876MPD2    N112911   2.406   3.251  16.017 -0.2992 -0.1280  0.1393
  876MPD2    H712912   2.397   3.351  16.032 -1.9556 -0.1275 -0.7951
  877MPD2     C12913   1.956   3.593  15.374 -0.4679  0.4371  0.1001
  877MPD2    C112914   2.094   3.609  15.365  0.3727  0.2443 -1.0129
  877MPD2    C212915   2.146   3.676  15.249  0.3440 -0.1984 -0.1134
  877MPD2    C312916   2.059   3.703  15.144  0.3852  0.6540  0.4323
  877MPD2    C412917   1.923   3.682  15.161 -0.4472  0.7648  0.2195
  877MPD2    C512918   1.871   3.634  15.276 -0.6591  0.0110 -0.2015
  877MPD2     H12919   2.254   3.687  15.242  0.0272  3.6847  0.9595
  877MPD2    H112920   1.849   3.716  15.089 -0.3330 -1.8653 -1.1360
  877MPD2    H212921   1.906   3.543  15.457 -0.8112 -1.2016 -1.0855
  877MPD2    H312922   1.764   3.629  15.288 -0.8354  1.0210 -1.4039
  877MPD2     N12923   2.104   3.768  15.026  0.0765  1.1341 -0.2824
  877MPD2    H512924   2.031   3.781  14.956  1.3210  0.9328 -1.6186
  877MPD2    N112925   2.184   3.564  15.458 -0.1980  0.4730 -0.6904
  877MPD2    H712926   2.283   3.578  15.445  0.1963 -1.6718  0.0767
  878MPD2     C12927   1.714   2.663  13.485  0.3258  0.3055  0.0628
  878MPD2    C112928   1.741   2.789  13.444 -1.1344  0.1659 -0.3047
  878MPD2    C212929   1.781   2.885  13.533  0.6425 -0.5666  0.0422
  878MPD2    C312930   1.799   2.854  13.666 -0.5497 -0.2415  0.2656
  878MPD2    C412931   1.757   2.726  13.708  0.7869  0.5618 -1.0275
  878MPD2    C512932   1.728   2.631  13.620 -0.0548 -0.5367  0.4368
  878MPD2     H12933   1.785   2.988  13.500  1.2688 -0.3954  0.6422
  878MPD2    H112934   1.790   2.689  13.805  0.4049  0.8648 -0.7809
  878MPD2    H212935   1.712   2.583  13.412  0.0305  0.3203  0.0555
  878MPD2    H312936   1.737   2.527  13.650 -0.7703 -1.3397 -2.0380
  878MPD2     N12937   1.831   2.955  13.761 -0.9150 -0.1217 -0.3415
  878MPD2    H512938   1.842   3.051  13.728 -1.4411 -0.3881 -1.2758
  878MPD2    N112939   1.716   2.819  13.306 -0.5239  0.4202  0.5948
  878MPD2    H712940   1.686   2.746  13.242  0.6603  0.7101 -0.2719
  879MPD2     C12941   2.594   0.145  17.089 -0.2712  0.3411  0.0796
  879MPD2    C112942   2.661   0.056  17.170  0.4729  0.6141 -0.4623
  879MPD2    C212943   2.658   4.657  17.146 -0.9190 -0.8881 -0.3547
  879MPD2    C312944   2.578   4.607  17.044 -0.3802  0.2101 -0.4616
  879MPD2    C412945   2.510   4.698  16.966 -0.0205 -0.2402 -0.4141
  879MPD2    C512946   2.525   0.095  16.982  0.5913 -0.0029 -0.0660
  879MPD2     H12947   2.710   4.593  17.218  0.6921  2.4682  1.4616
  879MPD2    H112948   2.447   4.658  16.888  2.5197 -1.9196 -1.6164
  879MPD2    H212949   2.580   0.252  17.100  1.3697  0.5622  0.0587
  879MPD2    H312950   2.468   0.160  16.918  1.7648 -0.7651 -1.9064
  879MPD2     N12951   2.547   4.469  17.020  0.1447 -0.0669  0.4870
  879MPD2    H512952   2.473   4.450  16.953  0.0856  0.2821  0.4571
  879MPD2    N112953   2.722   0.113  17.282 -0.2695 -0.2705  0.0766
  879MPD2    H712954   2.714   0.214  17.295  0.8107 -0.0195 -1.2569
  880MPD2     C12955   3.974   1.579   0.618 -0.2430  0.0935 -0.5379
  880MPD2    C112956   4.049   1.670   0.546 -0.3586  0.6265  0.7577
  880MPD2    C212957   4.168   1.625   0.481 -0.2416  0.0316 -0.4784
  880MPD2    C312958   4.223   1.500   0.509 -0.0181 -0.4884 -0.2355
  880MPD2    C412959   4.160   1.413   0.592  0.4707  0.4106  0.3751
  880MPD2    C512960   4.031   1.449   0.635 -0.4624  0.7826 -0.4359
  880MPD2     H12961   4.215   1.690   0.408 -0.1297 -0.6493 -1.0081
  880MPD2    H112962   4.196   1.318   0.629  1.3724 -0.3257 -2.4002
  880MPD2    H212963   3.883   1.607   0.671  0.5868  2.6692 -0.4780
  880MPD2    H312964   3.977   1.384   0.703  0.0185 -0.0310 -0.8224
  880MPD2     N12965   4.352   1.470   0.452  0.3467 -0.1452 -0.0435
  880MPD2    H512966   4.398   1.542   0.398  0.7467 -0.4137 -0.0655
  880MPD2    N112967   3.985   1.800   0.527 -0.3524  0.2231  0.2392
  880MPD2    H712968   3.898   1.819   0.576 -0.0284  0.9889  0.5159
  881MPD2     C12969   3.970   2.736  17.741  0.1608  0.3519  0.4388
  881MPD2    C112970   3.971   2.603  17.711  0.1340  0.3434  0.4215
  881MPD2    C212971   3.960   2.511   0.054  0.3113  0.1213  0.7441
  881MPD2    C312972   3.915   2.549   0.181  1.1220 -0.5310  0.0521
  881MPD2    C412973   3.903   2.682   0.207 -0.3564  0.4824  0.1835
  881MPD2    C512974   3.938   2.776   0.107 -0.1645 -0.3066  0.0344
  881MPD2     H12975   3.987   2.410   0.028 -1.8667  0.1998 -1.8280
  881MPD2    H112976   3.866   2.718   0.302  2.7376 -1.4123  2.1139
  881MPD2    H212977   4.014   2.806  17.670 -0.9421  0.5703 -0.0335
  881MPD2    H312978   3.946   2.878   0.143  0.3149 -0.6449  0.8728
  881MPD2     N12979   3.893   2.457   0.284 -0.3398 -0.0020  0.5663
  881MPD2    H512980   3.875   2.493   0.377 -1.8814  2.0014 -0.5131
  881MPD2    N112981   4.033   2.553  17.591  0.0242 -0.6010  0.4105
  881MPD2    H712982   4.069   2.621  17.525 -1.0090  1.9966  2.5160
  882MPD2     C12983   2.284   3.796  14.212  0.4059  0.3352 -0.2473
  882MPD2    C112984   2.187   3.806  14.310 -0.3300  0.3540 -0.6478
  882MPD2    C212985   2.053   3.772  14.280  0.0485  0.6486 -0.1662
  882MPD2    C312986   2.018   3.726  14.156  0.1634 -0.6978 -0.5658
  882MPD2    C412987   2.116   3.706  14.061  0.1054 -0.0259  0.1768
  882MPD2    C512988   2.246   3.745  14.091  0.1120  0.4919 -0.4067
  882MPD2     H12989   1.969   3.797  14.344 -0.8553  0.1734 -1.1537
  882MPD2    H112990   2.097   3.681  13.957  2.3111 -1.1768  0.0537
  882MPD2    H212991   2.390   3.816  14.224  0.0379  1.3761  1.3781
  882MPD2    H312992   2.327   3.710  14.028  1.0828  2.2709 -0.1553
  882MPD2     N12993   1.882   3.716  14.126  0.3883 -0.6360  0.1814
  882MPD2    H512994   1.824   3.726  14.209  1.2304  0.1528  0.6846
  882MPD2    N112995   2.219   3.866  14.436 -0.1515 -0.3190  0.4372
  882MPD2    H712996   2.316   3.891  14.444  0.3270 -1.4344 -1.6126
  883MPD2     C12997   4.376   3.482  16.173 -0.0160 -0.5268 -0.5775
  883MPD2    C112998   4.322   3.606  16.151  0.1232 -0.4180 -0.1943
  883MPD2    C212999   4.321   3.695  16.262  0.0093 -0.8298  0.1597
  883MPD2    C313000   4.392   3.664  16.379 -0.4108 -0.9975 -0.2421
  883MPD2    C413001   4.441   3.529  16.394  0.0972 -0.1237 -0.0150
  883MPD2    C513002   4.433   3.444  16.290 -0.2407  0.1744 -0.8375
  883MPD2     H13003   4.284   3.796  16.260  1.2240 -0.3799  0.3881
  883MPD2    H113004   4.502   3.497  16.478 -0.8832 -2.3775 -0.1733
  883MPD2    H213005   4.365   3.404  16.098 -0.3391 -0.5122 -0.5467
  883MPD2    H313006   4.480   3.347  16.301 -1.3911 -0.2443  0.3688
  883MPD2     N13007   4.426   3.763  16.472  0.0837  0.2559  0.3591
  883MPD2    H513008   4.403   3.856  16.440  0.1942  0.4562  0.8602
  883MPD2    N113009   4.253   3.634  16.023  0.0318 -0.2263 -0.3311
  883MPD2    H713010   4.183   3.708  16.020 -0.6495 -0.8750 -0.3598
  884MPD2     C13011   1.353   4.295  15.461 -0.3253 -0.1794  0.1264
  884MPD2    C113012   1.320   4.252  15.336  0.6226 -0.1482  0.0408
  884MPD2    C213013   1.193   4.271  15.295 -1.0409 -0.0387 -0.0159
  884MPD2    C313014   1.087   4.332  15.357 -0.2991 -0.4370  0.7422
  884MPD2    C413015   1.119   4.363  15.488 -0.0555 -0.1823  0.8205
  884MPD2    C513016   1.246   4.337  15.535  0.0162  0.0677  0.6972
  884MPD2     H13017   1.164   4.229  15.200  1.0202 -2.3606  0.3948
  884MPD2    H113018   1.050   4.409  15.558 -0.4300  1.1766 -0.4560
  884MPD2    H213019   1.451   4.288  15.508  0.8925 -0.4588 -2.4816
  884MPD2    H313020   1.270   4.365  15.637 -2.8600 -0.2444  1.4866
  884MPD2     N13021   0.972   4.358  15.288 -1.0120 -0.7939  0.1500
  884MPD2    H513022   0.979   4.356  15.187 -0.1299  1.5633  0.1557
  884MPD2    N113023   1.411   4.185  15.254  0.0911  1.0313 -0.5405
  884MPD2    H713024   1.374   4.151  15.166  1.5895  3.8858 -2.2871
  885MPD2     C13025   0.204   0.130   0.635  0.5194  0.3569 -0.0078
  885MPD2    C113026   0.298   0.228   0.609  1.0648  0.9764  0.2658
  885MPD2    C213027   0.298   0.288   0.489 -0.2218  0.7945 -0.0057
  885MPD2    C313028   0.216   0.250   0.387 -0.4060  0.4766  0.6336
  885MPD2    C413029   0.132   0.143   0.407 -0.2138  0.3445  0.0970
  885MPD2    C513030   0.127   0.085   0.527 -0.3249  0.1088 -0.6589
  885MPD2     H13031   0.357   0.378   0.473  1.4723 -0.1916  0.6208
  885MPD2    H113032   0.067   0.096   0.334 -1.7262 -0.0047  1.6814
  885MPD2    H213033   0.194   0.071   0.726  0.5629  3.3323  1.9225
  885MPD2    H313034   0.069   4.736   0.539  1.1730 -0.7665  0.0296
  885MPD2     N13035   0.240   0.303   0.258 -0.4730  0.0393 -0.1702
  885MPD2    H513036   0.314   0.371   0.247 -0.7275  0.3089 -0.2015
  885MPD2    N113037   0.388   0.253   0.715 -0.2329 -0.2770  0.2028
  885MPD2    H713038   0.392   0.183   0.789 -1.8643 -0.9715 -0.3685
  886MPD2     C13039   1.216   2.866  15.335 -0.3045 -0.4236  1.0550
  886MPD2    C113040   1.163   2.949  15.433  0.1340 -0.5863 -0.4060
  886MPD2    C213041   1.113   3.067  15.391  1.0994 -0.3599  0.0523
  886MPD2    C313042   1.122   3.109  15.256 -1.0741  0.6072  0.5410
  886MPD2    C413043   1.170   3.023  15.161  0.2230  0.8521 -0.0108
  886MPD2    C513044   1.205   2.897  15.203 -0.1194 -0.7194  0.2804
  886MPD2     H13045   1.066   3.133  15.463  2.1400  1.3661 -0.8550
  886MPD2    H113046   1.172   3.050  15.056  0.8648  0.4578 -0.0997
  886MPD2    H213047   1.248   2.766  15.359  1.0857  0.0449  1.1792
  886MPD2    H313048   1.233   2.826  15.126  0.1449  0.3832 -0.6312
  886MPD2     N13049   1.065   3.226  15.210 -0.3650  0.3515 -0.3615
  886MPD2    H513050   1.065   3.242  15.110  0.3111 -1.0277 -0.5752
  886MPD2    N113051   1.162   2.916  15.572 -0.0398  0.3301 -0.0163
  886MPD2    H713052   1.097   2.976  15.621 -0.2527 -0.1125  0.2436
  887MPD2     C13053   1.335   3.211  16.232 -0.1781  0.1495 -0.3439
  887MPD2    C113054   1.321   3.206  16.096 -0.1635 -0.4608  0.7422
  887MPD2    C213055   1.382   3.310  16.021 -0.1662 -0.5927  0.5440
  887MPD2    C313056   1.466   3.406  16.081  0.2683 -0.0822 -0.0881
  887MPD2    C413057   1.488   3.401  16.217  0.4058  0.3319 -0.5631
  887MPD2    C513058   1.422   3.302  16.290 -0.6627 -0.2153  0.4317
  887MPD2     H13059   1.371   3.304  15.913  2.8128  0.6764  0.1562
  887MPD2    H113060   1.554   3.471  16.267  1.2147 -0.0114 -1.1490
  887MPD2    H213061   1.292   3.134  16.294  1.1353 -0.2779  0.0432
  887MPD2    H313062   1.444   3.288  16.395  2.2908  1.8229  0.0576
  887MPD2     N13063   1.535   3.492  15.992 -0.3588 -0.3985 -0.7990
  887MPD2    H513064   1.504   3.491  15.895 -0.3697  0.0955 -0.7971
  887MPD2    N113065   1.261   3.097  16.027 -0.4727 -0.4178 -0.3748
  887MPD2    H713066   1.273   3.107  15.926  0.8902  2.2763  0.0308
  888MPD2     C13067   3.221   3.328  15.017 -0.3937  0.3591  0.4205
  888MPD2    C113068   3.275   3.344  15.141 -0.4210 -0.3321 -0.6029
  888MPD2    C213069   3.344   3.463  15.172  0.2469 -0.1796 -0.2282
  888MPD2    C313070   3.383   3.545  15.067 -0.5976  0.3782  0.2471
  888MPD2    C413071   3.347   3.513  14.939 -0.5804 -0.1233  0.0263
  888MPD2    C513072   3.260   3.406  14.915 -0.6791  0.3088  0.1974
  888MPD2     H13073   3.393   3.484  15.266  0.6592  0.1451 -0.5182
  888MPD2    H113074   3.376   3.572  14.853 -0.1643 -0.7732 -0.2744
  888MPD2    H213075   3.144   3.254  14.997  0.8262 -1.4546  2.3769
  888MPD2    H313076   3.226   3.391  14.813 -1.8606 -0.0809  0.6563
  888MPD2     N13077   3.450   3.667  15.087  0.6942  0.1135 -0.1416
  888MPD2    H513078   3.466   3.695  15.184  1.6105 -0.1283 -0.2181
  888MPD2    N113079   3.241   3.254  15.242  0.1377 -0.6628  0.3197
  888MPD2    H713080   3.282   3.273  15.333  0.7442 -0.7894  0.0725
  889MPD2     C13081   2.112   2.471  13.621 -0.5189  0.2643  0.5396
  889MPD2    C113082   2.211   2.515  13.533 -0.2787  0.3611  0.5734
  889MPD2    C213083   2.288   2.619  13.581 -0.2223 -0.1600  0.1757
  889MPD2    C313084   2.230   2.706  13.672  0.4359 -0.2949  0.1774
  889MPD2    C413085   2.111   2.672  13.740 -0.3114  0.6129  0.5112
  889MPD2    C513086   2.055   2.553  13.714  0.2933 -0.6235  0.4598
  889MPD2     H13087   2.362   2.655  13.511 -1.2660  0.7324 -0.4809
  889MPD2    H113088   2.065   2.735  13.815  1.0554 -0.5679  2.3680
  889MPD2    H213089   2.054   2.384  13.594 -0.0249  0.7193 -2.0343
  889MPD2    H313090   1.968   2.511  13.762 -0.8002 -0.1256 -1.0984
  889MPD2     N13091   2.291   2.836  13.700  0.8739  0.4978 -0.0023
  889MPD2    H513092   2.367   2.860  13.637  0.5598 -0.0847 -0.6114
  889MPD2    N113093   2.272   2.421  13.448 -0.0401  0.7007  0.0954
  889MPD2    H713094   2.370   2.436  13.425  0.5707 -2.2957  0.6860
  890MPD2     C13095   2.469   4.390  14.616  0.4955  0.7909 -0.6386
  890MPD2    C113096   2.580   4.454  14.664  0.0828  0.6633  0.1637
  890MPD2    C213097   2.609   4.448  14.800  0.6557  0.2519  0.1549
  890MPD2    C313098   2.533   4.369  14.883 -0.0396  0.3848 -0.4740
  890MPD2    C413099   2.423   4.303  14.830 -0.1802  0.2352 -0.0482
  890MPD2    C513100   2.385   4.316  14.698  0.2127 -0.1469  0.0650
  890MPD2     H13101   2.700   4.487  14.844  0.0345 -0.4229  2.0424
  890MPD2    H113102   2.350   4.239  14.878  0.8158 -1.3170 -0.5979
  890MPD2    H213103   2.437   4.396  14.512 -0.5286  0.6027 -0.3333
  890MPD2    H313104   2.294   4.264  14.673 -0.2640  0.0805  1.3446
  890MPD2     N13105   2.586   4.333  15.007  0.1479 -0.2973 -0.0029
  890MPD2    H513106   2.681   4.365  15.024 -1.2926  2.7285  2.3921
  890MPD2    N113107   2.662   4.529  14.571  0.6524  0.0432  0.0445
  890MPD2    H713108   2.644   4.521  14.471  0.0175  0.7563  0.1051
  891MPD2     C13109   0.692   3.481  16.782 -0.2014 -0.4062  0.0597
  891MPD2    C113110   0.607   3.482  16.896  0.0296 -0.0664 -0.5469
  891MPD2    C213111   0.652   3.455  17.024 -0.4927 -1.3046  0.2403
  891MPD2    C313112   0.788   3.434  17.040  0.0892  0.1794 -0.4902
  891MPD2    C413113   0.876   3.450  16.933  0.3962 -0.4616  0.3595
  891MPD2    C513114   0.827   3.458  16.803  0.0495  0.6794 -0.3297
  891MPD2     H13115   0.589   3.462  17.112  0.1628  3.1201  0.3403
  891MPD2    H113116   0.984   3.436  16.939  0.2680 -1.0875  1.1290
  891MPD2    H213117   0.647   3.500  16.685 -0.5827 -2.6394 -0.1935
  891MPD2    H313118   0.893   3.441  16.719 -0.6130  1.6119 -1.0364
  891MPD2     N13119   0.836   3.402  17.171 -0.2680 -0.1446  0.5177
  891MPD2    H513120   0.776   3.429  17.249 -0.9018 -1.0148  0.3203
  891MPD2    N113121   0.472   3.512  16.873 -0.4154  0.6489  0.0379
  891MPD2    H713122   0.450   3.539  16.777 -2.4398  0.0356  0.3265
  892MPD2     C13123   1.380   3.871  14.755  0.1664 -0.4258 -0.2230
  892MPD2    C113124   1.282   3.879  14.659 -0.8925 -0.0444 -0.6144
  892MPD2    C213125   1.322   3.861  14.527 -0.1307 -0.2175 -0.3817
  892MPD2    C313126   1.455   3.830  14.495  0.4440 -0.2339 -0.0431
  892MPD2    C413127   1.548   3.821  14.595  0.3497  0.9208  0.0608
  892MPD2    C513128   1.506   3.840  14.726  0.2641  0.5168 -0.0784
  892MPD2     H13129   1.244   3.858  14.452 -1.4666 -0.7204  1.0219
  892MPD2    H113130   1.652   3.792  14.584 -0.2111 -0.9202 -0.2615
  892MPD2    H213131   1.366   3.880  14.862  2.1182 -2.2182  0.1830
  892MPD2    H313132   1.581   3.827  14.802 -0.1020 -1.7495 -0.1159
  892MPD2     N13133   1.493   3.799  14.362 -0.5848  0.3297  0.4134
  892MPD2    H513134   1.589   3.768  14.350 -1.5308 -2.0171 -1.1798
  892MPD2    N113135   1.150   3.911  14.686 -1.2356  0.2060 -0.2357
  892MPD2    H713136   1.085   3.932  14.610 -0.3755 -2.3215 -1.6759
  893MPD2     C13137   3.810   3.612   1.637 -0.9183  0.0170 -0.1251
  893MPD2    C113138   3.775   3.568   1.509  0.2321 -0.0218 -0.1158
  893MPD2    C213139   3.689   3.644   1.429  0.1924  0.1083  0.4879
  893MPD2    C313140   3.650   3.770   1.472 -0.3760  0.2142  0.6713
  893MPD2    C413141   3.692   3.815   1.598  0.1529  0.3527  1.0223
  893MPD2    C513142   3.771   3.739   1.680  0.6203  0.1317  0.7509
  893MPD2     H13143   3.658   3.606   1.332  3.0701 -0.9106 -0.0507
  893MPD2    H113144   3.674   3.918   1.624 -0.6913  0.2205  0.9671
  893MPD2    H213145   3.880   3.555   1.697 -0.9218 -0.6969 -0.7881
  893MPD2    H313146   3.791   3.793   1.773  0.7980  1.3978 -0.0209
  893MPD2     N13147   3.577   3.867   1.394 -0.2012 -0.3009 -0.5769
  893MPD2    H513148   3.560   3.957   1.438  1.2781  0.0448 -0.7113
  893MPD2    N113149   3.823   3.443   1.471  0.3704 -0.0572  0.5623
  893MPD2    H713150   3.877   3.393   1.541 -1.7940 -1.7815  0.9740
  894MPD2     C13151   2.132   0.833   0.897 -0.0160 -0.3517  0.5463
  894MPD2    C113152   2.062   0.900   0.989 -0.1104  0.5803 -0.1850
  894MPD2    C213153   2.076   1.037   0.986  0.4084 -0.2791  0.4840
  894MPD2    C313154   2.176   1.094   0.914  0.2624  0.1914 -0.4126
  894MPD2    C413155   2.245   1.019   0.821 -0.1145 -0.0412 -0.0377
  894MPD2    C513156   2.225   0.890   0.816 -0.0652 -0.0177 -0.0255
  894MPD2     H13157   2.027   1.098   1.062 -2.8828 -0.3477 -1.6023
  894MPD2    H113158   2.321   1.056   0.753 -0.1226  2.9664  1.5920
  894MPD2    H213159   2.120   0.725   0.890  0.7848 -0.3918 -0.1396
  894MPD2    H313160   2.283   0.829   0.747 -0.7246 -0.9539  0.2441
  894MPD2     N13161   2.203   1.230   0.941  0.3402  0.0086  0.1115
  894MPD2    H513162   2.132   1.282   0.992  1.1037  0.7806  0.3830
  894MPD2    N113163   1.977   0.830   1.075 -0.2291 -0.5098 -0.2910
  894MPD2    H713164   1.973   0.731   1.052  0.6623 -0.8738  1.1270
  895MPD2     C13165   4.615   3.362  14.204 -0.3194 -0.8220  0.1234
  895MPD2    C113166   4.610   3.336  14.070  0.2845 -0.4115 -0.6303
  895MPD2    C213167   4.730   3.318  14.008  0.1533 -0.8823  0.5392
  895MPD2    C313168   0.105   3.299  14.081  0.6903  0.0853  0.0281
  895MPD2    C413169   0.102   3.311  14.217  0.4014  0.1637 -0.4268
  895MPD2    C513170   4.733   3.352  14.279 -0.4507 -0.2929 -0.5389
  895MPD2     H13171   4.732   3.300  13.902  0.2620 -1.5186  0.6504
  895MPD2    H113172   0.184   3.299  14.288 -2.2705 -2.9271  2.1875
  895MPD2    H213173   4.526   3.366  14.265 -1.1667 -3.0676 -0.9700
  895MPD2    H313174   4.728   3.348  14.388  0.9492  0.9417 -0.4350
  895MPD2     N13175   0.216   3.258  14.011  0.3624  0.4959 -0.9433
  895MPD2    H513176   0.207   3.241  13.911  0.7116  2.6217 -1.3479
  895MPD2    N113177   4.495   3.337  13.984  0.5099  0.7267  0.1739
  895MPD2    H713178   4.511   3.317  13.886  0.3214  0.2503  0.2410
  896MPD2     C13179   3.399   1.922   0.763  0.0494 -0.4291 -0.0745
  896MPD2    C113180   3.358   1.799   0.795  0.2113  0.1800 -0.4138
  896MPD2    C213181   3.225   1.766   0.790  0.7335  0.1407 -0.4343
  896MPD2    C313182   3.132   1.854   0.758  0.1766 -0.4643 -0.2703
  896MPD2    C413183   3.173   1.985   0.733 -0.5941  0.0646  0.0007
  896MPD2    C513184   3.307   2.017   0.737  0.3511  0.6363 -0.0907
  896MPD2     H13185   3.186   1.668   0.814  0.6750  0.7358  1.9435
  896MPD2    H113186   3.104   2.061   0.697 -0.9187 -0.5476 -0.6690
  896MPD2    H213187   3.505   1.945   0.768 -0.0575  0.2302 -0.8279
  896MPD2    H313188   3.334   2.121   0.722 -4.3242  1.6268 -1.5501
  896MPD2     N13189   2.995   1.816   0.754 -0.3047  1.0333 -0.1858
  896MPD2    H513190   2.973   1.717   0.753 -0.6010  1.0990 -0.1879
  896MPD2    N113191   3.449   1.711   0.860  0.4638  0.2304 -0.1481
  896MPD2    H713192   3.533   1.758   0.891  0.2520 -0.6549  1.7602
  897MPD2     C13193   4.084   2.144  11.100 -0.0147 -0.0699  0.5796
  897MPD2    C113194   3.974   2.158  11.016 -0.6790  0.2124 -0.2032
  897MPD2    C213195   3.848   2.158  11.073 -0.4475 -0.1806 -0.1147
  897MPD2    C313196   3.834   2.125  11.210 -0.6240  0.3017  0.5561
  897MPD2    C413197   3.949   2.109  11.291 -0.1704  1.0855 -0.0369
  897MPD2    C513198   4.072   2.116  11.232  0.0904  0.3581 -0.1070
  897MPD2     H13199   3.754   2.145  11.021 -0.5580 -2.1389  0.5930
  897MPD2    H113200   3.939   2.085  11.396 -2.9858 -0.5001 -0.6672
  897MPD2    H213201   4.185   2.144  11.061 -0.0810 -0.1627  0.4077
  897MPD2    H313202   4.153   2.104  11.302  0.4499  0.0153 -0.5889
  897MPD2     N13203   3.703   2.124  11.264 -0.0648  0.0537 -0.2530
  897MPD2    H513204   3.629   2.138  11.196 -0.3324 -0.8813 -0.1520
  897MPD2    N113205   3.992   2.195  10.882 -0.2851  0.4483  0.0092
  897MPD2    H713206   4.086   2.228  10.863  0.4653  0.4579  3.9125
  898MPD2     C13207   1.505   3.516   0.008 -0.0399 -0.0128  0.4891
  898MPD2    C113208   1.505   3.587  17.652  0.8954  1.2044 -0.0112
  898MPD2    C213209   1.397   3.662  17.614  0.3218  0.1009 -0.0241
  898MPD2    C313210   1.279   3.663  17.690  0.0169  0.2465 -0.6376
  898MPD2    C413211   1.276   3.590   0.043  0.0960 -0.7668 -0.1467
  898MPD2    C513212   1.388   3.513   0.074 -0.7115  0.4440  0.4166
  898MPD2     H13213   1.400   3.713  17.519  1.2621 -1.8833 -1.0663
  898MPD2    H113214   1.192   3.588   0.113 -1.0146  0.6426 -1.4467
  898MPD2    H213215   1.589   3.460   0.048 -0.3277 -1.9916 -1.5976
  898MPD2    H313216   1.391   3.459   0.168 -1.9239 -0.6601 -0.1753
  898MPD2     N13217   1.176   3.747  17.643  0.6515  0.1077  0.1616
  898MPD2    H513218   1.201   3.792  17.556 -0.2387  1.9007  0.8287
  898MPD2    N113219   1.629   3.586  17.577 -0.6846  0.7849  0.0053
  898MPD2    H713220   1.706   3.525  17.606 -0.0766  2.3138  1.6208
  899MPD2     C13221   2.249   4.212   0.047  0.0721 -0.4644  0.6886
  899MPD2    C113222   2.262   4.340   0.088 -0.6666  0.0479 -0.2882
  899MPD2    C213223   2.218   4.371   0.216 -0.1699 -0.3783  0.6731
  899MPD2    C313224   2.166   4.277   0.303  0.0378  0.4292 -0.2273
  899MPD2    C413225   2.163   4.145   0.260  0.0926 -0.0657  0.2339
  899MPD2    C513226   2.208   4.119   0.135 -0.3320  0.0340  0.0181
  899MPD2     H13227   2.235   4.473   0.249 -1.0339 -0.3938  1.1699
  899MPD2    H113228   2.123   4.063   0.319 -0.7168 -0.0654 -0.3045
  899MPD2    H213229   2.256   4.175  17.709 -2.6385  0.1346  0.2736
  899MPD2    H313230   2.194   4.018   0.098  1.0485  0.3012 -1.2377
  899MPD2     N13231   2.101   4.308   0.428 -0.5780 -0.4125 -0.6041
  899MPD2    H513232   2.047   4.232   0.469 -1.3717 -0.8071 -2.3434
  899MPD2    N113233   2.305   4.429  17.751 -0.2590 -0.5353  0.0557
  899MPD2    H713234   2.327   4.403  17.655  0.5796 -0.3452  0.1903
  900MPD2     C13235   1.684   0.949  12.809 -0.4305 -0.0903 -0.1876
  900MPD2    C113236   1.680   0.851  12.713  0.4611 -0.6516  0.3881
  900MPD2    C213237   1.598   0.863  12.601  0.6479 -0.0999 -0.2674
  900MPD2    C313238   1.532   0.973  12.578  0.0708  0.0805 -0.0625
  900MPD2    C413239   1.541   1.080  12.667  0.2141  0.2054 -0.1502
  900MPD2    C513240   1.616   1.064  12.786 -0.1940 -0.6651  0.7308
  900MPD2     H13241   1.599   0.778  12.533  0.2542  0.4630 -0.9799
  900MPD2    H113242   1.478   1.169  12.665  0.6573  0.5523  1.2845
  900MPD2    H213243   1.750   0.946  12.895  1.2304  2.3094 -1.4045
  900MPD2    H313244   1.617   1.150  12.852  0.1790 -1.2138  1.4403
  900MPD2     N13245   1.432   0.976  12.476  0.1696 -0.8520 -0.6144
  900MPD2    H513246   1.405   0.883  12.444 -0.0427 -1.3271  0.9235
  900MPD2    N113247   1.738   0.728  12.754  0.3423  0.1273  1.2059
  900MPD2    H713248   1.773   0.730  12.849  2.4002 -1.3990  0.4828
  901MPD2     C13249   1.525   4.548  13.132 -0.3550  0.5723 -0.1168
  901MPD2    C113250   1.650   4.534  13.067  0.0535 -0.1650  0.2647
  901MPD2    C213251   1.704   4.641  13.006  0.4493 -0.5974  1.3998
  901MPD2    C313252   1.642   0.024  13.014 -0.1842  0.4907  0.6204
  901MPD2    C413253   1.511   0.035  13.065 -0.0037 -0.3622  0.3881
  901MPD2    C513254   1.456   4.664  13.123  0.1153  0.0937  0.9398
  901MPD2     H13255   1.802   4.632  12.960  1.1628 -2.5874  3.3034
  901MPD2    H113256   1.456   0.128  13.070 -2.5471 -1.9174  1.0652
  901MPD2    H213257   1.470   4.474  13.189 -0.6071 -0.3781 -1.6113
  901MPD2    H313258   1.362   4.679  13.174  0.4236 -2.3742  2.2199
  901MPD2     N13259   1.723   0.131  12.976 -0.0583 -0.4149 -0.5614
  901MPD2    H513260   1.806   0.104  12.924  0.7172  0.5829  0.1591
  901MPD2    N113261   1.696   4.397  13.059  0.0795 -0.3473 -0.4068
  901MPD2    H713262   1.629   4.325  13.085  0.2129 -0.9843 -1.8145
  902MPD2     C13263   0.905   3.467  12.784  0.6629  0.0511  0.5245
  902MPD2    C113264   0.916   3.567  12.687  0.9171 -0.2487 -0.3028
  902MPD2    C213265   0.961   3.532  12.569  0.2504 -0.0397  0.2346
  902MPD2    C313266   1.003   3.400  12.538 -0.2339 -0.4190 -0.8305
  902MPD2    C413267   0.988   3.301  12.634 -0.1433  0.2872  0.6144
  902MPD2    C513268   0.928   3.339  12.750 -0.2077  0.7597  0.5864
  902MPD2     H13269   0.967   3.605  12.488 -0.3953 -0.9333 -0.6200
  902MPD2    H113270   1.008   3.196  12.617 -2.0618 -0.3404  2.1237
  902MPD2    H213271   0.867   3.499  12.881  0.2274 -1.5379  0.8879
  902MPD2    H313272   0.908   3.266  12.827 -1.1070  0.2236 -0.1658
  902MPD2     N13273   1.051   3.344  12.414 -0.3572  0.1737  0.3527
  902MPD2    H513274   1.068   3.244  12.415 -1.4122  0.0002  0.6203
  902MPD2    N113275   0.876   3.702  12.711 -0.6955 -0.1634 -0.2581
  902MPD2    H713276   0.858   3.717  12.810 -0.5077  2.2683 -0.5823
  903MPD2     C13277   0.882   3.543  11.665 -0.5232 -0.3225  0.4114
  903MPD2    C113278   0.873   3.516  11.807  0.1977  0.2230  0.4143
  903MPD2    C213279   0.754   3.542  11.874 -0.1736 -0.1099  0.5428
  903MPD2    C313280   0.643   3.589  11.798 -0.2624 -0.3562  0.5120
  903MPD2    C413281   0.650   3.618  11.659 -0.0107 -0.1853  0.0431
  903MPD2    C513282   0.768   3.592  11.595 -0.5303 -0.3189  0.0737
  903MPD2     H13283   0.747   3.520  11.979  0.2544  2.5602  1.1300
  903MPD2    H113284   0.565   3.657  11.603  0.6360  0.0817 -0.7443
  903MPD2    H213285   0.973   3.539  11.607 -0.5426  0.6450  0.3118
  903MPD2    H313286   0.775   3.594  11.487 -1.6936 -0.4000 -0.0014
  903MPD2     N13287   0.519   3.618  11.872 -0.2865  0.1948  0.3903
  903MPD2    H513288   0.435   3.636  11.818 -0.2309  0.8891  0.5333
  903MPD2    N113289   0.975   3.467  11.885 -0.7922 -0.3686 -0.0866
  903MPD2    H713290   0.954   3.460  11.984 -2.6552 -1.0153 -0.5385
  904MPD2     C13291   4.707   2.353  14.481 -0.5157 -0.5945  0.7024
  904MPD2    C113292   0.044   2.463  14.455 -0.3287  0.0256  0.1342
  904MPD2    C213293   0.172   2.463  14.493  0.2103  0.6079  0.4444
  904MPD2    C313294   0.227   2.352  14.562 -0.1105 -0.4586 -0.4673
  904MPD2    C413295   0.143   2.246  14.593  0.0646 -0.6414 -0.1610
  904MPD2    C513296   0.015   2.238  14.538 -0.0535 -0.3629 -0.3217
  904MPD2     H13297   0.231   2.549  14.462 -1.0930  0.9189 -1.1737
  904MPD2    H113298   0.170   2.160  14.654  2.0832 -0.3061 -0.5983
  904MPD2    H213299   4.603   2.344  14.449  0.1213 -0.9975 -1.2601
  904MPD2    H313300   4.688   2.158  14.560 -0.3055  0.8816  3.5192
  904MPD2     N13301   0.360   2.353  14.610  1.4170 -0.0284 -0.0490
  904MPD2    H513302   0.375   2.312  14.701  2.7544  0.2511 -0.1422
  904MPD2    N113303   4.725   2.581  14.398 -0.6421  0.1795  0.1914
  904MPD2    H713304   0.043   2.664  14.403  0.0684 -0.3234  0.0570
  905MPD2     C13305   4.655   2.754  13.689  0.2280  0.3874 -0.0349
  905MPD2    C113306   4.725   2.831  13.781  0.1397 -0.2109  0.2404
  905MPD2    C213307   0.091   2.906  13.735  0.1747  0.1956  0.4554
  905MPD2    C313308   0.154   2.878  13.612 -0.5580 -0.3849 -0.7383
  905MPD2    C413309   0.091   2.789  13.528 -0.1839  0.0705  0.0063
  905MPD2    C513310   4.711   2.732  13.565 -0.1805  0.6778  0.1129
  905MPD2     H13311   0.128   2.985  13.800  1.6402  0.2787 -0.4848
  905MPD2    H113312   0.125   2.771  13.427 -1.5652  2.4457 -0.8621
  905MPD2    H213313   4.562   2.703  13.715  0.5423 -0.1428  0.0375
  905MPD2    H313314   4.649   2.675  13.497 -0.8471  1.2034  0.2780
  905MPD2     N13315   0.273   2.942  13.562  0.0489  0.3448 -0.7425
  905MPD2    H513316   0.295   2.932  13.464 -0.1006 -0.8166 -0.6553
  905MPD2    N113317   4.681   2.841  13.917 -0.6826  0.0599  0.1888
  905MPD2    H713318   4.600   2.790  13.949 -0.0083 -0.8453  0.4679
  906MPD2     C13319   2.295   2.082  11.514 -0.3263 -0.0414 -0.0515
  906MPD2    C113320   2.199   2.120  11.416 -1.0410 -0.6126  0.0545
  906MPD2    C213321   2.060   2.116  11.458 -0.3865  0.2768 -0.1218
  906MPD2    C313322   2.019   2.066  11.582  0.1387  0.3580  0.3241
  906MPD2    C413323   2.120   2.043  11.668 -0.5847  0.5916 -0.1982
  906MPD2    C513324   2.253   2.048  11.638  0.1022 -0.4435  0.6492
  906MPD2     H13325   1.980   2.147  11.391 -2.2171 -0.3392  1.7930
  906MPD2    H113326   2.094   2.006  11.767  1.0333  2.9323  1.1117
  906MPD2    H213327   2.402   2.075  11.495 -0.9488 -1.0297 -3.2634
  906MPD2    H313328   2.323   2.028  11.717 -0.2558 -2.2114  0.5130
  906MPD2     N13329   1.886   2.032  11.623  0.8780  0.0245  0.2967
  906MPD2    H513330   1.879   1.979  11.709  0.9358 -0.4817 -0.0099
  906MPD2    N113331   2.230   2.191  11.300 -0.0911 -0.1270 -0.3870
  906MPD2    H713332   2.153   2.222  11.242 -1.0937 -1.3907  0.2471
  907MPD2     C13333   1.646   1.957  15.787  0.2911 -0.3696 -0.0710
  907MPD2    C113334   1.666   1.819  15.783 -0.3983  0.6130  0.8088
  907MPD2    C213335   1.719   1.747  15.889 -0.2982 -0.5987 -0.3500
  907MPD2    C313336   1.729   1.807  16.014  0.3381  0.3291  0.4408
  907MPD2    C413337   1.699   1.941  16.016  0.6476  0.3594 -0.3008
  907MPD2    C513338   1.668   2.015  15.907 -0.6365 -0.2917 -0.4838
  907MPD2     H13339   1.733   1.642  15.864 -0.0162 -0.4650 -0.7579
  907MPD2    H113340   1.700   1.994  16.111 -0.9492  0.9275 -0.6077
  907MPD2    H213341   1.643   2.023  15.702  1.0792 -0.8211 -0.4451
  907MPD2    H313342   1.643   2.119  15.926  0.9380  0.0267 -0.1420
  907MPD2     N13343   1.769   1.727  16.119 -0.1115 -0.3712  0.0331
  907MPD2    H513344   1.795   1.631  16.100  1.3756  0.3359 -1.4518
  907MPD2    N113345   1.629   1.747  15.669  0.2198 -0.1608  0.0575
  907MPD2    H713346   1.650   1.648  15.661  0.9207 -0.3105  4.0269
  908MPD2     C13347   3.655   2.001   9.906 -0.3603 -0.1818  0.3756
  908MPD2    C113348   3.740   1.907   9.963  0.4744  0.3556 -0.1015
  908MPD2    C213349   3.809   1.944  10.081  0.7565  0.8638 -0.2810
  908MPD2    C313350   3.794   2.068  10.141  0.9517 -0.1524  0.4066
  908MPD2    C413351   3.698   2.151  10.075  0.0664  0.4007 -0.1059
  908MPD2    C513352   3.635   2.122   9.965  0.5874  0.9058 -0.4542
  908MPD2     H13353   3.872   1.867  10.126  1.4480  1.8250  0.4001
  908MPD2    H113354   3.688   2.250  10.118 -0.7654  1.3613 -2.5156
  908MPD2    H213355   3.604   1.987   9.811 -1.0827 -0.2949  0.7794
  908MPD2    H313356   3.576   2.199   9.915  0.4634  2.0328  1.4294
  908MPD2     N13357   3.865   2.110  10.252  0.7648  0.7493 -0.0110
  908MPD2    H513358   3.908   2.038  10.309 -0.0550 -0.1975 -0.5784
  908MPD2    N113359   3.777   1.802   9.882 -0.1181 -0.2662  0.1044
  908MPD2    H713360   3.724   1.798   9.796  3.3770 -1.1939 -2.0143
  909MPD2     C13361   4.231   0.429  11.719  0.2447  0.1541 -0.2819
  909MPD2    C113362   4.227   0.554  11.659 -0.2800  0.0173  0.1831
  909MPD2    C213363   4.144   0.645  11.716  0.0133  0.0991  0.4666
  909MPD2    C313364   4.067   0.625  11.824 -0.0256 -0.8816 -0.0593
  909MPD2    C413365   4.074   0.503  11.889  0.4170  0.2158  0.7201
  909MPD2    C513366   4.152   0.403  11.828 -0.0441 -0.4493  0.7846
  909MPD2     H13367   4.136   0.745  11.676  0.0471 -0.0969 -0.0375
  909MPD2    H113368   4.013   0.480  11.976  0.8716  2.3563  1.6000
  909MPD2    H213369   4.285   0.345  11.677  1.6579  1.0743 -0.3158
  909MPD2    H313370   4.141   0.304  11.871 -0.5017 -0.7286  0.0215
  909MPD2     N13371   3.983   0.734  11.866 -0.4140  0.1312  0.3037
  909MPD2    H513372   3.985   0.815  11.806  0.5215  0.4919  0.8356
  909MPD2    N113373   4.310   0.596  11.554  0.4217  0.3025  0.1994
  909MPD2    H713374   4.304   0.695  11.535  0.5157  0.1837 -0.4499
  910MPD2     C13375   0.887   2.382  16.186 -0.0799  0.1673 -0.2637
  910MPD2    C113376   0.988   2.339  16.095  0.7575  0.2233 -0.3756
  910MPD2    C213377   0.985   2.397  15.972  0.1794 -0.2546  0.3835
  910MPD2    C313378   0.902   2.501  15.944 -0.2993  0.0533 -0.2049
  910MPD2    C413379   0.819   2.543  16.040 -0.6318  0.5461 -0.4883
  910MPD2    C513380   0.805   2.484  16.157  1.1331 -0.2417  0.2752
  910MPD2     H13381   1.051   2.361  15.894 -1.4773 -0.1664 -1.0476
  910MPD2    H113382   0.761   2.631  16.014 -1.8396 -0.0518  0.1974
  910MPD2    H213383   0.868   2.340  16.285 -0.3730  2.5864  0.7011
  910MPD2    H313384   0.738   2.527  16.231  0.8698  0.4448 -0.3691
  910MPD2     N13385   0.887   2.572  15.824 -0.1209  0.3947  0.1188
  910MPD2    H513386   0.813   2.640  15.826  1.1712  1.7662  1.5189
  910MPD2    N113387   1.085   2.232  16.124 -0.4310  0.1717  0.1979
  910MPD2    H713388   1.155   2.211  16.053 -0.6490  0.9159 -0.2401
  911MPD2     C13389   3.669   2.695  16.549  0.2249 -0.0526  0.0962
  911MPD2    C113390   3.736   2.807  16.576  0.0089  0.0126  0.8346
  911MPD2    C213391   3.697   2.931  16.514  0.1601 -0.2460 -0.0477
  911MPD2    C313392   3.584   2.938  16.435 -0.6506 -0.4940 -0.6519
  911MPD2    C413393   3.518   2.820  16.411 -0.1898  0.6777 -0.4025
  911MPD2    C513394   3.567   2.700  16.459 -0.6212 -0.2118  0.1322
  911MPD2     H13395   3.757   3.020  16.524 -0.6274  0.6302 -3.1636
  911MPD2    H113396   3.435   2.814  16.342 -0.2569 -0.8539 -0.1962
  911MPD2    H213397   3.690   2.595  16.583  2.5594  0.5995  0.5636
  911MPD2    H313398   3.507   2.613  16.436 -0.6504  0.5372 -2.6712
  911MPD2     N13399   3.530   3.052  16.365  0.6496  0.1011 -0.4980
  911MPD2    H513400   3.433   3.045  16.335 -0.0199  1.4076  1.3765
  911MPD2    N113401   3.840   2.806  16.665 -0.1780  0.3512 -1.0069
  911MPD2    H713402   3.864   2.716  16.707 -2.2011  1.0043  1.5500
  912MPD2     C13403   3.098   3.030  15.777 -1.1271  0.4461 -0.4997
  912MPD2    C113404   3.150   2.997  15.898 -0.5120  0.5772  0.5369
  912MPD2    C213405   3.140   2.868  15.946 -0.5929 -0.2068  0.3541
  912MPD2    C313406   3.075   2.770  15.871  0.2927 -0.7796 -0.4368
  912MPD2    C413407   3.016   2.804  15.748  0.4622  0.4447 -0.1014
  912MPD2    C513408   3.034   2.934  15.700  0.2507  0.5170  0.0319
  912MPD2     H13409   3.187   2.832  16.037 -1.3942  0.6818  1.1132
  912MPD2    H113410   2.949   2.737  15.695 -0.7163  1.8915 -0.4498
  912MPD2    H213411   3.100   3.131  15.740  0.4579 -0.0261 -1.7040
  912MPD2    H313412   3.011   2.954  15.596  0.1181 -0.0339 -0.0432
  912MPD2     N13413   3.049   2.652  15.947  0.2436 -0.2421  0.2708
  912MPD2    H513414   3.066   2.655  16.047 -0.7681 -0.5911  0.4458
  912MPD2    N113415   3.230   3.100  15.961 -0.2482 -0.1817 -0.1401
  912MPD2    H713416   3.237   3.191  15.918  0.6272 -0.1580  0.0597
  913MPD2     C13417   3.962   4.273  11.470  0.1739  0.1580 -0.0887
  913MPD2    C113418   3.945   4.157  11.401  0.3292  0.9446 -0.8587
  913MPD2    C213419   3.904   4.162  11.263 -0.3929 -0.3343 -0.5296
  913MPD2    C313420   3.889   4.291  11.202 -0.4784  0.2403  1.0247
  913MPD2    C413421   3.903   4.405  11.277 -0.0698  0.4726 -0.8213
  913MPD2    C513422   3.942   4.396  11.411  0.7109 -0.0752  0.3226
  913MPD2     H13423   3.902   4.073  11.200 -1.8657 -1.1735  0.7075
  913MPD2    H113424   3.885   4.505  11.240  1.1177  2.1772  3.1176
  913MPD2    H213425   3.998   4.278  11.572  2.7416 -4.4632 -0.7645
  913MPD2    H313426   3.945   4.487  11.469 -0.5851 -0.0603  0.3818
  913MPD2     N13427   3.852   4.313  11.069 -0.3039  0.2112 -0.2300
  913MPD2    H513428   3.855   4.407  11.031 -1.3457 -0.4779 -2.0072
  913MPD2    N113429   3.972   4.034  11.468 -0.1457 -0.2711 -0.3717
  913MPD2    H713430   3.985   4.046  11.568 -0.4337  0.0400 -0.3743
  914MPD2     C13431   1.663   4.354  12.192  0.0961 -0.8100 -1.4122
  914MPD2    C113432   1.717   4.442  12.286  0.2463  0.6618 -0.2444
  914MPD2    C213433   1.746   4.393  12.416 -0.2904 -0.8858  0.2463
  914MPD2    C313434   1.722   4.257  12.450 -0.5473  0.4948  0.0319
  914MPD2    C413435   1.671   4.176  12.355 -0.2886  0.2647  0.3466
  914MPD2    C513436   1.641   4.226  12.228  0.4740  0.3732 -0.0089
  914MPD2     H13437   1.764   4.457  12.502 -0.5560 -0.3143 -0.1218
  914MPD2    H113438   1.643   4.072  12.368 -1.2759  0.2864 -1.6473
  914MPD2    H213439   1.641   4.379  12.089  1.5030  2.7982 -0.8369
  914MPD2    H313440   1.582   4.160  12.166 -0.0542 -0.0920  0.9936
  914MPD2     N13441   1.741   4.221  12.585  0.0658  0.2592 -0.1949
  914MPD2    H513442   1.753   4.302  12.645  2.3153 -1.8333  2.1618
  914MPD2    N113443   1.736   4.578  12.249  0.2004  0.3984  1.1295
  914MPD2    H713444   1.697   4.609  12.161 -0.0401 -1.9318  0.4218
  915MPD2     C13445   0.059   4.360  15.546  0.4912  0.2416  0.5604
  915MPD2    C113446   4.684   4.302  15.600  0.2543  0.6910  0.2464
  915MPD2    C213447   4.649   4.344  15.727  0.2142 -0.0796 -0.4715
  915MPD2    C313448   4.710   4.448  15.790  0.3285 -0.1717  0.1404
  915MPD2    C413449   0.072   4.506  15.733  0.0020 -0.4276  0.3616
  915MPD2    C513450   0.117   4.462  15.617 -0.2404 -0.0399  0.5820
  915MPD2     H13451   4.578   4.282  15.781 -0.0767 -0.4274 -1.2539
  915MPD2    H113452   0.128   4.583  15.785 -0.6814  1.5867 -1.8848
  915MPD2    H213453   0.090   4.325  15.448  1.5822  4.3381 -0.5386
  915MPD2    H313454   0.195   4.520  15.569 -0.9585 -0.8943 -1.6323
  915MPD2     N13455   4.690   4.483  15.928 -0.1660  0.4710 -0.0071
  915MPD2    H513456   4.739   4.563  15.967 -1.3710  1.7519 -1.1248
  915MPD2    N113457   4.611   4.204  15.525  0.5062  0.3235 -0.1298
  915MPD2    H713458   4.656   4.184  15.436 -0.8062  2.8194 -1.3334
  916MPD2     C13459   2.616   2.401  15.643  0.4545  0.6118  0.2919
  916MPD2    C113460   2.635   2.330  15.757 -0.0592  0.2896  0.0093
  916MPD2    C213461   2.691   2.203  15.749  0.4698  0.4137 -0.1850
  916MPD2    C313462   2.728   2.157  15.627 -0.7406 -0.0201 -0.3327
  916MPD2    C413463   2.700   2.228  15.516  0.5132 -0.1499  0.1067
  916MPD2    C513464   2.642   2.353  15.519  0.0504  0.1169  0.5527
  916MPD2     H13465   2.723   2.156  15.841  1.6773 -1.7496 -1.6981
  916MPD2    H113466   2.739   2.193  15.422 -0.0208 -0.3444 -0.0445
  916MPD2    H213467   2.555   2.489  15.656  0.6421  0.7967 -0.1035
  916MPD2    H313468   2.610   2.397  15.426  2.4281  1.8499  0.5341
  916MPD2     N13469   2.800   2.033  15.619 -0.3471  0.3921  0.4099
  916MPD2    H513470   2.848   2.005  15.704  0.0837 -1.0014 -0.3053
  916MPD2    N113471   2.604   2.384  15.885  0.2588  0.0706 -0.0514
  916MPD2    H713472   2.574   2.481  15.887 -2.0104 -0.6356 -0.1432
  917MPD2     C13473   2.741   4.583  11.421  0.6696  0.1413  0.6948
  917MPD2    C113474   2.834   4.638  11.508 -0.0517 -0.4053 -0.2144
  917MPD2    C213475   2.901   0.012  11.467 -0.3155 -0.0475 -1.0477
  917MPD2    C313476   2.879   0.067  11.341 -0.7406 -0.2412  0.4921
  917MPD2    C413477   2.788   0.001  11.261 -0.8054 -0.1551  0.4402
  917MPD2    C513478   2.726   4.634  11.300 -0.2511  0.7088 -0.1950
  917MPD2     H13479   2.983   0.049  11.528 -1.1149 -0.4429  0.2845
  917MPD2    H113480   2.762   0.030  11.160 -1.2650 -0.5768  0.4402
  917MPD2    H213481   2.693   4.489  11.448  2.0327 -0.7220  0.1450
  917MPD2    H313482   2.654   4.587  11.234  0.9630 -1.4574  0.0137
  917MPD2     N13483   2.961   0.171  11.283  0.4873  0.0783  0.0680
  917MPD2    H513484   2.930   0.217  11.198 -1.4399 -0.0645  0.7001
  917MPD2    N113485   2.848   4.586  11.637 -1.0217 -0.1061  0.2641
  917MPD2    H713486   2.799   4.498  11.650  4.7525 -3.3022  0.1321
  918MPD2     C13487   2.855   0.529  12.240 -0.3407  0.4760 -0.1266
  918MPD2    C113488   2.987   0.478  12.263 -0.2486 -0.9151  0.1755
  918MPD2    C213489   3.007   0.349  12.210 -0.4306  0.4140  1.2917
  918MPD2    C313490   2.912   0.269  12.147  0.0268  1.2651  0.5724
  918MPD2    C413491   2.778   0.318  12.143 -0.3793 -0.2180 -0.5235
  918MPD2    C513492   2.758   0.451  12.184 -0.0958  0.1104  0.6277
  918MPD2     H13493   3.109   0.312  12.222 -1.1772 -1.1239  2.8086
  918MPD2    H113494   2.695   0.270  12.092 -0.9834 -0.9900  1.1823
  918MPD2    H213495   2.825   0.627  12.275 -0.0103  0.6877 -0.4280
  918MPD2    H313496   2.657   0.489  12.183  0.2208  1.0029  1.9466
  918MPD2     N13497   2.940   0.138  12.113  0.1155  0.0911 -0.0336
  918MPD2    H513498   3.037   0.109  12.114  0.1808  0.2807 -0.9062
  918MPD2    N113499   3.087   0.558  12.329 -0.2364 -0.7072  0.0377
  918MPD2    H713500   3.179   0.516  12.334 -0.4734 -0.9554  2.4122
  919MPD2     C13501   3.595   3.787  12.163  0.9306  0.6411 -0.0158
  919MPD2    C113502   3.526   3.688  12.096 -0.1845  0.0606  0.5138
  919MPD2    C213503   3.464   3.719  11.977 -0.4683 -0.2595  0.3647
  919MPD2    C313504   3.444   3.850  11.936  0.1647 -0.3688 -0.8793
  919MPD2    C413505   3.508   3.948  12.007 -0.1050 -0.7609 -0.0448
  919MPD2    C513506   3.573   3.917  12.127  0.2922 -0.4264 -0.6809
  919MPD2     H13507   3.420   3.636  11.924 -0.0453  0.2472 -0.7750
  919MPD2    H113508   3.520   4.050  11.972  0.4405 -1.6566 -2.4581
  919MPD2    H213509   3.672   3.770  12.238 -0.4834 -4.4058  0.2576
  919MPD2    H313510   3.633   3.990  12.179 -0.0319  0.1094 -1.0581
  919MPD2     N13511   3.362   3.884  11.821 -0.5550  0.1280 -0.1111
  919MPD2    H513512   3.374   3.983  11.800  2.3749 -0.1636  0.2454
  919MPD2    N113513   3.521   3.554  12.153  0.1460 -0.7336 -0.4461
  919MPD2    H713514   3.471   3.489  12.092 -0.0300 -0.8648 -0.1639
  920MPD2     C13515   3.444   4.435  11.024  0.0911 -0.0827 -0.7508
  920MPD2    C113516   3.335   4.363  10.973  0.0597  0.0321  0.1277
  920MPD2    C213517   3.279   4.267  11.063 -0.2597 -0.9203  0.9173
  920MPD2    C313518   3.338   4.246  11.190  0.0409  0.4081 -0.5168
  920MPD2    C413519   3.451   4.312  11.223 -0.7984  0.7951 -0.2324
  920MPD2    C513520   3.501   4.403  11.140  0.3862 -0.0966 -0.0925
  920MPD2     H13521   3.187   4.219  11.032 -1.4113  1.8073  0.1784
  920MPD2    H113522   3.498   4.297  11.320 -0.8988 -0.1899 -0.3313
  920MPD2    H213523   3.487   4.512  10.962  1.1593 -1.2261 -1.4342
  920MPD2    H313524   3.582   4.470  11.167  0.7336 -0.2643 -0.7186
  920MPD2     N13525   3.269   4.156  11.285  0.0372  0.4727 -0.4456
  920MPD2    H513526   3.196   4.103  11.239 -1.5308  2.6480 -0.4440
  920MPD2    N113527   3.266   4.396  10.852 -0.2264  0.2193  0.1124
  920MPD2    H713528   3.203   4.325  10.818  2.1256 -1.1445 -1.4592
  921MPD2     C13529   4.443   3.436  17.214 -0.1138 -0.0172 -0.5050
  921MPD2    C113530   4.487   3.371  17.101  0.5647  0.5029  0.8374
  921MPD2    C213531   4.405   3.264  17.063 -0.2844  0.6423 -0.2816
  921MPD2    C313532   4.298   3.218  17.138 -0.0461  0.1861  0.1935
  921MPD2    C413533   4.268   3.280  17.258  0.3716  1.4602 -0.2588
  921MPD2    C513534   4.341   3.391  17.295  0.0876 -0.4988 -0.3436
  921MPD2     H13535   4.443   3.211  16.976 -0.0670  1.9828 -0.9956
  921MPD2    H113536   4.184   3.246  17.317  1.2493  0.1832  0.2350
  921MPD2    H213537   4.498   3.521  17.252 -1.7407  0.6724  0.3371
  921MPD2    H313538   4.328   3.439  17.391 -2.1217  0.9780 -1.3694
  921MPD2     N13539   4.216   3.107  17.097  0.5923  0.3366  0.8583
  921MPD2    H513540   4.134   3.083  17.151 -0.0417  0.0507 -0.2376
  921MPD2    N113541   4.601   3.417  17.031  0.6108 -0.0278  0.3192
  921MPD2    H713542   4.653   3.496  17.067  0.7435 -0.0955  0.2781
  922MPD2     C13543   0.539   1.680  17.177 -0.0063  0.3063 -0.4924
  922MPD2    C113544   0.571   1.653  17.311 -1.0153  0.1433  0.1294
  922MPD2    C213545   0.585   1.526  17.355 -0.3978  0.4472 -0.3371
  922MPD2    C313546   0.560   1.417  17.266 -0.1230  0.2212  0.4850
  922MPD2    C413547   0.525   1.446  17.136  0.3657  0.4218 -0.3206
  922MPD2    C513548   0.510   1.573  17.091  0.2781 -0.7129  0.4343
  922MPD2     H13549   0.622   1.507  17.455  2.4107  2.0492 -1.0984
  922MPD2    H113550   0.500   1.365  17.068  0.9988  0.7757 -0.9676
  922MPD2    H213551   0.532   1.782  17.141 -1.4813  0.6688  0.7937
  922MPD2    H313552   0.485   1.597  16.988  3.1417 -0.0869 -0.1116
  922MPD2     N13553   0.559   1.282  17.305 -0.0135 -0.3725  0.3635
  922MPD2    H513554   0.517   1.217  17.239  1.4523 -1.5277  0.5722
  922MPD2    N113555   0.599   1.752  17.407  0.2111 -0.4000 -0.5312
  922MPD2    H713556   0.627   1.721  17.500 -1.3245  0.5219  0.2506
  923MPD2     C13557   0.972   2.300   9.191 -0.6002  0.9363  0.0476
  923MPD2    C113558   0.954   2.391   9.288  0.0747 -0.1695  0.5702
  923MPD2    C213559   1.054   2.442   9.369 -0.2752 -0.2057  0.1361
  923MPD2    C313560   1.185   2.391   9.355 -0.4140 -0.4887  0.2090
  923MPD2    C413561   1.206   2.294   9.255 -0.3882 -0.1364 -0.7255
  923MPD2    C513562   1.097   2.255   9.175 -0.8353  0.2392  0.7091
  923MPD2     H13563   1.031   2.507   9.452 -1.5900 -0.8745  0.2857
  923MPD2    H113564   1.307   2.262   9.232 -0.0708 -0.7926  1.5737
  923MPD2    H213565   0.895   2.280   9.117  1.5560 -2.1928 -1.3365
  923MPD2    H313566   1.107   2.202   9.080 -0.2705 -1.1576  1.5428
  923MPD2     N13567   1.294   2.427   9.438  0.6691  0.5675 -0.1434
  923MPD2    H513568   1.382   2.381   9.417 -0.1942 -0.1501 -2.1713
  923MPD2    N113569   0.820   2.432   9.306  0.4245  0.4441  0.6239
  923MPD2    H713570   0.746   2.395   9.248  0.8192  0.6064  0.0113
  924MPD2     C13571   1.951   0.886  16.071  0.3178  1.0376 -0.0156
  924MPD2    C113572   1.895   0.894  16.199 -0.9690 -0.4249 -0.1859
  924MPD2    C213573   1.886   1.023  16.253 -0.4394 -0.1450  0.4657
  924MPD2    C313574   1.903   1.137  16.176  0.8507 -0.0037 -0.9205
  924MPD2    C413575   1.942   1.123  16.044  0.1319  0.9775  0.4364
  924MPD2    C513576   1.973   0.997  15.998  0.0924 -0.7225  0.2466
  924MPD2     H13577   1.850   1.039  16.354  1.3127  2.8764  0.6272
  924MPD2    H113578   1.951   1.204  15.972  0.9260  0.2047 -0.3325
  924MPD2    H213579   1.964   0.788  16.026 -0.5843  1.0761 -0.3618
  924MPD2    H313580   2.008   0.989  15.896  2.3329  3.5601  0.6914
  924MPD2     N13581   1.886   1.269  16.224 -0.1689  0.3990  0.9266
  924MPD2    H513582   1.899   1.350  16.164  1.9691  0.5066  1.5298
  924MPD2    N113583   1.858   0.771  16.274 -0.8714 -0.0573 -1.4041
  924MPD2    H713584   1.918   0.692  16.254 -1.7551 -1.3185  0.9157
  925MPD2     C13585   0.794   3.246  14.768 -0.4808 -0.5882  0.2974
  925MPD2    C113586   0.700   3.343  14.776 -0.7781 -0.4501 -0.1855
  925MPD2    C213587   0.612   3.348  14.885 -0.1768 -0.1488 -0.3166
  925MPD2    C313588   0.622   3.252  14.985  0.4360  0.7783  0.5304
  925MPD2    C413589   0.731   3.168  14.980 -0.5836 -0.8909 -0.8483
  925MPD2    C513590   0.816   3.163  14.875  0.1397 -0.4118 -0.0411
  925MPD2     H13591   0.525   3.411  14.876 -0.8984 -1.2761 -1.2764
  925MPD2    H113592   0.750   3.087  15.050  1.6721 -0.4127 -0.9108
  925MPD2    H213593   0.859   3.237  14.682 -0.8573  2.1316 -0.2716
  925MPD2    H313594   0.893   3.087  14.870  0.5506  0.0240 -0.3419
  925MPD2     N13595   0.525   3.233  15.088 -0.1851  0.2953 -0.0952
  925MPD2    H513596   0.540   3.148  15.141 -1.1131  1.5048  2.1071
  925MPD2    N113597   0.666   3.417  14.661  0.1289  0.1757  0.1266
  925MPD2    H713598   0.593   3.487  14.669  0.8201  1.0317 -1.1072
  926MPD2     C13599   3.226   1.797  13.971 -0.2722 -0.0549 -0.4091
  926MPD2    C113600   3.208   1.934  13.955 -0.2485  0.5256  0.0649
  926MPD2    C213601   3.281   1.997  13.858 -0.7415 -0.1109 -0.0403
  926MPD2    C313602   3.373   1.927  13.786  0.4310  0.5708  0.5733
  926MPD2    C413603   3.383   1.791  13.799  0.3946  0.7228 -0.5923
  926MPD2    C513604   3.310   1.727  13.892  0.0095 -0.3722 -0.4242
  926MPD2     H13605   3.279   2.105  13.864 -0.6716 -0.0135 -1.8488
  926MPD2    H113606   3.455   1.733  13.742 -0.7065  0.1260 -1.3642
  926MPD2    H213607   3.172   1.738  14.044 -1.5323  1.0374 -0.4722
  926MPD2    H313608   3.324   1.620  13.901  0.0093 -0.1782  1.8086
  926MPD2     N13609   3.462   1.994  13.700  0.6460 -0.1671 -0.6571
  926MPD2    H513610   3.544   1.944  13.667 -0.4612 -1.5179 -1.2838
  926MPD2    N113611   3.134   2.019  14.051 -0.1258 -0.1159 -0.2112
  926MPD2    H713612   3.110   2.114  14.024 -2.6358 -0.7675 -0.3116
  927MPD2     C13613   4.314   4.098   0.218  0.3518  0.1229 -0.1983
  927MPD2    C113614   4.219   4.185   0.159  0.2469 -0.0769  0.0169
  927MPD2    C213615   4.230   4.206   0.023  0.2022  0.3572  0.3057
  927MPD2    C313616   4.329   4.143  17.714  0.2153 -0.2863  0.5750
  927MPD2    C413617   4.411   4.046   0.010  0.0633  0.0096  0.2995
  927MPD2    C513618   4.399   4.025   0.147 -0.4818  0.1200  0.1920
  927MPD2     H13619   4.167   4.273  17.729  1.3972  1.7069  0.5730
  927MPD2    H113620   4.488   3.998  17.715 -0.7856 -0.1457 -0.6910
  927MPD2    H213621   4.310   4.078   0.325  1.1077 -0.8193 -0.3443
  927MPD2    H313622   4.462   3.947   0.190 -3.0340 -1.8312  0.3452
  927MPD2     N13623   4.336   4.176  17.582 -0.1229  0.4202 -0.2255
  927MPD2    H513624   4.288   4.261  17.556  0.9961  0.8059 -0.9996
  927MPD2    N113625   4.116   4.244   0.240 -0.9324 -0.2118 -0.7652
  927MPD2    H713626   4.113   4.212   0.336 -2.0520 -1.8149 -1.3257
  928MPD2     C13627   2.573   3.067   1.590 -0.0381  0.3992  0.3041
  928MPD2    C113628   2.609   3.201   1.555  0.1599  0.3710  0.0969
  928MPD2    C213629   2.647   3.229   1.424 -0.1199  0.2615  0.1324
  928MPD2    C313630   2.641   3.134   1.329  0.4146  0.2367 -0.1812
  928MPD2    C413631   2.584   3.013   1.363  0.0093  0.2126 -0.3473
  928MPD2    C513632   2.564   2.976   1.492 -0.4821 -0.3473 -0.1554
  928MPD2     H13633   2.666   3.333   1.401  1.5567 -0.1896 -0.4842
  928MPD2    H113634   2.578   2.927   1.297 -2.7027 -1.0471  1.5506
  928MPD2    H213635   2.552   3.025   1.688  4.1839 -3.1442 -0.3204
  928MPD2    H313636   2.534   2.876   1.521  0.3895 -0.1479  1.4150
  928MPD2     N13637   2.680   3.142   1.194  0.7101  0.0027 -0.0131
  928MPD2    H513638   2.659   3.069   1.127  2.8319 -1.5975  1.0651
  928MPD2    N113639   2.625   3.306   1.649 -0.3270 -0.4008 -0.3081
  928MPD2    H713640   2.629   3.393   1.596  2.9353 -0.6879 -0.4900
  929MPD2     C13641   1.131   3.052  10.129 -0.2147 -0.0189 -0.7545
  929MPD2    C113642   1.080   2.941  10.185 -0.2390  0.5496  0.5023
  929MPD2    C213643   0.988   2.864  10.108 -0.2861  0.1521 -0.2316
  929MPD2    C313644   0.963   2.896   9.975 -0.3884  0.2535  0.5626
  929MPD2    C413645   1.041   2.989   9.918  0.1178  0.5774  0.7220
  929MPD2    C513646   1.127   3.065   9.991  0.3340 -0.4235  0.2456
  929MPD2     H13647   0.936   2.784  10.159  0.8528 -1.3524 -1.4233
  929MPD2    H113648   1.029   3.003   9.812  4.5892 -0.0102  0.1361
  929MPD2    H213649   1.191   3.122  10.187 -1.1614  0.9867 -1.0019
  929MPD2    H313650   1.200   3.132   9.945  0.3644  0.1210  1.0897
  929MPD2     N13651   0.870   2.822   9.893 -0.6114 -0.2771 -0.8059
  929MPD2    H513652   0.877   2.830   9.792  0.0302 -0.1478 -0.7535
  929MPD2    N113653   1.097   2.929  10.329  0.1486  0.4891 -0.2065
  929MPD2    H713654   1.149   2.999  10.380  0.5734 -2.1660  2.9392
  930MPD2     C13655   3.589   0.038  14.201 -0.2259 -0.0237  0.1558
  930MPD2    C113656   3.513   0.155  14.182  0.1004  0.5292  0.3506
  930MPD2    C213657   3.431   0.161  14.071  0.2214  0.0268  0.0926
  930MPD2    C313658   3.426   0.055  13.978 -0.0810 -0.3906  0.0886
  930MPD2    C413659   3.497   4.678  14.004 -0.1678 -0.5007 -0.6135
  930MPD2    C513660   3.576   4.673  14.118 -0.0441 -0.3334  0.7029
  930MPD2     H13661   3.387   0.253  14.033 -0.6484 -0.2829  0.3535
  930MPD2    H113662   3.500   4.599  13.930  0.5596 -0.9316 -0.1254
  930MPD2    H213663   3.661   0.036  14.282 -0.3240  2.2222  0.3139
  930MPD2    H313664   3.631   4.582  14.140 -0.8465 -0.7549  0.9964
  930MPD2     N13665   3.374   0.069  13.846  0.1542  0.2493 -0.7914
  930MPD2    H513666   3.402   0.004  13.774  0.2347 -0.1655 -0.3854
  930MPD2    N113667   3.544   0.272  14.264  0.3264 -0.0158  0.1142
  930MPD2    H713668   3.609   0.260  14.341 -0.9784 -0.5016  1.1483
  931MPD2     C13669   3.713   3.874   0.550  0.3176 -0.8518 -0.0871
  931MPD2    C113670   3.733   3.986   0.622  0.9499  0.2987  0.4387
  931MPD2    C213671   3.770   3.972   0.755 -0.1685  0.6270 -0.2323
  931MPD2    C313672   3.778   3.847   0.816  0.2643 -0.6508 -0.0037
  931MPD2    C413673   3.751   3.740   0.739 -0.0054 -0.2818  0.1687
  931MPD2    C513674   3.733   3.754   0.604 -0.6717  0.9889  0.1398
  931MPD2     H13675   3.777   4.059   0.820  0.9870 -1.6288  2.6581
  931MPD2    H113676   3.745   3.639   0.776  0.1795  0.8641  3.3364
  931MPD2    H213677   3.708   3.881   0.441  1.9674  3.0100  0.1212
  931MPD2    H313678   3.734   3.670   0.536  0.6605  1.7834 -0.8211
  931MPD2     N13679   3.814   3.823   0.945 -0.1614  0.3248  0.1065
  931MPD2    H513680   3.827   3.725   0.968 -0.3426  0.1255 -0.6502
  931MPD2    N113681   3.752   4.111   0.544 -0.5793 -0.2241  0.3146
  931MPD2    H713682   3.739   4.109   0.444  0.6628  0.2379  0.1519
  932MPD2     C13683   0.156   3.836  11.903  0.0968 -0.2740  0.6940
  932MPD2    C113684   0.232   3.838  11.790 -0.7182 -0.1617  0.6787
  932MPD2    C213685   0.240   3.721  11.717 -0.0625 -0.0452  0.5601
  932MPD2    C313686   0.172   3.607  11.757  0.1466  0.2642 -0.4356
  932MPD2    C413687   0.087   3.608  11.862 -0.5591  0.4719  0.4865
  932MPD2    C513688   0.078   3.722  11.932 -0.7044 -0.2903 -0.8731
  932MPD2     H13689   0.297   3.726  11.625 -2.1835  1.4269 -0.6994
  932MPD2    H113690   0.020   3.524  11.878 -0.8671  0.9391  1.6549
  932MPD2    H213691   0.130   3.925  11.958 -0.5879 -0.2372  0.3048
  932MPD2    H313692   4.739   3.737  12.003 -0.1500 -1.0543 -0.0811
  932MPD2     N13693   0.195   3.486  11.688 -0.0723 -0.7864 -0.2963
  932MPD2    H513694   0.138   3.404  11.708 -0.5795 -0.3943 -0.1437
  932MPD2    N113695   0.315   3.946  11.755 -0.3094  0.0508  0.5392
  932MPD2    H713696   0.364   3.937  11.666 -0.3677  1.8472  0.3155
  933MPD2     C13697   2.385   4.110   1.797  0.2531 -0.2676  0.3325
  933MPD2    C113698   2.424   4.003   1.723 -0.1391 -0.2806  0.8413
  933MPD2    C213699   2.394   4.000   1.590 -0.4201 -0.7659  0.6581
  933MPD2    C313700   2.336   4.103   1.523  0.1258  0.3803 -0.8694
  933MPD2    C413701   2.301   4.215   1.602 -0.1173 -0.1204  0.6596
  933MPD2    C513702   2.320   4.211   1.737 -0.4091 -0.1859 -0.2444
  933MPD2     H13703   2.410   3.911   1.530  2.0485 -0.1878  0.4556
  933MPD2    H113704   2.256   4.305   1.562 -0.3594 -0.4485  0.1871
  933MPD2    H213705   2.390   4.116   1.905  0.4889 -0.4923  0.3334
  933MPD2    H313706   2.290   4.293   1.801  2.0100 -0.4311  1.2226
  933MPD2     N13707   2.305   4.088   1.385  0.2635 -0.2752  0.3569
  933MPD2    H513708   2.345   4.004   1.345 -1.6042 -3.0063  4.1484
  933MPD2    N113709   2.498   3.899   1.780  0.5484 -0.0827 -0.1544
  933MPD2    H713710   2.508   3.896   1.881  0.0092 -1.4875 -0.1544
  934MPD2     C13711   3.736   1.596   1.543  0.2886  0.1663  0.4928
  934MPD2    C113712   3.791   1.478   1.491 -0.5928 -0.8180  0.4880
  934MPD2    C213713   3.705   1.374   1.458 -0.6728 -0.3238 -0.4366
  934MPD2    C313714   3.565   1.391   1.472 -0.3878 -1.0731 -0.4360
  934MPD2    C413715   3.515   1.505   1.521  0.4535  0.4632  0.1064
  934MPD2    C513716   3.602   1.607   1.553  0.4593  0.1195  0.0962
  934MPD2     H13717   3.742   1.279   1.421 -0.1865 -0.2741 -0.0803
  934MPD2    H113718   3.409   1.524   1.532 -0.1227 -2.3380 -0.6395
  934MPD2    H213719   3.789   1.686   1.573 -0.9464  1.2638 -0.5891
  934MPD2    H313720   3.560   1.701   1.587  0.4080  0.8295 -1.9170
  934MPD2     N13721   3.474   1.293   1.423 -0.3123  0.0379  1.0570
  934MPD2    H513722   3.378   1.326   1.421 -0.5023 -0.9722 -4.6544
  934MPD2    N113723   3.929   1.456   1.481  0.2505 -0.1900 -0.5388
  934MPD2    H713724   3.957   1.363   1.451  0.0798 -0.5573  0.4323
  935MPD2     C13725   3.329   0.305   1.172  0.1027 -0.5105  0.7541
  935MPD2    C113726   3.208   0.368   1.206  0.2130  0.2941 -0.1349
  935MPD2    C213727   3.207   0.505   1.224  0.8047  0.4849  0.3697
  935MPD2    C313728   3.322   0.576   1.202 -0.1052 -0.4588 -0.1228
  935MPD2    C413729   3.437   0.516   1.173 -0.4410 -0.3391 -0.9970
  935MPD2    C513730   3.440   0.380   1.162  0.5162 -0.3475 -0.1510
  935MPD2     H13731   3.117   0.557   1.253 -0.3095 -1.7057  0.8493
  935MPD2    H113732   3.526   0.576   1.157 -0.1094 -0.9168 -1.2985
  935MPD2    H213733   3.335   0.200   1.147 -3.1434 -0.6075  0.3214
  935MPD2    H313734   3.533   0.328   1.140  3.0666  4.0120  0.1649
  935MPD2     N13735   3.328   0.718   1.218 -0.2126 -0.2456 -0.5255
  935MPD2    H513736   3.425   0.750   1.220 -0.3020  0.0264 -0.5144
  935MPD2    N113737   3.091   0.286   1.226  0.0225 -0.4196 -0.6204
  935MPD2    H713738   3.103   0.186   1.214  0.4223 -0.2508 -1.5935
  936MPD2     C13739   0.627   1.682  12.407 -0.6473 -0.3040  0.3861
  936MPD2    C113740   0.646   1.648  12.540 -0.1931 -0.7874  0.3052
  936MPD2    C213741   0.735   1.717  12.618  0.2187  0.6625  1.0212
  936MPD2    C313742   0.799   1.829  12.571 -0.1335  0.1399 -0.8802
  936MPD2    C413743   0.776   1.861  12.435 -0.2018 -0.2611  0.4919
  936MPD2    C513744   0.701   1.783  12.350 -0.2209  0.5355 -0.6398
  936MPD2     H13745   0.751   1.699  12.724 -0.7633  0.4810  1.1411
  936MPD2    H113746   0.823   1.948  12.393 -0.5684 -0.8235 -1.0828
  936MPD2    H213747   0.559   1.628  12.342 -1.6129  0.4401  0.7747
  936MPD2    H313748   0.694   1.806  12.245 -1.2186  0.4250 -0.6041
  936MPD2     N13749   0.893   1.881  12.662 -0.2119 -0.0439  0.6987
  936MPD2    H513750   0.880   1.849  12.758 -1.9997  0.3317  0.5850
  936MPD2    N113751   0.575   1.543  12.606  0.1210  0.2304 -0.4453
  936MPD2    H713752   0.604   1.512  12.698 -0.3134 -2.1206 -1.0941
  937MPD2     C13753   3.668   2.837  11.958 -0.9009 -0.0089 -0.4580
  937MPD2    C113754   3.698   2.973  11.947  0.8524 -0.0728  0.1371
  937MPD2    C213755   3.786   3.021  11.847  0.2414  0.1746 -0.2446
  937MPD2    C313756   3.838   2.932  11.758 -0.8130 -0.7900 -0.5907
  937MPD2    C413757   3.799   2.802  11.761  0.0812  0.1935 -0.2881
  937MPD2    C513758   3.719   2.754  11.858  0.3446  0.4786  0.3467
  937MPD2     H13759   3.804   3.128  11.847  0.1388  0.1945 -1.5771
  937MPD2    H113760   3.833   2.730  11.687  0.2876 -3.4812  3.3821
  937MPD2    H213761   3.614   2.787  12.037 -1.7237  2.9678  0.8537
  937MPD2    H313762   3.697   2.648  11.857 -0.5674  0.6582  3.1266
  937MPD2     N13763   3.907   2.992  11.651 -0.0174 -0.6322  0.2620
  937MPD2    H513764   3.922   3.092  11.659 -0.1753 -0.6486  0.7552
  937MPD2    N113765   3.661   3.073  12.049  0.2312 -0.3322 -0.3261
  937MPD2    H713766   3.707   3.164  12.047 -0.0781 -0.1474  0.8754
  938MPD2     C13767   1.827   0.606   0.486  0.3310 -0.0767 -0.0514
  938MPD2    C113768   1.846   0.677   0.600 -0.1621  0.2368 -1.1228
  938MPD2    C213769   1.875   0.615   0.715  1.0567 -0.8854  0.3678
  938MPD2    C313770   1.878   0.479   0.710  0.5604  0.2970 -0.0270
  938MPD2    C413771   1.853   0.406   0.597 -0.3385 -0.2514  0.1988
  938MPD2    C513772   1.842   0.472   0.486 -0.5294  0.2277 -0.5094
  938MPD2     H13773   1.873   0.671   0.808 -1.2301  0.3896 -0.4458
  938MPD2    H113774   1.840   0.299   0.608 -0.5000 -0.2967 -0.4273
  938MPD2    H213775   1.815   0.653   0.389  0.8189 -2.7459 -1.4190
  938MPD2    H313776   1.829   0.419   0.391 -0.3172  1.8418 -1.4332
  938MPD2     N13777   1.881   0.404   0.832 -0.1862  0.8141  0.0172
  938MPD2    H513778   1.868   0.304   0.820 -1.0492  0.5393  3.3647
  938MPD2    N113779   1.817   0.816   0.606  0.0231 -0.3791 -0.6957
  938MPD2    H713780   1.836   0.850   0.700 -0.8746  0.1841 -0.7211
  939MPD2     C13781   3.157   1.203   0.697 -0.2781  0.3405  0.0597
  939MPD2    C113782   3.239   1.238   0.593  0.0827  0.1406 -0.9389
  939MPD2    C213783   3.290   1.146   0.503 -0.5941 -0.1549  0.1614
  939MPD2    C313784   3.239   1.017   0.519 -0.4440  0.3646  0.3769
  939MPD2    C413785   3.150   0.977   0.619  0.4034  0.4356 -0.6090
  939MPD2    C513786   3.112   1.075   0.707 -0.9312  0.5914 -0.0911
  939MPD2     H13787   3.355   1.166   0.419 -1.2489  1.7108  0.0974
  939MPD2    H113788   3.120   0.873   0.634  1.9283  0.1963  0.7728
  939MPD2    H213789   3.126   1.283   0.762  2.9109  0.5323  1.3280
  939MPD2    H313790   3.038   1.045   0.781 -0.0114 -2.2048 -0.2901
  939MPD2     N13791   3.280   0.919   0.424 -0.5595 -0.2454 -0.1940
  939MPD2    H513792   3.365   0.934   0.372 -0.5710 -1.9730 -0.7190
  939MPD2    N113793   3.269   1.374   0.584  0.2297 -0.2957  0.2527
  939MPD2    H713794   3.214   1.437   0.643 -1.7676 -1.0429 -0.7985
  940MPD2     C13795   2.100   1.267  12.892 -0.0124  0.1644  0.0763
  940MPD2    C113796   2.001   1.345  12.945 -0.2316  0.0169 -0.2099
  940MPD2    C213797   1.892   1.374  12.866 -0.0133  0.5816  0.3081
  940MPD2    C313798   1.888   1.328  12.734 -0.1459  0.2456 -0.1818
  940MPD2    C413799   1.985   1.245  12.686 -0.3203  0.0561  0.6081
  940MPD2    C513800   2.089   1.211  12.769  0.2439  0.2701  0.4887
  940MPD2     H13801   1.813   1.436  12.908  0.3931  1.0847  0.3262
  940MPD2    H113802   1.971   1.191  12.593  1.4735 -1.1005  1.0241
  940MPD2    H213803   2.179   1.223  12.952  1.3863  1.0544 -1.1041
  940MPD2    H313804   2.172   1.152  12.733  1.4570  1.7048  0.9520
  940MPD2     N13805   1.785   1.365  12.642 -0.5458 -0.0965  0.6077
  940MPD2    H513806   1.803   1.344  12.545 -1.5070 -0.5364  0.5293
  940MPD2    N113807   2.007   1.400  13.072  0.2782  0.0890  0.4350
  940MPD2    H713808   1.925   1.447  13.108 -1.3337 -0.1217 -2.9922
  941MPD2     C13809   1.040   0.771   9.753  0.2320 -0.2648 -0.3866
  941MPD2    C113810   1.019   0.829   9.881  0.5506  0.1587 -0.3313
  941MPD2    C213811   0.922   0.774   9.968  0.0419  0.1016  0.1431
  941MPD2    C313812   0.840   0.666   9.926 -0.3737  0.0729 -0.0651
  941MPD2    C413813   0.858   0.615   9.800  0.1561  0.7050  0.0218
  941MPD2    C513814   0.950   0.676   9.718  0.1308 -0.1612  0.5201
  941MPD2     H13815   0.905   0.834  10.057 -0.0485 -0.1011  0.2664
  941MPD2    H113816   0.794   0.535   9.765 -0.7277  3.0270 -3.6384
  941MPD2    H213817   1.117   0.792   9.680  3.3765  0.0849  3.0323
  941MPD2    H313818   0.972   0.629   9.623 -0.9571 -0.0819  0.2242
  941MPD2     N13819   0.733   0.616  10.005 -0.4606  0.7580  0.0430
  941MPD2    H513820   0.674   0.541   9.970 -0.9084  0.1494  2.1111
  941MPD2    N113821   1.095   0.936   9.930 -0.2297 -0.4357  0.3290
  941MPD2    H713822   1.088   0.961  10.028 -1.0452 -0.8260  0.3771
  942MPD2     C13823   0.256   2.295   9.669 -0.1714  0.0076  0.0285
  942MPD2    C113824   0.283   2.187   9.587  0.1672  1.0839  0.2703
  942MPD2    C213825   0.412   2.141   9.569 -0.3372  0.3266 -0.0809
  942MPD2    C313826   0.520   2.207   9.621  0.2020 -0.5101 -0.1466
  942MPD2    C413827   0.490   2.321   9.698  0.1811 -0.6116  0.4519
  942MPD2    C513828   0.366   2.356   9.721  0.5304 -0.3670 -0.3733
  942MPD2     H13829   0.417   2.056   9.502  2.1911 -1.1200  1.9956
  942MPD2    H113830   0.568   2.375   9.750  0.1455 -0.1520  0.0241
  942MPD2    H213831   0.155   2.329   9.687  0.1559  0.2403  1.4282
  942MPD2    H313832   0.359   2.443   9.785  3.5284 -0.8784  0.6285
  942MPD2     N13833   0.655   2.179   9.596  0.1462 -0.6184  0.6358
  942MPD2    H513834   0.720   2.250   9.628 -1.2203  0.5135  0.9115
  942MPD2    N113835   0.181   2.118   9.518  0.5045  0.3379 -0.1459
  942MPD2    H713836   0.202   2.041   9.456  0.0858 -0.0290  0.1740
  943MPD2     C13837   4.647   0.691  10.054 -0.1647 -0.2484 -0.1769
  943MPD2    C113838   4.530   0.671  10.117  0.5238  0.7176 -0.1034
  943MPD2    C213839   4.482   0.772  10.197 -0.4603  0.0930  0.0287
  943MPD2    C313840   4.537   0.895  10.202 -0.8178  0.7394  0.0846
  943MPD2    C413841   4.658   0.912  10.140 -0.1250 -0.1593 -0.4457
  943MPD2    C513842   4.709   0.813  10.061 -0.2101  0.0905  1.0398
  943MPD2     H13843   4.385   0.774  10.245 -1.6799  1.2489 -2.4640
  943MPD2    H113844   4.704   1.010  10.137  0.6041 -0.4872  0.2220
  943MPD2    H213845   4.696   0.613   9.995 -0.6447 -0.1514 -0.7020
  943MPD2    H313846   0.055   0.834  10.000 -0.1121 -0.4668  0.9901
  943MPD2     N13847   4.470   1.003  10.274  0.5814  0.3437  0.8161
  943MPD2    H513848   4.397   0.967  10.334  0.9592  0.0903  1.1294
  943MPD2    N113849   4.463   0.559  10.093 -0.2958  0.1752 -0.1327
  943MPD2    H713850   4.497   0.494  10.023 -0.9732 -1.5596  1.1365
  944MPD2     C13851   4.440   0.194  11.235  0.1298  1.2875  0.2332
  944MPD2    C113852   4.427   0.314  11.179 -0.3791  0.5742  0.3193
  944MPD2    C213853   4.321   0.396  11.213  0.3077  0.0081  0.0165
  944MPD2    C313854   4.217   0.353  11.291 -0.6221  0.4534  0.0776
  944MPD2    C413855   4.224   0.227  11.349  0.1583 -0.3903  0.2714
  944MPD2    C513856   4.336   0.151  11.314  0.2549 -0.4229 -0.2599
  944MPD2     H13857   4.323   0.497  11.171  0.1080  0.1421  0.3284
  944MPD2    H113858   4.157   0.190  11.425 -1.6183  0.4460 -0.8854
  944MPD2    H213859   4.528   0.130  11.232  0.7965  2.1648  1.1781
  944MPD2    H313860   4.350   0.054  11.360  0.2228  0.3689  1.4179
  944MPD2     N13861   4.104   0.438  11.322 -0.5686 -0.2380  0.2765
  944MPD2    H513862   4.102   0.533  11.285 -0.8708  0.1617  1.3252
  944MPD2    N113863   4.527   0.356  11.087  0.3815 -0.4262 -0.2059
  944MPD2    H713864   4.591   0.281  11.065  1.0660 -0.3713  1.5280
    1TMC1    C113865   2.086   0.533  14.815  0.5026  0.3857 -0.5959
    1TMC1    C213866   2.067   0.396  14.801  0.3482  0.3251  0.2586
    1TMC1    C313867   2.016   0.353  14.679 -0.0543  0.1797  0.1698
    1TMC1    C413868   2.017   0.625  14.743 -0.6996 -0.1764  0.4751
    1TMC1    C513869   1.959   0.577  14.630  0.5883 -0.1140  0.0029
    1TMC1    C613870   1.956   0.445  14.598 -0.9695  0.9949  0.0771
    1TMC1     C13871   2.191   0.577  14.904 -0.2635  0.5301  0.0958
    1TMC1     O13872   2.234   0.499  14.985  0.1611 -0.0735 -0.1586
    1TMC1     H13873   2.116   0.325  14.867  1.3253  0.9493  0.1900
    1TMC1    H113874   2.012   0.728  14.773 -1.6019  0.5853 -2.2899
    1TMC1    H213875   1.908   0.415  14.505 -1.0257 -1.8628  1.0173
    1TMC1    C713876   1.935   0.665  14.519  0.0408  0.9574 -0.0240
    1TMC1    C813877   2.018   0.209  14.652 -0.6808  0.1443  0.2530
    1TMC1    O113878   1.909   0.782  14.546  0.4738 -0.0171  0.3839
    1TMC1    O213879   2.018   0.120  14.736  0.7456 -0.1481  0.3793
    1TMC1    O313880   2.026   0.635  14.429 -0.1538  0.0058 -0.2290
    1TMC1    H313881   2.061   0.546  14.447 -0.9180 -0.4596 -1.0437
    1TMC1    O513882   2.037   0.194  14.519 -0.3475 -0.4198  0.3612
    1TMC1    H513883   2.078   0.271  14.473 -1.7605  0.4427  0.5729
    2MPD2     C13884   2.640   0.825  14.935  0.0634 -0.6696  0.0448
    2MPD2    C113885   2.539   0.911  14.898  0.2968 -0.4778 -0.1413
    2MPD2    C213886   2.412   0.869  14.877 -0.1954  0.8376  0.5107
    2MPD2    C313887   2.373   0.739  14.906 -0.0064 -0.3868 -0.4521
    2MPD2    C413888   2.472   0.652  14.949  0.2963 -1.1232  0.2670
    2MPD2    C513889   2.606   0.696  14.959 -0.2444  0.0349  0.5721
    2MPD2     H13890   2.343   0.941  14.834  0.1778  1.2319  0.5739
    2MPD2    H113891   2.450   0.548  14.971  0.5517 -1.0732  0.7651
    2MPD2    H213892   2.743   0.858  14.930 -0.0045 -0.3746  0.5575
    2MPD2    H313893   2.681   0.622  14.983 -0.7041 -0.6421 -0.0692
    2MPD2     N13894   2.244   0.700  14.866 -0.4269 -0.3711  0.5646
    2MPD2    H513895   2.191   0.770  14.815 -0.4787 -1.1744 -0.4917
    2MPD2    N113896   2.585   1.039  14.862 -0.0251 -0.2662 -0.4818
    2MPD2    H713897   2.677   1.066  14.896 -0.7643  0.1651  1.2141
    3TMC2    C113898   2.585   1.269  14.807 -0.1592 -0.2782  0.3436
    3TMC2    C213899   2.641   1.308  14.925  0.3702  0.3231  0.2095
    3TMC2    C313900   2.673   1.436  14.948  0.0339 -0.8348  1.4060
    3TMC2    C413901   2.552   1.351  14.704 -0.4140  0.1901  0.4220
    3TMC2    C513902   2.563   1.484  14.739 -0.9954 -0.1012 -0.5642
    3TMC2    C613903   2.636   1.522  14.854 -0.7801 -0.2392 -0.4187
    3TMC2     C13904   2.524   1.137  14.799  0.5936 -0.5874  0.0857
    3TMC2     O13905   2.430   1.124  14.722  0.0259  0.1393  0.8174
    3TMC2     H13906   2.657   1.234  15.003  0.2404  0.4265  0.3338
    3TMC2    H113907   2.504   1.320  14.611  0.6756  0.2143 -0.1427
    3TMC2    H213908   2.627   1.626  14.885  1.8184  0.3639 -1.7680
    3TMC2    C713909   2.511   1.591  14.656 -0.0289  0.4723 -0.4576
    3TMC2    C813910   2.735   1.463  15.075  0.5599 -0.4049 -0.1427
    3TMC2    O113911   2.502   1.705  14.703  0.4781 -0.2260 -0.3299
    3TMC2    O213912   2.751   1.375  15.158 -1.0445  0.0539 -0.1406
    3TMC2    O513913   2.818   1.575  15.069  0.1863  0.1371  0.3156
    3TMC2    H513914   2.812   1.640  14.995 -0.7859  1.3466  1.4472
    4TMC2    C113915   1.950   2.313  14.327 -0.0465 -0.5888  0.0194
    4TMC2    C213916   2.052   2.387  14.386  0.8965  0.8784  0.5352
    4TMC2    C313917   2.176   2.321  14.402 -0.1240  0.5320  0.0406
    4TMC2    C413918   1.958   2.176  14.309  1.0956  0.0089 -0.3092
    4TMC2    C513919   2.079   2.117  14.325  0.5545 -0.0798  0.3681
    4TMC2    C613920   2.188   2.189  14.368 -0.3310  0.2451  0.5184
    4TMC2     C13921   1.812   2.365  14.344  0.0702  0.6784 -0.3982
    4TMC2     O13922   1.797   2.463  14.411 -0.4470 -0.5195 -0.5053
    4TMC2     H13923   2.023   2.488  14.413  1.6067  1.4948 -0.9847
    4TMC2    H113924   1.876   2.112  14.280 -0.2592  3.1986 -3.4733
    4TMC2    H213925   2.286   2.145  14.382 -1.0229 -2.7249 -4.0196
    4TMC2    C713926   2.106   1.979  14.289 -0.6554 -0.5769  0.7582
    4TMC2    C813927   2.243   2.354  14.524 -0.4343 -0.5654 -0.0005
    4TMC2    O113928   2.048   1.936  14.193  0.2236 -0.4269 -0.3387
    4TMC2    O213929   2.267   2.277  14.616 -0.1914  0.2341  0.1871
    4TMC2    O513930   2.253   2.487  14.536  0.0565  0.5274  0.1005
    4TMC2    H513931   2.236   2.537  14.454 -1.7559  0.0003  0.1329
    5MPD2     C13932   1.290   2.370  14.276 -0.5871 -0.5095  0.4966
    5MPD2    C113933   1.352   2.281  14.190  0.6807  0.0364  0.7419
    5MPD2    C213934   1.483   2.258  14.199  0.0503 -0.0678  0.3677
    5MPD2    C313935   1.567   2.326  14.286 -0.5517  0.3858 -0.2973
    5MPD2    C413936   1.506   2.419  14.370 -0.2964 -0.5201 -0.6285
    5MPD2    C513937   1.366   2.436  14.365 -0.2424  0.5185 -0.3378
    5MPD2     H13938   1.532   2.182  14.139 -1.6388 -0.3804 -0.5897
    5MPD2    H113939   1.564   2.474  14.445 -1.1338 -0.0408 -0.3353
    5MPD2    H213940   1.184   2.391  14.284 -0.2375  1.2064  0.5682
    5MPD2    H313941   1.321   2.494  14.444  0.9130 -0.0877  0.7678
    5MPD2     N13942   1.706   2.296  14.283  0.6492  0.3362 -0.5127
    5MPD2    H513943   1.738   2.224  14.219  2.0091  0.2286  0.2691
    5MPD2    N113944   1.269   2.208  14.101  0.2114 -0.0604  0.3076
    5MPD2    H713945   1.173   2.241  14.103  0.2631  0.1167 -0.3357
    6MPD1     C13946   0.802   3.147  13.105 -0.3122  0.2614  0.1433
    6MPD1    C113947   0.837   3.032  13.045  0.1233 -0.0887 -0.1357
    6MPD1    C213948   0.759   2.912  13.062 -0.1036 -0.1070 -0.1876
    6MPD1    C313949   0.644   2.917  13.141  0.0199 -0.4871  0.0854
    6MPD1    C413950   0.610   3.040  13.199 -0.7387  0.0709 -0.6294
    6MPD1    C513951   0.680   3.155  13.173 -0.9307  0.6326  0.4270
    6MPD1     H13952   0.791   2.816  13.022  0.6176  0.3776 -0.7545
    6MPD1    H113953   0.537   3.054  13.278  2.4239 -0.0789  2.3196
    6MPD1    H213954   0.863   3.236  13.094 -0.7224  0.5290  0.0125
    6MPD1    H313955   0.661   3.254  13.214 -0.8869  0.2268  1.4252
    6MPD1     N13956   0.581   2.800  13.176 -0.0504  0.3099  0.0310
    6MPD1    H513957   0.628   2.722  13.131  1.3691  0.3940  1.3994
    6MPD1    N113958   0.942   3.041  12.958  0.4444 -0.0859 -0.2708
    6MPD1    H613959   1.007   3.111  12.994 -0.2832  1.1849 -1.4337
    6MPD1    H713960   0.997   2.957  12.944 -0.7625 -0.9772  0.3337
    7MPD2     C13961   0.527   2.468  13.901  0.3590 -0.6473  0.5957
    7MPD2    C113962   0.559   2.370  13.803 -1.2795 -1.0979  0.5923
    7MPD2    C213963   0.660   2.277  13.817  0.2084 -0.3119  0.5562
    7MPD2    C313964   0.722   2.260  13.940 -0.4801  0.6965 -0.2566
    7MPD2    C413965   0.696   2.361  14.030 -0.2973 -0.0172 -1.0895
    7MPD2    C513966   0.595   2.454  14.017 -0.1461  0.5924  0.2300
    7MPD2     H13967   0.681   2.209  13.735 -1.8367 -1.2631  0.8307
    7MPD2    H113968   0.746   2.366  14.125 -0.5574  0.1149 -0.9592
    7MPD2    H213969   0.457   2.551  13.897 -0.5801 -1.4178  0.9189
    7MPD2    H313970   0.577   2.529  14.093 -0.5893 -0.6094  1.3190
    7MPD2     N13971   0.815   2.154  13.974  0.4490 -0.5488  0.3145
    7MPD2    H513972   0.866   2.182  14.057 -1.3270 -1.5782  1.7252
    7MPD2    N113973   0.509   2.385  13.672  0.3776  0.0287  0.1551
    7MPD2    H713974   0.554   2.324  13.604  0.1349 -0.0929  0.1003
    8TMC3    C113975   0.966   1.973  13.917  0.2819  0.5698  0.3916
    8TMC3    C213976   1.060   2.037  13.998 -0.3841 -0.3079  0.6321
    8TMC3    C313977   1.188   2.040  13.946 -0.1006  0.3605  0.8171
    8TMC3    C413978   1.008   1.910  13.806  0.7039  0.5283  0.4737
    8TMC3    C513979   1.133   1.919  13.754 -0.4568  0.2310  0.5984
    8TMC3    C613980   1.229   1.983  13.829 -0.6742  0.3917 -0.3314
    8TMC3     C13981   0.840   2.041  13.893 -0.0811  0.4942 -0.0646
    8TMC3     O13982   0.767   1.999  13.805 -0.0209  0.2576 -0.3615
    8TMC3     H13983   1.033   2.106  14.078  1.8625  0.7570  0.4671
    8TMC3    H113984   0.929   1.857  13.754  1.1893  1.5822 -1.3447
    8TMC3    H213985   1.326   2.001  13.784  0.1256 -1.1344  0.8074
    8TMC3    C713986   1.141   1.944  13.610 -0.1425  0.2989  0.4674
    8TMC3    C813987   1.298   2.102  14.022  0.9912  0.7137  0.0162
    8TMC3    O113988   1.247   1.933  13.547 -0.0664  0.0528 -0.4441
    8TMC3    O213989   1.410   2.064  13.996 -0.7563  0.0259 -0.4260
    9TMC3    C113990   0.447   2.638  13.286  0.1160  0.1450 -0.3094
    9TMC3    C213991   0.521   2.540  13.225  0.7733 -0.1735  0.1537
    9TMC3    C313992   0.552   2.428  13.295 -0.1782  0.2333 -0.5034
    9TMC3    C413993   0.415   2.618  13.419 -0.0412 -0.0975 -0.1312
    9TMC3    C513994   0.430   2.490  13.478 -0.5172  0.3432 -0.6188
    9TMC3    C613995   0.502   2.391  13.416 -0.2508 -0.2190 -0.7553
    9TMC3     C13996   0.467   2.778  13.250 -0.1097 -0.2381  0.3650
    9TMC3     O13997   0.405   2.860  13.316 -0.1738 -0.0195  0.3166
    9TMC3     H13998   0.561   2.546  13.124 -0.5496 -0.0414 -0.3570
    9TMC3    H113999   0.360   2.694  13.474  0.7447  1.0111 -0.8724
    9TMC3    H214000   0.506   2.288  13.451  3.6448  0.1007 -0.2769
    9TMC3    C714001   0.434   2.494  13.622  0.1385 -0.2078  0.5702
    9TMC3    C814002   0.663   2.353  13.240  0.7421  0.5767  0.3895
    9TMC3    O114003   0.374   2.580  13.685  0.5019 -0.5850 -0.1541
    9TMC3    O214004   0.704   2.371  13.128 -0.8767 -0.1393  0.2224
   10MPD2     C14005   1.063   2.044  13.323 -0.7080  0.0658  0.5024
   10MPD2    C114006   0.991   2.062  13.447  0.3197  0.1481  0.3534
   10MPD2    C214007   0.871   2.129  13.452  0.2844  0.4668  1.1672
   10MPD2    C314008   0.836   2.198  13.335  0.3455 -0.0464  0.1804
   10MPD2    C414009   0.907   2.183  13.221  0.4188 -0.6958 -0.5906
   10MPD2    C514010   1.012   2.099  13.212 -0.0894 -0.3313 -0.2168
   10MPD2     H14011   0.809   2.122  13.540 -0.2861  1.6862  0.8546
   10MPD2    H114012   0.873   2.237  13.134  4.4041  1.1731 -1.0171
   10MPD2    H214013   1.156   1.987  13.326 -1.1087 -0.6354 -0.6784
   10MPD2    H314014   1.058   2.091  13.114 -2.0237  0.3488 -1.1762
   10MPD2     N14015   0.724   2.275  13.341  0.9386  0.4175 -0.1630
   10MPD2    H514016   0.685   2.278  13.434  3.0309  1.6954  0.6589
   10MPD2    N114017   1.029   2.005  13.573 -0.9199 -0.2318  0.5835
   10MPD2    H714018   0.963   2.017  13.650 -0.4924 -1.0250  1.0730
   11MPD2     C14019   2.392   1.545  14.297  0.0701  0.1519  0.1244
   11MPD2    C114020   2.415   1.613  14.418  0.5199 -0.3874 -0.0081
   11MPD2    C214021   2.352   1.740  14.437 -0.4526  0.1578 -0.3614
   11MPD2    C314022   2.269   1.794  14.342  0.3336 -0.0982 -0.4325
   11MPD2    C414023   2.252   1.724  14.226 -0.0159 -0.0498  0.6385
   11MPD2    C514024   2.315   1.604  14.203 -0.2301 -0.0672 -0.1754
   11MPD2     H14025   2.357   1.797  14.530  0.1698 -1.8822  0.8467
   11MPD2    H114026   2.204   1.768  14.139  1.1552  1.2267  0.6243
   11MPD2    H214027   2.433   1.448  14.272  0.5405 -0.0581  1.7100
   11MPD2    H314028   2.292   1.556  14.109 -0.1782  2.0004 -1.2363
   11MPD2     N14029   2.217   1.926  14.354  0.0179 -0.0734  0.8728
   11MPD2    H514030   2.247   1.975  14.438 -0.6150  0.3749  0.8383
   11MPD2    N114031   2.470   1.541  14.526 -0.2813  0.0386  0.3631
   11MPD2    H714032   2.485   1.443  14.507  0.3722 -0.4048  3.2729
    1MPD1     C14033   4.421   3.235   0.789  0.6525 -0.0390  0.0991
    1MPD1    C114034   4.361   3.129   0.723 -0.0064  0.0670 -0.5644
    1MPD1    C214035   4.442   3.052   0.645  0.2591 -0.0980  0.9012
    1MPD1    C314036   4.569   3.081   0.620 -0.3772 -0.0656 -0.0696
    1MPD1    C414037   4.627   3.199   0.669 -0.2780 -0.5483 -0.5540
    1MPD1    C514038   4.550   3.273   0.757  1.0695 -0.1184 -0.3079
    1MPD1     H14039   4.398   2.966   0.596  1.1140  0.2922 -0.5231
    1MPD1    H114040   4.728   3.229   0.645 -1.0716  0.5485 -2.4675
    1MPD1    H214041   4.364   3.306   0.847 -1.3090 -2.3853  1.0512
    1MPD1    H314042   4.594   3.354   0.814 -0.7376 -0.4852  1.6480
    1MPD1     N14043   4.656   3.010   0.537 -0.1425  0.5075 -0.4466
    1MPD1    H514044   0.002   3.057   0.516 -0.0864  0.0949 -1.1522
    1MPD1    N114045   4.217   3.109   0.740 -0.6422  0.2375 -0.7978
    1MPD1    H614046   4.176   3.070   0.656  0.3276  1.1784 -1.7103
    1MPD1    H714047   4.171   3.199   0.751 -1.3905 -0.1100 -1.1054
    2MPD1     C14048   0.057   2.623  17.337  0.0362  0.5639  0.7600
    2MPD1    C114049   0.174   2.667  17.394 -0.2671  0.4804  0.4277
    2MPD1    C214050   0.184   2.690  17.531  0.7677 -1.0010  0.6652
    2MPD1    C314051   0.090   2.641  17.616 -0.1086 -0.5676 -0.4574
    2MPD1    C414052   4.716   2.587  17.562 -0.7523 -0.0246 -0.5725
    2MPD1    C514053   4.700   2.587  17.424  0.0566 -0.0355  0.0551
    2MPD1     H14054   0.281   2.730  17.561 -0.9023  2.1965  1.7145
    2MPD1    H114055   4.633   2.563  17.628  1.0668 -0.2135  1.6419
    2MPD1    H214056   0.047   2.623  17.229  0.0918 -0.4752  0.7485
    2MPD1    H314057   4.599   2.566  17.389 -0.2822 -0.1181  1.0600
    2MPD1     N14058   0.109   2.667  17.760 -0.2016 -0.3078 -0.0499
    2MPD1    H514059   0.195   2.716   0.020  0.2568 -1.0683 -0.1562
    2MPD1    N114060   0.280   2.705  17.306  0.0757 -0.3806  0.7732
    2MPD1    H614061   0.286   2.623  17.246 -1.7195 -2.0613  2.8767
    2MPD1    H714062   0.369   2.719  17.353 -0.3054  0.9395  1.1045
    3TMC3    C114063   0.054   2.688   0.220 -0.4467 -0.3380  0.4641
    3TMC3    C214064   0.187   2.706   0.249 -1.0896  0.1051  0.5553
    3TMC3    C314065   0.224   2.787   0.351  0.3122 -0.1094  0.3968
    3TMC3    C414066   4.698   2.752   0.292 -0.1512 -0.0539 -0.4056
    3TMC3    C514067   4.735   2.842   0.388 -0.6581  0.1402 -1.0066
    3TMC3    C614068   0.123   2.851   0.433  0.3600 -0.1839 -0.3527
    3TMC3     C14069   0.011   2.649   0.087 -0.2352  0.6731 -0.5992
    3TMC3     O14070   4.635   2.617   0.076 -0.0230  0.2212  0.4713
    3TMC3     H14071   0.261   2.666   0.181 -3.0753 -1.9070 -0.3785
    3TMC3    H114072   4.594   2.738   0.264  0.6834 -1.7442 -2.6715
    3TMC3    H214073   0.150   2.900   0.526  1.0589  0.1372 -0.7215
    3TMC3    C714074   4.628   2.891   0.467 -0.0954  0.3654 -0.0376
    3TMC3    C814075   0.351   2.776   0.407 -0.0303  0.2668  0.4457
    3TMC3    O114076   4.524   2.826   0.465  0.1338 -0.2509 -0.0304
    3TMC3    O214077   0.370   2.850   0.504 -0.2908 -0.1151 -0.3440
    4MPD1     C14078   0.792   2.517   0.493 -0.2651  0.3236 -0.7432
    4MPD1    C114079   0.755   2.510   0.362 -0.2210  0.6856  0.2333
    4MPD1    C214080   0.635   2.562   0.319 -0.2154 -0.5028 -0.2118
    4MPD1    C314081   0.552   2.629   0.402  0.2272  0.9126  0.4997
    4MPD1    C414082   0.600   2.652   0.532 -0.6177 -0.1292  0.5385
    4MPD1    C514083   0.718   2.599   0.575 -0.6585 -0.2144 -0.5101
    4MPD1     H14084   0.606   2.529   0.220 -1.6974 -0.6699  0.2763
    4MPD1    H114085   0.545   2.717   0.598 -1.2411  0.5310 -0.6448
    4MPD1    H214086   0.884   2.471   0.529  0.7422  1.9175 -1.2657
    4MPD1    H314087   0.754   2.599   0.677 -2.1493 -1.0615  0.0133
    4MPD1     N14088   0.428   2.671   0.350  0.4888 -0.1833 -0.3560
    4MPD1    H514089   0.393   2.636   0.261  0.1333 -1.3491  0.2284
    4MPD1    N114090   0.825   2.423   0.283 -0.1043  0.0918  0.1578
    4MPD1    H614091   0.925   2.425   0.301 -0.1196  2.2254  0.0556
    4MPD1    H714092   0.818   2.451   0.185  0.4058  1.8182  0.6207
    1TCq1    O114093   1.251   2.276  11.734 -0.1975 -0.4020 -0.8603
    1TCq1    C114094   1.319   2.368  11.661  0.1324 -0.4029  0.0560
    1TCq1    O214095   1.441   2.355  11.648  0.1240 -0.0529  0.4757
    1TCq1    C214096   1.234   2.493  11.659 -0.3555  0.1598 -0.4497
    1TCq1    C314097   1.300   2.608  11.669 -0.1978 -0.6179 -0.2920
    1TCq1    C414098   1.234   2.725  11.668 -0.0248 -0.1981 -0.3797
    1TCq1    C514099   1.103   2.727  11.627 -0.3542 -0.8333 -0.0086
    1TCq1    C614100   1.035   2.612  11.604 -0.0600  0.1359  0.2017
    1TCq1    C714101   1.102   2.491  11.626  0.6316  0.2615 -0.7314
    1TCq1    C814102   0.908   2.619  11.530  0.0420 -0.6108 -0.0085
    1TCq1    O414103   0.861   2.514  11.487  0.4174  0.1859  0.0351
    1TCq1    C914104   1.307   2.847  11.638  0.4478 -0.3709 -0.0334
    1TCq1    O514105   1.248   2.940  11.583  0.3966 -0.0711  0.1057
    1TCq1    O614106   1.421   2.854  11.687 -0.9760 -0.4420 -0.0713
    1TCq1    H114107   1.168   2.318  11.764 -0.9548 -1.5787 -1.3258
    1TCq1    H214108   1.409   2.610  11.662 -0.3578  0.3579 -2.5177
    1TCq1    H314109   1.064   2.827  11.613  0.2430 -0.5132  0.5604
    1TCq1    H414110   1.057   2.395  11.602  2.3389 -1.0025  1.1540
    2MPD1     C14111   0.562   2.877  11.262 -0.7145 -0.6728 -0.2958
    2MPD1    C114112   0.622   2.963  11.354  0.0165 -0.4418  0.8269
    2MPD1    C214113   0.726   2.920  11.434 -0.6188  0.1103  0.9427
    2MPD1    C314114   0.768   2.787  11.418 -0.1108 -0.3607  0.3062
    2MPD1    C414115   0.721   2.711  11.316 -0.1022  0.0440 -0.7139
    2MPD1    C514116   0.609   2.749  11.242 -0.5054 -0.1300 -0.2196
    2MPD1     H14117   0.760   2.979  11.518 -0.2902 -0.0294  0.9070
    2MPD1    H114118   0.765   2.613  11.298 -3.8326 -1.8882  0.7684
    2MPD1    H214119   0.474   2.907  11.205 -1.8168 -0.7629  1.3568
    2MPD1    H314120   0.581   2.672  11.170  1.1849 -1.6249  0.7110
    2MPD1     N14121   0.869   2.748  11.506 -0.3394  0.2331  0.0532
    2MPD1    H514122   0.922   2.811  11.564 -1.4370 -0.4733  1.8513
    2MPD1    N114123   0.561   3.085  11.384  0.4813 -0.6687 -0.7123
    2MPD1    H614124   0.626   3.160  11.405  1.5803 -2.2080  1.3624
    2MPD1    H714125   0.504   3.131  11.313 -1.2019 -0.6161  0.6801
    1TMC1    C114126   0.426   1.773   0.736 -0.1361  0.7213 -0.7047
    1TMC1    C214127   0.358   1.877   0.675  0.2018  1.4018 -0.0377
    1TMC1    C314128   0.230   1.855   0.626 -0.4313  0.4003 -0.5162
    1TMC1    C414129   0.372   1.644   0.752 -0.0089 -0.8337 -1.5771
    1TMC1    C514130   0.249   1.632   0.695  0.7324  0.4067 -0.5910
    1TMC1    C614131   0.180   1.729   0.630 -0.7654  0.1026  0.2768
    1TMC1     C14132   0.540   1.806   0.818 -0.6890  0.3666 -0.3884
    1TMC1     O14133   0.605   1.705   0.849 -1.0203 -0.5782  0.7732
    1TMC1     H14134   0.412   1.968   0.654 -0.9700  1.5614 -2.3648
    1TMC1    H114135   0.416   1.567   0.813  0.8255  1.6724  0.9779
    1TMC1    H214136   0.088   1.703   0.580 -3.0976  1.9194  3.6481
    1TMC1    C714137   0.178   1.503   0.723  0.8946  0.4069  0.1062
    1TMC1    C814138   0.166   1.966   0.561  0.5374  0.2545  0.4105
    1TMC1    O114139   0.099   1.461   0.642  0.1752 -0.0607  0.1886
    1TMC1    O214140   0.221   2.054   0.502 -0.0178  0.3214  0.1960
    1TMC1    O314141   0.153   1.498   0.857 -0.2658  0.0649 -0.3018
    1TMC1    H314142   0.211   1.556   0.911  0.4744 -0.1926 -0.8211
    1TMC1    O514143   0.049   1.983   0.622  0.2742  0.7895 -0.1220
    1TMC1    H514144   0.009   1.913   0.678 -0.6071  0.6775 -0.8893
    2MPD1     C14145   0.802   2.065   1.161  0.0637  0.0887  0.3797
    2MPD1    C114146   0.835   1.949   1.092 -0.1808 -0.1404  0.3984
    2MPD1    C214147   0.750   1.915   0.994 -0.4238  0.4974  0.9464
    2MPD1    C314148   0.632   1.986   0.964  0.5163 -0.2288  0.5686
    2MPD1    C414149   0.602   2.101   1.033  0.0081 -0.4860  0.1032
    2MPD1    C514150   0.691   2.141   1.121 -0.9612  0.2666 -0.4782
    2MPD1     H14151   0.780   1.825   0.942  0.3337  0.9216  0.6524
    2MPD1    H114152   0.516   2.164   1.016  0.6429  0.2547 -0.3310
    2MPD1    H214153   0.856   2.115   1.241 -0.7469  1.4405  0.0874
    2MPD1    H314154   0.678   2.236   1.171 -1.1122 -0.4953  0.9312
    2MPD1     N14155   0.540   1.937   0.860 -0.0277  0.0559  0.0913
    2MPD1    H514156   0.453   1.989   0.850  0.9981  1.9587  1.0835
    2MPD1    N114157   0.941   1.864   1.138  0.0339 -0.3935  0.2078
    2MPD1    H614158   0.985   1.819   1.059  1.2603 -0.3038  0.8434
    2MPD1    H714159   1.011   1.919   1.187 -0.2329  1.0717 -1.0720
    1MPD1     C14160   3.575   3.963  11.295  0.0787 -0.1679 -0.2064
    1MPD1    C114161   3.519   3.884  11.198  0.3817 -0.2160  0.0489
    1MPD1    C214162   3.463   3.758  11.230  0.2661  0.5264  0.0542
    1MPD1    C314163   3.454   3.714  11.362  0.4549 -0.3070  0.1303
    1MPD1    C414164   3.523   3.790  11.451 -0.2548  0.0975  0.0204
    1MPD1    C514165   3.577   3.918  11.421  0.2448 -0.2722  0.3754
    1MPD1     H14166   3.439   3.696  11.144  0.2610  2.2180 -1.1598
    1MPD1    H114167   3.521   3.775  11.558  0.3267 -1.0506 -0.1299
    1MPD1    H214168   3.619   4.061  11.284  0.0172  0.1307  2.1338
    1MPD1    H314169   3.622   3.976  11.501 -1.0306 -0.6945  1.4114
    1MPD1     N14170   3.398   3.588  11.380  0.3112 -0.0191  0.2340
    1MPD1    H514171   3.364   3.546  11.294 -0.1412 -0.2422  0.5219
    1MPD1    N114172   3.508   3.936  11.064  0.0364 -0.2683 -0.1442
    1MPD1    H614173   3.577   4.011  11.055 -0.8880  0.8487  1.9874
    1MPD1    H714174   3.527   3.864  10.995 -3.9904  0.1454 -1.6677
    2MPD1     C14175   2.655   3.113  10.729 -0.1567 -0.1623  0.4288
    2MPD1    C114176   2.549   3.027  10.698  0.3363  0.0296  0.2564
    2MPD1    C214177   2.484   2.952  10.799  0.4721 -0.5838 -0.0403
    2MPD1    C314178   2.521   2.971  10.930 -0.9021 -0.0554  0.0960
    2MPD1    C414179   2.624   3.047  10.959 -0.5485  0.2623 -0.1104
    2MPD1    C514180   2.691   3.115  10.858  0.1756  0.0840 -0.3547
    2MPD1     H14181   2.404   2.881  10.780  2.1527 -2.9746  1.8861
    2MPD1    H114182   2.660   3.063  11.060  2.1839 -1.0739 -0.8788
    2MPD1    H214183   2.714   3.169  10.657 -0.2860 -0.9306 -0.2702
    2MPD1    H314184   2.776   3.175  10.890 -0.3620 -0.0343  1.2920
    2MPD1     N14185   2.462   2.906  11.034  0.5861 -0.4854  0.3641
    2MPD1    H514186   2.509   2.915  11.124  0.3289 -1.6592  0.6073
    2MPD1    N114187   2.523   3.002  10.564 -0.2595  0.0539  0.2360
    2MPD1    H614188   2.555   3.085  10.514  1.1354 -0.4673  0.2930
    2MPD1    H714189   2.422   3.001  10.547 -0.1486 -0.2164 -0.4244
    3MPD1     C14190   1.566   2.406  10.981 -0.2817 -0.3492  0.1001
    3MPD1    C114191   1.573   2.543  11.005  0.8510  0.3795 -0.9424
    3MPD1    C214192   1.688   2.596  11.052 -0.6931  0.1460 -0.3340
    3MPD1    C314193   1.795   2.521  11.091  0.2921  0.2983 -0.3549
    3MPD1    C414194   1.774   2.384  11.098 -0.2128  0.5060 -0.2381
    3MPD1    C514195   1.663   2.334  11.034 -0.1637 -0.1515  0.0023
    3MPD1     H14196   1.701   2.704  11.044 -0.9397  0.3122  1.5071
    3MPD1    H114197   1.835   2.311  11.149 -3.4510 -2.0632 -0.0950
    3MPD1    H214198   1.483   2.357  10.931  0.4454 -1.2254 -0.2432
    3MPD1    H314199   1.639   2.231  11.059  1.8304 -0.7840 -0.7002
    3MPD1     N14200   1.920   2.580  11.124 -0.8729 -0.3045 -0.2202
    3MPD1    H514201   1.931   2.680  11.107 -1.4957 -0.3436 -0.8445
    3MPD1    N114202   1.466   2.620  10.949 -0.4520  0.3841  0.3434
    3MPD1    H614203   1.442   2.703  11.003 -0.7534 -0.1465  1.0327
    3MPD1    H714204   1.384   2.562  10.932  1.0632 -1.6427 -0.0039
    4MPD2     C14205   3.259   2.852  11.171  0.1246  0.5571 -0.4235
    4MPD2    C114206   3.248   2.889  11.306  0.0130  0.4822  0.2281
    4MPD2    C214207   3.254   2.794  11.406 -0.1248 -0.6584 -1.0940
    4MPD2    C314208   3.249   2.660  11.370  0.4634 -1.1025  0.0250
    4MPD2    C414209   3.258   2.627  11.237 -0.5976 -0.0278 -0.2482
    4MPD2    C514210   3.266   2.725  11.138 -0.7962  0.2638  0.5916
    4MPD2     H14211   3.262   2.818  11.512 -1.1349 -0.8326 -0.9837
    4MPD2    H114212   3.277   2.523  11.211  0.5045  0.0723  0.1655
    4MPD2    H214213   3.257   2.926  11.091 -0.5443 -0.6032 -1.4914
    4MPD2    H314214   3.274   2.688  11.036  0.9054  0.4439  0.6641
    4MPD2     N14215   3.244   2.563  11.470 -0.1926  0.5290  0.3747
    4MPD2    H514216   3.235   2.606  11.561 -0.7332 -0.5876  0.8541
    4MPD2    N114217   3.243   3.025  11.351 -0.0724 -0.7988  0.1266
    4MPD2    H714218   3.242   3.037  11.452  0.3140 -2.2486  0.2986
    5TMC3    C114219   3.204   3.247  11.359 -0.2949 -0.3579  0.0772
    5TMC3    C214220   3.305   3.338  11.371  0.2629 -0.5628 -0.3007
    5TMC3    C314221   3.320   3.394  11.499  0.2161 -0.1747  0.3207
    5TMC3    C414222   3.117   3.215  11.458 -0.0697  0.3335  0.1349
    5TMC3    C514223   3.137   3.264  11.585  0.9221 -0.0414 -0.0328
    5TMC3    C614224   3.241   3.350  11.605 -0.0291 -0.2991 -0.2323
    5TMC3     C14225   3.233   3.139  11.272  0.0475  0.6889 -0.6281
    5TMC3     O14226   3.228   3.158  11.153  0.4293 -0.1782 -0.7922
    5TMC3     H14227   3.388   3.337  11.301 -0.6570  2.0351 -1.4288
    5TMC3    H114228   3.046   3.135  11.441  0.7375 -0.6274  1.3337
    5TMC3    H214229   3.260   3.387  11.705  0.6584  2.9050 -1.5361
    5TMC3    C714230   3.157   3.152  11.670 -0.3737 -0.3447  0.4265
    5TMC3    C814231   3.393   3.523  11.498  0.2133  0.0244 -0.0219
    5TMC3    O114232   3.161   3.047  11.609 -0.2911  0.0253 -0.1595
    5TMC3    O214233   3.429   3.556  11.610 -0.4990 -0.2164 -0.5416
    6TMC3    C114234   2.299   2.763  11.152 -0.3597  0.2311 -0.4180
    6TMC3    C214235   2.172   2.707  11.144 -0.1136 -0.5457  0.5134
    6TMC3    C314236   2.130   2.606  11.235  0.9047  0.4439 -0.2664
    6TMC3    C414237   2.385   2.716  11.242 -0.1016  0.6224 -0.0976
    6TMC3    C514238   2.350   2.599  11.313 -0.5317 -0.1551  0.5117
    6TMC3    C614239   2.221   2.544  11.310 -0.5234  0.0055  0.4887
    6TMC3     C14240   2.335   2.846  11.027  0.0010  0.2517 -0.0789
    6TMC3     O14241   2.251   2.847  10.938 -0.2158 -0.3980  0.5425
    6TMC3     H14242   2.103   2.755  11.076  0.2545 -0.3490  0.2837
    6TMC3    H114243   2.476   2.769  11.266  1.4506 -1.6726 -1.0009
    6TMC3    H214244   2.184   2.458  11.364 -0.6473  1.6190  2.9584
    6TMC3    C714245   2.458   2.556  11.393 -0.5762  0.4059 -0.5851
    6TMC3    C814246   2.030   2.520  11.184  0.1801 -0.4016 -0.2491
    6TMC3    O114247   2.575   2.560  11.351 -0.2171  0.2217  0.3513
    6TMC3    O214248   2.039   2.401  11.215 -0.3168  0.3885  0.4362
    7MPD2     C14249   3.184   2.887  12.108 -1.0275 -0.2638  0.5341
    7MPD2    C114250   3.214   2.843  11.982 -0.7787  0.1334 -0.4880
    7MPD2    C214251   3.207   2.943  11.881 -0.0268  0.2299  0.2375
    7MPD2    C314252   3.202   3.080  11.903  2.0023  0.4878  0.3961
    7MPD2    C414253   3.207   3.116  12.037 -0.2400 -0.3099 -0.8189
    7MPD2    C514254   3.189   3.020  12.134 -0.1229  0.2941  0.0907
    7MPD2     H14255   3.204   2.915  11.776  0.5581  1.7549 -0.1895
    7MPD2    H114256   3.196   3.220  12.064  1.8771  0.0611 -1.3530
    7MPD2    H214257   3.173   2.814  12.187 -0.3706  0.6986  1.5092
    7MPD2    H314258   3.201   3.060  12.234 -2.6936  2.2400 -0.3822
    7MPD2     N14259   3.166   3.179  11.804  0.5892 -0.0134 -0.2785
    7MPD2    H514260   3.155   3.279  11.820 -0.2466 -0.1906  0.2612
    7MPD2    N114261   3.215   2.703  11.948 -0.4914  0.4195  0.5828
    7MPD2    H714262   3.170   2.642  12.016 -2.3033 -0.9810 -1.8798
    8TMC3    C114263   3.232   2.512  11.805  0.2921  0.2479 -0.3542
    8TMC3    C214264   3.109   2.467  11.842  0.2719  0.4522 -0.3539
    8TMC3    C314265   3.038   2.380  11.754 -0.2742  0.2694 -0.1814
    8TMC3    C414266   3.280   2.476  11.684  0.0574 -1.1254  0.0368
    8TMC3    C514267   3.212   2.395  11.598 -0.5847 -0.5789  0.1862
    8TMC3    C614268   3.095   2.345  11.635 -0.0878  0.2697  0.4984
    8TMC3     C14269   3.257   2.652  11.827  0.1898  0.5561 -0.2405
    8TMC3     O14270   3.313   2.712  11.737 -0.3405  0.2964  0.6049
    8TMC3     H14271   3.062   2.495  11.935  0.7944 -1.2737  0.4299
    8TMC3    H114272   3.379   2.505  11.650  0.0050  0.1762  0.9761
    8TMC3    H214273   3.047   2.273  11.570  2.7837  0.9862 -2.4523
    8TMC3    C714274   3.226   2.431  11.456 -0.5403 -0.1399  0.7208
    8TMC3    C814275   2.907   2.344  11.790  0.0586  0.1132 -0.2015
    8TMC3    O114276   3.169   2.374  11.367  0.0676  0.4577  0.8371
    8TMC3    O214277   2.887   2.331  11.909  0.2138  0.6249 -0.5057
    9MPD2     C14278   2.626   2.290  11.798  0.1168 -0.3254  0.0930
    9MPD2    C114279   2.685   2.358  11.694 -0.7195 -0.5229  0.2758
    9MPD2    C214280   2.615   2.414  11.595 -0.0917 -0.5042  0.2052
    9MPD2    C314281   2.483   2.403  11.579 -0.1228  0.3379 -0.6058
    9MPD2    C414282   2.422   2.340  11.688  0.7758  0.5075  0.1062
    9MPD2    C514283   2.493   2.286  11.792  0.0346 -0.0978 -0.3655
    9MPD2     H14284   2.679   2.466  11.524  0.2445 -1.8355 -0.4770
    9MPD2    H114285   2.314   2.344  11.687  0.7298 -1.1920 -1.3321
    9MPD2    H214286   2.674   2.245  11.884 -1.5621  0.6189  1.5296
    9MPD2    H314287   2.425   2.245  11.866  0.6310 -0.2019  0.1218
    9MPD2     N14288   2.402   2.474  11.490 -0.4813 -0.3750 -0.2922
    9MPD2    H514289   2.302   2.475  11.502 -0.1938  0.1620  1.9204
    9MPD2    N114290   2.822   2.377  11.686  0.3433  0.6177  0.0173
    9MPD2    H714291   2.854   2.435  11.608 -1.1326 -1.2489 -1.9949
    1MPD1     C14292   3.075   1.201  16.681 -0.7741 -0.1018 -0.8113
    1MPD1    C114293   2.972   1.279  16.644 -0.5001 -0.1951 -0.0220
    1MPD1    C214294   2.955   1.317  16.512 -0.1498  0.2874  0.5078
    1MPD1    C314295   3.052   1.285  16.420 -0.0183 -0.2133 -0.3760
    1MPD1    C414296   3.163   1.218  16.458 -1.1361 -0.4705  0.6894
    1MPD1    C514297   3.165   1.165  16.587 -0.1934  0.1164 -0.2234
    1MPD1     H14298   2.878   1.389  16.486 -2.7230 -3.0243 -1.1445
    1MPD1    H114299   3.236   1.198  16.381 -1.2271  1.7228  0.0134
    1MPD1    H214300   3.088   1.157  16.779  0.9057 -1.6946 -1.7605
    1MPD1    H314301   3.251   1.103  16.611 -0.9464 -1.6329 -2.1268
    1MPD1     N14302   3.033   1.315  16.284  0.1891 -0.2680 -0.8560
    1MPD1    H514303   3.084   1.262  16.214 -0.0242  0.2769 -1.4295
    1MPD1    N114304   2.883   1.311  16.742 -0.2649  0.2681  0.2009
    1MPD1    H614305   2.835   1.400  16.729 -0.8633  0.0329  0.7671
    1MPD1    H714306   2.912   1.302  16.839 -0.2934  0.1609  0.1992
    2TMC2    C114307   2.865   1.533  15.896 -0.2341  0.0393  0.0516
    2TMC2    C214308   2.961   1.474  15.814 -0.0385  0.9019  0.4406
    2TMC2    C314309   3.034   1.374  15.874 -0.0498  0.4764  0.2449
    2TMC2    C414310   2.852   1.503  16.029  0.4299  0.6867 -0.1513
    2TMC2    C514311   2.944   1.411  16.082  0.2475 -0.2614  0.8811
    2TMC2    C614312   3.035   1.349  16.009  0.2247 -0.7610 -0.0359
    2TMC2     C14313   2.776   1.630  15.824 -0.3365 -0.5141 -0.5285
    2TMC2     O14314   2.787   1.637  15.704 -0.1799 -0.0988  0.4040
    2TMC2     H14315   2.984   1.498  15.710 -1.6310  3.2755  0.6239
    2TMC2    H114316   2.785   1.559  16.093  1.5902  2.2095 -0.2498
    2TMC2    H214317   3.083   1.260  16.047  0.6043 -0.5125  0.0703
    2TMC2    C714318   2.927   1.390  16.227 -0.1144 -0.0565 -0.2596
    2TMC2    C814319   3.149   1.336  15.794  0.0480  0.0254 -0.3396
    2TMC2    O114320   2.835   1.445  16.282 -0.0191  0.9555 -0.5695
    2TMC2    O214321   3.210   1.426  15.733  0.3660  0.5746 -0.1512
    2TMC2    O514322   3.178   1.203  15.813  0.3544  0.1203  0.6133
    2TMC2    H514323   3.099   1.158  15.852 -1.6687  2.7001 -0.5227
    3MPD1     C14324   2.386   1.958  15.823  0.0513  0.7296 -0.0466
    3MPD1    C114325   2.375   1.884  15.935  0.4315  0.3055 -0.2884
    3MPD1    C214326   2.472   1.791  15.958  0.0489  0.4215 -0.2574
    3MPD1    C314327   2.579   1.769  15.870  0.0839  0.4423  0.8199
    3MPD1    C414328   2.573   1.839  15.750 -0.5802  0.4906 -0.4659
    3MPD1    C514329   2.480   1.930  15.730  0.6602  0.2483 -0.1386
    3MPD1     H14330   2.477   1.732  16.049 -0.3824  0.3911 -0.2531
    3MPD1    H114331   2.653   1.819  15.680 -1.9258 -1.8101 -1.3466
    3MPD1    H214332   2.310   2.034  15.803 -1.9629 -1.4416 -0.5940
    3MPD1    H314333   2.478   1.990  15.639  0.9484 -0.0578 -0.3485
    3MPD1     N14334   2.680   1.681  15.905 -0.0015 -0.5104  0.4036
    3MPD1    H514335   2.685   1.644  15.999  0.7487 -2.2224 -0.3130
    3MPD1    N114336   2.279   1.914  16.034 -0.1119  0.4356  0.3430
    3MPD1    H614337   2.259   1.833  16.093 -0.8348  1.5150  1.5891
    3MPD1    H714338   2.188   1.944  15.998 -0.2505 -1.0311 -0.5515
    1TMC1    C114339   0.951   0.755  13.165 -0.2874 -0.0673  0.2925
    1TMC1    C214340   0.844   0.697  13.107 -0.3135 -0.0867 -0.1835
    1TMC1    C314341   0.864   0.587  13.027  0.4046  0.5534 -0.5806
    1TMC1    C414342   1.080   0.713  13.149 -0.0846 -0.4346 -0.1590
    1TMC1    C514343   1.089   0.593  13.086 -0.0701 -0.0639  0.4759
    1TMC1    C614344   0.992   0.534  13.013 -0.5551 -0.1024 -0.3459
    1TMC1     C14345   0.913   0.852  13.267  0.0946  0.3789 -0.2524
    1TMC1     O14346   0.808   0.911  13.257 -1.0266 -0.2838  0.2322
    1TMC1     H14347   0.744   0.733  13.128  1.2863  2.9510  2.1742
    1TMC1    H114348   1.165   0.773  13.177  0.6390 -1.7755  0.4983
    1TMC1    H214349   0.999   0.431  12.980  2.9479  0.8285 -2.4747
    1TMC1    C714350   1.225   0.534  13.068  0.3947 -0.7845  0.6036
    1TMC1    C814351   0.750   0.500  13.022 -0.1460 -0.2046 -0.0985
    1TMC1    O114352   1.242   0.446  12.987 -0.2878 -0.2692 -0.1265
    1TMC1    O214353   0.771   0.385  12.978 -0.6087 -0.1011  0.3308
    1TMC1    O314354   1.286   0.538  13.187 -0.4363 -0.3883 -0.0405
    1TMC1    H314355   1.275   0.616  13.245 -0.6423  0.7844 -1.6675
    1TMC1    O514356   0.640   0.572  13.003  1.0215  0.8079  0.4772
    1TMC1    H514357   0.640   0.669  13.021 -1.6323  0.9723 -0.2901
    2MPD2     C14358   0.916   1.091  13.433  0.0598  0.5310 -0.2215
    2MPD2    C114359   1.000   0.982  13.452 -0.0783  0.1390 -0.0395
    2MPD2    C214360   1.086   0.972  13.563  0.2722 -0.2823 -0.5617
    2MPD2    C314361   1.088   1.069  13.659  0.2756 -0.2025 -0.9161
    2MPD2    C414362   1.005   1.170  13.638 -0.1204  0.4957  0.1032
    2MPD2    C514363   0.927   1.185  13.529  0.1278 -0.0004 -0.6195
    2MPD2     H14364   1.146   0.884  13.581 -0.8770 -1.2078 -1.2993
    2MPD2    H114365   1.002   1.253  13.708 -2.0178  1.2087 -0.8196
    2MPD2    H214366   0.858   1.107  13.343 -0.8269  1.5419  0.5168
    2MPD2    H314367   0.863   1.272  13.522 -3.0529 -2.2598  0.4238
    2MPD2     N14368   1.175   1.056  13.776 -0.4428 -0.1152 -0.2485
    2MPD2    H514369   1.237   0.976  13.783  1.2345  1.0700 -1.7681
    2MPD2    N114370   1.013   0.876  13.354 -0.2623  0.0378 -0.2626
    2MPD2    H714371   1.087   0.807  13.353 -1.0294 -0.7818 -2.7379
    3TCq1    O114372   1.473   0.824  14.163  0.1864 -0.2783  0.3330
    3TCq1    C114373   1.521   0.873  14.053 -0.1774 -0.3558 -0.2910
    3TCq1    O214374   1.554   0.806  13.954 -0.0489  0.0401  0.1736
    3TCq1    C214375   1.466   1.005  14.046 -0.5606 -0.0234  0.1063
    3TCq1    C314376   1.480   1.076  14.163 -0.3612 -1.1213 -0.6429
    3TCq1    C414377   1.383   1.165  14.180 -0.2182 -0.1681  0.0139
    3TCq1    C514378   1.298   1.206  14.085 -0.2214 -0.7758 -0.4195
    3TCq1    C614379   1.303   1.140  13.960 -0.7584 -0.1113 -0.1690
    3TCq1    C714380   1.385   1.039  13.941  0.8040  0.5249 -0.1209
    3TCq1    C814381   1.184   1.152  13.875  0.1617 -0.3926 -0.1303
    3TCq1    O414382   1.127   1.258  13.895  0.3462 -0.5034  0.3542
    3TCq1    C914383   1.369   1.230  14.304 -0.8980  0.0320  0.4413
    3TCq1    O514384   1.442   1.176  14.391 -0.0118  0.4809 -0.1276
    3TCq1    O614385   1.265   1.289  14.329 -0.1167 -0.2401 -0.1550
    3TCq1    H114386   1.432   0.888  14.226  1.7323 -0.6811  1.7601
    3TCq1    H214387   1.560   1.040  14.227 -0.3769  2.9889  1.6459
    3TCq1    H314388   1.227   1.286  14.102  0.1003 -0.5367 -0.2091
    3TCq1    H414389   1.385   0.973  13.856  0.2179  0.3185  0.0430
    1MPD2     C14390   4.738   2.019  15.391 -0.0829  0.6061 -0.0577
    1MPD2    C114391   0.011   1.921  15.299 -0.2439  0.1674  0.1432
    1MPD2    C214392   0.136   1.876  15.262 -0.8536  0.1501 -0.3430
    1MPD2    C314393   0.253   1.935  15.310 -0.3166 -0.8889 -0.4042
    1MPD2    C414394   0.242   2.036  15.400  0.1592  1.1727  0.0114
    1MPD2    C514395   0.112   2.075  15.440 -0.5393 -0.1649  0.5308
    1MPD2     H14396   0.147   1.788  15.199  1.0809  1.0304 -1.2543
    1MPD2    H114397   0.332   2.085  15.437  1.4613 -1.0127 -0.2310
    1MPD2    H214398   4.642   2.058  15.423 -0.8261 -0.2909 -1.1889
    1MPD2    H314399   0.109   2.154  15.514  1.8260 -2.4227  3.0267
    1MPD2     N14400   0.372   1.884  15.257 -0.9679 -0.7190 -0.0859
    1MPD2    H514401   0.374   1.807  15.192  0.2146 -0.1801 -0.6868
    1MPD2    N114402   4.629   1.885  15.243  0.4269  0.2972 -0.3866
    1MPD2    H714403   4.550   1.948  15.248 -0.2753 -0.5919 -0.3169
    2TMC3    C114404   4.501   1.752  15.088  0.2423 -0.0079 -0.2348
    2TMC3    C214405   4.510   1.636  15.021 -0.0763 -0.3238 -0.3688
    2TMC3    C314406   4.454   1.625  14.895  0.2892 -0.1212  0.4068
    2TMC3    C414407   4.415   1.856  15.057  0.2679 -0.2816  0.2517
    2TMC3    C514408   4.354   1.842  14.939  0.1729 -0.6902 -0.6885
    2TMC3    C614409   4.382   1.737  14.859 -0.2159  0.1154  0.1332
    2TMC3     C14410   4.622   1.773  15.161  0.5448 -0.3571  0.0783
    2TMC3     O14411   4.706   1.697  15.118 -0.4194  0.6744  0.4512
    2TMC3     H14412   4.560   1.558  15.077  3.3748  0.7202 -1.9411
    2TMC3    H114413   4.382   1.934  15.125 -3.6242 -1.5164 -0.2046
    2TMC3    H214414   4.339   1.740  14.759  0.0463  1.7598  0.0727
    2TMC3    C714415   4.329   1.961  14.862  0.5679  0.1727 -0.4677
    2TMC3    C814416   4.553   1.587  14.796  0.1581  0.2398  0.0395
    2TMC3    O114417   4.243   1.947  14.775 -0.0066  0.0122 -0.0893
    2TMC3    O214418   4.521   1.620  14.683 -0.3819  0.2753  0.2518
    3TCq1    O114419   0.295   2.971  15.089 -0.1599 -0.1028  0.9346
    3TCq1    C114420   0.197   2.960  14.991 -0.6542  0.1173  0.0688
    3TCq1    O214421   0.113   3.042  14.963  0.2861  0.0330  0.3871
    3TCq1    C214422   0.187   2.824  14.937  0.2056 -0.3028 -0.7464
    3TCq1    C314423   0.295   2.735  14.951  0.0338  1.0863  0.2628
    3TCq1    C414424   0.273   2.606  14.918  0.4210  1.1094 -1.2791
    3TCq1    C514425   0.162   2.566  14.847  0.1941  1.0922  0.5479
    3TCq1    C614426   0.058   2.652  14.830  0.2837 -0.5984 -0.5369
    3TCq1    C714427   0.072   2.784  14.867 -0.5940  0.2237 -0.7264
    3TCq1    C814428   4.663   2.599  14.805  0.5065 -0.0954 -0.8307
    3TCq1    O414429   4.577   2.682  14.765  0.2567 -0.8982  0.1973
    3TCq1    C914430   0.374   2.510  14.941  0.2971 -0.3744  0.1879
    3TCq1    O514431   0.339   2.389  14.937 -0.0842 -0.5737  0.4039
    3TCq1    O614432   0.494   2.554  14.932  0.5079 -0.0492 -0.4811
    3TCq1    H114433   0.325   2.881  15.115  2.8245  0.4536 -0.5762
    3TCq1    H214434   0.390   2.779  14.981  0.4504  0.2014  0.2323
    3TCq1    H314435   0.148   2.465  14.809  0.8271  0.7450  1.2400
    3TCq1    H414436   4.737   2.857  14.845  2.3767  2.5049 -3.4054
    4MPD2     C14437   4.467   2.432  14.714 -0.8429 -0.3614 -0.1933
    4MPD2    C114438   4.557   2.382  14.801  0.7305 -0.1894 -0.4716
    4MPD2    C214439   4.543   2.262  14.865 -0.2784  0.8314 -0.0398
    4MPD2    C314440   4.433   2.183  14.833  0.8893 -0.4323  0.3149
    4MPD2    C414441   4.345   2.226  14.734 -0.6774 -0.2785  0.4677
    4MPD2    C514442   4.365   2.354  14.680  0.0211  0.4206 -0.2474
    4MPD2     H14443   4.619   2.228  14.933  0.1491  1.6225 -0.1208
    4MPD2    H114444   4.261   2.164  14.703  2.3206 -3.7889 -0.6310
    4MPD2    H214445   4.485   2.521  14.655 -0.5234  0.1921  0.7390
    4MPD2    H314446   4.295   2.394  14.608 -0.4876  4.3904  2.4458
    4MPD2     N14447   4.424   2.057  14.894 -0.2736  0.2402  0.2181
    4MPD2    H514448   4.488   2.045  14.972 -1.8430  0.2645  1.5152
    4MPD2    N114449   4.661   2.462  14.837 -1.0703 -0.0114 -1.4951
    4MPD2    H714450   4.742   2.417  14.881 -0.8265  0.7710 -1.1513
    5TMC2    C114451   0.546   1.719  14.981  0.0164 -0.5928  0.5036
    5TMC2    C214452   0.669   1.661  15.009  0.4526 -0.0738  0.4520
    5TMC2    C314453   0.742   1.719  15.102 -0.0968  0.2770  0.3848
    5TMC2    C414454   0.513   1.825  15.054 -0.3625  0.2784  0.0581
    5TMC2    C514455   0.585   1.884  15.159  0.5928 -0.8618  0.0071
    5TMC2    C614456   0.705   1.819  15.192 -0.0578 -0.0313  0.2035
    5TMC2     C14457   0.428   1.635  14.969 -0.6062 -0.2848 -0.6444
    5TMC2     O14458   0.343   1.647  15.058 -0.0125 -0.0421 -0.0092
    5TMC2     H14459   0.688   1.561  14.973  0.4707  0.4595 -0.9889
    5TMC2    H114460   0.416   1.858  15.019  0.1110 -0.8098 -2.3049
    5TMC2    H214461   0.767   1.867  15.267 -3.3224  1.5054  1.8989
    5TMC2    C714462   0.499   1.936  15.268  0.0328 -0.0194 -0.2841
    5TMC2    C814463   0.848   1.632  15.148  0.1510  0.0853 -0.0087
    5TMC2    O114464   0.534   2.030  15.341  0.6669 -0.2325 -0.1879
    5TMC2    O214465   0.904   1.549  15.078  0.4556  0.1546 -0.0874
    5TMC2    O514466   0.857   1.651  15.273 -0.1371 -0.9260  0.0714
    5TMC2    H514467   0.787   1.708  15.312  0.8735  0.6779 -0.4644
    6MPD2     C14468   0.053   1.521  14.649 -0.1123 -0.2538  0.2501
    6MPD2    C114469   0.053   1.553  14.781 -0.0958 -0.5096  0.3333
    6MPD2    C214470   0.167   1.574  14.846  0.5981  0.0062  0.2367
    6MPD2    C314471   0.285   1.559  14.775 -0.4572 -0.4595  0.2420
    6MPD2    C414472   0.285   1.530  14.638 -0.0577 -0.7138  0.3570
    6MPD2    C514473   0.167   1.510  14.569  0.2928  0.0137 -0.0354
    6MPD2     H14474   0.163   1.588  14.954  0.5345  1.8436 -0.0032
    6MPD2    H114475   0.382   1.520  14.589 -0.3797  0.8278 -0.5691
    6MPD2    H214476   4.702   1.499  14.597  0.6622 -0.2206 -1.1433
    6MPD2    H314477   0.167   1.503  14.461  0.1353 -0.1033 -0.0287
    6MPD2     N14478   0.414   1.585  14.843  0.6128 -0.8280 -1.0086
    6MPD2    H514479   0.494   1.588  14.780 -0.1927  2.1196 -1.8900
    6MPD2    N114480   4.678   1.561  14.853  0.4166 -0.6328  0.2976
    6MPD2    H714481   4.689   1.576  14.952 -0.9888 -0.0415  0.3718
  945NH3     N114482   2.861   2.173   7.452  0.6762 -0.1577  0.0928
  945NH3     H214483   2.870   2.206   7.548 -2.0996 -0.7180  0.5365
  945NH3     H314484   2.959   2.162   7.427  0.4252 -0.8856 -0.5469
  945NH3     H414485   2.830   2.077   7.463  1.3140 -0.6074 -2.0165
  946SOD     NA14486   1.645   0.833   7.135  0.0108 -0.4391 -0.1628
  947SOD     NA14487   0.069   0.420  12.839 -0.0187  0.3018  0.0325
  948SOD     NA14488   4.142   2.946   7.917  0.5727  0.2505 -0.2307
  949SOD     NA14489   1.615   2.190  13.585  0.0523 -0.4212 -0.2793
  950SOD     NA14490   1.443   1.837   1.596 -0.2016  0.4308  0.1397
  951SOD     NA14491   0.742   1.937  15.651 -0.2510  0.4014 -0.4164
  952SOD     NA14492   2.046   0.841   9.050 -0.3028 -0.0715  0.2862
  953SOD     NA14493   1.147   4.449  17.174 -0.0362  0.1812  0.0818
  954SOL     OW14494   3.187   3.680   7.932 -0.2146 -0.0114  0.4056
  954SOL    HW114495   3.236   3.762   7.939 -0.3241 -0.1088  2.2996
  954SOL    HW214496   3.245   3.615   7.973 -1.1392 -2.4629 -2.1677
  955SOL     OW14497   1.528   1.496   3.868  0.1835 -0.1276  0.2629
  955SOL    HW114498   1.599   1.471   3.928  1.1273 -0.4924 -1.0187
  955SOL    HW214499   1.566   1.578   3.836  1.3952 -1.4321 -1.5955
  956SOL     OW14500   3.278   0.318   8.615  0.0980 -0.3310  0.6706
  956SOL    HW114501   3.246   0.407   8.633 -0.7738 -0.4938 -0.1046
  956SOL    HW214502   3.369   0.322   8.644  0.0564  1.0759  0.6336
  957SOL     OW14503   2.718   2.203   2.349 -0.2190  0.5503 -0.1601
  957SOL    HW114504   2.778   2.142   2.393 -0.2772  0.3622 -0.3438
  957SOL    HW214505   2.637   2.153   2.361  0.8839 -0.6402  2.2745
  958SOL     OW14506   3.959   0.451   6.188 -0.0487  0.3867 -0.1021
  958SOL    HW114507   3.920   0.534   6.216 -0.0853  0.4124 -0.2280
  958SOL    HW214508   3.898   0.388   6.225  0.4649  0.6567  1.2108
  959SOL     OW14509   0.753   4.090   6.425  0.2430  0.3595 -0.4612
  959SOL    HW114510   0.713   4.087   6.338 -2.1373 -0.9502  0.6743
  959SOL    HW214511   0.675   4.100   6.479  0.9379 -0.8824  0.7709
  960SOL     OW14512   1.493   3.106   3.435  0.0259  0.4360  0.3959
  960SOL    HW114513   1.463   3.085   3.346 -1.7392 -0.2359  1.1666
  960SOL    HW214514   1.589   3.098   3.427  0.1569  0.0266  2.3738
  961SOL     OW14515   1.037   2.731   8.510 -0.0727 -0.1493 -0.8813
  961SOL    HW114516   1.127   2.754   8.487  0.7424  0.2008  2.6182
  961SOL    HW214517   0.996   2.815   8.486 -4.1019 -1.0102  2.9999
  962SOL     OW14518   2.005   4.708   5.870 -0.3336  0.0068  0.0360
  962SOL    HW114519   1.973   4.660   5.794  1.1205  0.1169 -0.6537
  962SOL    HW214520   2.099   4.709   5.854 -0.7133  0.5416 -2.2089
  963SOL     OW14521   1.680   4.504  16.797  0.5399 -0.7151 -0.1176
  963SOL    HW114522   1.730   4.453  16.860 -1.5191 -0.3500  1.8161
  963SOL    HW214523   1.610   4.442  16.777 -0.5187  0.9060 -1.4558
  964SOL     OW14524   1.507   3.066  11.816  0.4726 -0.1004 -0.3487
  964SOL    HW114525   1.496   2.991  11.757 -0.1121 -1.2237  1.1973
  964SOL    HW214526   1.432   3.121  11.794  0.7447  0.3366 -0.1698
  965SOL     OW14527   0.243   1.735  12.764  0.2436 -0.3400  0.8590
  965SOL    HW114528   0.247   1.679  12.686  1.0779  0.8991  0.0202
  965SOL    HW214529   0.253   1.677  12.839  0.1146 -3.2224 -1.3214
  966SOL     OW14530   3.743   3.132   0.047 -0.1545  0.0387  0.3523
  966SOL    HW114531   3.730   3.070   0.119  0.1772  3.2064  3.1061
  966SOL    HW214532   3.663   3.184   0.053  1.1027  2.0047  0.1934
  967SOL     OW14533   3.230   1.324   9.322 -0.0609  0.1330 -0.0890
  967SOL    HW114534   3.181   1.336   9.241 -0.8030 -2.0868  0.0168
  967SOL    HW214535   3.190   1.240   9.344 -2.7124  1.5428  0.4668
  968SOL     OW14536   1.839   2.910   5.131  0.1120  0.0566  0.4459
  968SOL    HW114537   1.770   2.972   5.157 -0.3179 -0.6441  0.9943
  968SOL    HW214538   1.811   2.833   5.180  0.2817 -0.2478  0.0572
  969SOL     OW14539   2.296   3.030   8.332  0.2219  0.1695 -0.1689
  969SOL    HW114540   2.263   2.994   8.249 -0.4457 -0.9419  0.5810
  969SOL    HW214541   2.307   2.958   8.394  0.3861 -1.1570 -1.7186
  970SOL     OW14542   1.701   0.182   6.645  0.3116  0.2122 -0.0283
  970SOL    HW114543   1.789   0.167   6.678  0.3662  1.2394  0.3101
  970SOL    HW214544   1.647   0.151   6.718 -0.7739  0.3785 -0.7500
  971SOL     OW14545   4.581   0.160  15.213 -0.0791 -0.5275 -0.4335
  971SOL    HW114546   4.518   0.119  15.273  1.5639 -1.7118  0.5059
  971SOL    HW214547   4.527   0.214  15.156 -0.6608  0.9047  1.4555
  972SOL     OW14548   1.917   3.499   5.460 -0.1847  0.0198  0.5462
  972SOL    HW114549   1.888   3.555   5.387  1.7389 -1.4655 -1.3767
  972SOL    HW214550   1.918   3.558   5.536 -3.3897  0.4390  0.2512
  973SOL     OW14551   1.253   1.670  13.936 -0.4409 -0.0079 -0.0310
  973SOL    HW114552   1.323   1.656  14.000 -0.1186 -2.1541 -0.8628
  973SOL    HW214553   1.181   1.698  13.993  0.7504 -0.0147  1.4836
  974SOL     OW14554   0.780   3.245   9.308  0.4864  0.2783 -0.3777
  974SOL    HW114555   0.824   3.230   9.224 -0.4050 -0.1874 -0.7566
  974SOL    HW214556   0.689   3.218   9.298  0.2021  0.7272  0.9883
  975SOL     OW14557   1.203   3.138   7.756 -0.4250 -0.8163  0.1968
  975SOL    HW114558   1.138   3.068   7.762 -0.9164 -0.5430 -2.0032
  975SOL    HW214559   1.186   3.175   7.669  0.8646  1.6915  1.0214
  976SOL     OW14560   3.780   0.363   5.915  0.9301  0.0592 -0.4749
  976SOL    HW114561   3.796   0.332   6.004 -0.0624 -2.6048 -1.2220
  976SOL    HW214562   3.712   0.303   5.883  1.0828 -0.2130 -0.2797
  977SOL     OW14563   2.404   4.715   8.214 -0.8366  0.3547  0.6284
  977SOL    HW114564   2.424   0.066   8.196  2.4803 -0.4694 -0.0412
  977SOL    HW214565   2.321   4.712   8.166 -0.4305  1.1833 -0.1336
  978SOL     OW14566   4.704   2.696   2.374 -0.1760 -0.1854  0.1310
  978SOL    HW114567   4.732   2.764   2.312  1.2473  0.6946  1.7493
  978SOL    HW214568   4.640   2.652   2.318 -0.0934  0.6055 -0.5838
  979SOL     OW14569   3.687   4.294   3.944 -0.2837  0.2558 -0.1088
  979SOL    HW114570   3.741   4.259   3.873 -1.2002 -0.1375 -0.6246
  979SOL    HW214571   3.632   4.215   3.947 -1.7234  1.2802  0.3655
  980SOL     OW14572   3.164   3.649   4.430 -0.3807  1.0098 -0.0667
  980SOL    HW114573   3.081   3.624   4.389  0.2631 -1.4017  0.0744
  980SOL    HW214574   3.141   3.713   4.497  2.2161 -0.0665  1.8327
  981SOL     OW14575   1.544   2.166  15.365  0.1782  0.0028  0.1847
  981SOL    HW114576   1.507   2.098  15.420  0.2049  0.7667  1.1468
  981SOL    HW214577   1.578   2.106  15.298  1.6339  0.1716  0.7688
  982SOL     OW14578   3.058   0.423   0.444 -0.0304 -0.0151 -0.1650
  982SOL    HW114579   3.051   0.467   0.529  0.9635  0.8608 -0.5392
  982SOL    HW214580   3.030   0.334   0.467  2.2700 -0.3126  1.5465
  983SOL     OW14581   1.510   3.056   9.221  0.3070 -0.4557  0.2576
  983SOL    HW114582   1.562   2.975   9.214 -1.8340 -1.7258 -0.9954
  983SOL    HW214583   1.454   3.055   9.144 -0.2200 -2.9917  0.6664
  984SOL     OW14584   3.334   2.128  14.347 -0.0202 -0.1653  0.0425
  984SOL    HW114585   3.423   2.159  14.335  0.4110 -1.6896 -0.6067
  984SOL    HW214586   3.349   2.039  14.316 -1.9352  0.3651 -2.4757
  985SOL     OW14587   0.715   1.760  15.516 -0.1728  0.6896  0.0451
  985SOL    HW114588   0.746   1.675  15.547 -1.4977 -0.2535 -1.2251
  985SOL    HW214589   0.620   1.745  15.517  0.0042 -0.4914 -0.5602
  986SOL     OW14590   1.627   0.890   9.010 -0.2946 -0.7315 -0.1773
  986SOL    HW114591   1.611   0.834   9.086 -2.4502 -0.6908 -0.5840
  986SOL    HW214592   1.551   0.949   9.015  0.6855  0.4053  1.1626
  987SOL     OW14593   4.504   0.656   6.624  0.3044  0.3779 -0.0097
  987SOL    HW114594   4.597   0.648   6.645  0.1598  0.0571  0.5170
  987SOL    HW214595   4.464   0.614   6.700  1.6390 -1.2571 -0.2069
  988SOL     OW14596   3.295   3.129   7.182  0.6932 -0.1506 -0.4879
  988SOL    HW114597   3.289   3.034   7.185  0.0856 -0.1187 -0.8262
  988SOL    HW214598   3.252   3.154   7.100  0.7893  5.4853  1.1902
  989SOL     OW14599   0.436   1.573   4.067  0.1174  0.3412  0.8142
  989SOL    HW114600   0.515   1.547   4.114  0.3446  0.8871  0.7296
  989SOL    HW214601   0.459   1.652   4.019 -0.0461 -0.4923 -0.6311
  990SOL     OW14602   1.149   1.417   4.363  0.2649  0.4702 -0.1663
  990SOL    HW114603   1.079   1.452   4.420  0.7810 -0.7071  1.1801
  990SOL    HW214604   1.141   1.481   4.292  2.7971 -0.5175 -1.3363
  991SOL     OW14605   1.183   0.729  17.518  0.4431 -0.0428  0.2265
  991SOL    HW114606   1.250   0.670  17.485  0.1876 -1.6519  2.5711
  991SOL    HW214607   1.111   0.705  17.460  1.3478 -1.2165 -0.3890
  992SOL     OW14608   4.193   0.059  11.061  0.0391  0.1207 -0.7843
  992SOL    HW114609   4.165   0.134  11.114 -1.1712 -0.5529 -0.4607
  992SOL    HW214610   4.185   4.735  11.130  2.0379 -0.6865 -1.3404
  993SOL     OW14611   3.483   2.243   2.232  0.2104 -0.2128 -0.1449
  993SOL    HW114612   3.397   2.260   2.193  0.2935  0.1277 -0.1746
  993SOL    HW214613   3.511   2.161   2.191  3.1550  0.8722 -0.2830
  994SOL     OW14614   3.875   3.701   6.279 -0.4666 -0.2250  0.4150
  994SOL    HW114615   3.882   3.646   6.357 -2.3929 -2.6331 -1.1105
  994SOL    HW214616   3.806   3.651   6.234 -0.2052 -1.5984  1.5254
  995SOL     OW14617   1.533   2.803   8.647  1.0557 -0.0884  0.2691
  995SOL    HW114618   1.460   2.747   8.621  2.1870 -1.3088 -0.3169
  995SOL    HW214619   1.563   2.833   8.561  0.4745  0.5800  0.2925
  996SOL     OW14620   4.032   1.490   4.820  0.2549 -0.3846 -0.4907
  996SOL    HW114621   4.087   1.412   4.828  2.2404  1.3653  2.6079
  996SOL    HW214622   4.085   1.558   4.861 -0.0938 -0.6906  0.4684
  997SOL     OW14623   1.869   0.587   9.580  0.0098 -0.1623  0.0515
  997SOL    HW114624   1.946   0.643   9.575  0.1978 -0.3189  1.1824
  997SOL    HW214625   1.905   0.518   9.636 -3.6531 -0.4757  1.9726
  998SOL     OW14626   3.265   3.030   7.979 -0.1491  0.2120 -0.0229
  998SOL    HW114627   3.334   3.078   7.933 -0.1982  0.2981 -0.0062
  998SOL    HW214628   3.186   3.069   7.939 -1.6944 -1.7559  1.1422
  999SOL     OW14629   1.684   4.057   1.588 -0.1502  0.5819 -0.6804
  999SOL    HW114630   1.602   4.077   1.633  1.9967  0.2209  3.3461
  999SOL    HW214631   1.696   4.146   1.555  0.1945  0.8254  0.1099
 1000SOL     OW14632   2.690   2.505   5.608  0.3249 -0.0119  0.6206
 1000SOL    HW114633   2.612   2.519   5.662 -0.9447 -0.5477 -1.0577
 1000SOL    HW214634   2.741   2.434   5.646  1.6209  1.1332  1.0161
 1001SOL     OW14635   1.052   0.818  16.269 -0.1833  0.4593  0.1123
 1001SOL    HW114636   0.984   0.877  16.236 -2.6668 -1.6347  1.4266
 1001SOL    HW214637   1.112   0.825  16.195 -1.3668  1.1974 -0.7764
 1002SOL     OW14638   2.849   0.531   5.760  0.2681 -0.0373 -0.2226
 1002SOL    HW114639   2.802   0.490   5.833  0.5283  1.1118  0.5865
 1002SOL    HW214640   2.936   0.534   5.798  0.9312 -0.1847 -1.7323
 1003SOL     OW14641   4.288   4.280   5.008  0.7906  0.0631  0.4285
 1003SOL    HW114642   4.369   4.316   5.044  1.1647  1.6965 -2.0959
 1003SOL    HW214643   4.287   4.319   4.921 -0.2019 -0.7184  0.0915
 1004SOL     OW14644   3.239   0.888   4.808  0.2568  0.3225 -0.0071
 1004SOL    HW114645   3.189   0.937   4.743 -2.7105  0.4764  2.4168
 1004SOL    HW214646   3.180   0.812   4.806 -0.6253  1.0620 -1.6978
 1005SOL     OW14647   2.251   2.906  14.151 -0.1756 -0.2427  0.7002
 1005SOL    HW114648   2.159   2.903  14.178 -0.6996 -2.6337 -1.3462
 1005SOL    HW214649   2.243   2.914  14.055  1.0605 -1.2254  0.5113
 1006SOL     OW14650   3.264   0.199   4.269 -0.0542  0.2129 -0.0790
 1006SOL    HW114651   3.350   0.235   4.247 -0.3464  1.9595  1.6185
 1006SOL    HW214652   3.273   0.110   4.234  0.2496 -0.4453  1.6461
 1007SOL     OW14653   1.859   4.465  10.138  0.4824  0.1984  0.0551
 1007SOL    HW114654   1.853   4.525  10.212  2.4496 -0.9366  1.1488
 1007SOL    HW214655   1.785   4.408  10.159  0.1013  0.4727 -0.5426
 1008SOL     OW14656   2.345   0.559  11.429  0.4213 -0.4428  0.4176
 1008SOL    HW114657   2.299   0.609  11.361 -1.9558 -2.1912  0.7471
 1008SOL    HW214658   2.323   0.475  11.388  2.4383 -0.1008 -1.3647
 1009SOL     OW14659   2.502   0.530   2.701  0.0124 -0.2543 -0.0347
 1009SOL    HW114660   2.569   0.599   2.700  0.5352 -0.7612  0.4095
 1009SOL    HW214661   2.450   0.560   2.626  1.0462  0.8638 -0.3151
 1010SOL     OW14662   0.238   0.290  12.903 -0.3329  0.0451 -0.1629
 1010SOL    HW114663   0.333   0.280  12.901 -0.0896  2.5349 -1.1418
 1010SOL    HW214664   0.206   0.202  12.883 -0.8236  0.1316  0.2292
 1011SOL     OW14665   1.524   2.043   1.363 -0.2280  0.2653 -0.3925
 1011SOL    HW114666   1.473   1.987   1.305  3.2447  0.2656 -3.3827
 1011SOL    HW214667   1.571   2.097   1.300 -1.3405  0.3188 -1.1749
 1012SOL     OW14668   1.886   1.406   7.503  0.3193  0.4731  0.0080
 1012SOL    HW114669   1.868   1.493   7.538 -1.0418  0.5075 -0.7730
 1012SOL    HW214670   1.796   1.375   7.503  0.6800 -0.5554 -0.0080
 1013SOL     OW14671   0.418   3.207   5.361 -0.3033  0.5748  0.0517
 1013SOL    HW114672   0.408   3.254   5.279 -1.3417  1.5764  0.7494
 1013SOL    HW214673   0.329   3.219   5.396 -1.1376 -0.5343 -1.7109
 1014SOL     OW14674   2.482   2.780   7.769 -0.2333 -0.0890  0.0110
 1014SOL    HW114675   2.439   2.850   7.818  1.7612  0.2549  1.2646
 1014SOL    HW214676   2.411   2.775   7.704  1.0330  3.1334 -1.6579
 1015SOL     OW14677   2.146   2.326   3.665 -0.0120 -0.1447  0.0194
 1015SOL    HW114678   2.197   2.265   3.611  0.3965  0.2875 -0.0812
 1015SOL    HW214679   2.112   2.385   3.598  0.5230  1.1506  0.9038
 1016SOL     OW14680   1.841   4.645   5.352 -0.2527 -0.0002  0.4484
 1016SOL    HW114681   1.764   4.618   5.302 -0.1811  1.0582 -0.2183
 1016SOL    HW214682   1.894   4.688   5.285 -1.3312  1.8546  0.7842
 1017SOL     OW14683   2.288   1.636   4.608  0.0136  0.2108 -0.2058
 1017SOL    HW114684   2.344   1.563   4.580 -4.5657 -3.5018  0.3842
 1017SOL    HW214685   2.344   1.713   4.603 -0.5084  0.5674 -0.4235
 1018SOL     OW14686   0.254   3.125   8.112 -0.4045 -0.1060 -0.2111
 1018SOL    HW114687   0.202   3.106   8.190  1.3809 -0.7841  0.8245
 1018SOL    HW214688   0.254   3.220   8.108 -0.1215 -0.0271  1.4128
 1019SOL     OW14689   2.744   4.265   5.651  0.5941 -0.6249 -0.0813
 1019SOL    HW114690   2.715   4.226   5.734 -0.8301 -0.2975 -0.4188
 1019SOL    HW214691   2.793   4.194   5.611  0.7998  0.1654 -1.2359
 1020SOL     OW14692   0.901   2.944   6.119 -0.3138  0.0790  0.4957
 1020SOL    HW114693   0.828   2.886   6.139  1.2483 -2.1444 -0.3229
 1020SOL    HW214694   0.865   3.029   6.145 -0.5574 -0.3286  1.5150
 1021SOL     OW14695   4.348   1.193   3.263  0.2955 -0.0767  0.1651
 1021SOL    HW114696   4.441   1.177   3.251 -0.7323 -4.8414 -1.5282
 1021SOL    HW214697   4.345   1.213   3.357 -0.4435  1.5285 -0.1896
 1022SOL     OW14698   0.009   0.279   8.128 -0.5594  0.0807  0.4400
 1022SOL    HW114699   4.705   0.293   8.045 -0.1436 -2.1919 -0.1753
 1022SOL    HW214700   0.089   0.328   8.109 -1.0849  1.6481  2.2887
 1023SOL     OW14701   3.499   4.650   6.000  0.4316 -0.5072 -0.6322
 1023SOL    HW114702   3.457   4.564   6.000  1.0911 -0.8316  0.0281
 1023SOL    HW214703   3.537   4.650   6.088 -0.1009  0.1875 -0.4016
 1024SOL     OW14704   1.841   3.055  11.385  0.0407  1.0161 -0.2566
 1024SOL    HW114705   1.905   3.116  11.422  0.6066 -0.2421  0.8536
 1024SOL    HW214706   1.843   3.003  11.465 -0.5568  1.6276  0.1632
 1025SOL     OW14707   0.507   4.397   1.217  0.4166 -0.0055 -0.6393
 1025SOL    HW114708   0.546   4.469   1.168  1.9421 -0.9500 -0.8132
 1025SOL    HW214709   0.485   4.436   1.302 -1.9611 -0.1997 -1.1686
 1026SOL     OW14710   4.595   0.713   7.822  0.4001 -0.4210 -0.1343
 1026SOL    HW114711   4.597   0.807   7.805  2.0767 -0.3003  0.6821
 1026SOL    HW214712   4.502   0.703   7.840  0.9474 -0.5220  2.6910
 1027SOL     OW14713   3.682   2.241   1.509  0.4632 -0.1912 -0.0501
 1027SOL    HW114714   3.732   2.162   1.528 -0.3207 -1.3356 -2.6524
 1027SOL    HW214715   3.592   2.212   1.522  0.8651 -2.2339 -1.8344
 1028SOL     OW14716   2.622   4.164   2.102 -0.7163  0.3404  0.0649
 1028SOL    HW114717   2.650   4.210   2.023 -0.2953 -1.1769 -0.6721
 1028SOL    HW214718   2.658   4.222   2.170 -0.8656  0.4352  0.0624
 1029SOL     OW14719   3.168   0.306  14.147  0.2627  0.3079  0.5014
 1029SOL    HW114720   3.159   0.267  14.060  0.0585 -3.0283  2.0370
 1029SOL    HW214721   3.256   0.343  14.146 -0.0415  1.0100 -0.3597
 1030SOL     OW14722   0.637   4.411   1.526 -0.3722 -0.2880  0.0231
 1030SOL    HW114723   0.583   4.478   1.483 -0.8073  0.9249  2.4447
 1030SOL    HW214724   0.623   4.427   1.620 -0.9316 -2.9448  0.3863
 1031SOL     OW14725   0.569   3.806  16.876 -0.0815  0.0478 -0.4328
 1031SOL    HW114726   0.574   3.723  16.925  0.4789  0.8597  0.8848
 1031SOL    HW214727   0.494   3.840  16.926 -0.1376 -0.3853 -0.2155
 1032SOL     OW14728   1.775   3.673   8.241 -0.1375 -0.1767 -0.5471
 1032SOL    HW114729   1.779   3.644   8.150 -3.4885  0.8171 -1.0430
 1032SOL    HW214730   1.701   3.629   8.284  0.9733 -3.2678 -1.8556
 1033SOL     OW14731   1.362   3.366   1.483  0.1954 -0.4642  0.4655
 1033SOL    HW114732   1.295   3.372   1.551 -0.8346 -1.0818 -0.5085
 1033SOL    HW214733   1.328   3.290   1.436 -1.0228  0.2079  0.2782
 1034SOL     OW14734   0.078   1.724   2.189 -0.3485 -0.1261 -0.0226
 1034SOL    HW114735   0.022   1.646   2.186  1.2958 -1.3490  1.0223
 1034SOL    HW214736   0.027   1.794   2.230  1.3157  0.8377  0.3827
 1035SOL     OW14737   1.081   3.109   8.179  0.0592  0.3191  0.1757
 1035SOL    HW114738   1.136   3.155   8.115  2.5970 -3.1568 -0.1174
 1035SOL    HW214739   1.095   3.157   8.260 -1.9666 -0.2064  0.8406
 1036SOL     OW14740   4.630   1.071   2.154 -0.3407 -0.3877 -0.4852
 1036SOL    HW114741   4.652   1.164   2.158  0.9181 -0.6689 -0.8439
 1036SOL    HW214742   4.578   1.060   2.074 -0.4786 -0.1054 -0.4337
 1037SOL     OW14743   4.309   2.372  12.220 -0.1390 -0.4685  0.0289
 1037SOL    HW114744   4.329   2.278  12.228 -2.4209 -0.8691  1.0880
 1037SOL    HW214745   4.283   2.371  12.128 -2.7543  0.3112  0.7603
 1038SOL     OW14746   2.556   2.901   9.939 -0.1519 -0.0934  0.4956
 1038SOL    HW114747   2.550   2.818   9.986 -0.3072 -0.2665  0.1694
 1038SOL    HW214748   2.564   2.965  10.010  1.5629  1.1915 -0.8586
 1039SOL     OW14749   2.625   4.067   3.359  0.5940 -0.4868 -0.1163
 1039SOL    HW114750   2.681   4.093   3.432  1.3131  2.0098 -1.5725
 1039SOL    HW214751   2.577   4.149   3.346  0.0876 -1.0043 -1.5206
 1040SOL     OW14752   0.218   0.278   2.790  0.0026 -0.2009  0.0502
 1040SOL    HW114753   0.258   0.213   2.847  1.5723  0.7397  0.0261
 1040SOL    HW214754   0.140   0.310   2.837 -0.9079 -0.5811 -1.1981
 1041SOL     OW14755   2.588   3.374   8.773 -0.8762  1.0005  0.6481
 1041SOL    HW114756   2.609   3.361   8.680  0.0052 -0.4605  1.0524
 1041SOL    HW214757   2.587   3.470   8.776  0.6635  0.9500  2.5020
 1042SOL     OW14758   2.989   4.054  16.883 -0.3791 -0.1634  0.0506
 1042SOL    HW114759   3.018   4.144  16.864 -0.9023  0.0943  0.4897
 1042SOL    HW214760   3.003   4.012  16.798 -0.5541 -0.8494  0.3686
 1043SOL     OW14761   1.173   2.341   2.630 -0.0467 -0.1547  0.1249
 1043SOL    HW114762   1.215   2.259   2.657 -0.4423 -0.9488 -1.6936
 1043SOL    HW214763   1.173   2.332   2.535  0.8630 -3.3889  0.4444
 1044SOL     OW14764   3.538   4.591  10.518  0.4396  0.6006 -0.2821
 1044SOL    HW114765   3.624   4.632  10.509  0.9085 -0.5018 -0.8779
 1044SOL    HW214766   3.480   4.647  10.466  0.1303  0.7742  0.2584
 1045SOL     OW14767   2.168   0.068  11.157 -0.1362 -0.2082 -0.5407
 1045SOL    HW114768   2.257   0.104  11.148  0.2611 -1.0387  0.0711
 1045SOL    HW214769   2.137   0.125  11.228  0.6984  2.7594 -2.5562
 1046SOL     OW14770   1.697   4.610  16.016  0.4369  0.3857  0.2682
 1046SOL    HW114771   1.603   4.593  16.016  0.6873 -1.0573  1.6455
 1046SOL    HW214772   1.718   4.536  15.959 -1.9002  0.0636 -0.1727
 1047SOL     OW14773   3.263   3.836   6.166 -0.4709 -0.5015  0.1680
 1047SOL    HW114774   3.242   3.858   6.257  0.5622  0.1905  0.2258
 1047SOL    HW214775   3.348   3.794   6.181 -0.2592 -0.1057  0.0702
 1048SOL     OW14776   4.484   1.827   7.468 -0.2570  0.1771  0.7326
 1048SOL    HW114777   4.417   1.835   7.536 -0.0174  0.6129  0.9191
 1048SOL    HW214778   4.426   1.799   7.397  0.3519 -0.9163  0.6583
 1049SOL     OW14779   3.440   2.166  14.078  0.1963  0.1451  0.5544
 1049SOL    HW114780   3.368   2.104  14.093  1.0666 -1.2527 -1.0909
 1049SOL    HW214781   3.503   2.117  14.025 -0.1618  0.0619  0.2125
 1050SOL     OW14782   4.547   1.940   3.873  0.0611 -0.8946  0.3813
 1050SOL    HW114783   4.552   2.022   3.922 -1.3342  1.0419 -2.7193
 1050SOL    HW214784   4.522   1.890   3.950  1.1609 -1.7221  0.2177
 1051SOL     OW14785   1.869   0.045   2.646  0.4037  0.1632  0.1542
 1051SOL    HW114786   1.814   0.113   2.684 -0.3489  0.6234 -1.7638
 1051SOL    HW214787   1.847   0.051   2.553  0.3887  2.2257  0.3027
 1052SOL     OW14788   0.665   2.298   4.243  0.3604  0.0371 -0.2489
 1052SOL    HW114789   0.737   2.288   4.182  0.4740  0.3005 -0.1544
 1052SOL    HW214790   0.623   2.212   4.231  0.5756  0.0343 -0.9168
 1053SOL     OW14791   4.429   3.797   3.015 -0.3232 -0.0332 -0.2160
 1053SOL    HW114792   4.479   3.805   2.934 -0.5219 -1.4220 -0.4704
 1053SOL    HW214793   4.357   3.737   2.998  1.8172 -1.7275 -3.2011
 1054SOL     OW14794   3.842   3.136   0.623  0.6033  0.1261  0.0044
 1054SOL    HW114795   3.838   3.108   0.714  0.2133  0.8015  0.1959
 1054SOL    HW214796   3.809   3.226   0.628 -0.9327 -0.4494  0.1634
 1055SOL     OW14797   3.720   0.965   8.963  0.4221 -0.2125 -0.1428
 1055SOL    HW114798   3.727   1.029   8.892 -2.0343 -0.9284 -1.0236
 1055SOL    HW214799   3.775   1.009   9.028  0.8958  1.1300 -1.4642
 1056SOL     OW14800   0.632   2.527   4.399  0.0802  0.6202  0.7841
 1056SOL    HW114801   0.615   2.470   4.474 -0.4299  1.0655  1.0100
 1056SOL    HW214802   0.648   2.467   4.326  0.3040 -1.4494  2.5629
 1057SOL     OW14803   3.411   1.520  17.689 -0.0909  0.0704 -0.2260
 1057SOL    HW114804   3.317   1.537  17.691  0.2891  2.3677 -2.4767
 1057SOL    HW214805   3.417   1.457  17.761 -2.2689  1.2949  1.0017
 1058SOL     OW14806   3.200   4.114   6.123  0.2110  0.2931  0.5141
 1058SOL    HW114807   3.264   4.132   6.054 -1.3090  0.4209 -0.8755
 1058SOL    HW214808   3.226   4.022   6.125  0.4722  0.3849  1.2297
 1059SOL     OW14809   0.825   3.005  16.629 -0.2859  0.0919  0.0021
 1059SOL    HW114810   0.811   3.098  16.610 -2.1833 -0.2101 -0.0413
 1059SOL    HW214811   0.885   3.018  16.703  1.1642  0.4737 -1.2356
 1060SOL     OW14812   1.204   0.648   0.510 -0.3427  0.5430  0.0989
 1060SOL    HW114813   1.226   0.704   0.435 -0.2481 -0.4930 -0.6531
 1060SOL    HW214814   1.161   0.581   0.457 -1.7873  0.7815  0.9473
 1061SOL     OW14815   0.384   3.028   7.504  0.3290  0.2213 -0.3427
 1061SOL    HW114816   0.441   3.065   7.437 -1.0555  2.1549 -0.4484
 1061SOL    HW214817   0.423   3.067   7.582 -2.6995  0.7479  0.9045
 1062SOL     OW14818   3.457   1.140  17.551 -0.2523 -0.1921  0.0943
 1062SOL    HW114819   3.417   1.071  17.498 -1.9633  0.4285  0.6049
 1062SOL    HW214820   3.479   1.195  17.476  0.1581  1.6632  1.5792
 1063SOL     OW14821   3.707   4.105   5.635 -0.3093 -0.1890 -0.3934
 1063SOL    HW114822   3.748   4.191   5.631 -0.2640 -0.1779  0.2537
 1063SOL    HW214823   3.615   4.119   5.659 -0.0812 -0.1215  0.4613
 1064SOL     OW14824   3.650   3.216   2.393 -0.0120  0.5272  0.4614
 1064SOL    HW114825   3.740   3.214   2.427 -0.2283  0.5829  1.0404
 1064SOL    HW214826   3.622   3.302   2.424  0.1388 -0.0991  2.3201
 1065SOL     OW14827   4.718   3.403   8.333 -0.0303 -0.1978  0.6340
 1065SOL    HW114828   4.623   3.401   8.345  0.4131  2.5095  4.6775
 1065SOL    HW214829   4.734   3.493   8.363  0.3695  0.0816 -0.4247
 1066SOL     OW14830   3.558   3.161   4.194 -0.3819 -0.1914  0.0192
 1066SOL    HW114831   3.615   3.207   4.255  0.3982  0.6892 -1.3669
 1066SOL    HW214832   3.533   3.087   4.250 -0.8130  1.7640  2.3993
 1067SOL     OW14833   1.603   4.102   0.289 -0.1731  0.3922 -0.2507
 1067SOL    HW114834   1.577   4.035   0.225  1.2307 -2.0255  1.7374
 1067SOL    HW214835   1.676   4.059   0.333 -0.2136 -0.4744 -1.0482
 1068SOL     OW14836   1.824   1.507   3.153 -0.2292  0.3058 -0.2652
 1068SOL    HW114837   1.764   1.473   3.087 -0.3823 -1.9881  1.0587
 1068SOL    HW214838   1.888   1.554   3.099  0.2774  0.5251  0.5206
 1069SOL     OW14839   3.054   2.780   2.489 -0.4772 -0.0848 -0.0845
 1069SOL    HW114840   3.081   2.798   2.579 -1.3398  2.0511 -0.2329
 1069SOL    HW214841   3.115   2.832   2.437  0.7138 -1.0636  0.3242
 1070SOL     OW14842   3.617   3.164   3.916  0.0746 -0.3682  0.0458
 1070SOL    HW114843   3.607   3.151   4.010  1.3776 -0.3750  0.1814
 1070SOL    HW214844   3.666   3.246   3.904  0.9046 -0.8523  0.1953
 1071SOL     OW14845   3.274   3.272   5.320 -0.1225 -0.0367 -0.2467
 1071SOL    HW114846   3.214   3.205   5.286 -1.4691  0.3737  1.2707
 1071SOL    HW214847   3.214   3.347   5.319  0.6885  0.6337  1.9800
 1072SOL     OW14848   0.436   3.026   7.054 -0.4648  0.4786  0.1121
 1072SOL    HW114849   0.356   3.003   7.102  0.4654  0.4225  1.6380
 1072SOL    HW214850   0.446   2.941   7.012  0.2341  1.0554 -0.8694
 1073SOL     OW14851   1.621   2.961   0.862 -0.5211  0.9762  0.3196
 1073SOL    HW114852   1.647   3.015   0.787  1.2013 -0.5922 -0.2269
 1073SOL    HW214853   1.527   2.961   0.848 -0.3847 -0.3760 -0.5979
 1074SOL     OW14854   0.454   4.218  15.805  0.2521 -0.1567 -0.2427
 1074SOL    HW114855   0.459   4.172  15.888 -0.1007  0.4493  0.1131
 1074SOL    HW214856   0.379   4.273  15.828  0.0171 -0.1417 -1.0299
 1075SOL     OW14857   4.235   0.614   5.153  0.1312 -0.5693 -0.2612
 1075SOL    HW114858   4.219   0.628   5.059 -1.9344  0.4077  0.2610
 1075SOL    HW214859   4.217   0.705   5.176  0.1138 -1.3983  2.9130
 1076SOL     OW14860   2.512   3.844  13.101  0.2291  0.1248 -0.6199
 1076SOL    HW114861   2.440   3.783  13.085  0.9020 -0.4252 -1.5656
 1076SOL    HW214862   2.586   3.785  13.097  1.1608  1.2787 -0.3308
 1077SOL     OW14863   2.100   0.243  10.161  0.7237  0.0018 -0.1087
 1077SOL    HW114864   2.168   0.182  10.191  0.3558  0.0399  0.8011
 1077SOL    HW214865   2.073   0.289  10.240  2.0233  0.4824  0.0579
 1078SOL     OW14866   0.797   1.067  11.325 -0.1053  0.2037 -0.2452
 1078SOL    HW114867   0.793   1.129  11.397  1.4706 -0.1991  0.1934
 1078SOL    HW214868   0.750   1.127  11.268 -0.5826  0.3503  0.3139
 1079SOL     OW14869   0.390   2.798  14.561  0.8341  0.5396 -0.3969
 1079SOL    HW114870   0.446   2.748  14.619  0.6123  0.4882 -0.2267
 1079SOL    HW214871   0.372   2.877  14.612 -1.7263  0.4501 -1.1352
 1080SOL     OW14872   0.451   3.689  11.344 -0.2752  0.3197 -0.0028
 1080SOL    HW114873   0.484   3.610  11.303 -3.4430 -0.0680 -1.7876
 1080SOL    HW214874   0.399   3.651  11.415  1.0006  0.7821  1.1810
 1081SOL     OW14875   2.112   4.195   8.890  0.2341 -0.0750  0.1000
 1081SOL    HW114876   2.169   4.176   8.965  0.2015 -0.4743  0.0224
 1081SOL    HW214877   2.171   4.222   8.820  3.0733 -1.1635  2.0777
 1082SOL     OW14878   3.800   4.736   7.048  0.0685 -0.7498  0.0581
 1082SOL    HW114879   3.892   4.726   7.073  0.6141  0.7586 -1.3296
 1082SOL    HW214880   3.791   0.086   7.075 -0.6513 -0.1376 -2.2503
 1083SOL     OW14881   1.628   0.606  13.190  0.3922 -0.4150  0.2362
 1083SOL    HW114882   1.645   0.637  13.279 -0.8365  0.1069  0.2920
 1083SOL    HW214883   1.617   0.513  13.210 -0.5696 -0.3918 -0.1904
 1084SOL     OW14884   3.070   0.139   4.456 -0.5982 -0.3598 -0.3611
 1084SOL    HW114885   3.067   0.054   4.411  1.3906 -0.5386 -0.1346
 1084SOL    HW214886   3.147   0.181   4.417  0.8131 -0.9942  1.7583
 1085SOL     OW14887   0.867   0.925   4.543 -0.1277  0.4422  0.3492
 1085SOL    HW114888   0.859   0.937   4.638 -0.3678  1.5676  0.1894
 1085SOL    HW214889   0.935   0.990   4.527  1.1026 -0.8328  0.3977
 1086SOL     OW14890   0.067   3.747   5.149 -0.2405 -0.3706  0.0447
 1086SOL    HW114891   0.157   3.728   5.175 -0.2232 -0.3963 -0.0338
 1086SOL    HW214892   0.070   3.818   5.084 -0.6570 -1.6436 -1.3802
 1087SOL     OW14893   2.377   1.659   3.509  0.3845  0.3070  0.6962
 1087SOL    HW114894   2.468   1.668   3.537  0.6668  1.1794 -0.5182
 1087SOL    HW214895   2.386   1.674   3.415  2.3925 -2.8983  0.4014
 1088SOL     OW14896   2.833   1.478  13.538  0.0312 -0.5366  0.2775
 1088SOL    HW114897   2.892   1.537  13.585 -0.3788 -0.2310  0.4091
 1088SOL    HW214898   2.885   1.471  13.458  1.9662 -0.0211  1.4708
 1089SOL     OW14899   2.035   1.050   9.154 -0.1929  0.8573 -0.1711
 1089SOL    HW114900   2.088   1.073   9.230  0.6348 -0.6880 -0.2772
 1089SOL    HW214901   1.953   1.032   9.198  0.8771  0.3886  1.6227
 1090SOL     OW14902   3.538   3.251  15.412 -0.2205  0.7979  0.1117
 1090SOL    HW114903   3.533   3.185  15.481 -1.8000  0.6959 -0.0962
 1090SOL    HW214904   3.535   3.197  15.334  0.5819 -0.4907  0.9916
 1091SOL     OW14905   3.943   1.219   0.161  0.0535 -0.1696  0.1006
 1091SOL    HW114906   4.014   1.171   0.205  1.8567  0.7687 -1.7971
 1091SOL    HW214907   3.978   1.308   0.160  0.4637 -0.3131  1.4404
 1092SOL     OW14908   3.227   2.096  12.987  0.0517  0.2575 -0.1080
 1092SOL    HW114909   3.185   2.010  12.978 -0.2727  0.5012 -0.9262
 1092SOL    HW214910   3.182   2.138  12.913  1.2807  2.6025  0.5003
 1093SOL     OW14911   0.970   4.124   6.611  0.8332 -0.4925  0.0816
 1093SOL    HW114912   1.046   4.073   6.583  2.3996  1.5736  0.6064
 1093SOL    HW214913   0.907   4.112   6.539 -2.2893  3.1495  2.1907
 1094SOL     OW14914   0.422   0.905   2.748 -0.0815 -0.3784  0.0480
 1094SOL    HW114915   0.424   0.821   2.702 -2.4122  0.3824 -1.4213
 1094SOL    HW214916   0.430   0.883   2.841 -0.9759 -1.3701 -0.1089
 1095SOL     OW14917   0.173   2.907  13.051  0.0110 -0.2783 -0.3838
 1095SOL    HW114918   0.138   2.899  12.962  0.4547 -1.3744 -0.4562
 1095SOL    HW214919   0.114   2.843  13.091 -0.7962  1.0801  0.5820
 1096SOL     OW14920   0.290   0.841   5.726  0.5911 -0.5154 -0.0451
 1096SOL    HW114921   0.195   0.834   5.720  0.4836  0.2985  0.7793
 1096SOL    HW214922   0.319   0.778   5.660 -0.9338 -2.5540  1.2159
 1097SOL     OW14923   1.638   4.264   4.543  0.1978 -0.2423 -0.0993
 1097SOL    HW114924   1.592   4.189   4.505 -2.7650  1.7262 -0.4705
 1097SOL    HW214925   1.651   4.325   4.470 -1.8156  1.3257  0.8123
 1098SOL     OW14926   3.542   2.573   7.602  0.3500 -0.0358 -0.4421
 1098SOL    HW114927   3.580   2.485   7.606 -1.2217 -0.6498  0.8987
 1098SOL    HW214928   3.564   2.599   7.512 -0.2602  2.0444  0.0088
 1099SOL     OW14929   0.066   4.599  12.862  0.5528  0.7276 -0.5988
 1099SOL    HW114930   0.077   4.524  12.921  1.7960  2.2262  1.0734
 1099SOL    HW214931   0.117   4.665  12.908  0.9915  1.8686 -2.7259
 1100SOL     OW14932   2.418   4.714   2.321  0.4159 -0.2592  0.3358
 1100SOL    HW114933   2.506   4.703   2.286  1.1396 -2.3820  2.8640
 1100SOL    HW214934   2.376   0.006   2.241 -0.1650 -0.1714  0.6785
 1101SOL     OW14935   0.288   3.792   2.873 -0.6829 -0.6582  0.2309
 1101SOL    HW114936   0.228   3.746   2.931  0.8801 -0.2141  2.2058
 1101SOL    HW214937   0.362   3.733   2.888 -0.3381 -0.1388  0.5759
 1102SOL     OW14938   0.102   0.772   2.567  0.2735 -0.2354 -0.2901
 1102SOL    HW114939   0.150   0.855   2.573 -0.4153  0.0028  1.7458
 1102SOL    HW214940   0.141   0.733   2.488 -1.2733 -1.5289 -0.4180
 1103SOL     OW14941   2.121   2.779   6.653  0.6529  0.2294 -0.1173
 1103SOL    HW114942   2.175   2.835   6.710 -1.7337  2.7567 -0.3215
 1103SOL    HW214943   2.121   2.696   6.700  1.6724  0.1754 -0.2162
 1104SOL     OW14944   1.357   4.446   8.880  0.4529 -0.2275  0.1996
 1104SOL    HW114945   1.298   4.511   8.841 -2.2662 -1.6046  1.9951
 1104SOL    HW214946   1.416   4.428   8.806 -2.0985  0.7921 -2.0620
 1105SOL     OW14947   0.056   1.705  13.900  0.1104  0.0769 -0.1633
 1105SOL    HW114948   0.142   1.672  13.873 -0.9573 -0.2687 -3.1090
 1105SOL    HW214949   0.023   1.742  13.819 -0.8122 -0.3370  0.0247
 1106SOL     OW14950   1.854   2.053   6.865 -0.1454 -0.3695 -0.0559
 1106SOL    HW114951   1.948   2.046   6.882 -0.0494  0.5056 -0.2270
 1106SOL    HW214952   1.864   2.061   6.771 -1.2476 -1.0683 -0.2329
 1107SOL     OW14953   3.093   4.054   8.600 -0.1327  0.4030  0.7179
 1107SOL    HW114954   3.072   4.011   8.683  0.4951  0.3944  0.8735
 1107SOL    HW214955   3.177   4.092   8.626 -0.5192  1.0810  0.9675
 1108SOL     OW14956   1.375   4.586  15.871 -0.4395 -0.1300  0.7399
 1108SOL    HW114957   1.287   4.571  15.905 -1.6128  1.4215 -1.5753
 1108SOL    HW214958   1.398   4.495  15.858 -1.7589 -0.4897  0.9300
 1109SOL     OW14959   3.594   2.400  16.212 -0.5555 -0.1801  0.2562
 1109SOL    HW114960   3.632   2.390  16.125  0.0740 -2.8524  0.8569
 1109SOL    HW214961   3.654   2.471  16.236 -0.4244 -0.6545  1.3278
 1110SOL     OW14962   0.725   4.613   8.951  0.1629 -0.9085 -0.2832
 1110SOL    HW114963   0.726   4.534   8.896  1.2249 -1.6824  0.8511
 1110SOL    HW214964   0.721   4.585   9.042 -0.2678  1.2916  0.3685
 1111SOL     OW14965   0.457   3.683  14.695 -0.6496  0.5907  0.1963
 1111SOL    HW114966   0.438   3.711  14.785 -0.9141 -0.2596  0.4024
 1111SOL    HW214967   0.378   3.629  14.691 -0.7712  0.7894 -0.0937
 1112SOL     OW14968   1.112   2.737   1.819 -0.1050 -0.2916  0.0478
 1112SOL    HW114969   1.029   2.690   1.829 -0.0641 -1.1197 -3.5897
 1112SOL    HW214970   1.117   2.772   1.908 -1.9234  2.6648 -1.0245
 1113SOL     OW14971   4.344   4.499   4.315 -0.5929 -0.4532 -0.3172
 1113SOL    HW114972   4.383   4.507   4.228 -2.3838  2.4535 -0.8650
 1113SOL    HW214973   4.261   4.462   4.286 -0.8121 -1.3925  1.5252
 1114SOL     OW14974   2.387   0.331  15.165  0.2969 -0.0713 -0.0388
 1114SOL    HW114975   2.302   0.298  15.195  0.1604 -0.4346 -0.8402
 1114SOL    HW214976   2.363   0.377  15.084  1.2374  0.0180 -0.2638
 1115SOL     OW14977   3.885   0.436   8.398  0.1195 -0.3132 -0.3589
 1115SOL    HW114978   3.801   0.415   8.439 -1.2157  1.2902 -2.2970
 1115SOL    HW214979   3.936   0.360   8.428  0.3064 -0.8418 -2.0196
 1116SOL     OW14980   3.472   3.132   6.223 -0.1276  0.1386  0.2930
 1116SOL    HW114981   3.397   3.190   6.213  0.2004  0.5947  0.4439
 1116SOL    HW214982   3.532   3.198   6.257 -0.1199  0.7743 -0.9528
 1117SOL     OW14983   3.553   4.438   2.177  0.2474 -0.3166  1.0879
 1117SOL    HW114984   3.492   4.435   2.103  1.4887  0.1943  0.0414
 1117SOL    HW214985   3.544   4.345   2.193  1.1432 -0.4742  0.6718
 1118SOL     OW14986   2.462   1.872   2.760  0.0483  0.2230  0.8551
 1118SOL    HW114987   2.431   1.790   2.798  1.1688 -1.2579 -1.3870
 1118SOL    HW214988   2.556   1.855   2.746  0.4072  2.1812  0.9648
 1119SOL     OW14989   0.762   1.056  14.442 -0.1762  0.1814  0.0619
 1119SOL    HW114990   0.730   1.014  14.522 -0.9180 -0.5609 -0.6093
 1119SOL    HW214991   0.834   1.106  14.480 -0.1546 -0.7212  1.2135
 1120SOL     OW14992   0.035   3.871   7.416  0.2234 -0.5292 -0.1559
 1120SOL    HW114993   0.116   3.820   7.417  2.5740  3.1927 -0.6813
 1120SOL    HW214994   4.723   3.828   7.349  1.0303 -0.9643 -0.5200
 1121SOL     OW14995   4.196   4.350  14.000  0.0870 -0.2482  0.4759
 1121SOL    HW114996   4.130   4.412  14.030  1.9611  0.4368  3.2071
 1121SOL    HW214997   4.146   4.283  13.955 -0.8159  0.6593  0.1457
 1122SOL     OW14998   1.297   0.500   4.489 -0.0930  0.1611  0.4539
 1122SOL    HW114999   1.317   0.517   4.397 -1.8500 -0.0224  0.0405
 1122SOL    HW215000   1.202   0.510   4.494  0.1534  2.3800  0.6904
 1123SOL     OW15001   3.868   1.307  15.472 -0.0791  0.4551  0.2946
 1123SOL    HW115002   3.814   1.300  15.394 -1.1185  1.2282  0.9512
 1123SOL    HW215003   3.918   1.382  15.441  1.2250 -1.9771 -3.4461
 1124SOL     OW15004   0.601   2.173   3.793  0.3359  0.2462 -0.2759
 1124SOL    HW115005   0.676   2.164   3.853  0.2207 -1.7076 -0.4329
 1124SOL    HW215006   0.572   2.263   3.807  0.6565  0.2685  0.2650
 1125SOL     OW15007   3.038   1.370   7.409 -0.1140  0.3477 -0.1822
 1125SOL    HW115008   3.094   1.321   7.470 -1.5170  1.5353  2.0440
 1125SOL    HW215009   2.950   1.364   7.446  0.2239 -0.6032  0.4814
 1126SOL     OW15010   2.638   3.331   4.710 -0.2000 -0.4621 -0.1701
 1126SOL    HW115011   2.713   3.390   4.705 -1.0678  0.7246  0.9527
 1126SOL    HW215012   2.672   3.259   4.764  2.2718  0.9900  0.1835
 1127SOL     OW15013   3.715   1.326   7.360  0.4143 -0.2357  0.7071
 1127SOL    HW115014   3.685   1.410   7.394  1.7573 -0.3327  2.1065
 1127SOL    HW215015   3.635   1.283   7.328  0.8135 -0.9249  0.6377
 1128SOL     OW15016   2.603   3.532  13.456 -0.2277 -0.1971 -0.0893
 1128SOL    HW115017   2.520   3.578  13.442  0.8776  1.5297 -0.9432
 1128SOL    HW215018   2.599   3.485  13.373  1.8379 -0.6823  0.0846
 1129SOL     OW15019   0.882   0.887   8.439 -0.3931  0.4678  0.4068
 1129SOL    HW115020   0.870   0.881   8.533 -0.8461 -2.1801  0.1799
 1129SOL    HW215021   0.839   0.804   8.416  1.1276 -0.2344  0.0810
 1130SOL     OW15022   4.514   3.810   6.587  0.0979 -0.0126  0.1269
 1130SOL    HW115023   4.556   3.875   6.644  2.3350 -0.5750 -0.8618
 1130SOL    HW215024   4.426   3.845   6.575  0.7368  1.5255 -0.0550
 1131SOL     OW15025   4.710   1.836   8.666 -0.6741  0.0802 -1.0422
 1131SOL    HW115026   4.656   1.911   8.643 -2.4280 -0.3967  1.4929
 1131SOL    HW215027   0.024   1.881   8.729 -0.8529 -0.4652 -0.4855
 1132SOL     OW15028   2.079   1.479   0.270 -0.0879 -0.0596 -0.1390
 1132SOL    HW115029   1.987   1.500   0.284 -0.2337 -0.2887 -0.7664
 1132SOL    HW215030   2.101   1.433   0.352  0.3475  0.0597 -0.1887
 1133SOL     OW15031   1.945   0.118   6.715 -0.3339  0.5543  0.2156
 1133SOL    HW115032   1.994   0.199   6.727  0.7496 -0.0621 -0.1399
 1133SOL    HW215033   2.020   0.064   6.690 -0.4139  0.2971  0.5219
 1134SOL     OW15034   1.399   4.283   0.426 -0.2149  0.6415 -0.3332
 1134SOL    HW115035   1.458   4.354   0.451  1.1695 -0.0465 -1.7038
 1134SOL    HW215036   1.466   4.222   0.396  0.5101  1.0996  0.3724
 1135SOL     OW15037   1.474   2.705   1.196 -0.3583 -0.1001 -0.2721
 1135SOL    HW115038   1.476   2.791   1.156  0.5471 -0.2389 -0.5237
 1135SOL    HW215039   1.457   2.730   1.287  0.6014 -1.1847  0.2096
 1136SOL     OW15040   0.585   1.139  16.990  0.6903 -0.5907 -0.1328
 1136SOL    HW115041   0.591   1.044  16.999 -2.7015 -0.8647 -0.9964
 1136SOL    HW215042   0.500   1.154  17.032  1.4927 -1.3279  1.7673
 1137SOL     OW15043   2.418   4.272   4.384  0.1037  0.0831 -0.3713
 1137SOL    HW115044   2.485   4.248   4.448 -0.5712 -1.3649 -0.2068
 1137SOL    HW215045   2.351   4.204   4.380  0.2834 -0.0823 -0.5277
 1138SOL     OW15046   0.976   1.181   5.055 -0.0928  0.0039 -0.1690
 1138SOL    HW115047   1.052   1.122   5.053 -0.6905 -0.7883  0.5779
 1138SOL    HW215048   1.021   1.265   5.056  0.4657 -0.3061  0.7410
 1139SOL     OW15049   1.726   3.529   7.360 -0.7872 -0.0719  0.2654
 1139SOL    HW115050   1.652   3.540   7.300 -1.4993 -3.0262  0.5782
 1139SOL    HW215051   1.715   3.438   7.389 -1.3685 -0.4194 -1.0429
 1140SOL     OW15052   3.191   2.942   3.558 -0.2996  0.4653 -0.3128
 1140SOL    HW115053   3.251   2.885   3.511 -0.2380  0.7413 -0.5689
 1140SOL    HW215054   3.123   2.951   3.490  0.3950 -0.7403 -1.1512
 1141SOL     OW15055   1.411   2.484  10.573  0.3965  0.0518 -0.2099
 1141SOL    HW115056   1.333   2.432  10.589  0.6577  0.7783  3.4359
 1141SOL    HW215057   1.413   2.497  10.478  0.7147  1.0371 -0.0740
 1142SOL     OW15058   1.106   0.866  17.180 -0.2152  0.1490  0.1275
 1142SOL    HW115059   1.094   0.910  17.096  1.0193 -1.9896 -1.1427
 1142SOL    HW215060   1.037   0.802  17.164  0.4900 -0.1099 -1.8202
 1143SOL     OW15061   2.886   4.617  12.423 -0.0469 -0.3199 -0.4961
 1143SOL    HW115062   2.849   4.530  12.443  0.9822 -0.9160 -1.1903
 1143SOL    HW215063   2.819   4.656  12.368 -0.7703  0.6040  1.0244
 1144SOL     OW15064   1.713   2.227  13.373 -0.3504  0.2292 -0.4182
 1144SOL    HW115065   1.787   2.169  13.356 -0.8531 -0.6647  0.4098
 1144SOL    HW215066   1.763   2.309  13.371  0.6235 -0.3155  1.2143
 1145SOL     OW15067   2.549   2.480   6.315 -0.1032  0.2489 -0.0580
 1145SOL    HW115068   2.601   2.424   6.373  2.0612  0.5522 -1.7204
 1145SOL    HW215069   2.592   2.466   6.231 -0.0576  1.2834 -0.1969
 1146SOL     OW15070   2.677   1.964  16.215 -0.4693 -0.3187 -0.7630
 1146SOL    HW115071   2.586   1.941  16.229  0.4852 -0.8938  4.3290
 1146SOL    HW215072   2.670   2.021  16.138 -1.5132  0.4543 -0.0919
 1147SOL     OW15073   3.883   2.322   1.364 -0.4177  0.3095 -0.0420
 1147SOL    HW115074   3.860   2.288   1.277  2.8400  0.5526 -0.9762
 1147SOL    HW215075   3.801   2.296   1.406  0.1450 -1.6833 -0.1768
 1148SOL     OW15076   3.990   1.505   2.074 -0.0719 -0.0488  0.1601
 1148SOL    HW115077   4.061   1.481   2.015 -0.5952 -0.6935 -0.1994
 1148SOL    HW215078   3.913   1.514   2.018 -0.2895  0.4464  0.5314
 1149SOL     OW15079   0.344   1.108   0.097 -0.1521 -0.4510 -0.3389
 1149SOL    HW115080   0.327   1.189   0.144 -0.8884 -0.6349 -0.2759
 1149SOL    HW215081   0.413   1.073   0.154 -0.1658 -0.2937 -0.2266
 1150SOL     OW15082   3.035   1.658   5.038 -0.2528 -0.7800 -0.1046
 1150SOL    HW115083   2.998   1.746   5.028 -1.2160 -1.0885  0.7447
 1150SOL    HW215084   3.121   1.670   4.998  0.2300 -0.7408  0.9219
 1151SOL     OW15085   0.957   0.559   3.348  0.0306 -0.4750 -0.3439
 1151SOL    HW115086   0.971   0.585   3.439  0.5715  0.3510 -0.6619
 1151SOL    HW215087   1.013   0.486   3.322  0.9493  1.1703 -2.9987
 1152SOL     OW15088   1.382   2.521   2.284 -0.5406  0.5348  0.3866
 1152SOL    HW115089   1.394   2.588   2.351  2.4734 -0.8795  1.2550
 1152SOL    HW215090   1.291   2.493   2.291 -0.5284  0.2498 -0.5821
 1153SOL     OW15091   1.839   4.720   8.243 -0.0860 -0.3840 -0.0576
 1153SOL    HW115092   1.798   4.638   8.273  0.0247 -0.3699  0.1356
 1153SOL    HW215093   1.827   4.709   8.149 -1.0159 -1.2233  0.1543
 1154SOL     OW15094   4.581   4.441   3.498 -0.7135  0.1963  0.3026
 1154SOL    HW115095   4.561   4.360   3.546 -2.2736  1.8665  2.4771
 1154SOL    HW215096   4.491   4.465   3.477 -0.4962 -1.8537 -2.8368
 1155SOL     OW15097   4.662   4.680  16.766 -0.1003  0.0371 -0.3979
 1155SOL    HW115098   4.583   4.634  16.739 -0.6606  0.7976 -0.0686
 1155SOL    HW215099   4.651   4.706  16.858  0.2921 -1.7976  0.1560
 1156SOL     OW15100   3.527   4.336   6.084 -0.0850 -0.7964 -0.3392
 1156SOL    HW115101   3.585   4.296   6.149 -0.3415  2.3611  1.8388
 1156SOL    HW215102   3.591   4.381   6.029  1.2391 -0.1917  1.7139
 1157SOL     OW15103   1.560   1.771   3.093 -0.2182  0.6499  0.8771
 1157SOL    HW115104   1.487   1.719   3.059  1.5261 -0.9343 -0.4787
 1157SOL    HW215105   1.558   1.747   3.186  1.2222  0.1276  0.7717
 1158SOL     OW15106   1.464   4.105   7.790  0.3355  0.0901  0.3926
 1158SOL    HW115107   1.515   4.148   7.859  1.2719 -0.0487 -0.2063
 1158SOL    HW215108   1.511   4.022   7.780  3.5481  2.0907 -1.1912
 1159SOL     OW15109   4.728   1.070   2.603 -0.0004 -0.4427  0.0403
 1159SOL    HW115110   4.675   0.991   2.592  2.4087 -1.9320 -0.9767
 1159SOL    HW215111   0.048   1.055   2.531  0.2303 -1.5138  0.4511
 1160SOL     OW15112   2.859   1.648   3.956  0.5246  0.2584  0.1758
 1160SOL    HW115113   2.934   1.708   3.951  0.3752  0.3595 -0.8688
 1160SOL    HW215114   2.789   1.710   3.933  1.0275  1.4814  2.0231
 1161SOL     OW15115   1.304   2.386   3.473 -0.0132 -0.2662  0.1013
 1161SOL    HW115116   1.369   2.456   3.485 -0.7593  0.8655 -2.4224
 1161SOL    HW215117   1.291   2.359   3.564 -1.5143  2.9489  0.8472
 1162SOL     OW15118   3.980   3.025   9.280  0.3516 -0.2586  0.1369
 1162SOL    HW115119   4.072   3.023   9.303  0.0988  1.4694  1.2892
 1162SOL    HW215120   3.948   3.018   9.371  1.9845  0.5638  0.7669
 1163SOL     OW15121   2.582   0.500   3.421 -0.3369 -0.5957 -0.0999
 1163SOL    HW115122   2.582   0.548   3.338  1.1952  1.3578  1.0611
 1163SOL    HW215123   2.661   0.447   3.413 -0.2238 -0.4468  0.0574
 1164SOL     OW15124   2.282   0.130  10.430  0.1792 -0.3268 -0.6014
 1164SOL    HW115125   2.222   0.056  10.436  0.0440 -0.0856  1.0404
 1164SOL    HW215126   2.294   0.164  10.518  3.6611  0.2217 -1.2741
 1165SOL     OW15127   0.531   2.101   2.978 -0.7288 -0.0884 -0.3382
 1165SOL    HW115128   0.477   2.039   3.027  0.1422 -1.3980 -1.0430
 1165SOL    HW215129   0.618   2.076   3.010  0.0981  0.4816 -2.1583
 1166SOL     OW15130   3.002   1.875   7.810  0.3897  0.3881  0.3282
 1166SOL    HW115131   3.089   1.887   7.846  0.3093 -2.9690  1.6108
 1166SOL    HW215132   2.974   1.785   7.824 -0.1172  0.3485 -0.8624
 1167SOL     OW15133   2.994   0.255   8.688  0.4519  0.1370 -0.3365
 1167SOL    HW115134   3.079   0.217   8.713  0.2858  1.4017  2.0613
 1167SOL    HW215135   3.004   0.331   8.744 -0.7193  0.7362 -0.9500
 1168SOL     OW15136   2.046   3.970   8.579 -0.1525  0.3880  0.0303
 1168SOL    HW115137   2.004   3.936   8.500  1.2535 -0.9084 -0.1553
 1168SOL    HW215138   2.077   4.050   8.537  0.9777  0.4449  0.9696
 1169SOL     OW15139   3.581   1.581   3.433  0.7482 -0.3562 -0.5190
 1169SOL    HW115140   3.552   1.515   3.496  0.3573  0.1553 -0.1743
 1169SOL    HW215141   3.675   1.573   3.451  0.7895  0.9737 -0.1629
 1170SOL     OW15142   2.571   3.650   8.811 -0.1859  0.0037  0.5085
 1170SOL    HW115143   2.524   3.697   8.880 -2.0535  0.6855 -1.2254
 1170SOL    HW215144   2.649   3.704   8.796 -1.9911  1.9425 -1.8624
 1171SOL     OW15145   2.030   3.036   2.573 -0.7884 -0.1243  0.5105
 1171SOL    HW115146   1.998   3.060   2.486  0.8883 -0.8003 -0.2952
 1171SOL    HW215147   2.049   3.125   2.602  2.4615 -0.6218 -0.0780
 1172SOL     OW15148   1.274   3.764  12.411 -0.6108 -0.5866 -0.2161
 1172SOL    HW115149   1.273   3.766  12.506  0.0533 -0.0453 -0.2206
 1172SOL    HW215150   1.179   3.768  12.399 -0.3475 -0.6240 -2.2962
 1173SOL     OW15151   2.560   0.834   8.183  0.5265 -0.7652 -0.0770
 1173SOL    HW115152   2.571   0.925   8.213  0.7451 -1.4102  1.8380
 1173SOL    HW215153   2.572   0.795   8.270 -1.1487  0.7971  0.8633
 1174SOL     OW15154   1.162   4.119   6.843 -0.2251 -0.4072  0.6846
 1174SOL    HW115155   1.177   4.080   6.756 -0.8344  2.5640 -0.7652
 1174SOL    HW215156   1.253   4.134   6.869 -0.1890 -2.3576  1.7062
 1175SOL     OW15157   1.667   4.524  12.701  0.0860  0.1382 -0.5185
 1175SOL    HW115158   1.643   4.549  12.791 -1.0087 -0.8721 -0.5300
 1175SOL    HW215159   1.591   4.544  12.647 -0.7914  0.5363  0.8557
 1176SOL     OW15160   3.560   4.453   0.984 -0.6422 -0.1439  0.1120
 1176SOL    HW115161   3.598   4.527   1.033 -2.8973  1.4302 -0.5050
 1176SOL    HW215162   3.636   4.397   0.969 -2.5389 -1.8985 -2.9772
 1177SOL     OW15163   3.690   2.282   2.037  0.2109  0.7453 -0.1661
 1177SOL    HW115164   3.774   2.286   1.991  0.6848 -3.1897  0.3938
 1177SOL    HW215165   3.625   2.283   1.967  0.6440 -0.2707 -0.5842
 1178SOL     OW15166   4.571   2.762   3.142 -0.3612 -0.4218 -0.7485
 1178SOL    HW115167   4.585   2.825   3.072  1.3252  0.8901  0.7545
 1178SOL    HW215168   4.635   2.797   3.205  2.1399 -4.0198 -1.2541
 1179SOL     OW15169   3.499   4.199  17.521 -0.3286  0.4077  0.2121
 1179SOL    HW115170   3.483   4.181  17.429 -1.3813  1.3416  0.2161
 1179SOL    HW215171   3.481   4.293  17.528  1.7945  0.8096  0.1651
 1180SOL     OW15172   1.898   2.674  10.732  0.4774 -0.5831 -0.5210
 1180SOL    HW115173   1.807   2.663  10.705  0.1218  1.2382 -0.0669
 1180SOL    HW215174   1.925   2.586  10.757  2.4362  0.1043 -0.1859
 1181SOL     OW15175   3.486   1.627   3.166 -0.5335 -0.1460 -0.5625
 1181SOL    HW115176   3.555   1.603   3.104 -1.9241 -2.8198 -1.0585
 1181SOL    HW215177   3.529   1.613   3.251  1.4652 -1.5544 -1.8024
 1182SOL     OW15178   3.604   4.641   1.777  0.3119  0.2395 -0.4064
 1182SOL    HW115179   3.525   4.685   1.810 -0.3794  0.8299 -2.8618
 1182SOL    HW215180   3.608   4.557   1.822  1.9810  2.4702  3.5999
 1183SOL     OW15181   4.593   1.472   4.086  0.0915 -0.3523  0.5353
 1183SOL    HW115182   4.655   1.545   4.086  0.7065 -0.8738  0.6682
 1183SOL    HW215183   4.598   1.454   4.179  2.5344  0.0104  0.4698
 1184SOL     OW15184   2.797   4.431  15.755  0.4898  0.0736 -0.1211
 1184SOL    HW115185   2.813   4.374  15.830  0.0334  0.5304  0.3287
 1184SOL    HW215186   2.867   4.402  15.697 -0.9883 -1.1307 -1.3033
 1185SOL     OW15187   4.118   2.590   5.338 -0.0046 -0.1318 -0.2810
 1185SOL    HW115188   4.131   2.533   5.262  0.0581 -1.3619  0.6598
 1185SOL    HW215189   4.211   2.597   5.360  0.3012 -1.9479 -1.0600
 1186SOL     OW15190   0.359   1.928   4.670 -0.0011 -0.2044 -0.1716
 1186SOL    HW115191   0.452   1.924   4.647 -0.2355 -1.0086 -0.9511
 1186SOL    HW215192   0.373   1.960   4.760  0.7050 -0.3140 -0.2387
 1187SOL     OW15193   4.069   3.842   4.168 -0.2435 -0.0868  0.0296
 1187SOL    HW115194   4.156   3.840   4.208  0.7286 -2.2316 -2.1988
 1187SOL    HW215195   4.063   3.749   4.142  1.1812  0.5895 -2.7640
 1188SOL     OW15196   4.204   1.777  11.063 -0.1771  0.2918  0.5517
 1188SOL    HW115197   4.267   1.715  11.026 -1.9301 -1.1054 -0.0694
 1188SOL    HW215198   4.206   1.775  11.159 -0.6721 -0.1127  0.5510
 1189SOL     OW15199   0.236   3.265   4.924  0.1717  0.5285 -0.5320
 1189SOL    HW115200   0.315   3.257   4.871  0.0294 -0.2534 -0.6264
 1189SOL    HW215201   0.228   3.181   4.969 -1.0033  1.5642  1.1642
 1190SOL     OW15202   0.087   4.293   8.545  0.3208 -0.1116 -0.1233
 1190SOL    HW115203   0.079   4.314   8.638 -0.6467 -0.2837 -0.1738
 1190SOL    HW215204   0.157   4.355   8.525  1.1963 -1.1380 -0.2488
 1191SOL     OW15205   1.272   2.818   9.463 -0.3115  0.2862  0.1013
 1191SOL    HW115206   1.257   2.732   9.501 -2.2489  0.1708 -0.9476
 1191SOL    HW215207   1.345   2.800   9.405 -0.1866  0.6503  0.1407
 1192SOL     OW15208   4.535   2.326   7.555 -0.6009  0.5666  0.5362
 1192SOL    HW115209   4.568   2.248   7.510  0.1445 -0.1399  2.3038
 1192SOL    HW215210   4.616   2.378   7.563 -0.7360  0.5423  2.0482
 1193SOL     OW15211   1.546   0.879   8.344  0.5161  0.8277  0.3567
 1193SOL    HW115212   1.581   0.894   8.431  0.0942  1.3322  0.4351
 1193SOL    HW215213   1.602   0.929   8.286  1.0370  1.2989  1.2745
 1194SOL     OW15214   3.796   3.767  11.919  0.3929  0.1142 -0.2407
 1194SOL    HW115215   3.753   3.709  11.857 -0.4248  0.1190  0.3197
 1194SOL    HW215216   3.728   3.799  11.978  1.8970  1.6688  0.6516
 1195SOL     OW15217   4.421   4.394   8.193 -0.0115  0.8014 -0.1382
 1195SOL    HW115218   4.471   4.325   8.237 -2.0716 -0.7903 -0.2954
 1195SOL    HW215219   4.397   4.446   8.270  0.3317 -1.0447  1.2315
 1196SOL     OW15220   0.607   2.730  14.349 -0.0883  0.4856  0.7817
 1196SOL    HW115221   0.563   2.776  14.420  1.4935  0.3238  1.8746
 1196SOL    HW215222   0.538   2.740  14.283  0.4948 -1.3452 -0.1049
 1197SOL     OW15223   4.739   1.350   4.821  0.8235 -0.6919  0.0723
 1197SOL    HW115224   4.645   1.365   4.817  1.1870  1.1797 -1.9113
 1197SOL    HW215225   0.011   1.371   4.914 -0.3387  1.2448 -0.1803
 1198SOL     OW15226   2.057   0.782   7.984  0.0020 -0.2203 -0.0718
 1198SOL    HW115227   1.973   0.754   8.019 -0.1869 -0.3237 -0.6099
 1198SOL    HW215228   2.105   0.793   8.066  0.6864  1.0210 -0.6193
 1199SOL     OW15229   3.231   4.069   3.273 -0.3295  0.2586  0.1713
 1199SOL    HW115230   3.225   4.105   3.361  0.1659  1.9366 -0.4815
 1199SOL    HW215231   3.258   4.145   3.221  1.2943 -0.4706 -0.0435
 1200SOL     OW15232   2.628   1.636  12.376  0.2017  0.4521 -0.6680
 1200SOL    HW115233   2.681   1.690  12.316 -1.3750  1.5477 -1.0799
 1200SOL    HW215234   2.659   1.552  12.340 -0.4772 -0.2481  0.4099
 1201SOL     OW15235   1.279   0.237  13.289 -0.0234  0.1338 -0.5603
 1201SOL    HW115236   1.325   0.273  13.213  1.6935 -1.3162 -0.2206
 1201SOL    HW215237   1.240   0.157  13.253  1.9050 -0.7995 -0.5888
 1202SOL     OW15238   1.719   1.478   6.455 -0.0182 -0.0917 -0.5245
 1202SOL    HW115239   1.677   1.564   6.442 -0.3086  0.2066  2.2794
 1202SOL    HW215240   1.783   1.473   6.384  1.0997  0.2892  0.4573
 1203SOL     OW15241   4.166   3.662   8.706  0.8695  0.1711  0.0792
 1203SOL    HW115242   4.207   3.576   8.698 -2.1562 -1.0435 -2.5588
 1203SOL    HW215243   4.243   3.712   8.680  0.1038  0.3698 -1.8153
 1204SOL     OW15244   4.269   2.513  13.219 -0.1122  0.5810 -0.7236
 1204SOL    HW115245   4.307   2.558  13.143 -0.8992  0.9683 -0.8899
 1204SOL    HW215246   4.329   2.440  13.234 -1.0703 -0.2024 -0.7117
 1205SOL     OW15247   0.083   3.418   7.884 -0.1196 -0.0336 -0.3600
 1205SOL    HW115248   4.730   3.418   7.901 -0.3770  2.4086 -1.8009
 1205SOL    HW215249   0.118   3.412   7.973 -3.5425  0.9580  1.0326
 1206SOL     OW15250   0.375   1.529   6.427 -0.1603  0.4702  0.0815
 1206SOL    HW115251   0.332   1.611   6.453  0.6107  0.9107 -0.0285
 1206SOL    HW215252   0.340   1.514   6.340  0.4982 -0.8136  0.0398
 1207SOL     OW15253   3.653   1.248   1.973  0.6609  0.4962 -0.3947
 1207SOL    HW115254   3.720   1.308   1.940  3.1981 -2.1636 -0.1087
 1207SOL    HW215255   3.696   1.228   2.056 -1.6433  1.5358  1.0631
 1208SOL     OW15256   2.960   3.742  15.605 -0.1618  0.8386 -0.0376
 1208SOL    HW115257   3.008   3.803  15.660 -0.1755  1.8349 -1.1199
 1208SOL    HW215258   2.978   3.778  15.518  1.2643  1.4087  0.4964
 1209SOL     OW15259   1.807   0.928   0.019 -0.4862  0.7090  0.0480
 1209SOL    HW115260   1.855   0.999  17.739  0.2032  0.6878  0.7677
 1209SOL    HW215261   1.866   0.856  17.760  1.4651  1.0915  3.9856
 1210SOL     OW15262   4.729   2.230  13.419  0.0998 -0.0656 -0.4741
 1210SOL    HW115263   4.702   2.156  13.365 -2.9196  0.5263  0.2025
 1210SOL    HW215264   0.067   2.206  13.468  0.0209 -2.4125 -1.4758
 1211SOL     OW15265   3.245   3.091  14.149 -0.3383  0.3960 -0.1064
 1211SOL    HW115266   3.160   3.131  14.169 -1.2025 -1.1352 -0.7433
 1211SOL    HW215267   3.288   3.170  14.116 -0.5929  0.0045 -1.3729
 1212SOL     OW15268   1.858   4.409  16.367 -0.4920 -0.5252 -0.4662
 1212SOL    HW115269   1.780   4.383  16.417 -0.4832  1.6570  0.6955
 1212SOL    HW215270   1.832   4.499  16.349  2.3953  0.2566 -0.7735
 1213SOL     OW15271   0.955   4.236   7.869 -0.2022  0.6279 -0.0091
 1213SOL    HW115272   0.954   4.162   7.807 -0.3451  0.3765  0.2933
 1213SOL    HW215273   1.049   4.247   7.875 -0.0735  0.1802 -1.1844
 1214SOL     OW15274   1.054   0.754   5.975 -1.0842 -0.1469 -0.5476
 1214SOL    HW115275   1.035   0.710   6.058 -0.1957 -1.7197 -1.1814
 1214SOL    HW215276   1.005   0.836   5.982  0.1709  0.5937 -0.3923
 1215SOL     OW15277   1.346   4.032  16.051 -0.0005  0.2064 -0.0423
 1215SOL    HW115278   1.303   3.992  16.127 -0.3297  0.2053 -0.2335
 1215SOL    HW215279   1.279   4.033  15.984 -1.6647  3.2928  1.6472
 1216SOL     OW15280   0.387   3.316  11.229  0.8738 -0.5809 -0.3580
 1216SOL    HW115281   0.470   3.362  11.234 -1.1104  2.5304  3.6278
 1216SOL    HW215282   0.385   3.290  11.137 -1.3968 -1.8234  0.0201
 1217SOL     OW15283   1.155   3.962   2.275 -0.5698  0.1503  0.2607
 1217SOL    HW115284   1.217   3.894   2.301 -0.6649 -0.1457 -0.2736
 1217SOL    HW215285   1.215   4.030   2.247 -0.2041  0.5670  2.0444
 1218SOL     OW15286   1.677   2.549  15.562  0.3877  0.2453 -0.5341
 1218SOL    HW115287   1.640   2.494  15.631 -0.2566  1.2647 -0.0646
 1218SOL    HW215288   1.700   2.482  15.497  0.8167 -0.7720  0.6746
 1219SOL     OW15289   2.408   3.477  10.655 -0.2472  0.6888 -0.0253
 1219SOL    HW115290   2.319   3.512  10.663  0.1727  1.2857  1.9892
 1219SOL    HW215291   2.455   3.550  10.617  0.7391  0.8114  1.4450
 1220SOL     OW15292   0.198   4.057   6.799  0.0374 -0.2375 -0.2486
 1220SOL    HW115293   0.168   4.069   6.709  1.5952 -2.0376 -1.0005
 1220SOL    HW215294   0.291   4.081   6.797 -0.0261  0.1349  0.8291
 1221SOL     OW15295   1.824   1.496   4.300  0.2789 -0.1574  0.3061
 1221SOL    HW115296   1.734   1.520   4.280  1.0544  2.7652  0.2657
 1221SOL    HW215297   1.859   1.582   4.325  0.8924 -0.3081 -0.0218
 1222SOL     OW15298   0.513   3.719   6.908 -0.2830  0.9645  0.0726
 1222SOL    HW115299   0.487   3.755   6.823  0.7201  0.7227 -0.3498
 1222SOL    HW215300   0.607   3.731   6.889 -0.2823  0.3049 -0.3499
 1223SOL     OW15301   2.628   2.185   9.263 -0.2442  0.4152 -0.7932
 1223SOL    HW115302   2.620   2.259   9.322 -0.8682  0.4297 -0.8967
 1223SOL    HW215303   2.720   2.157   9.260  0.1438  1.6309  0.0319
 1224SOL     OW15304   1.722   1.752   1.815 -0.8485 -0.2720  0.6252
 1224SOL    HW115305   1.759   1.678   1.769 -0.3456  1.2075 -1.3536
 1224SOL    HW215306   1.652   1.722   1.873 -1.3905  1.4073  0.8625
 1225SOL     OW15307   2.725   3.749   4.837 -0.1021  0.3655  0.2343
 1225SOL    HW115308   2.726   3.761   4.742  0.7907  0.4591  0.2590
 1225SOL    HW215309   2.666   3.675   4.853  2.0993 -1.2823  0.6466
 1226SOL     OW15310   1.297   4.596   6.125  0.1694  0.4588 -0.2960
 1226SOL    HW115311   1.202   4.596   6.115  0.3134 -0.0321 -1.6763
 1226SOL    HW215312   1.319   4.680   6.165 -0.6514  0.3666  0.3514
 1227SOL     OW15313   1.321   0.775   4.588 -0.2822 -0.7069  0.1257
 1227SOL    HW115314   1.370   0.696   4.609 -0.7203 -1.4532 -1.6843
 1227SOL    HW215315   1.229   0.750   4.602 -0.5532 -0.4664 -1.1818
 1228SOL     OW15316   3.889   0.892   6.771 -0.1170  0.1088  0.0993
 1228SOL    HW115317   3.853   0.937   6.848  1.5370  0.5964  0.5824
 1228SOL    HW215318   3.952   0.956   6.738 -2.0184  3.0385  2.1763
 1229SOL     OW15319   1.456   2.534   0.995  0.3077 -0.2093  0.4760
 1229SOL    HW115320   1.519   2.580   0.939 -0.5255  2.4025  1.6961
 1229SOL    HW215321   1.462   2.588   1.073 -0.2154  0.5377 -0.0030
 1230SOL     OW15322   3.526   3.433   2.501 -0.4735 -0.2002 -0.0496
 1230SOL    HW115323   3.446   3.406   2.545 -1.1235  0.0495 -1.1012
 1230SOL    HW215324   3.564   3.507   2.550  3.1306  0.7935 -4.3769
 1231SOL     OW15325   0.244   4.168   2.600 -0.1354 -0.5110 -0.2844
 1231SOL    HW115326   0.288   4.118   2.669  0.1552  0.8618  0.5302
 1231SOL    HW215327   0.280   4.129   2.521 -0.4850 -0.9206 -0.2397
 1232SOL     OW15328   2.520   2.940  14.221 -0.1093 -0.3299  0.5415
 1232SOL    HW115329   2.425   2.931  14.207 -0.2494  1.2473  0.5212
 1232SOL    HW215330   2.546   3.024  14.184 -0.2194 -2.1941 -3.7545
 1233SOL     OW15331   2.025   2.412   4.122  0.1044 -0.4519 -0.2721
 1233SOL    HW115332   1.971   2.451   4.053 -1.7246 -0.3953  1.1918
 1233SOL    HW215333   1.954   2.387   4.181  0.7210 -0.4413  0.4780
 1234SOL     OW15334   2.583   0.014   9.368 -0.0850 -0.1154  0.6683
 1234SOL    HW115335   2.598   4.696   9.295  2.1785  2.8109 -1.2438
 1234SOL    HW215336   2.512   4.716   9.419 -0.7302  0.9532  0.6101
 1235SOL     OW15337   2.671   3.759   5.934  0.4165  0.2270 -0.1672
 1235SOL    HW115338   2.711   3.704   6.000  2.3273  1.6174 -0.1732
 1235SOL    HW215339   2.623   3.692   5.885 -0.6231  0.3433  0.7036
 1236SOL     OW15340   1.926   4.662   7.571 -0.1385  0.4154 -0.0330
 1236SOL    HW115341   1.853   4.602   7.553 -0.4471  0.8118 -0.0949
 1236SOL    HW215342   1.980   4.631   7.498 -0.9666 -1.8902  0.3272
 1237SOL     OW15343   3.291   3.813   4.675  0.0009 -0.0486  0.1707
 1237SOL    HW115344   3.368   3.827   4.620  0.8536 -0.6476  1.2261
 1237SOL    HW215345   3.332   3.848   4.753  1.1403  0.0290 -0.4588
 1238SOL     OW15346   2.971   3.253   6.410  0.4087 -0.8816  0.4311
 1238SOL    HW115347   3.063   3.254   6.383  0.0335  2.6327 -0.7110
 1238SOL    HW215348   2.952   3.159   6.408 -0.3438 -0.7208  0.1746
 1239SOL     OW15349   1.073   4.676   3.427 -0.0108  0.3305 -0.0428
 1239SOL    HW115350   1.120   0.015   3.450  0.1447  0.1490  0.2811
 1239SOL    HW215351   1.074   4.631   3.512  0.5066  0.3360 -0.0462
 1240SOL     OW15352   4.690   0.827  16.035 -0.1920 -0.1007 -0.6024
 1240SOL    HW115353   4.692   0.858  16.125 -0.4309 -1.4703 -0.1306
 1240SOL    HW215354   4.694   0.732  16.040  1.7746  0.0705  0.7705
 1241SOL     OW15355   4.605   4.633   9.483 -0.0944  0.4492  0.0223
 1241SOL    HW115356   4.574   4.564   9.542 -2.0768  1.3855  0.0441
 1241SOL    HW215357   4.604   4.709   9.541 -0.4717  0.5616 -0.1335
 1242SOL     OW15358   0.446   0.860  15.236 -0.4074  0.4375  0.2750
 1242SOL    HW115359   0.431   0.920  15.308  0.1680  1.2706 -0.3023
 1242SOL    HW215360   0.373   0.802  15.258 -0.4602 -0.4814 -2.2316
 1243SOL     OW15361   1.455   3.818   3.434  0.1152  0.9140 -0.0224
 1243SOL    HW115362   1.378   3.783   3.390  1.0597  0.5498 -1.3730
 1243SOL    HW215363   1.486   3.889   3.378 -2.9553  2.3537  0.0906
 1244SOL     OW15364   2.348   2.627   9.065 -0.2306  0.1381 -0.0667
 1244SOL    HW115365   2.382   2.672   8.988 -1.5368  1.5703  0.2076
 1244SOL    HW215366   2.402   2.667   9.133 -1.8228  0.6162  0.8928
 1245SOL     OW15367   1.858   4.020   6.372 -0.0341  0.2100  0.0510
 1245SOL    HW115368   1.887   3.960   6.440 -0.0927 -1.2528 -1.2156
 1245SOL    HW215369   1.893   3.977   6.295  0.1025 -2.0589  1.3864
 1246SOL     OW15370   3.406   1.709   8.671 -0.7583 -0.2654  0.1556
 1246SOL    HW115371   3.382   1.798   8.645  0.5826  0.0822  0.1084
 1246SOL    HW215372   3.401   1.665   8.586  2.0258  0.9111 -0.5870
 1247SOL     OW15373   2.057   2.832  16.233  0.4010  0.0817 -0.0560
 1247SOL    HW115374   2.062   2.924  16.259 -0.1595  0.0995 -0.0109
 1247SOL    HW215375   2.084   2.832  16.141 -0.8981 -0.3671 -0.4306
 1248SOL     OW15376   2.456   0.014   5.639 -0.1559 -0.0182  0.0333
 1248SOL    HW115377   2.469   4.678   5.584 -0.6141 -0.3825  0.4415
 1248SOL    HW215378   2.535   0.022   5.692  0.8885  1.4931 -1.7339
 1249SOL     OW15379   2.505   1.232  11.047  0.4453 -0.4799 -0.1164
 1249SOL    HW115380   2.462   1.164  11.097 -0.6105  1.2142  1.2915
 1249SOL    HW215381   2.537   1.175  10.977  1.9631 -1.1533  1.1345
 1250SOL     OW15382   2.619   0.645   5.685 -0.2402  0.1659 -0.4109
 1250SOL    HW115383   2.576   0.575   5.636 -0.4389  0.6468 -0.9251
 1250SOL    HW215384   2.708   0.609   5.688 -0.2249  0.4427  2.1080
 1251SOL     OW15385   4.083   3.396  13.255 -0.1480  1.2424  0.5268
 1251SOL    HW115386   4.148   3.449  13.208  1.0289 -1.4516 -0.8704
 1251SOL    HW215387   4.107   3.413  13.346 -0.1983 -0.2021  0.8153
 1252SOL     OW15388   2.138   2.985   3.649 -0.3232  0.2214 -0.3168
 1252SOL    HW115389   2.135   3.033   3.566  0.3192  0.9412  0.0755
 1252SOL    HW215390   2.233   2.986   3.654 -0.2350 -3.0760 -1.2574
 1253SOL     OW15391   3.042   1.190   4.691 -0.3918  0.1725  0.4574
 1253SOL    HW115392   3.000   1.183   4.777 -4.2104  0.6093 -1.3704
 1253SOL    HW215393   3.128   1.211   4.726 -1.2163 -0.1940  2.7657
 1254SOL     OW15394   0.713   0.939   6.019 -0.8757 -0.3714  0.4552
 1254SOL    HW115395   0.653   1.012   6.036  1.6751  1.4279  1.7682
 1254SOL    HW215396   0.669   0.883   5.955  0.7846 -1.9561  0.6815
 1255SOL     OW15397   3.734   1.284  14.668  0.1251 -0.1147  0.4564
 1255SOL    HW115398   3.671   1.216  14.642  0.3217  0.6122 -1.8794
 1255SOL    HW215399   3.678   1.351  14.708 -0.5614  0.4163 -1.3980
 1256SOL     OW15400   1.295   2.027  15.614 -1.2926  0.2997  0.4907
 1256SOL    HW115401   1.271   1.960  15.679  0.5913 -0.4552  0.4140
 1256SOL    HW215402   1.384   1.994  15.601 -1.5814 -0.1316 -0.4081
 1257SOL     OW15403   3.536   2.464  16.756  0.1447  1.1854 -0.0598
 1257SOL    HW115404   3.453   2.434  16.718 -0.1929  1.1176  0.7443
 1257SOL    HW215405   3.506   2.541  16.803  0.3904  2.0507 -1.3142
 1258SOL     OW15406   1.842   4.087  10.946 -0.5038  0.5199  0.4779
 1258SOL    HW115407   1.908   4.030  10.906 -1.3033 -0.1541  0.1115
 1258SOL    HW215408   1.775   4.019  10.958 -0.3652  0.6734  2.1136
 1259SOL     OW15409   2.089   2.799   4.222  0.0859  0.6934  0.1335
 1259SOL    HW115410   2.143   2.734   4.178 -0.0257  0.2758  0.6161
 1259SOL    HW215411   2.043   2.744   4.285  0.1988 -0.5331 -0.8638
 1260SOL     OW15412   1.839   2.537   0.873  0.3602 -0.6087  1.1726
 1260SOL    HW115413   1.826   2.564   0.964 -2.6031  1.8284  0.0220
 1260SOL    HW215414   1.933   2.527   0.856  0.3006 -0.1775  0.5660
 1261SOL     OW15415   3.389   0.183   6.588 -0.9559 -0.1039 -0.3247
 1261SOL    HW115416   3.316   0.213   6.642  1.2076  1.9165  1.4785
 1261SOL    HW215417   3.401   0.097   6.629  0.2774 -0.6142 -1.7489
 1262SOL     OW15418   2.845   3.821  10.906 -0.2239 -0.2740  0.1502
 1262SOL    HW115419   2.852   3.832  11.001  0.7651  2.3065 -0.2235
 1262SOL    HW215420   2.936   3.825  10.876 -0.8977  1.2165 -1.6263
 1263SOL     OW15421   2.129   3.457   8.268 -0.4200  0.7729 -0.5090
 1263SOL    HW115422   2.187   3.398   8.220 -1.5897 -1.1129  0.3942
 1263SOL    HW215423   2.183   3.486   8.342  0.8460  1.3531 -1.6631
 1264SOL     OW15424   4.088   1.402  11.531 -0.1556  0.4388 -0.9541
 1264SOL    HW115425   4.087   1.490  11.568  0.4696  0.4074 -0.8511
 1264SOL    HW215426   4.123   1.361  11.610 -0.0931  0.7555 -0.8175
 1265SOL     OW15427   2.763   4.230   9.948  0.6100  0.0788  0.2085
 1265SOL    HW115428   2.790   4.139   9.966 -0.0755 -0.2514 -0.4430
 1265SOL    HW215429   2.786   4.258  10.037  0.1921  0.2170  0.2723
 1266SOL     OW15430   4.014   0.809  17.033  0.3167  0.1589  0.3608
 1266SOL    HW115431   4.006   0.839  16.943  0.4333 -0.2331  0.2188
 1266SOL    HW215432   3.995   0.889  17.082  0.5155  0.9142 -0.7907
 1267SOL     OW15433   2.127   3.514   8.556  0.3392  0.1714  0.6091
 1267SOL    HW115434   2.041   3.520   8.596  0.3492 -1.5091  0.8852
 1267SOL    HW215435   2.172   3.490   8.637 -2.3067 -1.6080  1.5358
 1268SOL     OW15436   2.564   1.315   2.953  0.2108  0.5137  0.5517
 1268SOL    HW115437   2.585   1.357   3.037 -1.1609  2.6449 -0.1805
 1268SOL    HW215438   2.516   1.240   2.988  0.2453 -0.8024 -2.2423
 1269SOL     OW15439   1.590   3.944   5.951  0.6569 -0.2395  0.0378
 1269SOL    HW115440   1.588   4.038   5.969  0.0293 -0.4364  0.9573
 1269SOL    HW215441   1.497   3.925   5.945  0.5635  0.2147  0.0518
 1270SOL     OW15442   4.179   0.889  13.240  0.1253  0.5278 -0.1426
 1270SOL    HW115443   4.209   0.826  13.175 -0.8567  0.3003 -0.3816
 1270SOL    HW215444   4.088   0.862  13.253  0.3629 -0.7835 -1.2601
 1271SOL     OW15445   4.181   1.992   1.661  0.8929  0.4482 -0.3689
 1271SOL    HW115446   4.175   2.083   1.632 -2.9044 -0.3758 -2.1540
 1271SOL    HW215447   4.257   2.002   1.719 -1.3059 -0.6121  2.6641
 1272SOL     OW15448   2.263   4.201   3.149 -0.1892 -0.2097 -0.4439
 1272SOL    HW115449   2.234   4.135   3.087  0.9810 -3.4595  2.4529
 1272SOL    HW215450   2.266   4.275   3.088  0.7763 -1.8038 -2.3339
 1273SOL     OW15451   0.742   2.876   1.710  0.7552  1.1386 -0.2494
 1273SOL    HW115452   0.735   2.965   1.677 -0.0334  0.1961 -2.6764
 1273SOL    HW215453   0.775   2.897   1.797 -0.0825  3.7606 -0.5794
 1274SOL     OW15454   2.432   2.835  15.446 -0.3901  0.1368  0.4144
 1274SOL    HW115455   2.412   2.860  15.356 -0.4853 -0.2100  0.3392
 1274SOL    HW215456   2.452   2.742  15.434 -1.1698 -0.0614  0.6581
 1275SOL     OW15457   2.615   2.779   3.671 -0.4685 -0.3621  0.3893
 1275SOL    HW115458   2.690   2.728   3.702 -0.5416 -0.0143  1.1559
 1275SOL    HW215459   2.593   2.746   3.584  2.2140 -1.7963  0.2509
 1276SOL     OW15460   1.721   2.931  10.791 -0.1826  0.4524  0.1476
 1276SOL    HW115461   1.758   2.922  10.704  1.6326  1.1649  0.8329
 1276SOL    HW215462   1.723   3.026  10.802  0.5531  0.4122  0.3571
 1277SOL     OW15463   4.065   4.270  15.993  0.4178  0.2827  0.2480
 1277SOL    HW115464   3.993   4.275  15.930  0.0090  0.3203  0.7149
 1277SOL    HW215465   4.135   4.313  15.943  0.7066 -0.7531 -0.2253
 1278SOL     OW15466   1.516   4.158   9.156 -0.1065  0.1935 -0.2871
 1278SOL    HW115467   1.451   4.132   9.222  1.0912 -3.0104 -0.3346
 1278SOL    HW215468   1.544   4.075   9.117 -0.8782 -0.5309  0.6859
 1279SOL     OW15469   4.663   3.972   8.688 -0.6908 -0.1594  0.4813
 1279SOL    HW115470   4.656   4.068   8.695 -1.2436 -0.1049 -0.8985
 1279SOL    HW215471   4.580   3.967   8.640  0.4895  0.7452 -1.6719
 1280SOL     OW15472   2.303   0.836  13.712  0.4621  0.7303 -0.4328
 1280SOL    HW115473   2.352   0.888  13.648  2.2696 -1.3928 -0.7861
 1280SOL    HW215474   2.369   0.795  13.767 -0.0155  0.6461  0.0766
 1281SOL     OW15475   4.720   1.225   3.452  0.0133  0.2610 -0.2594
 1281SOL    HW115476   4.741   1.262   3.366 -3.0661  0.2996 -0.9656
 1281SOL    HW215477   0.058   1.246   3.502  1.2598 -1.4994 -1.4906
 1282SOL     OW15478   0.163   2.970   7.182  0.1096  0.1254  0.0716
 1282SOL    HW115479   0.130   2.893   7.229  1.8683 -0.3528  0.5199
 1282SOL    HW215480   0.162   3.036   7.252  1.6408  0.3423 -0.1137
 1283SOL     OW15481   2.254   3.731   0.315  0.1856 -0.4504  0.1873
 1283SOL    HW115482   2.334   3.678   0.316  0.6694  0.2163 -2.8489
 1283SOL    HW215483   2.197   3.690   0.250  1.6225 -1.8661 -0.1704
 1284SOL     OW15484   4.294   0.885   3.325  0.3130  0.0241 -0.0627
 1284SOL    HW115485   4.386   0.902   3.307 -0.0576  1.1637 -0.8723
 1284SOL    HW215486   4.259   0.943   3.257  0.4777  1.4043  1.0448
 1285SOL     OW15487   1.830   0.742  13.019  0.2603 -0.5237  0.9280
 1285SOL    HW115488   1.828   0.826  13.065 -2.6226  0.1745 -0.4571
 1285SOL    HW215489   1.777   0.693  13.081  0.3433 -2.6703 -0.6955
 1286SOL     OW15490   1.949   3.339   4.408 -0.3453  0.4744  0.4810
 1286SOL    HW115491   1.858   3.312   4.395 -0.4360  0.9058  0.2361
 1286SOL    HW215492   1.985   3.300   4.328 -1.0557 -1.7659  1.2634
 1287SOL     OW15493   3.805   3.671   9.112  0.4281 -0.4117  0.2720
 1287SOL    HW115494   3.845   3.584   9.111 -2.2088 -1.6424  1.1956
 1287SOL    HW215495   3.752   3.676   9.191  0.8919  2.2373  0.4195
 1288SOL     OW15496   2.995   4.318   3.097 -0.8591  1.2579 -0.5275
 1288SOL    HW115497   2.923   4.286   3.043  0.9733  0.5364 -2.5206
 1288SOL    HW215498   2.954   4.321   3.184 -3.3967  0.1441 -1.6793
 1289SOL     OW15499   0.466   0.870  10.748  0.0716 -0.5836  0.6807
 1289SOL    HW115500   0.535   0.867  10.682 -0.5949 -0.4827 -0.0283
 1289SOL    HW215501   0.437   0.780  10.757 -1.3755 -0.1950  0.0042
 1290SOL     OW15502   1.984   1.111   3.449 -0.0742 -0.3732 -0.1108
 1290SOL    HW115503   1.933   1.091   3.528 -1.4750  1.9096 -0.4326
 1290SOL    HW215504   2.073   1.104   3.483 -0.1202  0.6318  0.2225
 1291SOL     OW15505   1.894   4.048   7.532 -0.1585  0.5394 -1.0453
 1291SOL    HW115506   1.897   4.032   7.626  1.3009  0.5738 -1.0792
 1291SOL    HW215507   1.900   4.143   7.536  1.3824  0.3932  0.4238
 1292SOL     OW15508   4.215   4.689   1.926  0.3490  0.0717  0.4933
 1292SOL    HW115509   4.234   4.736   1.844  1.5027  0.5654  1.0458
 1292SOL    HW215510   4.121   4.698   1.942 -0.3057 -0.9617 -2.8486
 1293SOL     OW15511   1.156   4.008   9.789 -0.2768 -0.1271 -0.1151
 1293SOL    HW115512   1.179   3.973   9.875 -1.2706 -2.4248 -0.7799
 1293SOL    HW215513   1.062   4.009   9.806 -0.4834  1.6230 -1.3555
 1294SOL     OW15514   0.905   3.111   7.104 -0.2491  0.2248  0.4680
 1294SOL    HW115515   0.978   3.082   7.159 -0.3093 -0.3335  0.2555
 1294SOL    HW215516   0.860   3.027   7.116  0.4345 -0.2933 -0.5654
 1295SOL     OW15517   2.375   0.586   5.145  0.4722  0.0462 -0.3987
 1295SOL    HW115518   2.361   0.510   5.089  0.2196 -1.3801  1.6183
 1295SOL    HW215519   2.286   0.600   5.177 -0.9586 -3.7604 -2.6974
 1296SOL     OW15520   2.155   3.287   9.928 -0.1290  0.1718 -0.0268
 1296SOL    HW115521   2.239   3.259   9.963 -0.5888  0.3075  1.1860
 1296SOL    HW215522   2.152   3.220   9.859  1.0055  1.5896 -1.4355
 1297SOL     OW15523   3.012   0.385  11.881  0.0825  0.7431 -0.3463
 1297SOL    HW115524   3.018   0.306  11.936  1.7551  0.5314 -0.8201
 1297SOL    HW215525   3.098   0.423  11.898  0.1350  0.3811  0.2155
 1298SOL     OW15526   0.182   0.314   4.265  0.4146 -0.0107  0.5702
 1298SOL    HW115527   0.146   0.289   4.180 -1.7222 -0.3559  1.5699
 1298SOL    HW215528   0.168   0.230   4.310 -0.8927  0.2837  0.7091
 1299SOL     OW15529   1.520   0.418   5.845 -0.0877  0.2798 -0.5750
 1299SOL    HW115530   1.615   0.428   5.853 -0.2341 -0.1685  1.8148
 1299SOL    HW215531   1.494   0.329   5.870  0.0903  0.0202 -1.3360
 1300SOL     OW15532   1.250   1.269  17.292  0.0815 -0.7901 -0.0175
 1300SOL    HW115533   1.218   1.188  17.331 -0.6835 -0.3868  0.1793
 1300SOL    HW215534   1.252   1.252  17.198  1.3980  0.1157 -0.1540
 1301SOL     OW15535   2.438   1.404  12.452 -0.2373  0.2795 -0.1812
 1301SOL    HW115536   2.372   1.423  12.518  1.9623 -1.4184  2.4748
 1301SOL    HW215537   2.435   1.477  12.389  0.7912 -1.8921 -2.7577
 1302SOL     OW15538   2.467   1.068   3.047  0.0656  0.3575  0.0449
 1302SOL    HW115539   2.470   0.986   2.998  0.1468  1.2653 -1.4488
 1302SOL    HW215540   2.479   1.045   3.139  0.9672  1.8495  0.2918
 1303SOL     OW15541   2.708   4.053  16.798  0.5013  0.3473  0.5878
 1303SOL    HW115542   2.803   4.057  16.798  0.5138 -0.2267  3.5457
 1303SOL    HW215543   2.699   3.996  16.874 -2.4381  1.4368  1.0551
 1304SOL     OW15544   3.393   3.477  14.592  0.6577 -0.6600 -0.1828
 1304SOL    HW115545   3.408   3.468  14.498 -1.3981 -1.0845 -0.4758
 1304SOL    HW215546   3.459   3.421  14.631  1.3998  0.9888  0.9258
 1305SOL     OW15547   0.837   4.114  12.055  0.0285  0.0649  0.1795
 1305SOL    HW115548   0.834   4.120  11.959  0.2085 -0.7031  0.1303
 1305SOL    HW215549   0.787   4.034  12.072  1.9069 -1.3813 -1.0708
 1306SOL     OW15550   1.312   2.621   8.588 -0.1040  0.3713 -0.0027
 1306SOL    HW115551   1.220   2.627   8.561  0.3877  2.0075 -1.3097
 1306SOL    HW215552   1.292   2.594   8.678  0.7193 -0.6057 -0.1080
 1307SOL     OW15553   2.499   0.237  10.809  0.8105  0.0657 -0.5013
 1307SOL    HW115554   2.414   0.197  10.793  0.2401  1.1693 -0.2311
 1307SOL    HW215555   2.502   0.247  10.905 -1.3215  0.1991 -0.4569
 1308SOL     OW15556   3.205   3.971  10.990 -0.1367 -0.2541 -0.0873
 1308SOL    HW115557   3.292   3.995  11.023  0.1801  1.0986 -1.9125
 1308SOL    HW215558   3.224   3.889  10.944 -2.0752  0.6578 -2.4907
 1309SOL     OW15559   2.399   3.705   0.627 -0.0535 -0.0017 -0.2974
 1309SOL    HW115560   2.492   3.682   0.626  0.1249  0.6245  1.2910
 1309SOL    HW215561   2.390   3.725   0.721 -0.7982  0.4700 -0.4776
 1310SOL     OW15562   1.178   1.488   1.514 -0.1463  0.4095  0.2608
 1310SOL    HW115563   1.110   1.487   1.581 -0.1651  1.0791  0.2526
 1310SOL    HW215564   1.145   1.548   1.448  0.9015  0.7542  0.0534
 1311SOL     OW15565   3.191   1.409  14.461 -0.1475 -0.5545  0.8107
 1311SOL    HW115566   3.106   1.365  14.452  0.4633 -1.5261 -0.2631
 1311SOL    HW215567   3.164   1.500  14.475 -0.7336 -0.1645 -2.9024
 1312SOL     OW15568   1.198   0.616   2.812 -0.5031  0.1031  0.5371
 1312SOL    HW115569   1.188   0.645   2.903  1.5261  0.1391  0.7571
 1312SOL    HW215570   1.273   0.557   2.824  0.0802  0.7367 -0.0009
 1313SOL     OW15571   3.396   0.586   3.330  0.0930  0.0036  0.7918
 1313SOL    HW115572   3.383   0.588   3.425 -0.6524  0.1078  0.6845
 1313SOL    HW215573   3.474   0.531   3.328 -0.7627 -1.1997  0.5074
 1314SOL     OW15574   1.706   0.147   2.395  0.4575  0.4099 -0.1610
 1314SOL    HW115575   1.647   0.120   2.324  0.5261  2.5630 -1.0380
 1314SOL    HW215576   1.642   0.158   2.466  1.5980  0.0307  0.9205
 1315SOL     OW15577   3.989   4.097   4.158  0.2492 -0.7776  0.0426
 1315SOL    HW115578   4.041   4.128   4.083 -0.6363  1.3788  0.3370
 1315SOL    HW215579   3.984   4.006   4.128 -0.2581 -0.4391 -0.9026
 1316SOL     OW15580   1.614   3.304   7.412  0.0783 -0.1601  0.0403
 1316SOL    HW115581   1.574   3.235   7.466  0.1236  0.8205  1.3352
 1316SOL    HW215582   1.540   3.319   7.352 -0.4177 -2.1597  0.1451
 1317SOL     OW15583   3.799   4.102   7.966  0.0311  0.0740  0.1047
 1317SOL    HW115584   3.883   4.149   7.966 -0.7659  1.5062  1.2008
 1317SOL    HW215585   3.769   4.111   8.056 -0.6239 -0.6921 -0.0383
 1318SOL     OW15586   1.384   1.908   6.986 -0.5260 -0.2094  0.0073
 1318SOL    HW115587   1.428   1.905   6.901 -1.1091 -0.5187 -0.2833
 1318SOL    HW215588   1.305   1.863   6.957  0.0958 -0.8715 -0.6900
 1319SOL     OW15589   4.108   3.382   0.814  0.5830 -0.2001  0.0522
 1319SOL    HW115590   4.174   3.422   0.871  0.3789 -1.6419  1.3031
 1319SOL    HW215591   4.123   3.432   0.734  0.2619 -1.1852 -0.6219
 1320SOL     OW15592   4.612   4.638  10.735 -0.0889 -0.5583  0.1280
 1320SOL    HW115593   4.678   4.693  10.694 -1.0429  0.2948 -0.2628
 1320SOL    HW215594   4.564   4.704  10.785  1.4136  0.4878  0.1876
 1321SOL     OW15595   1.868   0.487   3.677  0.2713 -0.5916  0.0163
 1321SOL    HW115596   1.891   0.566   3.628 -1.5284 -0.0229  0.1080
 1321SOL    HW215597   1.838   0.523   3.761 -1.2813  0.4054 -0.9618
 1322SOL     OW15598   3.438   0.998   8.409  0.3329  0.7820  0.0484
 1322SOL    HW115599   3.506   1.054   8.447  2.5154  0.3565 -3.2280
 1322SOL    HW215600   3.481   0.914   8.392  0.3113  0.8660 -0.3998
 1323SOL     OW15601   0.869   0.060   2.120  0.7271 -0.2328 -0.2078
 1323SOL    HW115602   0.774   0.068   2.114  0.4892 -1.9791  1.2814
 1323SOL    HW215603   0.881   0.103   2.205  3.0755  0.4951 -0.9037
 1324SOL     OW15604   2.293   3.172   1.776 -0.4185 -0.5654 -0.3238
 1324SOL    HW115605   2.303   3.250   1.831  0.4954 -0.7635 -0.2062
 1324SOL    HW215606   2.387   3.165   1.759 -0.1794  1.2882  0.2946
 1325SOL     OW15607   3.806   1.991   8.183  0.1171 -0.7792  0.2032
 1325SOL    HW115608   3.823   1.922   8.119 -0.7462 -1.2016  0.4161
 1325SOL    HW215609   3.749   1.949   8.248  1.1408  0.8186  2.1314
 1326SOL     OW15610   3.248   0.840   4.040 -0.2648 -0.0350  0.0171
 1326SOL    HW115611   3.188   0.913   4.053 -0.6085 -0.5402  1.3276
 1326SOL    HW215612   3.281   0.827   4.129 -1.4256  0.7684  0.5670
 1327SOL     OW15613   4.321   1.831  11.338 -0.1795  0.7977  0.1306
 1327SOL    HW115614   4.370   1.762  11.382  1.8070  0.5125 -2.5533
 1327SOL    HW215615   4.308   1.891  11.412  0.7365  1.3220 -0.1360
 1328SOL     OW15616   0.534   3.686   2.593 -0.2036 -0.3079 -0.1110
 1328SOL    HW115617   0.491   3.636   2.663  0.6153  0.5383  0.9822
 1328SOL    HW215618   0.602   3.630   2.556 -0.0824 -0.8846  0.9946
 1329SOL     OW15619   0.800   0.098  12.897  0.1055 -0.1330  0.6961
 1329SOL    HW115620   0.788   0.180  12.849 -0.4331 -0.5737  0.0750
 1329SOL    HW215621   0.893   0.077  12.889  0.3558  0.3541  2.5317
 1330SOL     OW15622   4.534   4.446  12.013 -0.3891  0.0199  0.0344
 1330SOL    HW115623   4.457   4.503  12.017 -0.4584 -0.1144  0.7361
 1330SOL    HW215624   4.530   4.436  11.918 -0.8720 -0.3413  0.0931
 1331SOL     OW15625   4.227   0.894   7.561 -0.1492 -0.1399  0.4993
 1331SOL    HW115626   4.144   0.849   7.580 -1.2596  1.1782 -1.3097
 1331SOL    HW215627   4.251   0.907   7.653 -3.1926 -1.0262  1.4388
 1332SOL     OW15628   3.871   2.731   3.779 -0.2296 -0.0210 -0.5707
 1332SOL    HW115629   3.868   2.793   3.852 -0.1883 -0.4629 -0.1903
 1332SOL    HW215630   3.777   2.714   3.779 -0.3344  0.6090 -1.6838
 1333SOL     OW15631   0.427   0.110   8.389 -0.3469 -0.6865 -0.1285
 1333SOL    HW115632   0.403   0.130   8.479 -2.0714  0.2107 -0.7846
 1333SOL    HW215633   0.491   0.179   8.372  2.1473 -3.0277 -0.3988
 1334SOL     OW15634   0.787   3.124   8.075  0.4425  0.0860 -0.2074
 1334SOL    HW115635   0.873   3.135   8.116  0.6313  0.7693 -0.7991
 1334SOL    HW215636   0.762   3.033   8.095  1.4953 -0.2808 -0.5312
 1335SOL     OW15637   4.266   2.700   6.294  0.4211 -0.3410  0.2432
 1335SOL    HW115638   4.225   2.646   6.227 -0.4374 -2.3449  2.3470
 1335SOL    HW215639   4.201   2.680   6.362  1.3022  1.6710  1.6685
 1336SOL     OW15640   4.590   2.885  11.417 -0.1622  0.6282 -0.2346
 1336SOL    HW115641   4.627   2.944  11.482 -2.2623  0.1439  1.4155
 1336SOL    HW215642   4.652   2.813  11.421  0.1571  1.1226  4.0870
 1337SOL     OW15643   0.801   3.762   1.974 -0.6703 -0.1926  0.2469
 1337SOL    HW115644   0.892   3.746   1.997 -0.5966 -0.3821 -0.1772
 1337SOL    HW215645   0.796   3.849   1.934  0.2858 -0.7483 -1.0771
 1338SOL     OW15646   3.129   2.881   1.655 -0.1725  0.1156  0.0407
 1338SOL    HW115647   3.119   2.786   1.662  1.0378 -0.0110  0.0905
 1338SOL    HW215648   3.193   2.898   1.724 -0.7847  0.1853  0.5883
 1339SOL     OW15649   0.373   1.792   5.436 -0.0344 -0.2446  0.3045
 1339SOL    HW115650   0.426   1.871   5.448 -0.8359  0.6880 -2.3248
 1339SOL    HW215651   0.428   1.736   5.491  0.0527 -0.6092 -0.1477
 1340SOL     OW15652   2.281   2.081  17.606  0.2485  0.5368  0.2869
 1340SOL    HW115653   2.245   2.169  17.600  0.8297  0.9725  3.1944
 1340SOL    HW215654   2.355   2.097  17.665  0.2179 -0.2856  0.5556
 1341SOL     OW15655   3.354   2.869  10.201 -0.1533  0.1098  0.0007
 1341SOL    HW115656   3.288   2.938  10.206 -0.4953 -0.2267  0.1293
 1341SOL    HW215657   3.340   2.819  10.281  2.1122  0.4734  0.6087
 1342SOL     OW15658   3.413   3.006   8.518  0.0853  0.7642 -0.0615
 1342SOL    HW115659   3.394   2.946   8.446 -0.7167  1.3586 -0.3461
 1342SOL    HW215660   3.351   3.075   8.494  1.5207  1.0360 -2.9979
 1343SOL     OW15661   4.254   1.864   2.596  0.3927 -0.4170 -0.0476
 1343SOL    HW115662   4.345   1.837   2.583  0.3208 -0.9480  0.5343
 1343SOL    HW215663   4.272   1.951   2.630  0.3482 -1.0680  1.6488
 1344SOL     OW15664   2.661   3.611  13.050  0.4340  0.1743 -1.1334
 1344SOL    HW115665   2.719   3.584  12.979 -0.3868  1.6989 -2.3988
 1344SOL    HW215666   2.617   3.528  13.070  0.1980  0.6116  0.1534
 1345SOL     OW15667   2.958   0.162  10.940 -0.3585 -0.3139 -0.2757
 1345SOL    HW115668   2.874   0.196  10.971  0.0899 -0.6160  1.2620
 1345SOL    HW215669   2.947   0.129  10.850 -1.8117 -0.4823 -0.0293
 1346SOL     OW15670   1.061   0.735   8.705 -0.1912 -0.0949 -0.1213
 1346SOL    HW115671   1.060   0.640   8.717 -2.8737 -0.1257 -0.5458
 1346SOL    HW215672   0.970   0.760   8.722 -0.0975 -0.2079  0.5641
 1347SOL     OW15673   2.401   1.928  16.304 -0.4052 -0.2773 -0.2290
 1347SOL    HW115674   2.401   2.021  16.327  0.4772 -0.7391  1.6237
 1347SOL    HW215675   2.367   1.925  16.214 -2.1376 -0.1579  0.4181
 1348SOL     OW15676   3.477   4.213  16.673 -0.0745  0.3454 -0.0204
 1348SOL    HW115677   3.528   4.136  16.646  1.3721  1.2079  0.2729
 1348SOL    HW215678   3.403   4.168  16.716  1.5895 -1.1656  1.2901
 1349SOL     OW15679   4.267   0.573  12.633  0.4272 -0.3067  0.1706
 1349SOL    HW115680   4.181   0.598  12.599 -0.0262 -0.4502  1.2083
 1349SOL    HW215681   4.326   0.637  12.594 -2.5080  1.8951 -0.6914
 1350SOL     OW15682   2.947   1.282  13.056 -0.2810 -0.4339 -0.5412
 1350SOL    HW115683   2.880   1.217  13.082 -1.7081  0.4324 -2.0295
 1350SOL    HW215684   3.013   1.226  13.016 -0.2688  0.7890 -2.2047
 1351SOL     OW15685   2.229   3.320  11.778 -0.3853 -0.2342  0.1715
 1351SOL    HW115686   2.231   3.292  11.686  1.4656  0.3570  0.0368
 1351SOL    HW215687   2.160   3.386  11.779 -0.3247 -0.1966  2.0007
 1352SOL     OW15688   4.029   0.670   3.647  0.2281  0.4704 -0.2474
 1352SOL    HW115689   4.067   0.664   3.559  0.5172  0.8748 -0.1472
 1352SOL    HW215690   3.949   0.619   3.631 -0.6181  0.5432  3.7872
 1353SOL     OW15691   1.409   1.622   9.482  0.4030  0.5440 -0.3695
 1353SOL    HW115692   1.424   1.573   9.562 -1.4314  1.5061  0.5557
 1353SOL    HW215693   1.471   1.695   9.485 -0.3915  1.3207 -2.4642
 1354SOL     OW15694   4.355   2.051  12.209 -0.4569 -0.0847  0.4382
 1354SOL    HW115695   4.433   2.082  12.256  0.2938 -0.5917 -0.4843
 1354SOL    HW215696   4.346   1.957  12.228 -0.1698 -0.1934  0.0311
 1355SOL     OW15697   3.036   0.557  17.155  0.0767  0.1120  0.4749
 1355SOL    HW115698   3.016   0.494  17.086  0.5980  1.7661 -1.1882
 1355SOL    HW215699   3.072   0.496  17.220 -0.5211  0.8124  1.4527
 1356SOL     OW15700   0.669   0.307  16.025  0.2087  0.3971 -0.3732
 1356SOL    HW115701   0.702   0.282  15.939  1.1674 -0.6797  0.3160
 1356SOL    HW215702   0.694   0.400  16.025  1.8487 -0.0543  1.9844
 1357SOL     OW15703   2.433   0.846   3.972 -0.4505 -0.0317  0.1117
 1357SOL    HW115704   2.422   0.777   4.038 -0.0019  0.4609  0.7111
 1357SOL    HW215705   2.502   0.904   4.006 -0.3588 -0.4356  0.6180
 1358SOL     OW15706   2.874   0.305   4.309  0.3802 -0.4723  0.1153
 1358SOL    HW115707   2.900   0.373   4.370  1.4234  0.0365 -0.8875
 1358SOL    HW215708   2.921   0.231   4.348  0.1649 -0.4167  0.4698
 1359SOL     OW15709   3.241   1.136   8.567 -0.0985 -0.2030 -0.0897
 1359SOL    HW115710   3.268   1.207   8.626 -1.2984 -0.5125  0.8474
 1359SOL    HW215711   3.316   1.125   8.509 -1.4075  0.7115 -1.9804
 1360SOL     OW15712   1.034   0.185   5.647  0.5517  0.3427  0.1963
 1360SOL    HW115713   1.109   0.176   5.588 -0.4921 -0.8692 -0.9542
 1360SOL    HW215714   1.055   0.131   5.723  0.9286 -0.2567 -0.3316
 1361SOL     OW15715   4.602   4.363   6.187 -0.3660 -0.0875 -0.0468
 1361SOL    HW115716   4.633   4.389   6.100  2.0246 -0.9236  0.5681
 1361SOL    HW215717   4.559   4.279   6.174  0.5837 -0.5821 -0.0129
 1362SOL     OW15718   3.178   3.368  15.923 -0.2710 -0.1244 -0.3941
 1362SOL    HW115719   3.233   3.401  15.852  0.5406 -1.0055 -0.1751
 1362SOL    HW215720   3.095   3.399  15.886 -0.0178  0.3434 -0.5772
 1363SOL     OW15721   0.085   1.838   8.142  0.2192 -0.7175  0.0478
 1363SOL    HW115722   0.095   1.906   8.209 -0.4926  0.8719 -1.4600
 1363SOL    HW215723   0.153   1.774   8.165  0.7788 -0.9104 -2.1993
 1364SOL     OW15724   3.268   2.894   4.394  0.1218  0.0680 -0.0351
 1364SOL    HW115725   3.176   2.919   4.398  0.2818  0.2947  1.8887
 1364SOL    HW215726   3.282   2.892   4.299  0.9826 -1.7399  0.1078
 1365SOL     OW15727   4.484   0.757   4.441 -0.0399  0.4074  0.1733
 1365SOL    HW115728   4.576   0.736   4.426 -0.4424 -0.3967 -1.1381
 1365SOL    HW215729   4.496   0.787   4.531  0.0202  2.8581 -0.6506
 1366SOL     OW15730   4.059   3.316   2.282 -0.2360 -0.3419 -0.7877
 1366SOL    HW115731   4.073   3.297   2.189 -0.9673 -1.9812 -0.5650
 1366SOL    HW215732   4.000   3.392   2.278 -1.1097 -1.0473 -1.5754
 1367SOL     OW15733   0.312   0.426   8.181 -0.3005  0.3207  0.2684
 1367SOL    HW115734   0.287   0.445   8.272 -0.7200  1.0519  0.0021
 1367SOL    HW215735   0.354   0.342   8.201 -1.3631 -0.8549 -2.4762
 1368SOL     OW15736   1.966   0.218   9.942 -0.0327  0.4783  0.0830
 1368SOL    HW115737   1.994   0.237  10.032 -1.7152  0.0469  0.6876
 1368SOL    HW215738   1.971   0.123   9.950  1.3924  0.6199  0.9161
 1369SOL     OW15739   2.928   0.303   4.972 -0.3673  0.0006 -0.1285
 1369SOL    HW115740   2.906   0.364   4.902  0.2420 -0.5066 -0.7701
 1369SOL    HW215741   2.869   0.320   5.045  1.1394  2.8702  0.4136
 1370SOL     OW15742   2.712   4.067   6.496  0.3363  0.0440 -0.4847
 1370SOL    HW115743   2.743   4.130   6.560  1.7236  0.9114 -2.0167
 1370SOL    HW215744   2.690   3.984   6.539  4.3841 -0.4762  0.5958
 1371SOL     OW15745   3.958   3.932   2.784  0.4816 -0.5820 -0.3718
 1371SOL    HW115746   4.002   4.010   2.752 -0.2608 -0.7151 -1.7525
 1371SOL    HW215747   3.882   3.928   2.725 -0.6534 -1.7920  1.1683
 1372SOL     OW15748   1.057   2.683   1.465  0.2313 -0.1057  0.4232
 1372SOL    HW115749   1.121   2.745   1.500  2.3645 -0.3730 -3.0732
 1372SOL    HW215750   1.017   2.633   1.537  3.0300 -3.2510 -0.2206
 1373SOL     OW15751   4.363   0.599  13.971  0.0937 -0.6981  0.2493
 1373SOL    HW115752   4.333   0.689  13.961  1.2995 -0.3581 -0.2798
 1373SOL    HW215753   4.455   0.610  13.946 -0.1951  0.5614 -0.2482
 1374SOL     OW15754   2.923   0.960   3.236  0.0090 -0.0138  0.1501
 1374SOL    HW115755   2.940   1.045   3.276 -0.1158  1.1020 -2.1626
 1374SOL    HW215756   2.869   0.923   3.306  1.1969  2.3445  2.2903
 1375SOL     OW15757   1.498   4.086   8.767 -0.3653  0.1859  0.0296
 1375SOL    HW115758   1.559   4.148   8.728  1.4867 -0.5450  1.7656
 1375SOL    HW215759   1.560   4.017   8.792 -1.7563 -1.8095 -2.0345
 1376SOL     OW15760   3.446   1.446   8.133  0.1474  0.4456  0.5139
 1376SOL    HW115761   3.360   1.427   8.169 -1.2401  0.9634 -2.4886
 1376SOL    HW215762   3.500   1.399   8.196  0.7710  0.8429  0.2749
 1377SOL     OW15763   1.535   3.515   8.595 -0.1165  0.1269  0.1640
 1377SOL    HW115764   1.476   3.448   8.630 -1.5198  1.4827  0.3899
 1377SOL    HW215765   1.490   3.599   8.605 -2.0400 -0.8247 -0.3952
 1378SOL     OW15766   2.691   4.095   2.657 -0.3308  0.3796 -0.2789
 1378SOL    HW115767   2.730   4.099   2.744  2.2810 -0.1837 -1.4044
 1378SOL    HW215768   2.658   4.006   2.646 -0.5586  0.4120  0.1352
 1379SOL     OW15769   0.591   1.749   9.321 -0.3282 -0.1827  0.6088
 1379SOL    HW115770   0.513   1.721   9.369  0.4511 -1.2730  1.2301
 1379SOL    HW215771   0.614   1.836   9.353  1.2919 -0.1837 -0.5371
 1380SOL     OW15772   2.507   2.728  10.134  0.1388  0.0288 -0.9212
 1380SOL    HW115773   2.490   2.745  10.226  0.7429 -3.4736 -0.1481
 1380SOL    HW215774   2.476   2.638  10.126  1.2335 -0.1792 -2.8520
 1381SOL     OW15775   3.708   0.044  17.040  0.2630  0.4295 -0.2177
 1381SOL    HW115776   3.632   0.079  17.087  0.7489 -2.0371  2.4040
 1381SOL    HW215777   3.752   0.129  17.041 -1.7741  1.4650  3.0953
 1382SOL     OW15778   4.100   3.390   8.677  0.3606  0.1406  0.1284
 1382SOL    HW115779   4.049   3.323   8.631  0.8529  1.8092 -2.8346
 1382SOL    HW215780   4.185   3.348   8.691 -0.2739 -1.6150 -1.2178
 1383SOL     OW15781   1.173   4.629   1.779 -0.1459  0.2503 -0.2416
 1383SOL    HW115782   1.263   4.599   1.772  0.0083  0.7573 -0.4680
 1383SOL    HW215783   1.139   4.592   1.698 -2.5274 -0.5253  1.0966
 1384SOL     OW15784   3.784   3.413   6.107 -0.2330  0.1465 -0.2017
 1384SOL    HW115785   3.818   3.356   6.176  0.1422 -1.6994 -1.9088
 1384SOL    HW215786   3.691   3.389   6.104  0.2397 -1.6324 -0.3789
 1385SOL     OW15787   1.489   4.292   1.505 -0.5363 -0.1295  0.2908
 1385SOL    HW115788   1.457   4.215   1.551 -0.1558 -0.8093 -0.5977
 1385SOL    HW215789   1.464   4.269   1.416  3.0799 -1.5349 -0.3758
 1386SOL     OW15790   4.452   3.229   7.360  0.0707  0.6850 -0.3897
 1386SOL    HW115791   4.437   3.192   7.273  0.8120  0.5131 -0.4452
 1386SOL    HW215792   4.372   3.201   7.404 -0.8122  1.0619 -1.7390
 1387SOL     OW15793   4.642   0.945   6.297 -0.5577 -0.2529  0.5082
 1387SOL    HW115794   4.588   0.894   6.357 -1.7345 -2.3011 -2.2713
 1387SOL    HW215795   4.621   0.887   6.223  1.4289 -0.3709  0.0238
 1388SOL     OW15796   1.655   1.411   8.722  0.0748 -0.7278 -0.5311
 1388SOL    HW115797   1.590   1.475   8.693  2.5180  1.3700 -1.3905
 1388SOL    HW215798   1.729   1.472   8.719  0.5568 -1.4304 -2.8268
 1389SOL     OW15799   2.204   0.731   3.573  0.7856  0.1970  0.1048
 1389SOL    HW115800   2.252   0.707   3.652  0.3784 -0.9185  0.0156
 1389SOL    HW215801   2.222   0.658   3.514  0.9235  1.0405 -0.9134
 1390SOL     OW15802   2.203   1.004  15.543  0.4165 -0.3814 -0.3150
 1390SOL    HW115803   2.239   0.935  15.488  1.9620  0.0499  0.1677
 1390SOL    HW215804   2.219   1.082  15.491 -1.1669  1.5358  2.0825
 1391SOL     OW15805   2.013   0.785   2.129  0.7651  0.8670 -0.3092
 1391SOL    HW115806   2.042   0.875   2.143  0.9405  0.9191 -1.0170
 1391SOL    HW215807   2.083   0.728   2.161 -2.1585 -1.5183  1.8760
 1392SOL     OW15808   0.314   4.719   4.832  0.6050 -0.2225 -0.5380
 1392SOL    HW115809   0.369   0.047   4.795  1.3218 -0.9932 -0.9150
 1392SOL    HW215810   0.310   0.001   4.924 -0.8882 -1.8904 -0.1942
 1393SOL     OW15811   2.023   1.324   6.777 -0.3067  0.4523 -0.0414
 1393SOL    HW115812   2.028   1.291   6.867 -0.2103 -1.0217 -0.5942
 1393SOL    HW215813   1.933   1.307   6.752 -0.0832  0.1819 -0.6369
 1394SOL     OW15814   1.395   0.933  14.411  0.0846 -0.2829 -0.2360
 1394SOL    HW115815   1.417   1.026  14.416  0.6663 -0.3255 -1.9162
 1394SOL    HW215816   1.366   0.906  14.498 -0.4931  0.6574 -0.1423
 1395SOL     OW15817   4.267   0.697   8.003  0.4898 -0.2166  0.2669
 1395SOL    HW115818   4.244   0.765   8.067  0.5876  0.9469 -0.9194
 1395SOL    HW215819   4.262   0.617   8.055  1.7451  0.1919  1.0115
 1396SOL     OW15820   2.554   2.176  12.415 -0.6330 -0.4999  0.3101
 1396SOL    HW115821   2.493   2.188  12.487 -2.2501 -0.8236 -0.9947
 1396SOL    HW215822   2.563   2.270  12.399  0.7450 -0.7261 -0.2469
 1397SOL     OW15823   3.843   0.925   8.433 -0.1832 -0.6892  0.4746
 1397SOL    HW115824   3.817   0.859   8.499  1.1417  0.6812  2.3534
 1397SOL    HW215825   3.886   0.986   8.492 -1.0258 -0.0175  0.3849
 1398SOL     OW15826   2.937   3.335   4.996 -0.7139  0.2419 -0.3609
 1398SOL    HW115827   3.022   3.316   4.957  0.0273  0.5424  1.1412
 1398SOL    HW215828   2.898   3.251   5.018  0.2921  0.3206  1.6709
 1399SOL     OW15829   2.225   2.275  10.231 -0.2356 -0.3675  0.3376
 1399SOL    HW115830   2.305   2.267  10.284 -0.4086 -1.4358  0.4347
 1399SOL    HW215831   2.182   2.346  10.277  0.1687 -0.8218  1.4221
 1400SOL     OW15832   4.086   3.676   6.677  0.1691 -0.4197  0.5054
 1400SOL    HW115833   4.034   3.602   6.648  0.0627  0.6392 -1.9429
 1400SOL    HW215834   4.144   3.613   6.721  1.0228 -0.7850 -1.1652
 1401SOL     OW15835   2.187   0.919   6.251 -0.2875  0.4688  0.1636
 1401SOL    HW115836   2.185   0.836   6.299  2.0114 -1.3654 -2.8887
 1401SOL    HW215837   2.222   0.903   6.163 -0.7900  0.7578 -0.0890
 1402SOL     OW15838   0.594   1.356   7.782 -0.1098  0.5213 -0.3499
 1402SOL    HW115839   0.528   1.409   7.737  0.4302  1.1800 -0.3545
 1402SOL    HW215840   0.582   1.267   7.750  2.8823  0.0716 -0.1530
 1403SOL     OW15841   2.441   3.310   4.541 -0.1897  0.6164 -0.7694
 1403SOL    HW115842   2.516   3.309   4.601 -0.8149  0.2453  0.0039
 1403SOL    HW215843   2.369   3.307   4.604 -0.2984 -0.3656 -0.9466
 1404SOL     OW15844   4.594   3.531   5.819 -0.3673 -0.3339  0.1461
 1404SOL    HW115845   4.599   3.486   5.734 -3.5615  1.7716 -1.1590
 1404SOL    HW215846   4.631   3.615   5.790 -0.5289 -0.3264 -0.0418
 1405SOL     OW15847   2.227   4.190   3.741  0.0804 -0.6253 -0.0509
 1405SOL    HW115848   2.191   4.163   3.825  0.5713  0.5381  0.5279
 1405SOL    HW215849   2.240   4.283   3.758  1.0038 -0.9905  1.2189
 1406SOL     OW15850   3.641   1.993  17.503 -0.0134  0.3455  0.1683
 1406SOL    HW115851   3.701   1.956  17.438 -2.9119 -0.7521 -1.8515
 1406SOL    HW215852   3.702   2.043  17.557  1.3050 -1.2758  0.1805
 1407SOL     OW15853   2.763   0.061   8.336  0.1885 -0.0887 -0.5201
 1407SOL    HW115854   2.784   4.711   8.354 -1.6774 -0.1998  1.1667
 1407SOL    HW215855   2.727   0.045   8.249  1.4328  0.2563 -1.0972
 1408SOL     OW15856   2.114   3.227  11.535 -0.2810 -0.2942  0.0326
 1408SOL    HW115857   2.108   3.294  11.466 -0.0966  0.3525  0.6491
 1408SOL    HW215858   2.034   3.236  11.585  0.0837 -0.5322  0.6585
 1409SOL     OW15859   0.981   4.216   2.889 -0.2769  0.2058  0.1660
 1409SOL    HW115860   0.901   4.166   2.873 -1.3561  1.9949 -0.0061
 1409SOL    HW215861   0.960   4.249   2.976 -0.8408  0.7318 -0.1741
 1410SOL     OW15862   0.667   3.916   4.440 -0.5296  0.1616  0.1123
 1410SOL    HW115863   0.716   3.998   4.441 -1.0268  0.4297  2.6666
 1410SOL    HW215864   0.584   3.946   4.404 -0.1618  1.1665  0.1125
 1411SOL     OW15865   4.711   4.185   2.521 -0.1132  0.0310  0.2383
 1411SOL    HW115866   4.715   4.115   2.456 -0.2315 -0.0307  0.2973
 1411SOL    HW215867   0.051   4.234   2.510 -1.9219  2.9503 -0.1867
 1412SOL     OW15868   1.022   2.750  13.684  0.3431  0.0434 -0.0445
 1412SOL    HW115869   1.025   2.701  13.602  0.5070  0.6144 -0.3772
 1412SOL    HW215870   1.112   2.783  13.695 -0.2568  2.2042 -1.5937
 1413SOL     OW15871   3.580   2.414  14.048  0.1113 -0.3254 -0.3878
 1413SOL    HW115872   3.526   2.335  14.054  0.9858 -1.0638 -2.2139
 1413SOL    HW215873   3.571   2.453  14.135  0.0991 -1.0768 -0.0560
 1414SOL     OW15874   3.849   1.360  10.634  0.1500  0.2758  0.1501
 1414SOL    HW115875   3.906   1.358  10.710 -0.4270  1.1598  0.6173
 1414SOL    HW215876   3.771   1.315  10.668 -1.3930  1.3042 -1.9902
 1415SOL     OW15877   2.429   1.899   5.485 -0.0193 -0.2173  0.0006
 1415SOL    HW115878   2.354   1.942   5.444  0.4515 -0.0066 -0.6294
 1415SOL    HW215879   2.462   1.851   5.409  0.1022 -0.4203  0.1804
 1416SOL     OW15880   4.167   3.618   5.786 -0.4697  0.0876  0.2529
 1416SOL    HW115881   4.087   3.577   5.820 -0.4993 -0.3410 -0.3435
 1416SOL    HW215882   4.186   3.564   5.710  0.8760 -1.2975  1.5684
 1417SOL     OW15883   4.197   1.655   4.929  0.6282 -0.2741  0.4150
 1417SOL    HW115884   4.285   1.616   4.924  1.0257  0.4811  1.7192
 1417SOL    HW215885   4.226   1.726   4.985 -2.6360  0.0314  1.7311
 1418SOL     OW15886   2.188   3.910   8.241  0.4053 -0.7588 -0.5272
 1418SOL    HW115887   2.248   3.907   8.315  0.0148 -2.3822 -0.2755
 1418SOL    HW215888   2.176   4.005   8.232  1.4000 -0.7208 -1.4047
 1419SOL     OW15889   0.887   2.429   2.690 -0.6855 -0.2676 -0.0179
 1419SOL    HW115890   0.859   2.373   2.763 -1.1179 -0.1227 -0.0690
 1419SOL    HW215891   0.980   2.415   2.671 -0.7175 -2.0105  1.1290
 1420SOL     OW15892   3.996   4.624  11.979 -0.0085 -0.4186 -0.5747
 1420SOL    HW115893   3.927   4.690  11.969  0.1031 -0.2616 -0.3067
 1420SOL    HW215894   3.940   4.548  11.964 -2.1443  0.6973  1.6873
 1421SOL     OW15895   1.066   2.685  16.321 -0.2822  0.1070  0.7399
 1421SOL    HW115896   1.012   2.755  16.358 -1.5243 -0.1424 -0.5952
 1421SOL    HW215897   1.007   2.650  16.255 -0.5153  1.3553  0.2705
 1422SOL     OW15898   2.638   1.549   5.070  0.3692  0.6843 -0.0595
 1422SOL    HW115899   2.638   1.611   5.144  0.1841 -0.0446  0.5580
 1422SOL    HW215900   2.542   1.541   5.068  0.4250  0.0133 -0.0510
 1423SOL     OW15901   1.998   0.763   5.638 -0.4225  1.1735 -0.3251
 1423SOL    HW115902   1.909   0.791   5.621 -0.4061  0.5060 -1.5310
 1423SOL    HW215903   2.042   0.832   5.589 -0.9987  1.1836 -0.8188
 1424SOL     OW15904   4.476   2.198   8.059 -0.4185 -0.4015 -0.4904
 1424SOL    HW115905   4.389   2.222   8.092 -0.5648 -2.5603  0.6513
 1424SOL    HW215906   4.509   2.196   8.149 -0.7096  0.0038 -0.3711
 1425SOL     OW15907   2.479   2.429   2.672 -0.1701  0.3500  0.0945
 1425SOL    HW115908   2.457   2.387   2.589  1.8198 -1.8512  0.7067
 1425SOL    HW215909   2.439   2.368   2.733 -1.7001  2.0629  0.8243
 1426SOL     OW15910   1.505   4.578   7.360  0.5663  0.3966  0.5101
 1426SOL    HW115911   1.551   4.524   7.425 -0.6072 -0.8390  0.3057
 1426SOL    HW215912   1.526   4.527   7.282  0.2894 -0.7741  1.1958
 1427SOL     OW15913   2.081   0.455   8.752  0.2785 -0.8834 -0.4645
 1427SOL    HW115914   2.174   0.475   8.738 -0.1174  0.0082 -1.7811
 1427SOL    HW215915   2.044   0.543   8.758 -3.0906 -2.5081  2.4567
 1428SOL     OW15916   2.445   4.016   5.874 -0.3410 -0.5029 -0.2321
 1428SOL    HW115917   2.505   3.977   5.810  0.0554 -0.0707 -0.1207
 1428SOL    HW215918   2.496   4.092   5.900  1.1475 -1.0688 -1.4793
 1429SOL     OW15919   4.554   3.359   8.881 -0.3513 -0.0076  0.1414
 1429SOL    HW115920   4.599   3.336   8.963  0.0850  0.9489  0.1636
 1429SOL    HW215921   4.566   3.452   8.901 -0.2749  0.0370 -0.1106
 1430SOL     OW15922   3.075   3.278   3.510  0.0932 -0.9543 -0.5232
 1430SOL    HW115923   3.147   3.335   3.536  1.0331 -2.3993  0.0134
 1430SOL    HW215924   3.068   3.225   3.589 -3.2147  2.6486  1.6324
 1431SOL     OW15925   3.275   3.804   2.705  0.7352 -0.3507 -0.5376
 1431SOL    HW115926   3.289   3.802   2.800 -0.7152 -0.5832 -0.3322
 1431SOL    HW215927   3.188   3.841   2.690  0.9194 -0.7783 -2.6381
 1432SOL     OW15928   1.324   2.801  14.519  0.3617 -0.2717  0.3723
 1432SOL    HW115929   1.397   2.778  14.576  0.6240  3.1550  1.4422
 1432SOL    HW215930   1.363   2.813  14.432  0.4379  2.6242  0.8172
 1433SOL     OW15931   2.245   1.213   4.156  0.4641 -0.3879  0.5318
 1433SOL    HW115932   2.231   1.124   4.188 -1.5475 -0.0588  0.5641
 1433SOL    HW215933   2.189   1.219   4.079 -0.8745  0.6674  1.5940
 1434SOL     OW15934   1.731   1.537   1.366  0.6127  0.0859  0.0563
 1434SOL    HW115935   1.745   1.595   1.441  0.1944  1.0321 -0.6056
 1434SOL    HW215936   1.675   1.466   1.399 -0.7700  0.8936 -0.5601
 1435SOL     OW15937   0.143   3.227   5.434  0.4074  0.7253 -0.1396
 1435SOL    HW115938   0.079   3.165   5.466  1.9101 -0.2195  1.0439
 1435SOL    HW215939   0.079   3.274   5.380 -0.2215  1.3822  1.1668
 1436SOL     OW15940   2.332   0.063   8.752  0.0557 -0.3612  0.6887
 1436SOL    HW115941   2.365   0.096   8.836 -1.2895  1.1125  0.6261
 1436SOL    HW215942   2.273   0.135   8.730  2.4137  1.6713  0.9468
 1437SOL     OW15943   2.898   1.058   5.223  0.1033  0.0707  0.5506
 1437SOL    HW115944   2.864   1.124   5.283  0.8716  1.1484 -0.2140
 1437SOL    HW215945   2.883   0.981   5.279  1.0284 -0.8775 -0.5099
 1438SOL     OW15946   0.050   3.923  12.267 -0.3474 -0.3743  0.1154
 1438SOL    HW115947   0.087   4.005  12.234 -3.2369  0.2386 -1.5640
 1438SOL    HW215948   0.054   3.931  12.363  0.5395  1.0609 -0.0480
 1439SOL     OW15949   3.648   2.790   3.132  1.0410  0.8969  0.3315
 1439SOL    HW115950   3.626   2.801   3.225  0.5985 -1.8566  0.5285
 1439SOL    HW215951   3.667   2.697   3.125 -2.4381  0.2998 -1.1756
 1440SOL     OW15952   1.418   3.776   6.571 -0.1411  0.6536 -0.4047
 1440SOL    HW115953   1.464   3.702   6.611 -0.3417  0.2712 -0.8819
 1440SOL    HW215954   1.405   3.737   6.484 -1.1495  2.2733 -0.9736
 1441SOL     OW15955   3.826   0.097   5.531 -0.3337 -0.0221 -0.3009
 1441SOL    HW115956   3.754   0.148   5.567 -0.7895 -0.5379 -0.4972
 1441SOL    HW215957   3.816   0.018   5.583 -3.1380  0.5370  0.0184
 1442SOL     OW15958   1.385   2.759  10.682 -0.2011  0.1885  0.2919
 1442SOL    HW115959   1.366   2.675  10.640 -3.1125  1.9847 -1.9998
 1442SOL    HW215960   1.478   2.748  10.704 -1.0519 -0.5046  3.5834
 1443SOL     OW15961   1.719   4.522   3.650  0.0241 -0.1917  0.1167
 1443SOL    HW115962   1.804   4.548   3.686 -0.3842  0.4343  0.6346
 1443SOL    HW215963   1.734   4.539   3.557 -1.1852 -1.1306 -0.2470
 1444SOL     OW15964   1.600   4.458   4.742  0.4384  0.4073  0.3500
 1444SOL    HW115965   1.630   4.409   4.819  1.3047  0.6947  0.1928
 1444SOL    HW215966   1.596   4.386   4.678  1.1561  1.2757 -0.6794
 1445SOL     OW15967   1.502   4.222   6.029  0.0254  0.8035 -0.2187
 1445SOL    HW115968   1.494   4.237   6.123 -0.5764 -0.5920 -0.0457
 1445SOL    HW215969   1.572   4.277   5.992  0.9960  0.4691  1.1402
 1446SOL     OW15970   2.454   0.329   6.255  0.1291 -0.4383 -0.0461
 1446SOL    HW115971   2.493   0.415   6.270 -1.4259 -0.0784  1.9318
 1446SOL    HW215972   2.454   0.330   6.159  1.0552 -0.8210 -0.0433
 1447SOL     OW15973   3.149   2.009   7.231  0.4719  0.3379  0.6429
 1447SOL    HW115974   3.168   1.942   7.165  0.8478 -0.1818  1.2737
 1447SOL    HW215975   3.125   2.065   7.158 -0.1616 -1.9896 -0.9354
 1448SOL     OW15976   0.606   0.293   8.238 -0.5165  0.4137  0.2491
 1448SOL    HW115977   0.686   0.252   8.206  0.3554  1.1508  1.4857
 1448SOL    HW215978   0.616   0.373   8.188  2.2898 -0.5310 -0.7282
 1449SOL     OW15979   4.593   3.825   1.178  0.2106 -0.1176  0.0102
 1449SOL    HW115980   4.510   3.864   1.152  2.0238  3.3332 -0.6297
 1449SOL    HW215981   4.562   3.767   1.248 -1.6383 -0.5413 -1.1735
 1450SOL     OW15982   1.222   3.197   1.994 -0.1292 -0.3393  0.4140
 1450SOL    HW115983   1.156   3.214   2.062  1.7055 -0.8683  2.3389
 1450SOL    HW215984   1.285   3.267   2.011 -0.0447 -0.4742  0.6588
 1451SOL     OW15985   3.564   0.061  15.523  0.0344  0.0647  0.5687
 1451SOL    HW115986   3.597   4.712  15.524 -0.9859 -0.3128 -0.0290
 1451SOL    HW215987   3.469   0.051  15.533 -0.0106 -1.6072 -1.3895
 1452SOL     OW15988   2.784   0.314  11.112  0.2410 -0.1224 -0.6090
 1452SOL    HW115989   2.741   0.367  11.180 -0.7075 -1.0137 -0.5243
 1452SOL    HW215990   2.710   0.257  11.090  2.0353 -2.9026  0.6468
 1453SOL     OW15991   0.665   3.526  17.352  0.6949 -0.2406  0.2546
 1453SOL    HW115992   0.571   3.511  17.358  0.5055  0.2359 -1.4941
 1453SOL    HW215993   0.652   3.618  17.327  1.2380 -0.8056 -2.1606
 1454SOL     OW15994   3.408   3.346  11.998  0.8751 -0.1880  0.0082
 1454SOL    HW115995   3.331   3.358  11.943 -0.1619 -1.6311  1.1390
 1454SOL    HW215996   3.414   3.250  12.003 -0.2581 -0.2247  0.7244
 1455SOL     OW15997   3.053   0.676   5.062  0.0506  0.0485 -0.0604
 1455SOL    HW115998   2.992   0.709   4.996 -0.1617 -0.5712 -0.1762
 1455SOL    HW215999   3.071   0.760   5.104  1.2682 -1.2235  1.9445
 1456SOL     OW16000   4.209   4.099   5.795 -0.1374  0.2484  0.1929
 1456SOL    HW116001   4.123   4.070   5.765 -0.1942  1.9254 -1.2295
 1456SOL    HW216002   4.241   4.156   5.725  0.5672  0.2644  0.5268
 1457SOL     OW16003   1.454   1.958   2.213  0.0979  0.0476  0.4094
 1457SOL    HW116004   1.374   1.984   2.167  0.7110 -0.4463 -0.9164
 1457SOL    HW216005   1.425   1.955   2.304  2.4202  1.1544  1.2020
 1458SOL     OW16006   2.016   4.329   4.689  0.3824 -0.1053 -0.1360
 1458SOL    HW116007   1.976   4.245   4.668 -0.2582  0.3427 -0.7224
 1458SOL    HW216008   2.021   4.312   4.783 -0.1032  0.0516 -0.0799
 1459SOL     OW16009   1.514   3.601  12.477 -0.1471 -0.2806 -0.7444
 1459SOL    HW116010   1.578   3.656  12.432 -0.1979  1.1881  0.9887
 1459SOL    HW216011   1.443   3.664  12.470 -0.0977 -0.1913 -0.4077
 1460SOL     OW16012   3.014   0.967   6.601  0.3164 -0.0443 -0.1149
 1460SOL    HW116013   3.024   0.979   6.695 -1.4388  2.1420 -0.2106
 1460SOL    HW216014   3.067   1.043   6.575 -0.6294  1.0026  1.0211
 1461SOL     OW16015   1.594   4.015   4.223 -0.0031  0.2771  0.1920
 1461SOL    HW116016   1.506   4.019   4.184  0.6197  1.0218 -1.1682
 1461SOL    HW216017   1.581   4.028   4.316  0.5403 -2.4619  0.6453
 1462SOL     OW16018   4.740   2.905   8.169 -0.2051 -0.0500 -0.3977
 1462SOL    HW116019   4.685   2.964   8.119  0.9195  0.2362 -1.3050
 1462SOL    HW216020   0.011   2.963   8.244 -1.0432 -0.5258  0.1126
 1463SOL     OW16021   3.356   0.663   7.041 -0.0663  0.0963 -1.0259
 1463SOL    HW116022   3.387   0.743   7.084 -0.7790  0.9807 -2.1554
 1463SOL    HW216023   3.413   0.604   7.091  1.0885  0.4432 -1.9418
 1464SOL     OW16024   4.496   1.494  15.329  0.6347  0.5457  0.1216
 1464SOL    HW116025   4.495   1.437  15.406 -3.3613 -0.0902 -0.4299
 1464SOL    HW216026   4.557   1.447  15.271  2.0484  0.9243  1.3072
 1465SOL     OW16027   2.497   4.622  16.082 -0.3633 -0.1185 -0.4754
 1465SOL    HW116028   2.446   4.574  16.148  0.6998  1.1837  1.2874
 1465SOL    HW216029   2.578   4.584  16.114 -0.1519 -0.3098 -1.2401
 1466SOL     OW16030   3.772   1.076   5.965 -0.1368  0.1077  0.0851
 1466SOL    HW116031   3.749   0.983   5.961  2.7160 -0.5598 -1.1496
 1466SOL    HW216032   3.740   1.110   6.048  2.3280 -1.4234  1.6976
 1467SOL     OW16033   2.638   0.921   3.794 -0.2374 -0.2290  0.1833
 1467SOL    HW116034   2.694   0.874   3.855  0.2465  1.4958  1.0403
 1467SOL    HW216035   2.587   0.849   3.756 -0.6743  0.0406  0.2558
 1468SOL     OW16036   3.494   0.877  16.491  0.5026  0.4899 -0.2538
 1468SOL    HW116037   3.463   0.831  16.568 -1.8543 -0.8465 -2.0022
 1468SOL    HW216038   3.411   0.877  16.443  0.5825  0.7954 -0.3941
 1469SOL     OW16039   2.914   1.632   6.169  0.2841  0.2106 -0.4481
 1469SOL    HW116040   2.820   1.618   6.182 -0.3663  0.7567 -4.4060
 1469SOL    HW216041   2.943   1.542   6.154  0.9600  0.0331  1.9483
 1470SOL     OW16042   1.278   2.003  12.260 -0.0353  0.2052  0.1743
 1470SOL    HW116043   1.229   2.085  12.258  2.0493  1.5209  3.0964
 1470SOL    HW216044   1.205   1.952  12.294 -1.2901  1.0674 -1.2187
 1471SOL     OW16045   2.206   1.930  17.402  0.5672 -0.4824 -0.4854
 1471SOL    HW116046   2.192   1.862  17.469  0.6764  0.6454  0.6924
 1471SOL    HW216047   2.246   2.000  17.453  1.7860 -1.7010  0.2261
 1472SOL     OW16048   2.492   3.063   3.389  0.4845 -0.1056 -0.3767
 1472SOL    HW116049   2.567   3.054   3.448  0.8519  0.8712 -0.6948
 1472SOL    HW216050   2.520   3.136   3.333 -0.3357  0.0728 -0.5518
 1473SOL     OW16051   4.476   3.289   4.066  0.6342  0.3658 -0.2157
 1473SOL    HW116052   4.391   3.329   4.049  0.4734 -0.0121 -0.2806
 1473SOL    HW216053   4.512   3.261   3.982  0.0780  1.0085 -0.6625
 1474SOL     OW16054   1.363   1.593   2.496 -0.0217 -0.4268 -0.2628
 1474SOL    HW116055   1.450   1.613   2.460  1.0788  0.1633  2.6573
 1474SOL    HW216056   1.312   1.662   2.454  1.9620  0.4508 -1.2453
 1475SOL     OW16057   3.644   1.462   5.816  0.0521 -0.3153  0.1928
 1475SOL    HW116058   3.651   1.532   5.751  0.9205  0.2901  0.9402
 1475SOL    HW216059   3.562   1.421   5.787  0.7739 -1.9742  0.5155
 1476SOL     OW16060   0.002   3.927  15.380  0.3329  0.2316  0.2583
 1476SOL    HW116061   4.730   3.834  15.363 -2.5676  0.1496  3.0532
 1476SOL    HW216062   4.713   3.966  15.298  0.5364 -0.4027 -0.1185
 1477SOL     OW16063   4.199   1.520  16.359  0.2225  0.0443 -0.3824
 1477SOL    HW116064   4.186   1.611  16.332  3.4509  0.0070 -2.0437
 1477SOL    HW216065   4.165   1.524  16.448  0.9858 -0.2143 -0.0804
 1478SOL     OW16066   3.564   0.434  14.671 -0.2501 -0.1251 -0.6187
 1478SOL    HW116067   3.560   0.343  14.642 -0.6093 -0.1944 -0.3569
 1478SOL    HW216068   3.476   0.462  14.646 -0.9116 -0.5480  1.2191
 1479SOL     OW16069   1.435   1.891  13.142  0.3917 -0.6359 -0.4178
 1479SOL    HW116070   1.518   1.917  13.182 -0.7399  3.5581 -0.7976
 1479SOL    HW216071   1.386   1.955  13.194  0.6579  0.5979 -1.6768
 1480SOL     OW16072   1.248   3.470   3.014  0.7229  0.0792  0.6783
 1480SOL    HW116073   1.246   3.437   3.104  1.7494 -0.6558  0.4425
 1480SOL    HW216074   1.279   3.384   2.986 -0.0302 -0.7150  2.2899
 1481SOL     OW16075   1.997   2.924   5.876  0.5733 -0.5565 -0.4956
 1481SOL    HW116076   1.929   2.922   5.809  1.1239  1.0729 -1.1037
 1481SOL    HW216077   1.942   2.915   5.954 -0.8168 -2.5758 -1.7033
 1482SOL     OW16078   0.643   3.222   3.201 -0.1774  0.1709 -0.3512
 1482SOL    HW116079   0.559   3.181   3.224  0.9490 -1.5687  0.6968
 1482SOL    HW216080   0.618   3.280   3.129  0.0421 -0.4553 -0.9342
 1483SOL     OW16081   3.981   1.893   0.882  0.2674  0.0823  0.1437
 1483SOL    HW116082   4.031   1.812   0.887 -0.7440 -0.5958 -0.7033
 1483SOL    HW216083   4.010   1.938   0.962 -1.8757  2.1148 -0.2212
 1484SOL     OW16084   1.026   2.731  12.271  0.1863  0.2843 -0.3659
 1484SOL    HW116085   1.117   2.700  12.273  0.4468  0.8484 -3.6086
 1484SOL    HW216086   1.041   2.823  12.248 -1.5789  0.8612  0.8484
 1485SOL     OW16087   4.122   0.575  16.705  0.4308 -0.0038 -0.0160
 1485SOL    HW116088   4.155   0.603  16.790  0.7670  3.3148 -1.2704
 1485SOL    HW216089   4.099   0.482  16.716  0.3161  0.0627  0.3020
 1486SOL     OW16090   4.324   1.441   5.777 -0.3691 -0.1836 -0.0124
 1486SOL    HW116091   4.365   1.469   5.859 -0.4762 -0.1169  0.0182
 1486SOL    HW216092   4.295   1.523   5.738  1.8558 -0.2742 -1.9021
 1487SOL     OW16093   2.023   0.775   7.726 -0.3125  0.2659 -0.1345
 1487SOL    HW116094   1.962   0.848   7.716 -0.4907  0.3823  1.7890
 1487SOL    HW216095   2.040   0.783   7.820 -1.3558 -0.8542  0.1501
 1488SOL     OW16096   2.087   0.370   4.099  0.0153 -0.5507  0.2662
 1488SOL    HW116097   2.094   0.327   4.014 -1.0850 -1.1325  0.4688
 1488SOL    HW216098   2.091   0.463   4.074 -1.8297 -0.6409 -0.3609
 1489SOL     OW16099   0.219   4.192   3.236  0.4086 -0.4050 -0.2645
 1489SOL    HW116100   0.140   4.245   3.246  0.5222 -0.3066  0.1180
 1489SOL    HW216101   0.247   4.207   3.146  0.1286  0.3848 -0.2215
 1490SOL     OW16102   3.620   0.320   2.635 -0.0740 -0.2535  0.2760
 1490SOL    HW116103   3.675   0.252   2.597  1.4938 -0.2636  2.5722
 1490SOL    HW216104   3.612   0.379   2.560  0.7212 -2.4517 -1.5319
 1491SOL     OW16105   1.657   2.964   3.133  0.0878 -0.0087 -0.3973
 1491SOL    HW116106   1.728   2.989   3.192 -0.5119  1.5770 -0.3328
 1491SOL    HW216107   1.650   2.876   3.169 -1.2956 -0.4572 -1.7804
 1492SOL     OW16108   3.546   0.042  17.342 -0.3386 -0.0545 -0.2063
 1492SOL    HW116109   3.504   0.084  17.417 -1.2420 -1.8860  0.3226
 1492SOL    HW216110   3.498   0.077  17.268 -0.0907  0.9169  0.0964
 1493SOL     OW16111   3.383   1.009   7.759 -0.5336 -0.0067 -0.2512
 1493SOL    HW116112   3.314   1.037   7.819 -2.0877  1.6249 -2.7787
 1493SOL    HW216113   3.455   1.022   7.820 -0.9099  1.5142 -0.1512
 1494SOL     OW16114   1.787   2.304  13.708  0.0406 -0.2091  0.6376
 1494SOL    HW116115   1.748   2.335  13.789 -0.2842 -1.2565  0.8768
 1494SOL    HW216116   1.853   2.239  13.731 -0.1118 -0.1698  1.1757
 1495SOL     OW16117   0.812   4.493   9.211 -0.4697  0.5045  0.3856
 1495SOL    HW116118   0.897   4.509   9.171 -0.6298  2.0219  0.6395
 1495SOL    HW216119   0.828   4.400   9.227  1.4633  0.7616 -0.1625
 1496SOL     OW16120   2.233   0.645   2.792 -0.5523  0.0854 -0.2721
 1496SOL    HW116121   2.214   0.571   2.735 -0.1848  0.3112 -0.6846
 1496SOL    HW216122   2.287   0.697   2.732  0.5984  0.7395  1.3296
 1497SOL     OW16123   0.212   0.680   2.348 -0.3466 -0.0150  0.3951
 1497SOL    HW116124   0.178   0.731   2.275  0.8963 -0.1416 -0.2617
 1497SOL    HW216125   0.307   0.687   2.338 -0.7619  1.8097 -2.2599
 1498SOL     OW16126   0.169   4.628   2.016  0.2120 -0.0337 -0.1773
 1498SOL    HW116127   0.165   4.623   2.112 -0.5553  1.3048 -0.1508
 1498SOL    HW216128   0.239   4.691   2.004  0.8490 -0.8321 -0.6295
 1499SOL     OW16129   4.043   4.657   3.978 -0.1332 -0.3153  0.6768
 1499SOL    HW116130   3.992   4.680   4.056 -0.6376  0.2720  0.1730
 1499SOL    HW216131   4.117   4.717   3.989 -0.6446  0.1638  1.4937
 1500SOL     OW16132   3.120   4.415   5.554  0.1462  0.3359  0.1345
 1500SOL    HW116133   3.192   4.395   5.496  0.1498 -3.3249  1.4435
 1500SOL    HW216134   3.086   4.497   5.518  3.0091  0.9926 -1.0312
 1501SOL     OW16135   4.028   0.360   2.876 -0.6391 -0.3242 -0.3462
 1501SOL    HW116136   3.941   0.371   2.837 -0.4394  0.8583 -0.4585
 1501SOL    HW216137   4.026   0.265   2.887  1.9838 -0.3816 -0.4420
 1502SOL     OW16138   0.970   0.855   4.875 -0.2131 -0.5835 -0.2799
 1502SOL    HW116139   1.053   0.897   4.900 -0.8380  0.1664  0.5469
 1502SOL    HW216140   0.911   0.905   4.932  2.2223  0.4199  1.3759
 1503SOL     OW16141   0.146   2.075   0.237 -0.0970 -0.1064  0.4560
 1503SOL    HW116142   0.168   2.049   0.326  0.3923 -0.9703  0.0813
 1503SOL    HW216143   0.176   1.999   0.188 -1.0596  0.6294 -1.2952
 1504SOL     OW16144   1.265   0.817   5.165  0.2068  0.1257 -0.0007
 1504SOL    HW116145   1.349   0.775   5.184  0.3333  0.4460  0.1613
 1504SOL    HW216146   1.199   0.783   5.226  0.9544 -0.8871  0.2532
 1505SOL     OW16147   0.225   3.655   7.644  0.1869 -0.2893 -0.1833
 1505SOL    HW116148   0.249   3.683   7.556  0.7865  1.0091  0.3827
 1505SOL    HW216149   0.270   3.571   7.648 -0.1529 -0.4808 -0.3680
 1506SOL     OW16150   2.575   3.829   2.648 -1.1857 -0.0547  0.0582
 1506SOL    HW116151   2.510   3.818   2.578  1.1843 -1.4684 -1.9373
 1506SOL    HW216152   2.653   3.814   2.594 -1.1125  2.6731 -0.5652
 1507SOL     OW16153   0.532   0.155   2.572  0.3130 -0.2432 -0.1054
 1507SOL    HW116154   0.557   0.242   2.604 -0.5738  0.0992 -0.3366
 1507SOL    HW216155   0.588   0.099   2.626  1.9477 -0.1511 -1.7277
 1508SOL     OW16156   3.390   1.557  12.501  0.3271 -0.0937  0.2053
 1508SOL    HW116157   3.419   1.547  12.592  2.7625 -1.3751 -0.7143
 1508SOL    HW216158   3.312   1.502  12.498 -0.4740  1.0569 -0.1871
 1509SOL     OW16159   0.291   0.557   6.791  0.1626 -0.1634  0.1484
 1509SOL    HW116160   0.302   0.462   6.788  0.7525 -0.0463 -1.2344
 1509SOL    HW216161   0.248   0.574   6.875 -2.0904  3.3893 -1.6852
 1510SOL     OW16162   4.457   3.514   7.438 -0.0272 -0.1546 -0.5771
 1510SOL    HW116163   4.508   3.500   7.518  0.4300  0.2655 -0.7978
 1510SOL    HW216164   4.453   3.427   7.398  0.4424  0.4017 -1.8308
 1511SOL     OW16165   4.111   0.280   4.932 -0.2257  0.5716  0.2379
 1511SOL    HW116166   4.073   0.364   4.906  0.0124  0.1490 -1.4691
 1511SOL    HW216167   4.163   0.318   5.003 -0.0332 -0.3369  0.5826
 1512SOL     OW16168   4.604   0.111   2.003 -0.3763 -0.2561 -0.2120
 1512SOL    HW116169   4.558   0.032   1.973 -0.9269  0.0073 -0.0731
 1512SOL    HW216170   4.527   0.163   2.028 -0.2832  0.1271 -0.7088
 1513SOL     OW16171   1.573   2.108   0.908 -0.1961 -0.2357  0.2377
 1513SOL    HW116172   1.649   2.137   0.858 -2.1012 -0.3634 -2.7944
 1513SOL    HW216173   1.589   2.147   0.993  0.4063  1.4172 -0.6301
 1514SOL     OW16174   0.607   2.547  15.266 -0.4539 -0.4498  0.2148
 1514SOL    HW116175   0.580   2.457  15.280  0.5876 -0.9096 -0.7620
 1514SOL    HW216176   0.657   2.534  15.185  0.4027 -1.6765  0.9642
 1515SOL     OW16177   0.004   3.618  15.318 -0.5415 -0.4459 -0.4684
 1515SOL    HW116178   0.077   3.602  15.258  0.0403 -0.2881  0.2011
 1515SOL    HW216179   4.670   3.610  15.260  0.8748  0.5912 -2.4593
 1516SOL     OW16180   0.904   2.427   2.136 -0.2572 -0.1975 -0.0605
 1516SOL    HW116181   0.920   2.474   2.054 -0.4664 -0.1012 -0.0464
 1516SOL    HW216182   0.859   2.352   2.096  1.2552 -1.5718  0.8078
 1517SOL     OW16183   3.972   2.972  16.346 -0.3337  0.0859  0.5029
 1517SOL    HW116184   3.936   3.017  16.422  0.8470  0.3887  0.8658
 1517SOL    HW216185   4.040   2.919  16.387  0.7835  2.0985  1.1925
 1518SOL     OW16186   1.465   3.875   9.152 -0.0051 -0.5218  0.0118
 1518SOL    HW116187   1.457   3.812   9.223  1.2365 -0.8370 -0.1273
 1518SOL    HW216188   1.540   3.831   9.112  1.2766  0.6189  1.1714
 1519SOL     OW16189   3.895   0.092   7.515 -0.4748 -0.0952  0.3167
 1519SOL    HW116190   3.965   0.143   7.555  0.9671  0.1300 -2.4579
 1519SOL    HW216191   3.834   0.165   7.508  0.8239  0.9503 -0.1854
 1520SOL     OW16192   0.748   3.701   4.772  0.0072 -0.3064 -0.5800
 1520SOL    HW116193   0.827   3.664   4.732  0.0208 -0.6822 -0.2053
 1520SOL    HW216194   0.770   3.794   4.776  0.5925 -0.3978 -1.5958
 1521SOL     OW16195   3.915   1.484  11.864 -0.1331  0.2107  0.4159
 1521SOL    HW116196   3.832   1.500  11.909  0.6452  2.3400  1.0951
 1521SOL    HW216197   3.971   1.450  11.933  0.9204 -3.4118 -2.2245
 1522SOL     OW16198   4.588   1.279   2.966  0.1176  0.1935  0.0181
 1522SOL    HW116199   4.520   1.320   2.913  1.8171  1.1396 -1.4098
 1522SOL    HW216200   4.566   1.186   2.960  0.0305  0.1221  1.3633
 1523SOL     OW16201   2.628   4.489   8.392  0.0290 -0.0351  0.5452
 1523SOL    HW116202   2.604   4.397   8.381 -0.7721  0.2537 -0.1213
 1523SOL    HW216203   2.679   4.482   8.473 -1.3619  1.0616  1.4934
 1524SOL     OW16204   1.138   0.050  13.160  0.0831  0.4803 -0.0010
 1524SOL    HW116205   1.128   0.066  13.066 -3.0223  0.2363  0.2861
 1524SOL    HW216206   1.061   0.000  13.189 -0.6320  0.8758 -1.2158
 1525SOL     OW16207   2.307   3.486   4.816  0.0073  0.2097  0.1453
 1525SOL    HW116208   2.233   3.426   4.802  1.4007 -1.2481 -0.9902
 1525SOL    HW216209   2.294   3.545   4.742 -2.1255 -3.3252 -2.3214
 1526SOL     OW16210   3.991   3.365   7.878 -0.5389  0.5560 -0.4654
 1526SOL    HW116211   3.951   3.352   7.964  2.9298  3.7404  1.6116
 1526SOL    HW216212   3.913   3.349   7.825  0.2182 -0.2459 -1.3510
 1527SOL     OW16213   1.760   0.668   5.415 -0.1926  0.2579  0.3523
 1527SOL    HW116214   1.675   0.656   5.456 -1.9547 -0.6571 -3.4921
 1527SOL    HW216215   1.790   0.750   5.456 -1.5369  1.3574 -0.8611
 1528SOL     OW16216   1.735   0.471   4.943  0.1758 -0.5266  0.1966
 1528SOL    HW116217   1.753   0.380   4.966 -1.6382 -0.4304  1.9987
 1528SOL    HW216218   1.760   0.523   5.020 -0.5569  0.7593 -0.4336
 1529SOL     OW16219   4.315   4.009  16.369 -0.6155 -0.3457  0.7876
 1529SOL    HW116220   4.242   4.047  16.320 -1.8338 -2.4092  1.0170
 1529SOL    HW216221   4.387   4.038  16.313  0.0693  0.3057  1.9939
 1530SOL     OW16222   0.339   3.564   1.839 -0.2452 -0.0404  0.5032
 1530SOL    HW116223   0.330   3.642   1.785 -2.3317 -0.4255  0.2787
 1530SOL    HW216224   0.411   3.581   1.900 -0.4294 -0.5030  0.8487
 1531SOL     OW16225   2.811   3.946   4.998 -0.3818  0.2321  0.3060
 1531SOL    HW116226   2.776   3.866   4.958 -0.5255 -0.9317  2.7503
 1531SOL    HW216227   2.868   3.914   5.068  0.0962  0.8255  0.1865
 1532SOL     OW16228   4.143   3.484   4.420 -0.3213 -0.1180  0.2966
 1532SOL    HW116229   4.175   3.534   4.495  2.3069 -0.3897 -0.6649
 1532SOL    HW216230   4.147   3.395   4.454  0.8369  0.2062  1.0152
 1533SOL     OW16231   0.905   2.551   4.369  0.7574  0.6229  0.2704
 1533SOL    HW116232   0.809   2.557   4.362  0.4623 -0.2306  3.5124
 1533SOL    HW216233   0.903   2.547   4.465  0.3214 -2.9906  0.1139
 1534SOL     OW16234   1.351   3.799   7.615  0.4999 -0.0020  0.0397
 1534SOL    HW116235   1.354   3.778   7.522  0.3546  0.5999 -0.0986
 1534SOL    HW216236   1.425   3.859   7.625 -0.7589  1.8640 -1.8784
 1535SOL     OW16237   2.962   0.973  12.536  0.4806  0.9578  0.1851
 1535SOL    HW116238   2.985   0.887  12.501  0.8133  0.6739  1.1176
 1535SOL    HW216239   2.939   0.950  12.626 -1.0314 -1.2295 -0.7577
 1536SOL     OW16240   1.027   4.643   3.707  0.5625 -0.1997  0.5703
 1536SOL    HW116241   1.028   4.739   3.717 -0.8798 -0.2236  0.9567
 1536SOL    HW216242   1.095   4.612   3.767 -1.1282  1.2671  3.2781
 1537SOL     OW16243   3.449   3.880   1.804  0.1305 -0.7960 -0.2628
 1537SOL    HW116244   3.375   3.900   1.747 -1.9765 -2.2224  2.0147
 1537SOL    HW216245   3.445   3.785   1.800 -3.1587 -0.6438 -0.3814
 1538SOL     OW16246   3.819   3.265   0.900 -0.5327  0.1681  0.3433
 1538SOL    HW116247   3.905   3.232   0.925 -0.4264  0.2305  0.0684
 1538SOL    HW216248   3.826   3.310   0.815 -0.3703  0.1275  0.3346
 1539SOL     OW16249   1.866   2.626   8.418 -0.0773  0.2612 -0.5440
 1539SOL    HW116250   1.878   2.690   8.488  1.3293  0.3159 -0.8334
 1539SOL    HW216251   1.783   2.658   8.381  0.8540  0.9397 -2.0663
 1540SOL     OW16252   4.602   1.712   6.076 -0.6333  0.7056 -0.1389
 1540SOL    HW116253   4.623   1.796   6.117  1.6792 -0.2250  0.5612
 1540SOL    HW216254   4.507   1.719   6.090 -0.4774  2.2106  0.1324
 1541SOL     OW16255   0.583   0.923   8.289  0.4233  0.6129 -0.2128
 1541SOL    HW116256   0.571   0.832   8.260 -1.9722  1.0804 -0.6890
 1541SOL    HW216257   0.494   0.958   8.285  0.6520  1.2191  0.1002
 1542SOL     OW16258   0.575   4.574   2.108  0.1162  0.0288  0.2945
 1542SOL    HW116259   0.551   4.661   2.141 -1.4682 -0.7492  1.2223
 1542SOL    HW216260   0.495   4.523   2.121  1.1771 -1.0293  2.6866
 1543SOL     OW16261   2.010   1.281   3.710 -0.6055  0.1202  0.2719
 1543SOL    HW116262   1.929   1.304   3.755 -0.8925 -0.4287  0.0311
 1543SOL    HW216263   2.068   1.262   3.784 -3.4533  0.2482  2.5518
 1544SOL     OW16264   1.515   1.500   4.628  0.1533  0.2378 -0.6786
 1544SOL    HW116265   1.463   1.442   4.571 -0.9682  1.6389 -1.0779
 1544SOL    HW216266   1.508   1.588   4.590  0.4913  0.2594 -0.6955
 1545SOL     OW16267   4.143   1.165  12.671 -0.4510 -0.0771  0.1517
 1545SOL    HW116268   4.085   1.102  12.628 -0.4909 -1.2974  1.9701
 1545SOL    HW216269   4.172   1.106  12.741  1.2567  0.2339 -0.2877
 1546SOL     OW16270   2.175   1.541   4.933  0.1310  0.3987 -0.0506
 1546SOL    HW116271   2.102   1.602   4.923  0.5437  0.7602 -0.8177
 1546SOL    HW216272   2.234   1.574   4.866  0.1275 -0.0479 -0.2739
 1547SOL     OW16273   2.492   0.332   7.749 -0.5832 -0.7249 -0.0311
 1547SOL    HW116274   2.495   0.355   7.842  1.4579  3.5374 -1.1660
 1547SOL    HW216275   2.572   0.280   7.751  0.9941  1.7180 -0.1521
 1548SOL     OW16276   4.244   0.833   2.723 -0.8363 -0.3387  0.3640
 1548SOL    HW116277   4.232   0.862   2.814 -1.3207  0.3224  0.0864
 1548SOL    HW216278   4.207   0.908   2.677  0.4519 -0.0709 -0.2252
 1549SOL     OW16279   3.134   4.712   5.500 -0.2457 -0.3772  0.0538
 1549SOL    HW116280   3.118   0.046   5.445  0.4743  1.1024  1.8808
 1549SOL    HW216281   3.048   4.685   5.531  1.4213 -5.1162  0.5923
 1550SOL     OW16282   1.356   2.455   1.484  0.0735  0.3069  0.2480
 1550SOL    HW116283   1.376   2.363   1.497  0.0423  0.5953  2.3055
 1550SOL    HW216284   1.340   2.483   1.574 -0.3456  2.1451 -0.3931
 1551SOL     OW16285   0.590   2.082   8.198  0.1313 -0.0561 -0.1899
 1551SOL    HW116286   0.665   2.118   8.244  0.5658 -2.4071  0.9130
 1551SOL    HW216287   0.586   2.003   8.252 -0.2648  0.3435  0.3577
 1552SOL     OW16288   0.886   0.437   7.617  0.6678  0.1715  0.1422
 1552SOL    HW116289   0.835   0.485   7.682  1.5598  1.4885 -0.1206
 1552SOL    HW216290   0.939   0.377   7.668  3.4366  2.5111  0.0589
 1553SOL     OW16291   3.466   1.854   6.208  0.2660 -0.2457  0.6949
 1553SOL    HW116292   3.506   1.823   6.127  0.7076  1.6078  0.1931
 1553SOL    HW216293   3.544   1.867   6.263  0.3983 -1.3505  0.7588
 1554SOL     OW16294   0.996   2.192  10.477 -0.3735  0.3527 -0.3168
 1554SOL    HW116295   0.987   2.282  10.447 -2.5806  0.2588  0.0883
 1554SOL    HW216296   0.939   2.146  10.416  0.9320 -0.6210 -0.7958
 1555SOL     OW16297   2.753   2.497   2.972  0.3817 -0.7189 -0.5768
 1555SOL    HW116298   2.800   2.414   2.971  1.8987  0.1228  0.6252
 1555SOL    HW216299   2.748   2.524   2.880 -0.7610 -0.1254 -0.3465
 1556SOL     OW16300   1.781   0.849  10.705  0.3252 -0.0702 -0.3073
 1556SOL    HW116301   1.756   0.789  10.775  0.7793 -0.7890 -0.7672
 1556SOL    HW216302   1.874   0.845  10.685  0.6713 -2.4868  1.8317
 1557SOL     OW16303   2.090   0.272   5.335  0.2846 -0.2693 -0.4819
 1557SOL    HW116304   2.131   0.207   5.393 -0.6861 -2.3461 -2.1177
 1557SOL    HW216305   2.019   0.299   5.394  1.3412 -2.1497  1.6509
 1558SOL     OW16306   2.581   0.946   2.510  0.5287  0.3007 -0.1382
 1558SOL    HW116307   2.634   0.928   2.433  0.4752  1.3982 -0.4340
 1558SOL    HW216308   2.631   1.016   2.552  0.0283  0.3396  0.3946
 1559SOL     OW16309   3.071   0.030   7.520  0.1806 -0.2239 -0.1662
 1559SOL    HW116310   3.004   4.704   7.536  0.0507  0.1067  0.7255
 1559SOL    HW216311   3.141   4.715   7.552  0.5109  0.6388  0.6495
 1560SOL     OW16312   3.016   4.086  14.104  0.3839 -0.3221 -0.1184
 1560SOL    HW116313   3.039   4.178  14.097 -2.0480  0.1529 -1.9460
 1560SOL    HW216314   3.088   4.053  14.157  1.3394 -1.8625 -2.3561
 1561SOL     OW16315   4.480   2.105   5.687 -0.3292  0.4341 -0.3515
 1561SOL    HW116316   4.489   2.050   5.609  0.8504 -1.3174  1.0425
 1561SOL    HW216317   4.570   2.106   5.719 -0.4960 -2.3923  0.1949
 1562SOL     OW16318   1.178   4.265  17.281  0.5878 -0.1301  0.0145
 1562SOL    HW116319   1.224   4.245  17.362 -0.5920  0.8964  0.9318
 1562SOL    HW216320   1.141   4.181  17.253 -0.6563  0.1052  0.9704
 1563SOL     OW16321   2.943   3.254   9.379 -0.0795  0.0193 -0.5044
 1563SOL    HW116322   2.921   3.162   9.394  1.3313 -0.2428  0.0411
 1563SOL    HW216323   2.861   3.274   9.335 -0.1200 -1.0356 -0.9207
 1564SOL     OW16324   1.461   4.087   6.854  0.9238 -0.4166  0.6542
 1564SOL    HW116325   1.470   4.182   6.840 -1.5255 -0.4747 -1.3523
 1564SOL    HW216326   1.508   4.065   6.774  2.0487 -0.6207  1.3778
 1565SOL     OW16327   2.690   2.809   8.137 -0.3524  0.4047 -0.6024
 1565SOL    HW116328   2.671   2.724   8.097  0.2242 -0.4898  1.0417
 1565SOL    HW216329   2.782   2.808   8.160 -0.6599 -0.0068  0.6299
 1566SOL     OW16330   2.767   3.304   4.177  0.1683 -0.3508  0.1438
 1566SOL    HW116331   2.801   3.222   4.142 -1.5597 -1.1072  0.2396
 1566SOL    HW216332   2.678   3.290   4.145 -0.6439  0.7417  1.9156
 1567SOL     OW16333   0.961   1.002   1.541 -0.8268 -0.4391  0.1804
 1567SOL    HW116334   1.023   0.970   1.476 -1.3768 -0.8162 -0.1591
 1567SOL    HW216335   1.021   1.057   1.591  0.3065 -0.3309 -1.2888
 1568SOL     OW16336   4.493   1.361   8.620 -0.2722 -0.4367  0.0192
 1568SOL    HW116337   4.485   1.427   8.689 -0.3366 -0.3146 -0.1045
 1568SOL    HW216338   4.472   1.278   8.663 -3.2023  0.7389  0.8689
 1569SOL     OW16339   1.294   1.833   4.201  0.3113  0.0869 -0.1833
 1569SOL    HW116340   1.383   1.808   4.226  0.4458  0.0383 -0.7130
 1569SOL    HW216341   1.307   1.917   4.156  2.3852 -0.7343 -1.1316
 1570SOL     OW16342   3.640   4.494   9.362 -0.0780 -0.6486 -0.5967
 1570SOL    HW116343   3.714   4.487   9.423 -0.5603  0.5127  0.1221
 1570SOL    HW216344   3.570   4.464   9.420  0.5204 -0.8203  0.0329
 1571SOL     OW16345   3.659   2.552  17.257  0.0994 -0.3115  0.4231
 1571SOL    HW116346   3.695   2.631  17.297 -0.4005 -0.7760  1.7859
 1571SOL    HW216347   3.653   2.491  17.331 -0.2212  0.0019  0.6542
 1572SOL     OW16348   3.007   0.436   7.689 -0.1792  0.1268  0.7846
 1572SOL    HW116349   2.916   0.464   7.688 -0.6479 -1.5279 -1.5242
 1572SOL    HW216350   3.010   0.387   7.771 -1.4325 -0.2466  0.6020
 1573SOL     OW16351   1.252   3.390   8.911  0.0613  0.3243 -0.7080
 1573SOL    HW116352   1.234   3.331   8.984  3.3689 -1.6411 -1.5181
 1573SOL    HW216353   1.297   3.462   8.955  1.9909 -1.0890 -0.3985
 1574SOL     OW16354   0.268   2.487   4.636 -0.6906 -0.1584 -0.0435
 1574SOL    HW116355   0.276   2.394   4.619  3.0849 -0.3685  2.7465
 1574SOL    HW216356   0.217   2.525   4.565  0.7551  1.2989 -0.3239
 1575SOL     OW16357   3.949   4.235   8.837  0.1182  0.5564  0.0723
 1575SOL    HW116358   3.866   4.225   8.884 -0.3048  1.5898 -0.4630
 1575SOL    HW216359   4.004   4.246   8.914 -1.8812 -1.8664  1.8715
 1576SOL     OW16360   0.644   0.514   2.934  0.7818 -0.2824  0.5487
 1576SOL    HW116361   0.629   0.435   2.986  0.9738 -0.0216  1.0009
 1576SOL    HW216362   0.736   0.504   2.913  1.0490 -0.4446  1.7705
 1577SOL     OW16363   3.658   0.957  12.627 -0.3301  0.1118 -0.7571
 1577SOL    HW116364   3.686   0.964  12.536  1.4903  1.1176 -0.1001
 1577SOL    HW216365   3.618   1.042  12.643 -3.4535 -1.6947  1.1012
 1578SOL     OW16366   1.430   0.345   9.401  0.4249 -0.6059 -0.1333
 1578SOL    HW116367   1.507   0.398   9.421 -0.9202 -0.0192  3.4516
 1578SOL    HW216368   1.377   0.395   9.338 -2.3007  0.1440  2.7885
 1579SOL     OW16369   3.903   4.105  14.210  0.3840 -0.2477 -0.0861
 1579SOL    HW116370   3.964   4.079  14.279 -0.8755  1.6017  1.7370
 1579SOL    HW216371   3.962   4.108  14.135 -0.3377 -0.5804 -0.6667
 1580SOL     OW16372   3.882   0.360  12.187 -0.4662  0.4066 -0.4900
 1580SOL    HW116373   3.819   0.428  12.210 -0.1588  0.4892  0.1137
 1580SOL    HW216374   3.878   0.306  12.266 -0.2756 -0.6140 -1.1668
 1581SOL     OW16375   0.744   0.924   8.940 -0.2304 -0.8528 -0.5515
 1581SOL    HW116376   0.769   0.904   9.031 -0.2961 -1.7934 -0.7416
 1581SOL    HW216377   0.650   0.907   8.950 -0.0472 -0.7673  1.4920
 1582SOL     OW16378   2.093   2.418   1.578 -0.4236 -0.3517 -0.0709
 1582SOL    HW116379   2.146   2.421   1.499  0.5276  0.3434  0.5802
 1582SOL    HW216380   2.002   2.434   1.554  0.1394  1.5233 -0.9654
 1583SOL     OW16381   0.242   2.214   4.569 -0.0206 -0.3652  0.3034
 1583SOL    HW116382   0.249   2.129   4.614 -2.3645 -0.1524  1.0749
 1583SOL    HW216383   0.247   2.189   4.477 -0.8671  0.3822  0.0491
 1584SOL     OW16384   2.469   1.281  13.205  0.1042  0.5813  0.1076
 1584SOL    HW116385   2.484   1.355  13.145  0.5384 -1.2764 -2.0562
 1584SOL    HW216386   2.375   1.272  13.188 -0.2847  1.4480  1.7214
 1585SOL     OW16387   3.973   1.862   1.958  0.5799 -0.0138 -0.4727
 1585SOL    HW116388   3.955   1.956   1.963  0.4041 -0.0445 -0.5398
 1585SOL    HW216389   3.972   1.845   1.864  0.5360  0.5262 -0.5693
 1586SOL     OW16390   2.022   3.953   2.569 -0.1115  0.3071 -0.0527
 1586SOL    HW116391   2.075   4.024   2.534 -2.2238  1.3566 -1.0552
 1586SOL    HW216392   1.964   3.996   2.632  1.0986  2.7845 -0.6364
 1587SOL     OW16393   1.990   0.788   2.730  0.2043 -0.3246 -0.5637
 1587SOL    HW116394   2.060   0.730   2.759  0.6122  1.1826  1.4188
 1587SOL    HW216395   1.952   0.801   2.817 -0.6003  0.1012 -0.9680
 1588SOL     OW16396   1.991   3.998  12.231 -0.0874  0.0673 -0.6503
 1588SOL    HW116397   1.919   3.949  12.192  0.0278 -2.3876  2.1269
 1588SOL    HW216398   2.065   3.953  12.190  0.0971 -0.4230  0.2094
 1589SOL     OW16399   1.969   4.273   6.898 -0.4677 -1.2516 -0.0317
 1589SOL    HW116400   1.893   4.216   6.889 -0.4416 -1.2819 -0.0591
 1589SOL    HW216401   1.935   4.337   6.835  0.0090 -1.3433 -0.3814
 1590SOL     OW16402   4.421   0.883   1.462  0.1450 -0.1634 -0.2356
 1590SOL    HW116403   4.458   0.841   1.540 -0.1141  1.3544  0.7062
 1590SOL    HW216404   4.348   0.821   1.461 -0.4795  0.5766 -1.0005
 1591SOL     OW16405   2.041   0.691   4.992 -0.1208 -0.2715  0.2686
 1591SOL    HW116406   2.055   0.605   5.031  0.0339  0.1510  1.1435
 1591SOL    HW216407   2.041   0.743   5.072  0.2170  0.0738  0.0473
 1592SOL     OW16408   0.081   3.961   4.454  0.8001 -0.2840 -0.0084
 1592SOL    HW116409   0.121   4.041   4.489 -0.8113 -0.3044  1.8885
 1592SOL    HW216410   0.112   3.905   4.525  0.9757 -0.7766 -0.4738
 1593SOL     OW16411   4.171   0.517   5.513  0.6051  0.4123  0.1557
 1593SOL    HW116412   4.103   0.576   5.545  0.5248  0.5578 -0.2859
 1593SOL    HW216413   4.161   0.439   5.569  1.5679  0.7317  0.7671
 1594SOL     OW16414   4.499   0.671   8.501 -0.0706  0.0827  0.2471
 1594SOL    HW116415   4.410   0.639   8.516 -0.5243  0.7165 -1.0343
 1594SOL    HW216416   4.487   0.672   8.406  2.3705 -0.9171 -0.0584
 1595SOL     OW16417   2.361   4.565   8.422  0.7943 -0.0749  0.4057
 1595SOL    HW116418   2.364   4.614   8.339 -1.6125  2.2831  1.7236
 1595SOL    HW216419   2.454   4.552   8.438  1.2766  0.1805 -2.0825
 1596SOL     OW16420   1.495   4.636  14.132  0.2451  0.5725 -0.0184
 1596SOL    HW116421   1.561   4.705  14.119 -0.3188  0.9110 -1.0505
 1596SOL    HW216422   1.430   4.668  14.070  0.8103  2.2080  0.2343
 1597SOL     OW16423   1.069   2.255   7.574 -0.5665  0.0927 -0.4087
 1597SOL    HW116424   1.063   2.298   7.488  2.4731  2.9485  0.8380
 1597SOL    HW216425   0.978   2.269   7.600 -0.0839  0.3259  1.1434
 1598SOL     OW16426   0.166   0.529   0.764 -0.1171  0.5437 -0.0052
 1598SOL    HW116427   0.244   0.475   0.753 -0.3657  0.3494 -0.7996
 1598SOL    HW216428   0.156   0.550   0.671 -0.7531 -0.2752 -0.1142
 1599SOL     OW16429   3.970   0.397  14.073 -0.6208  0.6123 -0.1823
 1599SOL    HW116430   4.065   0.405  14.070 -0.9842  4.9715 -0.5946
 1599SOL    HW216431   3.958   0.305  14.050 -1.6938  1.0858 -1.5064
 1600SOL     OW16432   0.884   2.766   2.490 -0.1482 -0.6698  0.4885
 1600SOL    HW116433   0.848   2.847   2.526 -2.7735 -2.0130  0.9006
 1600SOL    HW216434   0.868   2.787   2.398  3.2638  0.7995  0.2172
 1601SOL     OW16435   1.606   3.846  17.025  0.0836 -0.1145  0.6027
 1601SOL    HW116436   1.537   3.843  17.091  0.7460  0.1582  1.2994
 1601SOL    HW216437   1.561   3.837  16.941  1.7474 -2.2116 -0.0699
 1602SOL     OW16438   2.259   4.714  14.681  0.3489 -0.0980 -0.0814
 1602SOL    HW116439   2.227   4.641  14.628 -0.3038  1.1606 -1.4123
 1602SOL    HW216440   2.172   4.738  14.710  0.0168 -1.7389  0.3130
 1603SOL     OW16441   2.494   3.222  11.920 -0.4029 -0.0627  0.0637
 1603SOL    HW116442   2.556   3.184  11.983 -0.6038  2.8595  2.0233
 1603SOL    HW216443   2.408   3.209  11.960 -0.5043 -0.8233 -0.4090
 1604SOL     OW16444   1.429   1.044   4.896  0.0022 -0.4303 -0.5569
 1604SOL    HW116445   1.469   1.027   4.810 -0.7192  0.1608 -1.0044
 1604SOL    HW216446   1.512   1.043   4.944  1.2646  0.9556 -2.7040
 1605SOL     OW16447   2.591   1.233  15.298 -0.4164 -0.5241  0.4375
 1605SOL    HW116448   2.660   1.286  15.258  0.6142 -1.7432  0.6123
 1605SOL    HW216449   2.603   1.243  15.392  0.8800  2.2812 -0.0221
 1606SOL     OW16450   3.407   4.330  12.857  0.5214  0.2169 -0.4011
 1606SOL    HW116451   3.359   4.270  12.799 -0.7943 -0.3812  1.3047
 1606SOL    HW216452   3.338   4.375  12.906 -1.1629 -1.7401 -0.9702
 1607SOL     OW16453   1.041   4.732   5.861  0.2081  0.3586  0.5842
 1607SOL    HW116454   1.055   4.662   5.924 -1.5965 -0.3719  0.1841
 1607SOL    HW216455   1.009   0.060   5.919 -0.3552  1.3444 -0.8864
 1608SOL     OW16456   1.654   1.274   7.561  0.7104  0.0621 -0.1213
 1608SOL    HW116457   1.610   1.190   7.573 -0.6191  1.1359  2.5980
 1608SOL    HW216458   1.657   1.311   7.649  2.3420  1.0811 -0.6079
 1609SOL     OW16459   2.433   3.032   7.873 -0.1277 -0.3788  0.1377
 1609SOL    HW116460   2.374   3.103   7.899  0.3329 -0.0338  0.2313
 1609SOL    HW216461   2.495   3.032   7.946  0.2514 -1.2007 -0.1899
 1610SOL     OW16462   1.631   0.290   8.044  0.2517  0.0219 -0.6126
 1610SOL    HW116463   1.669   0.378   8.043 -0.5867  0.3694 -1.6481
 1610SOL    HW216464   1.704   0.234   8.072 -1.7053 -1.9017  0.5452
 1611SOL     OW16465   1.799   1.858   7.058 -0.2364  0.3906 -0.2500
 1611SOL    HW116466   1.810   1.932   6.998 -2.3417  0.9629  0.0515
 1611SOL    HW216467   1.881   1.849   7.106  0.0822  0.1350 -0.8550
 1612SOL     OW16468   2.746   1.670   3.225  0.5601 -0.0745 -0.3563
 1612SOL    HW116469   2.730   1.738   3.159  1.6728  0.8776  0.3539
 1612SOL    HW216470   2.834   1.637   3.203  0.5482 -0.9537  0.9485
 1613SOL     OW16471   4.576   0.949   3.211 -0.6767  0.2436  0.0052
 1613SOL    HW116472   4.591   0.944   3.116 -2.2543  0.1818 -0.2546
 1613SOL    HW216473   4.650   0.894   3.236 -2.1611 -1.2071  1.1850
 1614SOL     OW16474   3.710   4.300   3.284  0.2351  0.3397 -0.3275
 1614SOL    HW116475   3.786   4.277   3.231 -1.3112  0.4211 -2.6157
 1614SOL    HW216476   3.641   4.254   3.236  2.8082 -2.4156 -1.3860
 1615SOL     OW16477   0.750   0.935   1.689 -0.1177 -0.6145 -0.3053
 1615SOL    HW116478   0.813   0.965   1.623  0.2535  0.6239  0.6244
 1615SOL    HW216479   0.768   0.841   1.692  2.1766 -0.1151  0.9424
 1616SOL     OW16480   4.688   2.663   2.660 -0.1779  0.2577 -0.2504
 1616SOL    HW116481   4.729   2.673   2.746 -1.9677 -3.7024  1.0795
 1616SOL    HW216482   0.017   2.687   2.600  1.0687  0.0307  1.1207
 1617SOL     OW16483   3.322   0.690   6.511  0.6208  0.4101  0.4477
 1617SOL    HW116484   3.348   0.609   6.555 -1.3899 -0.3268  0.2991
 1617SOL    HW216485   3.334   0.759   6.576  0.3336 -0.6737  1.6660
 1618SOL     OW16486   4.693   3.574   2.497 -0.2818  0.1501 -0.2026
 1618SOL    HW116487   4.620   3.624   2.533 -0.2031 -0.9845  1.5051
 1618SOL    HW216488   4.669   3.563   2.406  0.3240 -0.6095 -0.2683
 1619SOL     OW16489   0.059   3.874   8.137  0.5848 -0.0158 -0.0640
 1619SOL    HW116490   4.718   3.834   8.111 -1.9532  3.8024  2.1610
 1619SOL    HW216491   0.112   3.864   8.058  0.4069  0.1410 -0.2040
 1620SOL     OW16492   3.122   3.116  10.660 -0.0766 -0.3207  0.3724
 1620SOL    HW116493   3.128   3.048  10.728  1.5122 -0.6556 -0.1061
 1620SOL    HW216494   3.135   3.192  10.716 -0.0034 -0.6670  0.8257
 1621SOL     OW16495   4.328   4.492   7.413  0.1691 -0.1812 -0.2384
 1621SOL    HW116496   4.421   4.470   7.403  0.5256  0.6657  1.2308
 1621SOL    HW216497   4.313   4.525   7.324 -0.0351  1.2019  0.3212
 1622SOL     OW16498   4.146   3.917   4.623 -0.0267  0.1477  0.1969
 1622SOL    HW116499   4.128   3.980   4.554  1.7597  0.3061 -0.1399
 1622SOL    HW216500   4.107   3.954   4.702 -0.8551 -2.2030  0.8799
 1623SOL     OW16501   4.047   3.917   0.641 -0.2325 -0.2940 -0.4658
 1623SOL    HW116502   3.964   3.868   0.636  1.0701 -2.8779  3.0725
 1623SOL    HW216503   4.067   3.934   0.549 -1.5985  0.9284 -0.5372
 1624SOL     OW16504   1.314   4.147   9.396 -0.0196 -0.1967 -0.4381
 1624SOL    HW116505   1.229   4.104   9.400  0.2611 -0.8491 -1.5088
 1624SOL    HW216506   1.321   4.184   9.484  2.5010  1.3238 -1.2658
 1625SOL     OW16507   4.237   0.232   4.324 -0.0606 -0.1965  0.1554
 1625SOL    HW116508   4.198   0.175   4.389 -2.6785 -1.2778 -2.3949
 1625SOL    HW216509   4.303   0.178   4.280  0.6044  0.2853  0.5458
 1626SOL     OW16510   2.977   1.921   3.325 -0.3676 -0.1070  0.0454
 1626SOL    HW116511   2.886   1.931   3.298  0.0215  0.6641 -0.9798
 1626SOL    HW216512   3.027   1.892   3.249 -1.0177 -1.9526  0.3316
 1627SOL     OW16513   1.699   1.351   0.973 -0.3749  0.5564 -0.0910
 1627SOL    HW116514   1.753   1.427   0.995 -0.9132  1.3774 -1.6014
 1627SOL    HW216515   1.654   1.380   0.893  3.3055  3.4374 -1.0899
 1628SOL     OW16516   1.640   2.033   4.797 -0.6605 -0.3122  0.0739
 1628SOL    HW116517   1.729   2.061   4.776 -1.1937  1.4036  0.1017
 1628SOL    HW216518   1.588   2.108   4.769 -1.4505 -1.5975 -1.8630
 1629SOL     OW16519   1.860   2.076   7.499 -0.1837 -0.1988 -0.1894
 1629SOL    HW116520   1.872   2.111   7.588 -0.5753  0.1898 -0.2921
 1629SOL    HW216521   1.808   2.148   7.466  1.0347  1.3439  1.2569
 1630SOL     OW16522   1.013   3.060  11.531  0.2340 -0.2224 -0.1791
 1630SOL    HW116523   1.090   3.009  11.556  0.6669  0.3268 -0.3819
 1630SOL    HW216524   1.049   3.148  11.516  1.6131 -0.6174  0.7376
 1631SOL     OW16525   2.115   0.530   4.332 -0.5354 -0.0572  0.8558
 1631SOL    HW116526   2.101   0.469   4.260  0.8379  0.6233  0.0076
 1631SOL    HW216527   2.035   0.521   4.383 -1.3355  0.8638 -0.2330
 1632SOL     OW16528   3.007   2.379   6.037 -0.2196 -0.2693 -0.0824
 1632SOL    HW116529   3.065   2.376   5.961  2.5403 -1.8733  2.0815
 1632SOL    HW216530   2.950   2.453   6.019 -1.3183 -1.3668 -1.1608
 1633SOL     OW16531   4.518   2.668  13.284 -0.0121 -0.0891 -0.4046
 1633SOL    HW116532   4.521   2.594  13.344  0.8094 -0.1715 -0.5427
 1633SOL    HW216533   4.440   2.707  13.323  0.1883 -0.9960  0.9025
 1634SOL     OW16534   2.262   1.479   3.114 -0.2053  0.4771  0.4421
 1634SOL    HW116535   2.293   1.411   3.055 -2.7295  0.8092 -1.2217
 1634SOL    HW216536   2.192   1.431   3.157 -0.0526  1.0319  1.3198
 1635SOL     OW16537   2.518   2.204   8.150  0.5540  1.1274 -0.2786
 1635SOL    HW116538   2.531   2.110   8.137 -1.2221  0.5769  1.9154
 1635SOL    HW216539   2.607   2.229   8.126  0.6100 -0.6993 -1.9870
 1636SOL     OW16540   4.041   3.404   3.727  0.4549 -0.3123 -0.0002
 1636SOL    HW116541   4.049   3.481   3.671  0.1057 -0.1378  0.1894
 1636SOL    HW216542   4.016   3.446   3.809  0.9628 -0.1368  0.0665
 1637SOL     OW16543   1.933   4.541   9.247  0.4877  0.2647 -0.0842
 1637SOL    HW116544   1.865   4.502   9.193  0.0276 -0.4255  1.0119
 1637SOL    HW216545   1.892   4.627   9.251  0.1257  0.1445 -1.2896
 1638SOL     OW16546   3.060   2.123   4.126 -0.1255  0.0924  0.1056
 1638SOL    HW116547   2.984   2.174   4.099  0.1237  0.1711 -0.4605
 1638SOL    HW216548   3.127   2.176   4.082 -2.4301  1.9960 -1.1112
 1639SOL     OW16549   0.938   1.602   9.224  0.7268  0.0478  0.3909
 1639SOL    HW116550   1.014   1.652   9.251  0.1981  1.4808 -0.7607
 1639SOL    HW216551   0.907   1.567   9.307  0.5870  1.3754  0.8907
 1640SOL     OW16552   1.861   4.192  14.193  0.0427  1.0134  0.3238
 1640SOL    HW116553   1.857   4.287  14.184 -0.0192  0.7764 -1.9981
 1640SOL    HW216554   1.786   4.160  14.243  0.7924 -0.6147  0.4221
 1641SOL     OW16555   2.197   4.421   9.225  0.0425 -0.8467  0.1674
 1641SOL    HW116556   2.188   4.422   9.130 -3.2802 -3.0288  0.4704
 1641SOL    HW216557   2.104   4.415   9.245  0.2268 -0.7403  1.0862
 1642SOL     OW16558   2.754   1.808   6.951 -0.0631 -0.4117  0.1589
 1642SOL    HW116559   2.728   1.895   6.983  1.0813  0.6860 -1.8948
 1642SOL    HW216560   2.747   1.753   7.029 -0.2242 -3.5657 -2.0623
 1643SOL     OW16561   0.116   4.682  14.177  0.0913  0.2459  0.3521
 1643SOL    HW116562   0.129   4.590  14.197 -1.9752 -0.4524 -1.5029
 1643SOL    HW216563   0.151   4.670  14.088 -1.5893  2.5160 -0.6097
 1644SOL     OW16564   0.220   0.657   3.067 -0.3615  0.1403  0.2474
 1644SOL    HW116565   0.217   0.741   3.022  2.2057  0.2138  0.1600
 1644SOL    HW216566   0.145   0.609   3.032  1.1430 -2.1795  0.2005
 1645SOL     OW16567   4.223   4.340   5.255  0.0018  0.4185  0.1950
 1645SOL    HW116568   4.231   4.304   5.166 -3.4267 -0.2987  0.1814
 1645SOL    HW216569   4.203   4.431   5.232 -0.3738  0.6805  1.5824
 1646SOL     OW16570   4.161   3.740   2.176  0.3972  0.0415  0.3155
 1646SOL    HW116571   4.101   3.710   2.245 -0.9382  0.9024 -0.4817
 1646SOL    HW216572   4.119   3.824   2.164  0.4817 -0.1295 -1.1229
 1647SOL     OW16573   0.868   0.163   9.951  0.0306 -0.2196 -0.0801
 1647SOL    HW116574   0.851   0.110  10.029 -0.7057 -1.0140 -0.7793
 1647SOL    HW216575   0.879   0.090   9.890 -2.2765 -0.7539  0.1437
 1648SOL     OW16576   3.499   3.215   4.817 -0.2504 -0.1075 -0.0832
 1648SOL    HW116577   3.448   3.144   4.780  0.6762 -1.3667  1.0643
 1648SOL    HW216578   3.564   3.161   4.862  0.2241  0.1772 -0.4387
 1649SOL     OW16579   0.530   0.478   4.931  0.1442 -0.3311  0.0628
 1649SOL    HW116580   0.438   0.472   4.904 -0.6773 -1.3301  3.0293
 1649SOL    HW216581   0.577   0.552   4.895 -0.4436  0.1916  0.3616
 1650SOL     OW16582   1.290   3.217   2.955 -0.4355 -0.0266  0.3078
 1650SOL    HW116583   1.321   3.216   2.865 -0.0493  1.6241  0.4229
 1650SOL    HW216584   1.375   3.187   2.989 -0.6907 -0.9182  0.1560
 1651SOL     OW16585   0.787   3.686   3.481 -0.4394 -0.6496 -0.4138
 1651SOL    HW116586   0.715   3.663   3.540 -2.4259 -0.2662 -2.6805
 1651SOL    HW216587   0.756   3.769   3.445 -0.3000 -0.0918  0.7663
 1652SOL     OW16588   1.894   4.392   3.247 -0.3017  0.2320 -0.5651
 1652SOL    HW116589   1.944   4.448   3.307  0.3239  0.8122 -1.6207
 1652SOL    HW216590   1.893   4.316   3.306  0.5130 -0.0030 -0.8431
 1653SOL     OW16591   3.405   1.130   2.616  0.0297  0.3645 -0.4190
 1653SOL    HW116592   3.450   1.207   2.581 -0.8695  1.3578  0.6209
 1653SOL    HW216593   3.331   1.139   2.556  0.4684  1.3501 -0.8203
 1654SOL     OW16594   4.687   3.733   2.820  0.1341 -0.1851 -0.5187
 1654SOL    HW116595   4.609   3.695   2.780 -1.5532  2.9789 -0.3072
 1654SOL    HW216596   4.692   3.826   2.797  1.5659  0.3139  1.7857
 1655SOL     OW16597   4.660   2.156   2.017 -0.1966  0.3647 -0.2114
 1655SOL    HW116598   4.700   2.160   2.104  0.3276 -0.1917 -0.4227
 1655SOL    HW216599   4.627   2.066   2.008 -1.3666  1.0201 -2.5927
 1656SOL     OW16600   3.887   0.725   4.655 -0.2522 -0.9819  0.9244
 1656SOL    HW116601   3.931   0.803   4.686  1.2415 -1.2022 -0.6833
 1656SOL    HW216602   3.810   0.728   4.713 -0.8395  2.4252 -0.0167
 1657SOL     OW16603   1.398   3.000   8.057 -0.6251  0.1126  0.0152
 1657SOL    HW116604   1.356   3.085   8.050 -0.8099  0.3331  3.5545
 1657SOL    HW216605   1.328   2.940   8.084 -0.0151 -0.5558  0.1127
 1658SOL     OW16606   4.333   1.274   2.187 -0.3779  0.2167 -0.3933
 1658SOL    HW116607   4.241   1.285   2.213  0.0829 -1.1996  1.8200
 1658SOL    HW216608   4.338   1.179   2.178 -0.8196  0.2719 -1.1770
 1659SOL     OW16609   0.524   0.743   7.668 -0.2265  0.1864 -0.3483
 1659SOL    HW116610   0.436   0.761   7.701  0.5152  1.7045  0.8240
 1659SOL    HW216611   0.574   0.768   7.746  0.8681  0.5322 -1.1695
 1660SOL     OW16612   4.173   4.242   7.197  0.0055 -0.1557 -0.3868
 1660SOL    HW116613   4.142   4.182   7.265  0.7818  1.1784  1.1473
 1660SOL    HW216614   4.267   4.226   7.206  0.1585  0.0387 -1.6407
 1661SOL     OW16615   2.056   1.491  15.325  0.6402 -0.4859 -0.2580
 1661SOL    HW116616   2.072   1.544  15.246  1.3533  0.8331  0.7717
 1661SOL    HW216617   2.040   1.405  15.286 -1.2217 -0.3356  0.2185
 1662SOL     OW16618   1.226   3.392   4.836  0.1251  0.0608 -0.1259
 1662SOL    HW116619   1.271   3.412   4.754 -0.0753 -0.7566 -0.4395
 1662SOL    HW216620   1.208   3.299   4.825  2.8088 -0.7637  2.4419
 1663SOL     OW16621   2.459   0.266   6.519  0.6348  0.4933 -0.5672
 1663SOL    HW116622   2.501   0.308   6.444  0.4257  1.3784 -0.1829
 1663SOL    HW216623   2.539   0.230   6.557  0.3649  0.8837  0.3636
 1664SOL     OW16624   0.847   3.159   5.614  0.5473  0.0121  0.1527
 1664SOL    HW116625   0.763   3.185   5.651  0.3882  0.6606 -0.6692
 1664SOL    HW216626   0.833   3.154   5.520  2.2497 -1.1919 -0.0578
 1665SOL     OW16627   2.635   0.732   8.702 -0.0861  0.4546  0.5397
 1665SOL    HW116628   2.650   0.826   8.695 -2.0083  0.7242  0.0764
 1665SOL    HW216629   2.724   0.697   8.710 -0.6005 -1.5263 -2.4950
 1666SOL     OW16630   2.272   3.718  13.078 -0.0194 -0.1455 -0.3766
 1666SOL    HW116631   2.190   3.767  13.080 -0.7387 -1.3071 -1.5776
 1666SOL    HW216632   2.277   3.688  13.169 -1.3242  1.4534  0.2146
 1667SOL     OW16633   2.021   4.647   3.296  0.2352  0.6674 -0.0041
 1667SOL    HW116634   2.053   4.691   3.217 -1.5798  1.1270 -0.4826
 1667SOL    HW216635   2.096   4.628   3.353  0.4748  0.5080 -0.3704
 1668SOL     OW16636   2.847   0.450   3.936 -0.6174 -0.2341 -0.7646
 1668SOL    HW116637   2.849   0.501   3.855  0.9623  3.0301  1.3070
 1668SOL    HW216638   2.892   0.370   3.910  0.7356 -0.4469  2.2326
 1669SOL     OW16639   1.882   1.179  17.649 -0.3007  0.0719 -0.3255
 1669SOL    HW116640   1.960   1.187  17.704 -0.1484 -0.0344 -0.5265
 1669SOL    HW216641   1.826   1.252  17.675  1.8084  1.1387  1.1911
 1670SOL     OW16642   2.164   1.579   9.881  0.0315  0.1402  0.1101
 1670SOL    HW116643   2.088   1.630   9.909  0.2002  1.2336 -1.4611
 1670SOL    HW216644   2.136   1.493   9.913  0.0651 -0.5595 -1.7155
 1671SOL     OW16645   4.135   3.223  11.854  0.0530  0.2207  0.3705
 1671SOL    HW116646   4.223   3.200  11.826  0.3554  0.1782  1.3845
 1671SOL    HW216647   4.124   3.162  11.927 -0.8457 -1.3068 -1.0403
 1672SOL     OW16648   0.704   1.796   8.446 -1.0143 -0.5805  0.3764
 1672SOL    HW116649   0.784   1.777   8.496 -0.4746 -1.5179 -0.8482
 1672SOL    HW216650   0.680   1.883   8.479 -0.6218 -0.4779  0.3872
 1673SOL     OW16651   2.452   3.889   5.025  0.0524  0.6065 -0.1009
 1673SOL    HW116652   2.489   3.820   5.080 -0.2772 -1.1550 -2.0518
 1673SOL    HW216653   2.370   3.848   4.996  0.1465 -0.6286  1.3747
 1674SOL     OW16654   2.172   2.191  11.970  0.4027 -0.1759  0.0058
 1674SOL    HW116655   2.115   2.115  11.964  0.3708 -0.1705  0.2624
 1674SOL    HW216656   2.139   2.236  11.891  0.4593  0.4170  0.3158
 1675SOL     OW16657   0.496   1.303   5.412  0.7352  0.6854 -0.0234
 1675SOL    HW116658   0.415   1.320   5.364 -0.1366  1.7509  1.8357
 1675SOL    HW216659   0.490   1.209   5.428 -0.8493  0.9182  0.7274
 1676SOL     OW16660   1.409   3.580   1.014  0.1331 -0.0367  0.5429
 1676SOL    HW116661   1.374   3.631   1.086 -2.4284 -0.8236 -0.1297
 1676SOL    HW216662   1.347   3.507   1.010 -0.6583  0.4247  4.2186
 1677SOL     OW16663   1.135   4.537   9.196  0.4875 -0.1376 -0.0771
 1677SOL    HW116664   1.229   4.547   9.209  0.2761  0.3857  0.9650
 1677SOL    HW216665   1.118   4.587   9.116 -0.4706 -0.7355 -0.2498
 1678SOL     OW16666   0.282   4.067   8.882 -0.6918 -0.4256 -0.4935
 1678SOL    HW116667   0.281   4.132   8.812  2.4874  1.6641  1.3843
 1678SOL    HW216668   0.375   4.048   8.895 -0.3002  0.8542 -1.3918
 1679SOL     OW16669   0.169   0.272  16.672  0.0399 -0.0598  0.1867
 1679SOL    HW116670   0.229   0.220  16.725  0.1391 -1.3686 -1.2056
 1679SOL    HW216671   0.224   0.295  16.597  1.1565 -0.8809  0.7608
 1680SOL     OW16672   4.275   1.725   7.327 -0.2345  0.4459 -0.0320
 1680SOL    HW116673   4.205   1.732   7.393 -0.8940 -1.7855 -0.5070
 1680SOL    HW216674   4.228   1.676   7.260  0.4680 -1.8358  1.1288
 1681SOL     OW16675   1.341   4.050   5.136  0.8839  1.2444  0.1119
 1681SOL    HW116676   1.329   4.120   5.200  1.1283  2.1320 -0.8100
 1681SOL    HW216677   1.420   4.082   5.094  0.3145 -0.8444 -2.5728
 1682SOL     OW16678   2.402   0.459   6.894  0.2294  0.1940  0.4034
 1682SOL    HW116679   2.319   0.415   6.878  0.4149  0.6679 -1.9532
 1682SOL    HW216680   2.379   0.545   6.929 -0.1203 -0.2546  1.2501
 1683SOL     OW16681   4.346   0.577   2.508 -0.0792 -0.1310  0.2162
 1683SOL    HW116682   4.259   0.607   2.482  0.8411  1.3188 -1.1613
 1683SOL    HW216683   4.353   0.596   2.601 -1.5043  0.4849  0.1980
 1684SOL     OW16684   3.026   4.443   4.918  0.0352  0.3234 -0.1263
 1684SOL    HW116685   2.974   4.384   4.973  1.5164 -1.8370 -1.0355
 1684SOL    HW216686   3.023   4.385   4.842  0.2403 -0.7347  0.6763
 1685SOL     OW16687   3.650   0.277   4.998  0.2675 -0.2476 -0.3898
 1685SOL    HW116688   3.589   0.205   5.015  0.5058 -0.1130  0.9946
 1685SOL    HW216689   3.636   0.298   4.906  3.5594 -1.0083 -1.0836
 1686SOL     OW16690   2.322   2.623   4.117 -0.1808  0.7370 -0.5097
 1686SOL    HW116691   2.345   2.532   4.134  2.3361  1.0802 -2.1697
 1686SOL    HW216692   2.375   2.628   4.038  1.8947  2.1153  0.9650
 1687SOL     OW16693   3.834   3.678   5.549 -0.0300  0.3536 -0.8253
 1687SOL    HW116694   3.747   3.712   5.528  1.8423  4.3514 -2.1298
 1687SOL    HW216695   3.887   3.757   5.548  0.1070  0.2590 -0.9430
 1688SOL     OW16696   1.913   3.553   6.607  0.0631 -0.3643  0.1478
 1688SOL    HW116697   1.982   3.495   6.640  0.4825  0.2559  0.3439
 1688SOL    HW216698   1.865   3.567   6.689 -0.7082 -0.5691 -0.2612
 1689SOL     OW16699   4.101   4.423   4.127  0.3089 -0.2308 -0.0400
 1689SOL    HW116700   4.069   4.504   4.087 -1.6257  0.0164  2.0484
 1689SOL    HW216701   4.016   4.382   4.145  0.5469 -1.2725 -1.2574
 1690SOL     OW16702   3.964   4.289   3.159  0.0489 -0.2406 -0.2956
 1690SOL    HW116703   3.976   4.372   3.112  1.0014 -0.1745  0.0509
 1690SOL    HW216704   3.945   4.219   3.096 -0.3300 -0.0395 -0.4018
 1691SOL     OW16705   0.489   0.920  14.991  0.0237  0.4331 -0.0967
 1691SOL    HW116706   0.572   0.968  14.993 -0.1760  0.7399  0.7389
 1691SOL    HW216707   0.479   0.895  15.082 -0.8251  0.2806 -0.2299
 1692SOL     OW16708   1.191   3.727   2.915 -0.3551 -0.0776  0.4582
 1692SOL    HW116709   1.096   3.725   2.903 -0.3815  0.5691  0.5477
 1692SOL    HW216710   1.203   3.650   2.970 -1.9563  1.6550  3.2529
 1693SOL     OW16711   2.135   2.207   1.762  0.0341 -0.4140 -0.0183
 1693SOL    HW116712   2.169   2.243   1.844 -2.1922  1.3945  0.1121
 1693SOL    HW216713   2.146   2.283   1.704  0.2689 -0.9225 -0.6378
 1694SOL     OW16714   0.818   0.376   5.401  0.2748 -0.3682 -0.4272
 1694SOL    HW116715   0.876   0.375   5.325 -1.7496 -1.8663 -1.9650
 1694SOL    HW216716   0.824   0.469   5.423  1.1789 -0.2775 -1.0792
 1695SOL     OW16717   0.682   1.854   8.797 -0.1993  0.6865  0.0907
 1695SOL    HW116718   0.710   1.835   8.886 -1.8811 -1.1479  0.2292
 1695SOL    HW216719   0.588   1.865   8.809 -0.3219 -1.6477  1.2706
 1696SOL     OW16720   2.965   1.575   4.733  0.4471  0.0526  0.5717
 1696SOL    HW116721   2.958   1.669   4.751  1.8559  0.1291  0.7472
 1696SOL    HW216722   3.046   1.554   4.779  1.2000 -0.2740 -0.9020
 1697SOL     OW16723   3.633   2.533   5.753 -0.7130  0.1150 -0.0417
 1697SOL    HW116724   3.614   2.610   5.806 -1.0212  0.4943 -0.7096
 1697SOL    HW216725   3.592   2.561   5.671 -1.1694 -2.7444 -0.7901
 1698SOL     OW16726   0.810   1.959   2.916  0.5000  0.0804 -0.2702
 1698SOL    HW116727   0.783   1.979   3.006 -0.1037 -0.6226 -0.2907
 1698SOL    HW216728   0.728   1.920   2.884  0.5382  0.3396 -0.6879
 1699SOL     OW16729   3.941   3.735   3.094  0.0501 -0.0516  0.2198
 1699SOL    HW116730   3.903   3.647   3.099 -0.0617  0.0536  1.2820
 1699SOL    HW216731   3.986   3.723   3.011  1.5634 -1.2227  1.2125
 1700SOL     OW16732   2.611   0.260   8.474  0.0544  0.5981 -0.0658
 1700SOL    HW116733   2.538   0.278   8.415 -0.8279  0.9849  1.1414
 1700SOL    HW216734   2.658   0.189   8.430  0.4134  0.8592 -0.1004
 1701SOL     OW16735   0.705   1.016   4.799 -0.2684 -0.1364 -0.3076
 1701SOL    HW116736   0.627   1.013   4.745 -1.5187 -0.4868  1.5086
 1701SOL    HW216737   0.737   1.107   4.797 -0.3268 -0.1910 -3.4371
 1702SOL     OW16738   3.859   4.176   3.767 -0.3522  0.2586  0.0617
 1702SOL    HW116739   3.918   4.108   3.800 -0.4701 -0.0589 -0.3799
 1702SOL    HW216740   3.925   4.236   3.731 -1.6340  0.4410 -1.9523
 1703SOL     OW16741   1.867   3.879   7.298 -0.3971  0.1665 -0.1805
 1703SOL    HW116742   1.887   3.919   7.383  0.8904  1.9033 -1.3052
 1703SOL    HW216743   1.926   3.803   7.300  1.7193  1.7824 -1.5474
 1704SOL     OW16744   2.391   2.084   2.960 -0.4187  0.4144  0.6279
 1704SOL    HW116745   2.386   1.990   2.946  0.9234  0.6815 -1.6071
 1704SOL    HW216746   2.469   2.108   2.910  0.2545  0.1252  1.5397
 1705SOL     OW16747   0.784   4.143   4.235 -0.7208  0.3453 -0.1064
 1705SOL    HW116748   0.849   4.191   4.184 -0.4514  0.8473  0.7032
 1705SOL    HW216749   0.827   4.147   4.321  1.3589  0.5497 -1.1537
 1706SOL     OW16750   3.272   0.231   0.749  0.1201 -0.0434  0.2594
 1706SOL    HW116751   3.326   0.152   0.750 -0.2015 -0.2669 -0.6343
 1706SOL    HW216752   3.329   0.295   0.707 -0.0978  0.5094  0.8142
 1707SOL     OW16753   2.073   4.488  15.964  0.0177  0.4940  0.3430
 1707SOL    HW116754   2.044   4.563  15.911 -1.3081 -0.1409  0.1583
 1707SOL    HW216755   2.166   4.501  15.949 -0.0604  1.6897  0.8369
 1708SOL     OW16756   4.712   0.443   9.491  0.0163 -0.0646 -0.3046
 1708SOL    HW116757   4.689   0.533   9.468 -0.4970  0.7264  3.1694
 1708SOL    HW216758   4.647   0.392   9.443 -0.9511  2.3017 -1.4995
 1709SOL     OW16759   1.264   3.385   6.454 -0.3619 -0.1796 -0.1476
 1709SOL    HW116760   1.275   3.411   6.363 -1.4632 -1.8123 -0.7540
 1709SOL    HW216761   1.233   3.462   6.501 -0.7581  0.4441 -1.4365
 1710SOL     OW16762   2.718   4.440   7.770 -0.2435  0.2578 -0.0922
 1710SOL    HW116763   2.653   4.468   7.835 -1.1024 -0.0231 -0.8448
 1710SOL    HW216764   2.799   4.415   7.815 -0.0977  1.4538  0.3020
 1711SOL     OW16765   0.615   0.993  13.388  0.4962  0.0487 -0.0609
 1711SOL    HW116766   0.682   0.958  13.329  0.4429 -1.4307  0.7505
 1711SOL    HW216767   0.664   0.980  13.469 -1.2098  0.1419  0.9808
 1712SOL     OW16768   0.013   1.675  14.162 -0.7205  0.2718 -0.6485
 1712SOL    HW116769   0.020   1.705  14.071 -0.2440 -0.3911 -0.8227
 1712SOL    HW216770   0.034   1.585  14.140 -1.9090  0.1766 -1.4146
 1713SOL     OW16771   4.164   3.495   5.538 -0.4186  0.2693  0.4927
 1713SOL    HW116772   4.108   3.423   5.567  0.5526 -1.2271 -1.3145
 1713SOL    HW216773   4.108   3.537   5.472  0.2346 -0.4214 -0.4954
 1714SOL     OW16774   1.997   3.606   2.988  0.0041 -0.0987 -0.2021
 1714SOL    HW116775   2.000   3.694   2.951 -2.5230 -0.7156 -1.8143
 1714SOL    HW216776   1.904   3.592   2.975 -0.2870 -0.4077  2.1421
 1715SOL     OW16777   1.175   3.463   9.493  0.5246  0.0592 -0.3772
 1715SOL    HW116778   1.204   3.538   9.545 -0.0926 -0.3834  0.5910
 1715SOL    HW216779   1.088   3.461   9.533  1.1290  0.8256  0.9571
 1716SOL     OW16780   4.513   4.119   5.551  0.1813 -0.3825  0.6345
 1716SOL    HW116781   4.586   4.145   5.494 -0.4493  3.0171  1.3609
 1716SOL    HW216782   4.454   4.073   5.491  2.0252  0.3851 -1.8027
 1717SOL     OW16783   0.319   2.961  17.497 -0.2807  0.0311 -0.0158
 1717SOL    HW116784   0.345   3.025  17.431  0.1228  0.0358  0.1462
 1717SOL    HW216785   0.268   2.900  17.443  2.7530 -2.2285 -0.3260
 1718SOL     OW16786   4.565   0.685   7.064 -0.1906 -0.5120  0.0316
 1718SOL    HW116787   4.481   0.682   7.018  0.6341  1.9176 -1.6171
 1718SOL    HW216788   4.583   0.592   7.080  0.4273 -0.0701  1.9083
 1719SOL     OW16789   3.105   3.605   7.353 -0.1512  0.4237  0.3015
 1719SOL    HW116790   3.115   3.700   7.350  0.3712  0.3786  0.6624
 1719SOL    HW216791   3.027   3.582   7.403 -0.5823 -1.4936 -1.2328
 1720SOL     OW16792   1.409   4.101   1.695  0.2597  0.2010  0.1137
 1720SOL    HW116793   1.426   4.025   1.752  0.0342 -0.4622 -0.7100
 1720SOL    HW216794   1.328   4.071   1.654 -0.6131 -0.6447  2.4393
 1721SOL     OW16795   2.963   3.267   1.716 -0.6213  0.4481  0.4827
 1721SOL    HW116796   2.946   3.174   1.711 -1.9318  0.6749  0.8600
 1721SOL    HW216797   3.058   3.273   1.727 -0.9022  3.0857  1.4984
 1722SOL     OW16798   1.488   0.988  14.880 -0.0561  0.0000  0.3566
 1722SOL    HW116799   1.495   1.038  14.799 -3.4220  0.8309  0.5636
 1722SOL    HW216800   1.489   1.053  14.950  1.4077  1.4804 -1.0233
 1723SOL     OW16801   4.228   2.234   5.487 -0.0906 -0.5601 -0.4361
 1723SOL    HW116802   4.280   2.168   5.442  0.2715  1.0478 -2.3243
 1723SOL    HW216803   4.247   2.220   5.580  0.1498  1.7672 -0.1485
 1724SOL     OW16804   1.793   3.025   5.730  0.5993  0.7291 -0.5656
 1724SOL    HW116805   1.822   3.100   5.678 -2.5591  2.5058  0.2531
 1724SOL    HW216806   1.704   3.054   5.746  0.4719 -0.2794  0.5539
 1725SOL     OW16807   1.907   3.569   4.085  0.6757 -0.4900  0.3165
 1725SOL    HW116808   1.977   3.587   4.021  0.6210  0.0269  0.4026
 1725SOL    HW216809   1.939   3.485   4.117 -0.2697 -0.0713  2.3262
 1726SOL     OW16810   1.912   4.629  10.375 -0.0475 -0.3953  0.4847
 1726SOL    HW116811   1.916   4.712  10.423 -0.0999 -0.6297  0.8995
 1726SOL    HW216812   1.909   4.571  10.451 -2.1067  0.3744  0.9803
 1727SOL     OW16813   3.628   1.284   4.672  0.1531  0.1976  0.0076
 1727SOL    HW116814   3.630   1.195   4.708 -1.1820 -0.6632 -1.9920
 1727SOL    HW216815   3.631   1.339   4.749 -0.6800  0.6582 -0.2981
 1728SOL     OW16816   1.336   3.347  15.542 -0.4505  0.4934 -0.2215
 1728SOL    HW116817   1.400   3.358  15.472  0.0592 -0.5796  0.0800
 1728SOL    HW216818   1.255   3.328  15.494 -1.1203  0.9948  0.7041
 1729SOL     OW16819   3.818   0.085   4.737 -0.1818  0.1017  0.6021
 1729SOL    HW116820   3.748   0.031   4.700  0.6480  0.2533 -1.2221
 1729SOL    HW216821   3.893   0.027   4.753  0.2654  0.6657  0.5404
 1730SOL     OW16822   3.804   1.823   4.904 -0.6672 -0.1752  0.0502
 1730SOL    HW116823   3.839   1.743   4.944 -0.4931 -0.7456 -1.2374
 1730SOL    HW216824   3.877   1.847   4.846  0.1186 -0.0916  1.0621
 1731SOL     OW16825   0.572   4.041   7.485  0.3566  0.5940 -0.3392
 1731SOL    HW116826   0.668   4.041   7.474  0.4782  2.2807  0.8163
 1731SOL    HW216827   0.545   4.026   7.395 -2.8148 -3.1027  1.2072
 1732SOL     OW16828   4.006   3.591   3.928  0.2978  0.0857  0.3279
 1732SOL    HW116829   4.078   3.609   3.988 -0.6560 -1.4747  1.8991
 1732SOL    HW216830   3.931   3.575   3.985 -0.6391  0.8640 -0.6627
 1733SOL     OW16831   1.016   1.189   5.604  0.5034  0.5377 -0.1797
 1733SOL    HW116832   1.071   1.233   5.539  0.6643 -0.2886 -0.5985
 1733SOL    HW216833   1.026   1.100   5.573 -1.6231  0.1528  0.2201
 1734SOL     OW16834   2.172   4.125   7.712 -0.2964 -0.0927  0.1740
 1734SOL    HW116835   2.230   4.197   7.688 -0.5165  0.1464  0.3484
 1734SOL    HW216836   2.111   4.186   7.755 -0.5072  0.2883 -0.6743
 1735SOL     OW16837   3.473   0.987   0.236  0.0908  0.1122  0.4722
 1735SOL    HW116838   3.508   1.064   0.193 -1.7390  0.3932 -0.5005
 1735SOL    HW216839   3.447   0.932   0.162 -3.1092 -0.9382  2.3574
 1736SOL     OW16840   0.009   4.404   4.126 -0.1030  0.3689 -0.0634
 1736SOL    HW116841   0.088   4.361   4.094 -0.0018 -0.5281  1.3774
 1736SOL    HW216842   0.006   4.362   4.212 -1.2193  0.4695 -0.0606
 1737SOL     OW16843   0.229   3.587   9.629  0.4016 -0.4394  0.3644
 1737SOL    HW116844   0.179   3.669   9.629 -0.5449 -1.0423 -1.7630
 1737SOL    HW216845   0.188   3.538   9.700  2.2045 -1.7562  0.5015
 1738SOL     OW16846   2.803   3.211  11.646 -0.2637  0.4068  0.3200
 1738SOL    HW116847   2.764   3.241  11.564  0.5072 -2.1772 -0.9907
 1738SOL    HW216848   2.723   3.185  11.693 -0.1032 -0.5920  0.0437
 1739SOL     OW16849   2.389   2.938   3.690 -0.2808  0.7001  0.3770
 1739SOL    HW116850   2.443   3.010   3.722  1.3982 -0.0454 -0.7952
 1739SOL    HW216851   2.459   2.874   3.677  0.1161  1.0501  0.8002
 1740SOL     OW16852   2.092   2.734  16.487 -0.5252 -0.1410  0.6040
 1740SOL    HW116853   2.080   2.737  16.392 -2.9227 -0.6524  0.8981
 1740SOL    HW216854   2.177   2.773  16.506 -1.0343  0.5451  1.4206
 1741SOL     OW16855   3.095   2.203   7.992  0.2099 -0.2319  0.3780
 1741SOL    HW116856   3.053   2.280   8.032  1.4578 -1.0923  3.3550
 1741SOL    HW216857   3.158   2.177   8.059  0.4231  0.6000  0.5063
 1742SOL     OW16858   0.207   3.094  13.242 -0.2954 -0.1675  0.4476
 1742SOL    HW116859   0.194   3.008  13.200 -1.0495  0.4442 -0.5651
 1742SOL    HW216860   0.235   3.149  13.170  0.6236 -0.6482  0.4398
 1743SOL     OW16861   0.780   3.910   9.122 -0.5846 -0.4385  0.3175
 1743SOL    HW116862   0.853   3.890   9.064 -0.0189  0.2826  0.7716
 1743SOL    HW216863   0.770   3.834   9.180  0.3590  0.9397  2.2947
 1744SOL     OW16864   2.050   2.606  13.150  0.5991 -0.1967  0.1379
 1744SOL    HW116865   2.143   2.621  13.164  0.9004 -0.8317 -1.1512
 1744SOL    HW216866   2.054   2.525  13.098  0.1461  0.6722 -1.2278
 1745SOL     OW16867   3.234   3.952   8.371  0.3926 -0.2445  0.4098
 1745SOL    HW116868   3.259   3.884   8.433  2.1227 -0.4628 -0.5324
 1745SOL    HW216869   3.196   4.008   8.439  0.8701  0.7089 -0.1046
 1746SOL     OW16870   4.737   0.262   4.764  0.0412  0.0723  0.0685
 1746SOL    HW116871   4.643   0.249   4.754 -0.2437  1.5829  0.6608
 1746SOL    HW216872   0.004   0.358   4.767 -3.1861  0.3658 -0.2857
 1747SOL     OW16873   2.918   2.892  17.605  0.7747 -0.2743 -0.2472
 1747SOL    HW116874   3.013   2.890  17.591  0.9149  0.7488  0.5048
 1747SOL    HW216875   2.887   2.809  17.570  2.7340 -1.8236  1.6411
 1748SOL     OW16876   2.184   1.478   8.846 -0.2907 -0.4097 -0.5411
 1748SOL    HW116877   2.189   1.514   8.935  2.3333 -0.6872 -0.5899
 1748SOL    HW216878   2.088   1.475   8.838 -0.3556 -1.3328  0.6413
 1749SOL     OW16879   0.512   3.858  13.895  0.1732 -0.0853 -0.1478
 1749SOL    HW116880   0.533   3.791  13.960  0.8822 -0.0560 -0.3531
 1749SOL    HW216881   0.423   3.870  13.928  0.9185  3.2445  0.6844
 1750SOL     OW16882   4.304   4.513   0.109  0.0986 -0.1400  0.1078
 1750SOL    HW116883   4.267   4.596   0.079 -0.1055  0.3656  1.7481
 1750SOL    HW216884   4.230   4.452   0.108 -0.7703  0.9179 -0.7009
 1751SOL     OW16885   1.263   2.875  17.736  0.4927 -0.0583 -0.1514
 1751SOL    HW116886   1.168   2.886  17.737  0.6418  1.0644  1.4070
 1751SOL    HW216887   1.280   2.956  17.688 -0.7319  0.0812 -0.3521
 1752SOL     OW16888   1.312   0.147   1.941 -0.0745  0.3590  0.1302
 1752SOL    HW116889   1.219   0.148   1.920  0.5736  1.5494 -2.7246
 1752SOL    HW216890   1.355   0.103   1.868 -1.7543  0.4891 -0.9350
 1753SOL     OW16891   0.825   0.649   5.463 -0.4051  0.1509  0.0715
 1753SOL    HW116892   0.733   0.675   5.472 -0.3111  0.7834 -0.7674
 1753SOL    HW216893   0.865   0.685   5.542 -1.0774  0.0823  0.4425
 1754SOL     OW16894   2.316   1.282   9.320 -0.9210  0.4766  0.3847
 1754SOL    HW116895   2.295   1.293   9.228 -4.1659 -3.9163  0.5449
 1754SOL    HW216896   2.301   1.365   9.365 -0.8125  0.3584  0.6423
 1755SOL     OW16897   0.905   0.031   3.043  0.0992 -0.8410  0.1072
 1755SOL    HW116898   0.895   0.120   3.076  0.2613 -0.8028  0.0509
 1755SOL    HW216899   0.813   0.005   3.047 -0.9585  2.9265  0.3125
 1756SOL     OW16900   0.016   0.597   9.182  0.0471 -0.4447  0.0867
 1756SOL    HW116901   0.104   0.622   9.210  1.3869 -2.9823 -1.8467
 1756SOL    HW216902   0.039   0.518   9.133  1.9194  0.3295 -0.2567
 1757SOL     OW16903   1.730   3.194   2.667  0.5084  0.3891 -0.2857
 1757SOL    HW116904   1.815   3.238   2.659  1.1044 -1.1332 -2.4178
 1757SOL    HW216905   1.764   3.108   2.640  1.8064 -0.0000  2.5767
 1758SOL     OW16906   2.989   0.888   7.096 -0.8387 -0.0771 -0.0571
 1758SOL    HW116907   2.997   0.817   7.032 -1.4511  0.1392 -0.3710
 1758SOL    HW216908   2.894   0.900   7.104 -0.7728  0.5253 -0.2513
 1759SOL     OW16909   0.933   2.999   5.054 -0.2933  0.2352 -0.1286
 1759SOL    HW116910   0.945   3.076   4.999  0.2494 -0.4677 -0.9780
 1759SOL    HW216911   0.877   3.027   5.127  2.3917  0.5392  1.8014
 1760SOL     OW16912   2.135   1.903   4.679 -0.0135  0.2911  0.1097
 1760SOL    HW116913   2.218   1.864   4.651  0.2837  0.4313  0.7997
 1760SOL    HW216914   2.127   1.990   4.639 -1.7453 -0.1223 -0.4338
 1761SOL     OW16915   3.305   0.106   3.331 -0.2407 -0.2086 -0.0709
 1761SOL    HW116916   3.285   0.196   3.305 -0.4387 -0.0228  0.7123
 1761SOL    HW216917   3.217   0.072   3.343 -0.8314  0.4647 -2.5752
 1762SOL     OW16918   3.405   2.783   2.448  0.2120  0.4469  0.6974
 1762SOL    HW116919   3.493   2.807   2.477  0.9511 -0.2792 -0.9507
 1762SOL    HW216920   3.419   2.696   2.410 -0.6566  0.2619  0.7917
 1763SOL     OW16921   1.907   0.326   5.524  0.6210 -0.0691  0.2985
 1763SOL    HW116922   1.891   0.234   5.545  2.0412 -0.1949  0.8482
 1763SOL    HW216923   1.834   0.380   5.554 -0.7494  0.1408 -3.4164
 1764SOL     OW16924   1.615   2.197   7.813 -0.5807 -0.2855 -0.1331
 1764SOL    HW116925   1.707   2.185   7.791 -0.5169  0.1972 -0.1248
 1764SOL    HW216926   1.600   2.288   7.787  2.1321  0.2075  0.0753
 1765SOL     OW16927   1.786   3.891   3.136  0.3162  0.5376 -1.0059
 1765SOL    HW116928   1.757   3.800   3.128  1.1860  0.0265  1.6837
 1765SOL    HW216929   1.851   3.893   3.066  0.6018  2.3444 -0.6845
 1766SOL     OW16930   2.885   1.666  16.428  0.4007 -0.2066  0.0852
 1766SOL    HW116931   2.863   1.589  16.374 -0.0091  2.0210 -2.9086
 1766SOL    HW216932   2.978   1.675  16.407  0.7232 -2.7209  0.4013
 1767SOL     OW16933   0.231   4.112  12.219 -0.0638  0.1020  0.2589
 1767SOL    HW116934   0.271   4.082  12.137 -3.7835  1.4929 -2.1023
 1767SOL    HW216935   0.292   4.082  12.285 -0.2163  1.6897  1.1356
 1768SOL     OW16936   1.616   3.422   3.512 -0.2181 -0.1864 -0.2698
 1768SOL    HW116937   1.682   3.486   3.539 -0.6114  0.7548 -1.5478
 1768SOL    HW216938   1.557   3.422   3.587 -0.7465  1.8527 -0.7015
 1769SOL     OW16939   3.206   4.468   1.004  0.3565  0.0698 -0.3845
 1769SOL    HW116940   3.171   4.551   0.973  1.1642  0.6050  0.1153
 1769SOL    HW216941   3.190   4.410   0.930  0.1389  1.6278 -1.5725
 1770SOL     OW16942   1.448   3.207   2.736  0.4434  0.3326 -0.7814
 1770SOL    HW116943   1.523   3.154   2.763  1.2225  1.3725 -0.9122
 1770SOL    HW216944   1.474   3.226   2.646 -1.5381 -1.2924 -1.6952
 1771SOL     OW16945   2.603   0.036   0.212  0.1168 -0.2413 -0.1798
 1771SOL    HW116946   2.618   4.687   0.239 -0.4687  0.2577  1.7519
 1771SOL    HW216947   2.679   0.044   0.153  1.5807 -0.5364  1.6617
 1772SOL     OW16948   2.242   2.948  12.647  0.6944  0.0079  0.5923
 1772SOL    HW116949   2.260   2.927  12.555  2.7615 -0.8122  1.1780
 1772SOL    HW216950   2.177   2.880  12.664  1.2048 -0.5728  0.2538
 1773SOL     OW16951   4.105   0.847   2.235  0.2683  0.5018 -0.3230
 1773SOL    HW116952   4.043   0.841   2.162 -0.4730 -2.8379  0.6157
 1773SOL    HW216953   4.187   0.821   2.194  1.2323  0.7802  1.4708
 1774SOL     OW16954   0.956   3.776  12.196  0.2271  0.1273 -0.1659
 1774SOL    HW116955   0.995   3.839  12.256 -1.8916  1.2002  0.0995
 1774SOL    HW216956   1.003   3.694  12.212  0.7062  0.3736 -0.3072
 1775SOL     OW16957   4.378   2.576   3.102 -0.9804  0.1838 -0.1565
 1775SOL    HW116958   4.438   2.502   3.113 -1.5973 -0.4030 -0.7347
 1775SOL    HW216959   4.434   2.653   3.112  0.1410 -0.5134 -1.1192
 1776SOL     OW16960   0.373   3.962   2.417  0.3009 -0.4528 -0.1357
 1776SOL    HW116961   0.383   3.887   2.358 -2.3187  1.6573 -3.2626
 1776SOL    HW216962   0.320   3.917   2.484 -0.4167  1.6140  0.6653
 1777SOL     OW16963   1.947   0.948  15.288  0.1862  0.8304 -0.2469
 1777SOL    HW116964   1.863   0.913  15.258  1.2829 -0.8918 -1.2894
 1777SOL    HW216965   1.966   0.887  15.359 -1.3797 -0.9563 -1.3557
 1778SOL     OW16966   0.129   2.006   6.786  0.2554 -0.2012  0.6257
 1778SOL    HW116967   0.130   2.101   6.777  1.2537 -0.4217 -1.4714
 1778SOL    HW216968   0.038   1.987   6.764 -0.1166  1.5176  0.6660
 1779SOL     OW16969   1.725   1.817   1.204  0.3895  0.0131 -0.1515
 1779SOL    HW116970   1.659   1.823   1.134 -0.2439 -1.2705  0.3276
 1779SOL    HW216971   1.674   1.836   1.283  0.4923 -0.1357 -0.0494
 1780SOL     OW16972   1.268   0.348   5.091  0.1593 -0.1464  0.5910
 1780SOL    HW116973   1.255   0.265   5.044 -3.9880  0.0800  1.3612
 1780SOL    HW216974   1.316   0.404   5.030 -2.7318 -0.1420 -1.6848
 1781SOL     OW16975   2.395   2.633   5.181 -0.2348 -0.5140  0.1706
 1781SOL    HW116976   2.370   2.545   5.209  1.0799 -0.6919  0.7925
 1781SOL    HW216977   2.370   2.688   5.254 -2.1091 -2.3185  0.8977
 1782SOL     OW16978   0.113   1.653   3.739 -0.8272 -0.2410  0.8068
 1782SOL    HW116979   0.137   1.681   3.828 -0.9058  1.0464  0.4323
 1782SOL    HW216980   0.126   1.559   3.745  0.0800 -0.0998  1.1169
 1783SOL     OW16981   2.764   2.014   3.692  0.2780  0.2053  0.0609
 1783SOL    HW116982   2.845   2.062   3.675  1.7385 -2.7380 -1.2554
 1783SOL    HW216983   2.760   2.014   3.788 -0.6050  0.1448  0.0219
 1784SOL     OW16984   3.765   2.105   7.588  0.0056  0.3481  0.4535
 1784SOL    HW116985   3.715   2.186   7.576 -1.5936 -0.5399  1.0980
 1784SOL    HW216986   3.852   2.139   7.567  0.9538 -1.6404  1.1400
 1785SOL     OW16987   0.490   2.945   5.418 -0.3375 -0.0710 -0.1543
 1785SOL    HW116988   0.475   2.950   5.324  2.2741 -0.5294 -0.5951
 1785SOL    HW216989   0.455   3.032   5.436  0.6329  0.5764 -1.4576
 1786SOL     OW16990   4.698   4.074   7.591 -0.2460  0.4110  1.3093
 1786SOL    HW116991   4.672   3.991   7.630  2.7118 -0.0684  2.2670
 1786SOL    HW216992   0.002   4.033   7.517  1.7614 -4.0622  5.0598
 1787SOL     OW16993   3.679   3.585   4.600 -0.4833 -0.1787 -0.1594
 1787SOL    HW116994   3.620   3.555   4.670 -1.1574 -0.4192 -0.8278
 1787SOL    HW216995   3.733   3.652   4.642 -0.9920  0.3566 -0.3384
 1788SOL     OW16996   0.805   1.134  10.061 -0.3086  0.2803  0.4359
 1788SOL    HW116997   0.832   1.129   9.969  0.6055 -0.9250  0.7743
 1788SOL    HW216998   0.745   1.208  10.068 -1.0669 -0.5603  2.7000
 1789SOL     OW16999   4.485   4.725  15.583  0.2364 -0.0402 -0.0070
 1789SOL    HW117000   4.434   0.049  15.536 -1.2601 -0.4345  1.0439
 1789SOL    HW217001   4.538   4.676  15.519 -0.7240 -2.4873  1.0538
 1790SOL     OW17002   2.218   2.376   3.924  0.4044  0.3391 -0.1359
 1790SOL    HW117003   2.170   2.339   3.850 -0.1578 -0.1930  0.4872
 1790SOL    HW217004   2.153   2.370   3.995  0.7309  2.1360  0.3132
 1791SOL     OW17005   1.090   3.785   5.962 -0.0422 -0.5478  0.4534
 1791SOL    HW117006   1.142   3.835   6.025  0.2613 -0.0042 -0.2222
 1791SOL    HW217007   1.011   3.776   6.014 -0.0023  0.4516  0.6914
 1792SOL     OW17008   0.319   0.144   7.700 -0.6525 -0.3557 -0.1691
 1792SOL    HW117009   0.351   0.150   7.790 -1.3051  2.0102 -0.0883
 1792SOL    HW217010   0.341   0.055   7.675 -0.1037  0.2333 -1.7803
 1793SOL     OW17011   3.528   2.056  11.008  0.3763 -0.4894 -0.2296
 1793SOL    HW117012   3.495   2.139  10.975  0.1817 -0.7552 -0.7032
 1793SOL    HW217013   3.586   2.012  10.946 -0.9215 -2.4198 -0.0982
 1794SOL     OW17014   2.985   1.154   8.679 -0.9402  0.0617  0.2306
 1794SOL    HW117015   2.949   1.220   8.621 -1.9648  0.0970  0.9052
 1794SOL    HW217016   3.071   1.139   8.639 -0.7666  2.7899 -0.4102
 1795SOL     OW17017   2.524   3.221  11.660  0.7156  0.0363  0.0982
 1795SOL    HW117018   2.508   3.212  11.753 -1.7395  1.5502 -0.1688
 1795SOL    HW217019   2.493   3.139  11.622 -2.0275  0.7294  0.8244
 1796SOL     OW17020   4.020   2.408   3.804  0.0666  0.9295 -0.7641
 1796SOL    HW117021   3.986   2.394   3.716  0.0184  1.0000 -0.7558
 1796SOL    HW217022   4.064   2.492   3.799  0.8226  0.4676 -1.8870
 1797SOL     OW17023   2.663   4.038   0.260 -0.5862  0.5416  0.2488
 1797SOL    HW117024   2.582   4.007   0.300 -1.3171  0.3093 -1.3964
 1797SOL    HW217025   2.700   3.952   0.237 -0.5522  0.1754  1.7221
 1798SOL     OW17026   2.585   2.259   0.903 -0.0013  0.0197  0.2246
 1798SOL    HW117027   2.532   2.209   0.840  0.6737  2.8801 -2.6194
 1798SOL    HW217028   2.536   2.249   0.984 -0.2083 -1.8136 -0.1339
 1799SOL     OW17029   1.928   0.143  10.453 -0.0181  0.8571 -0.4307
 1799SOL    HW117030   1.836   0.161  10.434 -0.8185 -0.3837  2.3192
 1799SOL    HW217031   1.962   0.233  10.453  1.1901  0.4069  1.8835
 1800SOL     OW17032   1.875   3.639   9.159  0.0576 -0.0950 -0.0967
 1800SOL    HW117033   1.869   3.558   9.107  0.6931  0.3115 -0.8084
 1800SOL    HW217034   1.880   3.609   9.250 -0.6810  3.4183  1.0660
 1801SOL     OW17035   4.711   3.613  17.518  0.4078 -0.7931  0.0241
 1801SOL    HW117036   4.644   3.667  17.476  0.8698  0.9646  1.5476
 1801SOL    HW217037   0.025   3.599  17.441  0.7759  0.5208  0.0434
 1802SOL     OW17038   4.306   2.353   6.429 -0.6332  0.1888  0.7394
 1802SOL    HW117039   4.248   2.429   6.427  0.6762  1.1449 -0.4375
 1802SOL    HW217040   4.312   2.328   6.522  0.7299 -2.2268 -0.0048
 1803SOL     OW17041   3.468   0.377   4.170  0.4144 -0.9410  0.1599
 1803SOL    HW117042   3.482   0.429   4.249  2.3241  0.7997 -1.3041
 1803SOL    HW217043   3.415   0.441   4.122  0.6102  0.3816  1.7166
 1804SOL     OW17044   3.262   1.880   1.344 -0.1726 -0.4922 -0.2357
 1804SOL    HW117045   3.353   1.869   1.315 -0.3599  1.6527 -1.6575
 1804SOL    HW217046   3.227   1.927   1.268 -1.8369 -1.8135 -0.2968
 1805SOL     OW17047   3.369   1.430   6.118  0.9611  0.3693 -0.2995
 1805SOL    HW117048   3.453   1.386   6.103  1.5942  1.3349  0.4419
 1805SOL    HW217049   3.374   1.468   6.206  1.5329 -0.7141  0.1421
 1806SOL     OW17050   3.037   3.796   6.033 -0.2537 -0.5477  0.9390
 1806SOL    HW117051   2.968   3.790   6.099  1.1490  0.3659  2.4954
 1806SOL    HW217052   3.117   3.820   6.081  1.1361 -1.7939 -0.7700
 1807SOL     OW17053   3.104   0.046   7.813 -0.1224  0.0638  0.1434
 1807SOL    HW117054   3.175   0.065   7.751 -0.7042  0.0731 -0.5230
 1807SOL    HW217055   3.090   0.125   7.864  0.6536  0.5896 -0.4535
 1808SOL     OW17056   2.109   3.056   9.773  0.1016  0.3540  0.2971
 1808SOL    HW117057   2.090   3.030   9.682  3.2195  1.8867 -0.7946
 1808SOL    HW217058   2.190   3.007   9.781  0.1863  0.7038  1.5132
 1809SOL     OW17059   0.943   4.036   1.408 -0.8869 -0.8517  0.0557
 1809SOL    HW117060   0.929   3.942   1.401  1.5245 -1.3351  1.8168
 1809SOL    HW217061   0.858   4.056   1.449 -0.6590 -0.0403  0.1416
 1810SOL     OW17062   4.740   0.486  16.721 -0.2983 -0.0369  0.0248
 1810SOL    HW117063   4.648   0.473  16.740 -0.5616  1.7542 -0.0399
 1810SOL    HW217064   0.029   0.397  16.702 -1.0035  0.2253 -2.3391
 1811SOL     OW17065   0.370   2.289   2.898 -0.2365  0.1349  0.0108
 1811SOL    HW117066   0.361   2.279   2.803 -0.3676  2.9291 -0.2616
 1811SOL    HW217067   0.422   2.211   2.917 -0.9462 -0.2842  0.2399
 1812SOL     OW17068   0.039   4.031   0.771  0.2648 -0.1079 -0.4256
 1812SOL    HW117069   0.129   4.057   0.788 -0.1516  1.4366 -0.5704
 1812SOL    HW217070   0.039   4.026   0.676 -0.8525 -0.5679 -0.4073
 1813SOL     OW17071   0.829   3.324   5.376 -0.0817  0.7904  0.0260
 1813SOL    HW117072   0.742   3.343   5.412  0.0051 -0.5236  0.9569
 1813SOL    HW217073   0.886   3.374   5.434  0.9277  2.1299 -2.1607
 1814SOL     OW17074   0.956   1.189   6.731 -0.2383  0.3114 -0.2408
 1814SOL    HW117075   0.977   1.105   6.691 -1.2440 -0.5004  0.9461
 1814SOL    HW217076   1.011   1.193   6.809  0.3181 -1.0298 -0.5696
 1815SOL     OW17077   1.727   0.602   3.894 -0.5093  0.2157 -0.0717
 1815SOL    HW117078   1.720   0.628   3.986 -0.2861 -0.6351  0.1832
 1815SOL    HW217079   1.670   0.526   3.884  1.0440 -0.7711 -1.2869
 1816SOL     OW17080   1.201   2.475   7.393  0.1387 -0.1274 -0.0884
 1816SOL    HW117081   1.266   2.538   7.424  0.4472  0.2215 -1.4308
 1816SOL    HW217082   1.216   2.478   7.299 -0.5549 -0.6709 -0.2173
 1817SOL     OW17083   4.245   3.147  17.550  0.0808  0.0171 -0.7184
 1817SOL    HW117084   4.198   3.143  17.633  1.0088  1.7388 -0.1054
 1817SOL    HW217085   4.304   3.218  17.575 -1.5504  0.3875  2.0430
 1818SOL     OW17086   0.019   2.831   8.828 -0.0047  0.5941  0.0129
 1818SOL    HW117087   4.686   2.891   8.816  1.9285  2.6555 -1.6605
 1818SOL    HW217088   0.084   2.887   8.870 -0.9114  0.8686  1.0582
 1819SOL     OW17089   2.598   2.159  12.762  0.5889 -0.2380  0.0475
 1819SOL    HW117090   2.503   2.167  12.769  0.7186  0.5042  0.9956
 1819SOL    HW217091   2.624   2.223  12.828 -0.1296 -0.5932  0.6823
 1820SOL     OW17092   2.411   3.134   6.205 -0.0116 -0.5722 -0.1646
 1820SOL    HW117093   2.432   3.154   6.114  1.9942 -2.0004 -0.0082
 1820SOL    HW217094   2.486   3.077   6.220  0.4485 -0.5417 -2.2944
 1821SOL     OW17095   1.211   2.822   6.230 -0.4351 -0.4756  0.2228
 1821SOL    HW117096   1.256   2.898   6.265  0.6126 -0.8324 -0.3414
 1821SOL    HW217097   1.118   2.841   6.239 -0.6477 -1.5705  0.3554
 1822SOL     OW17098   2.093   2.453   1.135  0.0764 -0.4655  0.3222
 1822SOL    HW117099   2.091   2.409   1.050  1.9446  0.3509 -0.1409
 1822SOL    HW217100   2.132   2.538   1.115  0.6035 -0.6921  0.3756
 1823SOL     OW17101   3.958   0.985   4.749 -0.6160 -0.0534 -0.0940
 1823SOL    HW117102   4.049   1.013   4.749  0.3503 -3.1770 -1.5438
 1823SOL    HW217103   3.926   1.043   4.818 -1.0465  0.2899 -0.5797
 1824SOL     OW17104   3.414   0.771   1.876 -0.3193 -0.1966 -0.1811
 1824SOL    HW117105   3.397   0.778   1.970 -2.5439  1.1812 -0.6898
 1824SOL    HW217106   3.336   0.814   1.841 -0.9557 -1.6594 -0.5453
 1825SOL     OW17107   1.200   3.451  16.784 -0.7648  0.6687  0.7023
 1825SOL    HW117108   1.279   3.496  16.754  1.2644 -3.2804  0.0677
 1825SOL    HW217109   1.171   3.419  16.698 -4.1629 -1.7453  2.7223
 1826SOL     OW17110   2.341   2.717   1.316  0.0223 -0.1583  0.9833
 1826SOL    HW117111   2.281   2.643   1.330 -1.4207  1.1811  1.9673
 1826SOL    HW217112   2.310   2.769   1.391 -0.0873 -0.2438  0.9983
 1827SOL     OW17113   2.858   2.190   3.110  0.3155  0.8655  0.5381
 1827SOL    HW117114   2.951   2.180   3.093 -0.1648 -1.1548 -0.9160
 1827SOL    HW217115   2.861   2.223   3.200  2.7874 -1.2737  1.2254
 1828SOL     OW17116   2.952   3.309  17.105 -0.1492  0.2495 -0.1778
 1828SOL    HW117117   2.982   3.240  17.045 -0.4981 -0.5178  0.5468
 1828SOL    HW217118   3.037   3.339  17.138  0.6845 -0.8291 -1.3379
 1829SOL     OW17119   3.603   2.805   8.178  0.0709  0.2213 -0.1502
 1829SOL    HW117120   3.557   2.727   8.146  0.1961 -0.3622  1.0830
 1829SOL    HW217121   3.600   2.868   8.106  1.4145 -1.1177 -1.3928
 1830SOL     OW17122   0.949   2.736  16.992  0.1914  0.2080 -0.5489
 1830SOL    HW117123   0.916   2.797  17.057  0.9852  1.6107 -1.4796
 1830SOL    HW217124   1.041   2.749  17.012  0.4073 -2.3217  0.1931
 1831SOL     OW17125   0.288   0.115   3.502 -0.2356  0.4129 -0.3917
 1831SOL    HW117126   0.201   0.089   3.532  0.0131 -1.2195 -1.0741
 1831SOL    HW217127   0.297   0.035   3.449  5.0949  1.4854 -1.1004
 1832SOL     OW17128   1.090   0.322   9.491 -0.8064 -0.1095 -0.1754
 1832SOL    HW117129   1.013   0.350   9.541  0.4425 -0.2429  1.8345
 1832SOL    HW217130   1.082   0.356   9.401 -4.1217 -0.8237 -0.1501
 1833SOL     OW17131   3.674   1.644   5.612 -0.4887  0.1411  0.5237
 1833SOL    HW117132   3.656   1.658   5.519  2.1223  1.5082  0.2326
 1833SOL    HW217133   3.730   1.716   5.642 -1.6452  0.5482  1.7315
 1834SOL     OW17134   0.878   4.718  16.084  0.7260 -0.8534  0.9933
 1834SOL    HW117135   0.809   4.653  16.096 -1.0514  0.6786 -0.9287
 1834SOL    HW217136   0.929   4.687  16.009  0.8954 -0.3639  0.9043
 1835SOL     OW17137   1.103   4.226  12.796 -0.0743 -0.1552  0.5844
 1835SOL    HW117138   1.142   4.301  12.841  1.0353 -0.5965  0.3670
 1835SOL    HW217139   1.096   4.164  12.869 -1.9084  1.1311  1.4827
 1836SOL     OW17140   4.015   3.387   9.242 -0.0190  0.5495  0.3126
 1836SOL    HW117141   3.972   3.383   9.328  0.9819 -2.0693  0.6897
 1836SOL    HW217142   3.972   3.311   9.203  0.2930  1.5469 -1.9652
 1837SOL     OW17143   4.212   4.344  12.831 -0.5986 -0.1414  0.1252
 1837SOL    HW117144   4.225   4.433  12.865 -1.8780  0.0945  0.0258
 1837SOL    HW217145   4.205   4.297  12.914 -0.2036  0.9614  0.7867
 1838SOL     OW17146   3.335   4.518   4.531 -0.2354 -0.1506 -0.7215
 1838SOL    HW117147   3.383   4.595   4.502  0.4067  0.7433  2.6786
 1838SOL    HW217148   3.245   4.550   4.530 -0.1217  0.2023 -0.0582
 1839SOL     OW17149   4.057   3.859   5.845  0.4873  0.3616  0.2644
 1839SOL    HW117150   4.095   3.785   5.798  0.6318  0.0484  0.8658
 1839SOL    HW217151   4.030   3.913   5.771  0.0779 -0.4614 -0.1825
 1840SOL     OW17152   4.556   0.476   3.096 -0.1814 -0.1382  0.4523
 1840SOL    HW117153   4.563   0.465   3.191  1.1057 -2.5962  0.0710
 1840SOL    HW217154   4.465   0.450   3.083 -0.4515  0.6906  0.7047
 1841SOL     OW17155   0.412   4.496   9.413  0.1993  0.5847  0.2457
 1841SOL    HW117156   0.485   4.552   9.383  0.1339  0.2248 -0.5852
 1841SOL    HW217157   0.397   4.533   9.500  0.1541  2.3372 -0.5013
 1842SOL     OW17158   4.679   0.619   5.202  0.2394 -0.5212  0.3813
 1842SOL    HW117159   4.619   0.687   5.170  1.3738  0.8415  1.1573
 1842SOL    HW217160   0.012   0.630   5.143  0.6134 -0.6389  0.8313
 1843SOL     OW17161   1.341   1.638  16.461  0.1093  0.3470 -0.3858
 1843SOL    HW117162   1.366   1.709  16.520  0.6410 -0.1723  0.0144
 1843SOL    HW217163   1.256   1.676  16.438  1.2277  2.4453 -1.0634
 1844SOL     OW17164   1.041   0.340  13.975  0.1179 -0.3231  0.6819
 1844SOL    HW117165   1.100   0.296  13.914 -0.3404  0.6409 -0.4737
 1844SOL    HW217166   1.069   0.320  14.064  0.5931  1.1850  0.8764
 1845SOL     OW17167   1.995   2.384   6.104 -0.4239  1.0101  0.1985
 1845SOL    HW117168   1.974   2.478   6.106 -2.0098  0.6497  0.4361
 1845SOL    HW217169   2.076   2.385   6.156 -0.8474  0.1808  0.8582
 1846SOL     OW17170   1.390   4.439   4.178  0.4511  0.0209 -0.1681
 1846SOL    HW117171   1.358   4.448   4.267  0.9839 -0.0713  0.0298
 1846SOL    HW217172   1.336   4.364   4.151  0.9107  0.2678 -1.8236
 1847SOL     OW17173   2.668   3.405   0.479 -0.4477  0.1361 -0.1785
 1847SOL    HW117174   2.717   3.485   0.460  0.3875 -0.3983 -0.3166
 1847SOL    HW217175   2.748   3.351   0.479 -0.9222 -0.5309  3.6004
 1848SOL     OW17176   0.497   2.835   8.133 -0.8658 -0.1641  0.1769
 1848SOL    HW117177   0.472   2.867   8.220  0.2128  2.7724 -0.5846
 1848SOL    HW217178   0.460   2.746   8.131 -1.9547  0.2827  0.0524
 1849SOL     OW17179   4.075   1.604   3.762  0.0710 -0.4644  0.1161
 1849SOL    HW117180   4.124   1.680   3.729  1.1991 -1.1322  0.2401
 1849SOL    HW217181   4.060   1.638   3.850  0.0261 -2.8452  1.0180
 1850SOL     OW17182   4.670   2.013  13.714 -0.3806 -0.4170 -0.1473
 1850SOL    HW117183   4.622   1.941  13.671 -1.2847 -1.0536  1.9169
 1850SOL    HW217184   0.001   2.023  13.653 -2.1130  0.3198 -2.0922
 1851SOL     OW17185   4.348   3.056   2.929  0.0124 -0.3031  0.2836
 1851SOL    HW117186   4.280   2.996   2.961 -0.3202 -0.1911 -0.2148
 1851SOL    HW217187   4.372   3.111   3.003  0.9237  0.3518 -0.5055
 1852SOL     OW17188   0.996   3.022  16.824  0.1101  0.1675 -0.5948
 1852SOL    HW117189   1.050   3.101  16.826 -0.0120  0.2866 -1.7679
 1852SOL    HW217190   1.056   2.947  16.819  0.0209  0.0172  0.5256
 1853SOL     OW17191   2.560   0.794   0.410 -0.3680  0.0033  0.0324
 1853SOL    HW117192   2.655   0.801   0.417 -0.6256  2.9212  0.4207
 1853SOL    HW217193   2.543   0.704   0.437  2.1600 -0.6539 -0.5925
 1854SOL     OW17194   4.684   1.397  16.346  0.4636 -0.3783 -0.1959
 1854SOL    HW117195   4.645   1.379  16.432 -0.3333 -1.0939 -0.7097
 1854SOL    HW217196   4.607   1.417  16.293  0.5658  1.1341  0.2377
 1855SOL     OW17197   1.823   3.896   8.066  0.2067 -0.4995  0.8483
 1855SOL    HW117198   1.826   3.836   8.141  0.5710 -2.4016 -0.7153
 1855SOL    HW217199   1.729   3.906   8.052 -0.0236 -2.7371  0.8837
 1856SOL     OW17200   3.383   0.465   8.939  0.4369  0.3390  0.1344
 1856SOL    HW117201   3.469   0.427   8.921 -0.2756 -0.8888 -0.6629
 1856SOL    HW217202   3.382   0.450   9.034  3.3561  0.3157  0.1622
 1857SOL     OW17203   1.414   3.132   8.345 -0.4394  0.2479  0.5989
 1857SOL    HW117204   1.489   3.187   8.371 -0.3327  0.3593  0.0577
 1857SOL    HW217205   1.374   3.195   8.286  1.3062  0.5601 -0.2714
 1858SOL     OW17206   4.386   1.432   7.360  0.1865  0.1793 -0.7837
 1858SOL    HW117207   4.395   1.515   7.313 -1.2404  0.3422 -0.7638
 1858SOL    HW217208   4.460   1.441   7.419  0.7188  0.6389 -1.5184
 1859SOL     OW17209   1.015   1.369  14.282  0.0734  0.8076  0.0146
 1859SOL    HW117210   1.103   1.336  14.265  0.1136  0.3232  1.1781
 1859SOL    HW217211   1.013   1.462  14.304 -0.3441  0.7585  0.1933
 1860SOL     OW17212   0.298   2.988   6.720  0.4186 -0.3842 -0.6241
 1860SOL    HW117213   0.257   3.071   6.746 -3.1846 -2.0057 -1.0804
 1860SOL    HW217214   0.377   3.015   6.673 -0.1808  2.4465 -0.0219
 1861SOL     OW17215   2.720   2.929   9.724  0.3491  0.2450 -0.0462
 1861SOL    HW117216   2.752   3.019   9.724  2.7312 -0.6095  1.6326
 1861SOL    HW217217   2.670   2.925   9.806 -1.7324 -1.4758 -1.3681
 1862SOL     OW17218   1.918   2.040   3.262 -0.4769  0.1086 -0.1126
 1862SOL    HW117219   1.901   2.121   3.311  0.7160  0.6843 -0.6358
 1862SOL    HW217220   1.844   2.045   3.202 -1.0588 -1.8327  0.4645
 1863SOL     OW17221   2.910   0.872  13.341  0.2142  0.0678  0.1075
 1863SOL    HW117222   2.868   0.836  13.418  1.0432  2.3371  1.6164
 1863SOL    HW217223   3.000   0.878  13.373  0.0837  0.3080  0.4311
 1864SOL     OW17224   2.706   1.782  12.162  0.2416  0.4364  0.3791
 1864SOL    HW117225   2.669   1.715  12.105  0.5356 -0.0710  0.7831
 1864SOL    HW217226   2.725   1.857  12.106 -2.1324  2.2543  1.9855
 1865SOL     OW17227   1.518   4.337  17.656 -0.2259  0.0796 -0.3340
 1865SOL    HW117228   1.551   4.248  17.644  2.2900  0.8174  1.0014
 1865SOL    HW217229   1.478   4.337  17.742 -0.4142 -1.4045 -0.4102
 1866SOL     OW17230   4.370   1.697   6.473 -0.1788  0.4668  0.1107
 1866SOL    HW117231   4.344   1.682   6.382  1.2898 -1.8723  0.0762
 1866SOL    HW217232   4.453   1.650   6.466 -0.5755 -0.1139 -0.6776
 1867SOL     OW17233   2.342   3.600  13.315 -0.1767 -0.0943  0.0204
 1867SOL    HW117234   2.282   3.647  13.373  1.1118  0.7030  0.7247
 1867SOL    HW217235   2.331   3.511  13.347 -2.6259  0.2159  0.0035
 1868SOL     OW17236   3.534   0.253   3.640 -0.5662 -0.3419  0.5847
 1868SOL    HW117237   3.466   0.264   3.707  2.7536 -1.0836  4.0997
 1868SOL    HW217238   3.608   0.308   3.666  3.6496 -5.3257 -0.8563
 1869SOL     OW17239   0.894   3.968   5.505 -0.2612  0.0447  0.1172
 1869SOL    HW117240   0.909   4.060   5.480 -0.7754 -0.0032 -0.3837
 1869SOL    HW217241   0.833   3.973   5.579  0.8950 -0.2189  1.0759
 1870SOL     OW17242   3.522   4.083   7.848 -0.1348  0.1908  0.1421
 1870SOL    HW117243   3.597   4.102   7.904 -1.2750  1.5759  1.2283
 1870SOL    HW217244   3.518   3.987   7.847 -1.0667  0.2231  0.1773
 1871SOL     OW17245   3.982   1.852  10.348  0.1673 -0.1244 -0.7285
 1871SOL    HW117246   3.920   1.781  10.364  0.4218 -0.2073 -0.1250
 1871SOL    HW217247   4.066   1.810  10.332  1.0611  1.2455  0.3572
 1872SOL     OW17248   3.817   1.683  10.826 -0.5761  0.4112 -0.4134
 1872SOL    HW117249   3.834   1.589  10.826  0.2070  0.5481  0.6980
 1872SOL    HW217250   3.909   1.710  10.830 -0.2787 -0.8438  1.5218
 1873SOL     OW17251   4.058   2.983   0.531 -0.1264  0.1234 -0.3275
 1873SOL    HW117252   3.982   3.039   0.548  0.8398  0.8700  1.4823
 1873SOL    HW217253   4.041   2.900   0.575 -2.2794  0.4125 -0.6099
 1874SOL     OW17254   1.345   4.327   5.546 -0.2465 -0.2432  0.4450
 1874SOL    HW117255   1.291   4.323   5.625  0.5430  1.6578  1.0719
 1874SOL    HW217256   1.277   4.334   5.479  0.6027 -0.8628 -0.4851
 1875SOL     OW17257   2.310   2.855   2.316 -0.4430  0.3046 -0.2527
 1875SOL    HW117258   2.318   2.916   2.389  2.5416 -0.8759  0.3908
 1875SOL    HW217259   2.247   2.895   2.255  2.1556  2.3839 -1.5540
 1876SOL     OW17260   1.027   4.320   6.974  0.3728 -0.7177  0.3218
 1876SOL    HW117261   1.083   4.253   6.933 -1.2473 -2.2071  0.5503
 1876SOL    HW217262   0.942   4.300   6.935  0.1318  0.6210  0.1768
 1877SOL     OW17263   4.181   1.130   0.793 -0.6149 -0.9812  0.2840
 1877SOL    HW117264   4.269   1.142   0.827  0.0867 -2.3379 -1.0797
 1877SOL    HW217265   4.128   1.096   0.866  0.7694  0.7875  2.1043
 1878SOL     OW17266   4.702   1.741   6.618 -0.5724 -0.1350  0.2984
 1878SOL    HW117267   4.680   1.704   6.703  1.8907 -2.1983  0.0595
 1878SOL    HW217268   4.673   1.832   6.626  0.9459  0.5021 -1.4796
 1879SOL     OW17269   3.934   2.961   8.041 -0.2341 -0.6453  0.5177
 1879SOL    HW117270   3.847   2.974   8.004 -1.0289 -1.8903  1.9095
 1879SOL    HW217271   3.912   2.984   8.131  0.6476 -0.2010  0.6206
 1880SOL     OW17272   0.642   1.346   5.742  0.2504 -0.0218 -0.2254
 1880SOL    HW117273   0.553   1.381   5.754 -0.2853 -1.5441  0.2517
 1880SOL    HW217274   0.661   1.384   5.656 -1.0532  1.2523  0.0579
 1881SOL     OW17275   0.449   2.921   2.470 -0.2039  0.2838  0.0308
 1881SOL    HW117276   0.506   2.854   2.432 -0.2793  1.3693 -1.9664
 1881SOL    HW217277   0.379   2.928   2.405 -1.2511  0.4275  1.1782
 1882SOL     OW17278   2.041   2.666   6.024  0.0614  0.3271  0.1718
 1882SOL    HW117279   2.052   2.754   6.057  0.3513  0.3078  0.1343
 1882SOL    HW217280   1.957   2.672   5.978  0.7969 -1.3221 -1.4344
 1883SOL     OW17281   2.311   3.941  15.296  0.2430  0.2590 -0.1327
 1883SOL    HW117282   2.221   3.965  15.274  1.4456  1.8219 -3.3837
 1883SOL    HW217283   2.327   3.883  15.221  0.2170 -0.3053  0.2967
 1884SOL     OW17284   3.490   2.863   5.241  0.0035 -0.2827  0.9641
 1884SOL    HW117285   3.529   2.804   5.306 -1.1370  0.4374  2.3063
 1884SOL    HW217286   3.569   2.892   5.195 -0.4291  0.0601  0.4350
 1885SOL     OW17287   2.940   3.345   6.851  0.2927  0.0688 -0.1085
 1885SOL    HW117288   2.875   3.393   6.903 -0.0832 -0.0484 -0.4686
 1885SOL    HW217289   2.914   3.356   6.760  0.4517  0.2347 -0.1355
 1886SOL     OW17290   0.139   3.982   8.468 -0.6519 -0.3977  0.1035
 1886SOL    HW117291   0.095   4.034   8.535  1.8121  0.7818  0.7900
 1886SOL    HW217292   0.134   4.037   8.390  0.4094 -0.0338  0.2857
 1887SOL     OW17293   2.651   2.506  12.075 -0.0825 -0.0272  0.4841
 1887SOL    HW117294   2.707   2.491  11.999  1.2999 -1.6394  1.8009
 1887SOL    HW217295   2.674   2.434  12.134  1.1549 -0.6602 -0.7773
 1888SOL     OW17296   1.022   4.146   3.409 -0.2270  0.4612  0.3687
 1888SOL    HW117297   1.001   4.063   3.365  2.0156 -0.6663  1.4207
 1888SOL    HW217298   1.012   4.121   3.501 -0.1893 -3.1750 -0.6245
 1889SOL     OW17299   4.589   4.015   3.268 -0.5730  0.5825 -0.1384
 1889SOL    HW117300   4.514   3.956   3.273 -1.7673  2.1296 -0.1555
 1889SOL    HW217301   4.601   4.017   3.173 -1.8871  3.1922 -0.2268
 1890SOL     OW17302   3.160   0.442   5.211 -0.0532 -0.2336 -0.0486
 1890SOL    HW117303   3.191   0.394   5.135 -0.6997 -1.3741  0.4007
 1890SOL    HW217304   3.111   0.508   5.163  1.3291  1.8177  1.3522
 1891SOL     OW17305   1.325   2.538   6.793 -0.1446  0.1359  0.2709
 1891SOL    HW117306   1.312   2.580   6.708 -1.8147 -0.4861  0.2330
 1891SOL    HW217307   1.420   2.548   6.800 -0.3183  0.4867  2.2234
 1892SOL     OW17308   0.668   0.619   6.674 -0.1242 -0.0897 -0.0439
 1892SOL    HW117309   0.617   0.570   6.738  0.5610 -0.4595  0.2186
 1892SOL    HW217310   0.705   0.550   6.617 -0.7919  2.1050 -3.1231
 1893SOL     OW17311   0.129   0.617   3.857  0.0332 -0.1841 -0.5528
 1893SOL    HW117312   0.108   0.526   3.839 -0.2615 -0.7087  2.3637
 1893SOL    HW217313   0.134   0.645   3.766 -1.1855  1.3581 -0.1293
 1894SOL     OW17314   4.496   4.125  12.057 -0.0339  0.0539 -0.0429
 1894SOL    HW117315   4.535   4.211  12.068 -0.5305  0.3409 -0.5197
 1894SOL    HW217316   4.446   4.127  12.138  0.7934  1.5739  0.4131
 1895SOL     OW17317   3.686   3.797   8.886 -0.3110 -1.1632 -0.2024
 1895SOL    HW117318   3.614   3.855   8.909 -0.2665 -2.2359  2.5630
 1895SOL    HW217319   3.717   3.763   8.970 -0.0193  0.5350  0.3868
 1896SOL     OW17320   4.501   4.435  11.160 -0.1554  0.0315  0.5492
 1896SOL    HW117321   4.438   4.401  11.223 -0.5826  0.7685  0.5276
 1896SOL    HW217322   4.583   4.409  11.201 -0.2514 -0.7547  0.2309
 1897SOL     OW17323   1.743   1.727   5.838 -0.7442  0.2155  0.1862
 1897SOL    HW117324   1.671   1.681   5.793 -2.4500  1.7900  1.2780
 1897SOL    HW217325   1.777   1.781   5.766 -1.4371 -0.5222 -0.7082
 1898SOL     OW17326   3.168   4.143   3.524  0.4478 -0.0703 -0.2014
 1898SOL    HW117327   3.161   4.068   3.583  1.3045  0.4966  0.6237
 1898SOL    HW217328   3.223   4.202   3.575  0.3558  0.4280 -0.6776
 1899SOL     OW17329   2.769   0.486  10.857 -0.0727 -0.4224  0.8555
 1899SOL    HW117330   2.865   0.478  10.851 -0.2437 -2.1036  0.1502
 1899SOL    HW217331   2.747   0.446  10.941 -2.1815 -0.5366  0.2327
 1900SOL     OW17332   4.734   2.162   5.812  0.2923 -0.1714  0.0472
 1900SOL    HW117333   0.029   2.249   5.829 -0.0328 -0.1540  0.6491
 1900SOL    HW217334   4.719   2.129   5.901 -0.9399  0.2278 -0.0230
 1901SOL     OW17335   1.660   2.814   9.156  0.4021  0.7533 -0.6404
 1901SOL    HW117336   1.654   2.794   9.063  1.2510  2.2819 -1.0306
 1901SOL    HW217337   1.717   2.742   9.185 -0.0841  1.1225  1.2463
 1902SOL     OW17338   3.058   0.929   8.367 -0.0894 -0.3809 -0.0281
 1902SOL    HW117339   3.105   0.892   8.443  2.8140 -0.6271 -1.9431
 1902SOL    HW217340   3.127   0.967   8.313 -1.4285  1.4315 -0.4443
 1903SOL     OW17341   0.794   1.419  10.979 -0.3214 -0.3290 -0.2670
 1903SOL    HW117342   0.863   1.480  11.004 -1.3829  1.0615 -0.7338
 1903SOL    HW217343   0.837   1.378  10.904  2.1662 -0.8616  1.4550
 1904SOL     OW17344   2.103   0.023   8.197  0.3232 -0.6838  0.1093
 1904SOL    HW117345   2.008   0.014   8.200  0.2841  0.2394  1.8168
 1904SOL    HW217346   2.111   0.077   8.119 -0.2706  0.9458  1.1839
 1905SOL     OW17347   0.687   1.375   1.474  0.3119  0.2000  0.0466
 1905SOL    HW117348   0.702   1.466   1.501 -0.4513  0.2915  0.1820
 1905SOL    HW217349   0.607   1.356   1.524 -0.0428  4.2629  1.0373
 1906SOL     OW17350   0.835   3.385   7.086 -0.3574  0.0908  0.0105
 1906SOL    HW117351   0.865   3.295   7.074 -1.0697  0.2340 -2.8177
 1906SOL    HW217352   0.743   3.378   7.113 -0.0679 -1.0046  0.7007
 1907SOL     OW17353   3.414   4.611   1.483  0.2347 -0.1975  0.8624
 1907SOL    HW117354   3.381   4.555   1.413  1.3012  0.6349 -0.2993
 1907SOL    HW217355   3.504   4.578   1.482 -0.7090 -2.7778  0.9159
 1908SOL     OW17356   0.639   2.940  12.437 -0.0747 -0.2904 -0.1172
 1908SOL    HW117357   0.655   2.930  12.531  0.8376  0.7814 -0.1536
 1908SOL    HW217358   0.583   2.866  12.415 -0.0072 -0.7062  1.0929
 1909SOL     OW17359   1.428   1.993   5.694 -0.0032  0.3893 -0.0910
 1909SOL    HW117360   1.358   2.058   5.687  2.8163  3.6641  2.1062
 1909SOL    HW217361   1.380   1.911   5.680 -1.4310  1.2682 -0.2962
 1910SOL     OW17362   1.006   2.052   7.860 -0.5187  0.2962 -0.0246
 1910SOL    HW117363   1.056   2.130   7.887 -0.7878  1.1977 -2.1644
 1910SOL    HW217364   1.060   1.994   7.806 -1.4857  0.4509 -1.1502
 1911SOL     OW17365   2.313   0.073   2.058 -0.4265  0.2603  0.1140
 1911SOL    HW117366   2.247   0.059   1.991 -0.5450  1.4457 -0.0069
 1911SOL    HW217367   2.386   0.111   2.010 -1.9574  2.2360 -0.6460
 1912SOL     OW17368   2.088   3.364   6.713 -0.3792  0.5085 -0.4321
 1912SOL    HW117369   2.136   3.407   6.784 -0.2301  0.8370 -0.7320
 1912SOL    HW217370   2.149   3.299   6.678  0.0730  0.6861  0.0283
 1913SOL     OW17371   2.406   2.723  11.712 -0.1953  0.6015 -0.0872
 1913SOL    HW117372   2.386   2.813  11.686 -0.1386  0.8816  0.8336
 1913SOL    HW217373   2.500   2.713  11.723 -0.3746 -1.8229 -0.9272
 1914SOL     OW17374   3.552   1.766   7.215 -0.0518 -0.2791  0.1889
 1914SOL    HW117375   3.573   1.858   7.197  0.0101 -0.4053 -0.3953
 1914SOL    HW217376   3.563   1.769   7.310  2.5904 -2.1109 -0.0620
 1915SOL     OW17377   3.524   3.641  17.028 -0.2682  0.1048 -0.8311
 1915SOL    HW117378   3.466   3.581  16.981 -0.9371  0.1795 -0.1059
 1915SOL    HW217379   3.485   3.729  17.029 -0.6940 -0.0854 -0.9479
 1916SOL     OW17380   2.111   3.695  13.451  0.5507  0.2793  0.1856
 1916SOL    HW117381   2.086   3.662  13.538 -4.6454  1.9915 -0.6658
 1916SOL    HW217382   2.037   3.680  13.392  1.1411  2.2942 -1.0345
 1917SOL     OW17383   0.970   3.507   4.200  0.2604  0.4435  0.2382
 1917SOL    HW117384   1.015   3.541   4.123 -3.2724  0.4870 -1.7904
 1917SOL    HW217385   0.935   3.590   4.233  1.9363  1.4668 -0.6109
 1918SOL     OW17386   0.852   0.396  16.281 -0.4051 -0.3538 -0.0816
 1918SOL    HW117387   0.764   0.418  16.249 -0.6265  0.0302  0.7812
 1918SOL    HW217388   0.838   0.315  16.330  1.3305  0.3022  1.4993
 1919SOL     OW17389   0.380   0.548   6.353 -0.2477 -0.5346  0.0341
 1919SOL    HW117390   0.321   0.581   6.285  0.5207  0.7140 -0.0173
 1919SOL    HW217391   0.398   0.626   6.405 -1.7933  1.3479 -2.2482
 1920SOL     OW17392   3.913   3.916   9.183  0.4219 -0.0995  0.5617
 1920SOL    HW117393   3.889   3.828   9.153  0.6684  0.0390 -0.0537
 1920SOL    HW217394   3.989   3.880   9.230 -0.1245 -1.6802  0.2204
 1921SOL     OW17395   0.734   0.421   6.472 -0.6621 -0.2883 -0.0118
 1921SOL    HW117396   0.750   0.327   6.472 -0.9271 -0.3364  0.5014
 1921SOL    HW217397   0.714   0.431   6.379  1.5283  0.0645 -0.4382
 1922SOL     OW17398   0.033   2.047   5.090 -0.3709 -0.7559  0.0942
 1922SOL    HW117399   0.032   2.129   5.138  1.5141 -0.3560 -0.5696
 1922SOL    HW217400   0.125   2.019   5.086 -0.0639  0.0579  2.0682
 1923SOL     OW17401   2.563   2.676   4.597  0.5959  0.1914  0.0103
 1923SOL    HW117402   2.531   2.765   4.586  0.5134  0.3082  1.2220
 1923SOL    HW217403   2.484   2.633   4.563  0.7107  0.2216 -0.2928
 1924SOL     OW17404   3.608   1.520  17.172 -0.0221  0.0685 -0.1817
 1924SOL    HW117405   3.629   1.608  17.201  0.0742 -0.3962  1.1467
 1924SOL    HW217406   3.544   1.541  17.104  0.5329 -1.9909 -1.3699
 1925SOL     OW17407   1.043   4.341   9.858  0.2285 -0.5833  0.4445
 1925SOL    HW117408   1.045   4.267   9.919  0.1044 -1.2798 -0.4024
 1925SOL    HW217409   1.134   4.354   9.833 -0.1607  1.8083  0.2288
 1926SOL     OW17410   2.135   3.540   3.204  0.0654  0.0682 -0.4735
 1926SOL    HW117411   2.069   3.516   3.138 -0.4615 -1.8485  0.7434
 1926SOL    HW217412   2.155   3.629   3.175 -1.5591  0.9242  1.0145
 1927SOL     OW17413   2.296   3.662   8.398  0.3534  0.0819  0.9699
 1927SOL    HW117414   2.212   3.647   8.443 -0.7386 -2.5692 -1.9631
 1927SOL    HW217415   2.314   3.755   8.412  1.3591  0.1478 -0.7943
 1928SOL     OW17416   1.557   0.169  17.166 -0.5563 -0.2343 -0.3468
 1928SOL    HW117417   1.491   0.112  17.205 -2.8472 -0.0958 -4.0195
 1928SOL    HW217418   1.634   0.115  17.184  0.3311  1.3476  0.6133
 1929SOL     OW17419   1.666   2.926   2.498 -0.8563 -0.0495  0.0093
 1929SOL    HW117420   1.653   2.869   2.574  0.7565 -2.3385 -1.4237
 1929SOL    HW217421   1.755   2.900   2.473  0.0726  3.0293  0.1956
 1930SOL     OW17422   2.354   3.796  10.554  0.2805  0.5229 -0.9082
 1930SOL    HW117423   2.260   3.799  10.535 -0.2944 -1.9151  1.4980
 1930SOL    HW217424   2.394   3.832  10.475  0.6967 -0.1013 -0.9765
 1931SOL     OW17425   1.307   2.539   2.741 -0.1640 -0.0801  0.2285
 1931SOL    HW117426   1.273   2.614   2.691 -1.4272 -0.1054  1.0509
 1931SOL    HW217427   1.235   2.480   2.720  2.6137 -2.6639 -1.9864
 1932SOL     OW17428   3.570   4.567   2.874  0.5927  0.4279  0.5463
 1932SOL    HW117429   3.569   4.602   2.784 -1.4389 -0.4938  0.2235
 1932SOL    HW217430   3.477   4.561   2.894 -0.0120  0.0365 -2.2662
 1933SOL     OW17431   3.307   3.214   8.858 -0.4854 -0.3153 -0.0375
 1933SOL    HW117432   3.376   3.179   8.801 -1.5878 -1.7776 -0.4646
 1933SOL    HW217433   3.291   3.147   8.925  1.0717  0.1878  0.8426
 1934SOL     OW17434   0.418   3.023   0.739  0.9569  0.2146 -0.6048
 1934SOL    HW117435   0.417   3.099   0.681  1.0877  0.8995  0.2893
 1934SOL    HW217436   0.402   2.960   0.669  1.2376 -0.2801 -0.2239
 1935SOL     OW17437   0.209   1.886  13.687  0.0906 -0.0615  0.6470
 1935SOL    HW117438   0.295   1.873  13.727  0.8505 -2.7921 -1.8926
 1935SOL    HW217439   0.205   1.980  13.671 -0.4610 -0.4214 -1.3008
 1936SOL     OW17440   1.387   3.506  15.751  0.1638 -0.0010 -0.4024
 1936SOL    HW117441   1.297   3.513  15.783  0.7283  1.5233  0.8643
 1936SOL    HW217442   1.366   3.444  15.682  0.6755  1.0150 -1.4636
 1937SOL     OW17443   4.153   1.602   6.613  0.1979  0.3115  0.5178
 1937SOL    HW117444   4.239   1.619   6.573 -1.5490 -1.4739 -3.9832
 1937SOL    HW217445   4.170   1.518   6.656  0.0573 -0.1695 -0.3630
 1938SOL     OW17446   1.700   1.417   4.057  0.1070  0.0860 -0.2247
 1938SOL    HW117447   1.721   1.334   4.015 -0.6699 -0.3533  0.2579
 1938SOL    HW217448   1.754   1.415   4.136 -0.5092  2.0282  0.2410
 1939SOL     OW17449   2.001   1.416   2.856 -0.6025 -0.4819  0.0745
 1939SOL    HW117450   2.029   1.480   2.790 -2.6097 -0.9499 -1.2107
 1939SOL    HW217451   1.976   1.481   2.922 -1.7655  0.0871 -0.9123
 1940SOL     OW17452   0.246   4.427   2.493  0.4647  0.3493 -0.2242
 1940SOL    HW117453   0.212   4.382   2.570  1.9406 -0.4277 -0.0320
 1940SOL    HW217454   0.283   4.349   2.452 -3.0171 -0.0220 -2.7187
 1941SOL     OW17455   3.608   4.442   8.662 -0.5590  0.8225  0.2238
 1941SOL    HW117456   3.612   4.512   8.598  0.0372 -1.1490 -1.9175
 1941SOL    HW217457   3.596   4.499   8.738  0.2682  0.8798  0.3043
 1942SOL     OW17458   4.314   2.454  16.452 -0.0999  0.0804 -0.0339
 1942SOL    HW117459   4.310   2.532  16.508 -0.5857 -1.9153  2.7226
 1942SOL    HW217460   4.284   2.391  16.517  2.3284 -1.7607 -0.7048
 1943SOL     OW17461   1.645   2.232   1.188  0.2255 -0.0003 -0.2763
 1943SOL    HW117462   1.739   2.229   1.203  0.1260 -0.3514  0.2697
 1943SOL    HW217463   1.636   2.324   1.215 -2.4332 -0.3138 -0.0456
 1944SOL     OW17464   4.656   0.375   4.375  0.1927 -0.3788 -0.2185
 1944SOL    HW117465   4.710   0.374   4.455  1.5908 -1.7984 -1.1749
 1944SOL    HW217466   4.702   0.441   4.324 -0.6573  1.3415  1.2527
 1945SOL     OW17467   1.627   1.791   5.598 -0.0707  0.3861  0.1806
 1945SOL    HW117468   1.550   1.832   5.638  0.2800  0.4510  0.7885
 1945SOL    HW217469   1.587   1.743   5.526  0.5107 -0.2854  0.3073
 1946SOL     OW17470   4.288   4.032   9.868 -0.9503  0.2079  0.2630
 1946SOL    HW117471   4.214   3.992   9.912  0.3160 -2.4818 -0.0467
 1946SOL    HW217472   4.359   4.019   9.931  0.7932  0.3877 -1.6671
 1947SOL     OW17473   2.019   3.922   8.877 -0.3484 -0.0644  0.4634
 1947SOL    HW117474   1.997   3.908   8.784 -0.4617  2.8223  0.0709
 1947SOL    HW217475   2.021   4.017   8.874  0.3194 -0.0909  0.2158
 1948SOL     OW17476   2.950   3.089   2.755  0.3151  0.4714  0.1182
 1948SOL    HW117477   3.022   3.146   2.729 -0.8083  1.7892 -0.1542
 1948SOL    HW217478   2.877   3.117   2.700 -0.0495 -1.8800 -0.5865
 1949SOL     OW17479   0.633   4.428   8.414  0.4382 -0.1635  0.1029
 1949SOL    HW117480   0.687   4.386   8.347 -0.0752  0.5760 -0.7682
 1949SOL    HW217481   0.628   4.355   8.476 -0.0344 -0.7181 -0.5915
 1950SOL     OW17482   3.931   1.171  15.692 -0.5451 -0.1095 -0.1573
 1950SOL    HW117483   4.022   1.146  15.678  0.0497  2.0142 -0.0245
 1950SOL    HW217484   3.906   1.202  15.605 -0.5969 -2.2843 -0.9441
 1951SOL     OW17485   1.227   2.650   7.861 -0.0202 -0.2625 -0.3026
 1951SOL    HW117486   1.186   2.616   7.782 -0.7968  0.5190 -0.2390
 1951SOL    HW217487   1.319   2.666   7.840  0.6009 -4.5690 -0.8516
 1952SOL     OW17488   0.604   4.257   2.894 -0.3434  0.0069  0.2087
 1952SOL    HW117489   0.657   4.187   2.931  0.5796  0.6871  0.1633
 1952SOL    HW217490   0.564   4.214   2.818  0.5652 -1.5960  0.6567
 1953SOL     OW17491   3.756   0.978  15.805 -0.0659 -0.1130 -0.4674
 1953SOL    HW117492   3.804   0.971  15.887  0.1300  1.0996 -0.4766
 1953SOL    HW217493   3.805   1.052  15.769  0.2568 -0.4550 -0.7266
 1954SOL     OW17494   1.850   4.060   2.760 -0.3349  0.9983  0.2648
 1954SOL    HW117495   1.765   4.089   2.727 -0.2822  1.4372  0.5085
 1954SOL    HW217496   1.860   4.123   2.831 -2.9767 -0.0170  1.5435
 1955SOL     OW17497   3.352   2.907   6.107  0.0187 -0.6321 -0.3241
 1955SOL    HW117498   3.426   2.893   6.047  1.0039  0.5013  0.6328
 1955SOL    HW217499   3.382   2.986   6.151 -1.6923 -0.4997  0.5910
 1956SOL     OW17500   2.168   0.880  11.299  0.0491  0.1163  0.3781
 1956SOL    HW117501   2.101   0.939  11.334 -1.4613 -1.3752  0.0057
 1956SOL    HW217502   2.136   0.857  11.212 -2.4789  0.0223  1.3279
 1957SOL     OW17503   0.875   0.291   4.605  0.2391 -0.3103  0.3945
 1957SOL    HW117504   0.888   0.225   4.672  1.9975  1.9303  2.2620
 1957SOL    HW217505   0.962   0.307   4.569  1.1036 -0.7295  2.3221
 1958SOL     OW17506   3.330   2.221   3.976  0.1819  0.2300  0.0053
 1958SOL    HW117507   3.356   2.144   3.925  0.0530  0.9970 -1.2183
 1958SOL    HW217508   3.413   2.242   4.018 -0.9045  1.7927  1.3923
 1959SOL     OW17509   0.314   1.428   6.183  0.3120  0.4499  0.0976
 1959SOL    HW117510   0.238   1.478   6.153 -0.6961  0.1467  2.1033
 1959SOL    HW217511   0.308   1.352   6.125 -0.9285  0.0798  0.7103
 1960SOL     OW17512   3.260   0.307   6.231 -0.2225  0.1953  0.5359
 1960SOL    HW117513   3.228   0.395   6.246 -1.9260 -0.1620 -1.0640
 1960SOL    HW217514   3.211   0.254   6.293 -0.3003  2.0373  2.0274
 1961SOL     OW17515   1.949   3.935   1.285  0.1618  0.1474  0.1001
 1961SOL    HW117516   1.898   4.015   1.272  0.9085  0.6531  0.3320
 1961SOL    HW217517   1.892   3.870   1.244 -1.7948  1.7530  0.2813
 1962SOL     OW17518   1.675   3.386   6.562 -0.2725  0.0820  0.4022
 1962SOL    HW117519   1.768   3.410   6.568 -0.1821 -0.5246  1.4657
 1962SOL    HW217520   1.647   3.444   6.632 -4.0155  0.8368 -1.7295
 1963SOL     OW17521   3.323   1.880   2.855  0.0651 -0.2171 -0.2293
 1963SOL    HW117522   3.320   1.788   2.829 -0.7682  0.0457 -1.0357
 1963SOL    HW217523   3.393   1.914   2.800 -1.1920  1.4041 -0.8275
 1964SOL     OW17524   0.167   0.481   1.459 -0.3841 -0.1640 -0.0761
 1964SOL    HW117525   0.139   0.494   1.550  0.0221  1.9545 -0.2572
 1964SOL    HW217526   0.193   0.571   1.439  2.8647 -1.4523 -1.6444
 1965SOL     OW17527   3.951   3.335   4.311 -0.5114 -0.0170  0.1069
 1965SOL    HW117528   3.988   3.420   4.333  1.4659 -0.5958 -0.9509
 1965SOL    HW217529   3.856   3.345   4.304 -0.5244 -1.7089 -2.2723
 1966SOL     OW17530   0.903   4.038   1.108  0.1620 -0.2131  0.3136
 1966SOL    HW117531   0.911   3.942   1.108  2.6456  0.0011  2.2766
 1966SOL    HW217532   0.987   4.064   1.071 -0.3217 -0.0538 -0.6635
 1967SOL     OW17533   2.757   2.295   8.037  0.2256 -0.0011 -0.8652
 1967SOL    HW117534   2.789   2.263   7.953 -0.3165 -0.2017 -0.9948
 1967SOL    HW217535   2.829   2.286   8.100 -0.9036 -0.0592  0.4051
 1968SOL     OW17536   2.991   2.175   0.974  0.2229  0.1329 -0.7091
 1968SOL    HW117537   2.934   2.114   0.927  1.2852 -1.2701 -0.1949
 1968SOL    HW217538   3.019   2.230   0.900 -1.7069  1.0580 -0.7474
 1969SOL     OW17539   0.599   0.798   6.332  0.2763  0.5775 -0.1336
 1969SOL    HW117540   0.610   0.892   6.320 -2.0744  0.8863  0.1080
 1969SOL    HW217541   0.574   0.777   6.241 -0.2744  0.0589  0.1376
 1970SOL     OW17542   0.050   3.516  13.677 -0.1588  0.3281  0.2310
 1970SOL    HW117543   0.064   3.544  13.586 -2.1064  0.5222 -0.0185
 1970SOL    HW217544   0.066   3.604  13.712 -1.5564  0.4205  0.6300
 1971SOL     OW17545   3.599   0.700   4.126  0.0760 -0.0436  0.4236
 1971SOL    HW117546   3.679   0.648   4.138  1.3971  2.2226  1.4897
 1971SOL    HW217547   3.536   0.637   4.160  1.0961 -1.6157 -0.6087
 1972SOL     OW17548   3.437   0.289   3.062  0.6520 -0.1394  0.0018
 1972SOL    HW117549   3.363   0.320   3.113  1.2770 -1.5224  1.7436
 1972SOL    HW217550   3.510   0.314   3.119  0.5894  2.6399 -1.1237
 1973SOL     OW17551   2.994   3.253   1.399  0.2489  0.4536  0.0950
 1973SOL    HW117552   3.021   3.332   1.445 -1.2528 -0.6609  2.8853
 1973SOL    HW217553   2.900   3.262   1.383 -0.0016 -1.8603  0.2459
 1974SOL     OW17554   1.199   2.243  12.977  0.0435 -0.2577  0.0033
 1974SOL    HW117555   1.248   2.280  12.904  0.3801 -1.3012 -0.2857
 1974SOL    HW217556   1.261   2.250  13.049 -1.0702 -0.4897  0.9910
 1975SOL     OW17557   2.750   4.118   8.358  0.0599  0.1269 -0.2811
 1975SOL    HW117558   2.771   4.167   8.437 -1.5790 -2.4611  1.7450
 1975SOL    HW217559   2.766   4.027   8.381  2.0442 -0.1660 -2.8329
 1976SOL     OW17560   3.775   0.219   8.672 -0.0352  0.0914  0.3562
 1976SOL    HW117561   3.840   0.177   8.616 -0.4776 -0.5673  0.3391
 1976SOL    HW217562   3.745   0.288   8.612  3.2870 -0.6893 -2.1765
 1977SOL     OW17563   4.268   0.061   0.920 -0.4004 -0.2103 -0.1456
 1977SOL    HW117564   4.326   0.133   0.897 -0.6233  0.5224  1.5639
 1977SOL    HW217565   4.201   0.121   0.954  0.7515  1.1490 -0.3197
 1978SOL     OW17566   0.611   3.233   8.775  0.4425 -0.0979  0.7076
 1978SOL    HW117567   0.608   3.160   8.836  2.0329 -0.9970 -0.3087
 1978SOL    HW217568   0.574   3.194   8.696  3.5041  0.5648 -1.0472
 1979SOL     OW17569   1.822   4.507   1.612 -0.0831  0.9760 -0.6707
 1979SOL    HW117570   1.734   4.492   1.578  0.0138  0.5409 -0.7319
 1979SOL    HW217571   1.871   4.430   1.582 -0.3722  0.4961  0.0663
 1980SOL     OW17572   3.215   2.790   5.566 -0.0281  0.1552  0.2036
 1980SOL    HW117573   3.235   2.868   5.619 -2.9365  1.1720 -0.2255
 1980SOL    HW217574   3.182   2.830   5.486  1.5895 -0.3935 -0.7358
 1981SOL     OW17575   4.262   2.980   3.648 -0.7141  0.1884  0.0022
 1981SOL    HW117576   4.174   3.019   3.649  0.2186  2.2657 -0.1906
 1981SOL    HW217577   4.298   3.021   3.570 -0.5982  1.6969  0.8353
 1982SOL     OW17578   0.375   4.665  16.843  0.1286 -0.3795 -0.1934
 1982SOL    HW117579   0.364   4.682  16.749 -0.6620 -0.7404 -0.1643
 1982SOL    HW217580   0.396   0.007  16.884 -0.4386 -0.1798 -0.3072
 1983SOL     OW17581   0.799   3.943  11.804 -0.2180  0.6606  0.4743
 1983SOL    HW117582   0.747   3.897  11.869 -0.1727 -0.9193 -0.5879
 1983SOL    HW217583   0.887   3.923  11.836  0.8924  1.1396 -2.2107
 1984SOL     OW17584   3.457   3.398  13.751  0.2562 -0.4869 -0.2886
 1984SOL    HW117585   3.532   3.438  13.705 -0.3261  2.1201  1.0751
 1984SOL    HW217586   3.393   3.468  13.738  1.1666  0.7614  2.0840
 1985SOL     OW17587   3.823   1.719   3.976  0.7071  0.0410  0.0665
 1985SOL    HW117588   3.790   1.704   3.887 -2.7393 -0.1624  1.3767
 1985SOL    HW217589   3.855   1.631   3.996 -2.7011 -2.0156 -3.6125
 1986SOL     OW17590   1.142   3.406   9.885 -0.1251  0.0067  0.0136
 1986SOL    HW117591   1.142   3.357   9.803 -1.7795  0.1585 -0.0796
 1986SOL    HW217592   1.047   3.416   9.881  0.1640  2.3755 -0.4851
 1987SOL     OW17593   2.224   4.554   1.703  0.0949 -0.0809  0.5453
 1987SOL    HW117594   2.183   4.641   1.708  2.1810  0.9360  0.3474
 1987SOL    HW217595   2.251   4.534   1.792  1.7044  1.0964  0.3344
 1988SOL     OW17596   0.678   2.777   0.085 -0.0898  0.3221  0.2949
 1988SOL    HW117597   0.745   2.716   0.052 -1.1599 -0.5181 -0.3249
 1988SOL    HW217598   0.713   2.783   0.174  0.0526 -0.1192  0.2688
 1989SOL     OW17599   2.346   4.402  13.275  0.1939 -0.8619 -0.6701
 1989SOL    HW117600   2.299   4.322  13.299 -1.5799  0.7005  1.0332
 1989SOL    HW217601   2.274   4.461  13.295  1.2721 -0.2745  1.5086
 1990SOL     OW17602   1.610   3.941  11.307  0.1089  0.5764 -0.3708
 1990SOL    HW117603   1.662   4.009  11.265  1.9823 -1.6010 -1.5519
 1990SOL    HW217604   1.533   3.934  11.251  1.1544  0.1396 -1.7407
 1991SOL     OW17605   0.286   3.599   4.799 -0.2347  0.2943 -0.4248
 1991SOL    HW117606   0.364   3.612   4.744  1.7653 -1.0334  2.1071
 1991SOL    HW217607   0.302   3.642   4.883 -0.7373 -0.7141  0.1885
 1992SOL     OW17608   3.113   3.965  15.439 -0.7130  0.4196 -0.0029
 1992SOL    HW117609   3.088   4.007  15.521 -1.4247 -1.0337  0.5164
 1992SOL    HW217610   3.107   4.042  15.382 -0.7644 -0.0183 -0.5942
 1993SOL     OW17611   1.260   3.035  10.540  0.2334 -0.1109  0.0209
 1993SOL    HW117612   1.295   2.964  10.594  1.1370  0.0966 -0.2985
 1993SOL    HW217613   1.291   3.111  10.590  1.5939 -0.0815 -0.8794
 1994SOL     OW17614   2.686   2.706   9.032  0.1061  0.8820 -0.6536
 1994SOL    HW117615   2.682   2.615   9.002  0.7201  0.0358  1.8894
 1994SOL    HW217616   2.609   2.744   8.988 -1.7515  0.2513  2.0707
 1995SOL     OW17617   2.992   2.091  16.533 -0.0860 -0.2621  0.2977
 1995SOL    HW117618   2.965   2.173  16.491  0.4857 -0.3606 -0.2669
 1995SOL    HW217619   2.916   2.035  16.522  0.5274 -0.9756 -0.2999
 1996SOL     OW17620   3.386   1.182   4.405  0.1238  0.0040 -0.1138
 1996SOL    HW117621   3.384   1.237   4.326  0.7998  0.9094  0.5048
 1996SOL    HW217622   3.364   1.243   4.475 -1.6450  1.8276 -2.2670
 1997SOL     OW17623   2.462   0.656  15.414  0.2285 -1.1697 -0.3097
 1997SOL    HW117624   2.377   0.622  15.385 -2.1645  3.4657  1.3373
 1997SOL    HW217625   2.519   0.582  15.392  0.5058 -1.8217  2.6121
 1998SOL     OW17626   2.219   2.421   5.246  0.1791  0.2422  0.3204
 1998SOL    HW117627   2.184   2.364   5.177 -0.3152  0.6088  0.2669
 1998SOL    HW217628   2.153   2.490   5.244 -0.7966 -0.7301 -1.5014
 1999SOL     OW17629   0.814   2.858   0.307 -0.5244 -0.0890  0.0698
 1999SOL    HW117630   0.777   2.934   0.351 -0.3278  0.6338 -1.0089
 1999SOL    HW217631   0.821   2.794   0.378  0.0992  0.3621  0.4089
 2000SOL     OW17632   0.000   3.024   2.477  0.6985  0.3712 -0.2417
 2000SOL    HW117633   4.690   3.103   2.462  0.0712 -0.3622 -1.8787
 2000SOL    HW217634   4.676   2.964   2.511  0.3889  0.3663 -0.8555
 2001SOL     OW17635   1.283   4.099  15.024  0.4988 -0.1029  0.4681
 2001SOL    HW117636   1.246   4.017  14.991  2.3698 -0.7082 -0.1588
 2001SOL    HW217637   1.312   4.151  14.949 -0.2147 -0.7089 -0.2257
 2002SOL     OW17638   2.053   1.634   5.966 -0.6799 -0.3301  0.0179
 2002SOL    HW117639   2.032   1.727   5.969 -0.9864 -0.3318 -2.1182
 2002SOL    HW217640   2.080   1.624   5.875  0.0145  2.0083 -0.0166
 2003SOL     OW17641   1.987   4.415   2.262 -0.1543  0.0845 -0.0513
 2003SOL    HW117642   1.925   4.474   2.305 -0.1285  1.7040 -2.2201
 2003SOL    HW217643   2.013   4.370   2.342  0.1013 -0.0093 -0.1896
 2004SOL     OW17644   0.345   4.387   9.144 -0.0320 -0.2652 -0.0355
 2004SOL    HW117645   0.437   4.387   9.117  0.1301 -2.3569  0.5369
 2004SOL    HW217646   0.347   4.439   9.224 -2.1157  0.0381 -0.1810
 2005SOL     OW17647   0.698   1.864   3.441 -0.0937 -0.3354  0.8581
 2005SOL    HW117648   0.689   1.921   3.517  0.1330  0.8837 -0.0182
 2005SOL    HW217649   0.753   1.796   3.480 -0.4442 -0.0189  1.8770
 2006SOL     OW17650   1.386   0.840   2.379  0.1161 -0.1874  0.0012
 2006SOL    HW117651   1.454   0.867   2.318 -0.8700 -0.0725 -1.0540
 2006SOL    HW217652   1.439   0.822   2.456 -1.2611  0.7163  1.1853
 2007SOL     OW17653   1.662   2.334  15.182  0.0825  0.2025 -0.2796
 2007SOL    HW117654   1.608   2.287  15.245  1.3391 -0.1112  0.5429
 2007SOL    HW217655   1.652   2.285  15.100  0.0024  2.6773 -1.7426
 2008SOL     OW17656   2.048   2.760   2.571  0.6624  0.0474 -0.1307
 2008SOL    HW117657   2.043   2.854   2.593 -1.9230 -0.6569  2.3511
 2008SOL    HW217658   2.014   2.763   2.481  0.9337 -0.1527 -0.2399
 2009SOL     OW17659   0.923   0.447   0.818  0.3757 -0.0458  0.0509
 2009SOL    HW117660   0.939   0.382   0.750 -0.4814  0.8049 -0.9583
 2009SOL    HW217661   0.922   0.529   0.769 -0.0443 -1.1985 -1.8539
 2010SOL     OW17662   3.605   2.483   3.985 -0.1091 -0.0763  0.8367
 2010SOL    HW117663   3.577   2.467   4.076 -0.3098  1.5373  1.0480
 2010SOL    HW217664   3.552   2.559   3.961  1.9236  0.3286 -2.3160
 2011SOL     OW17665   2.711   0.033   6.216  0.5568 -0.3623  0.0713
 2011SOL    HW117666   2.740   4.736   6.133  0.5295  1.9108 -0.9869
 2011SOL    HW217667   2.719   4.706   6.282  0.3751 -0.8090 -0.3705
 2012SOL     OW17668   0.029   2.691   5.509  0.2700 -0.3701 -0.2871
 2012SOL    HW117669   4.724   2.733   5.437 -2.0321 -2.5849 -0.1281
 2012SOL    HW217670   4.715   2.613   5.521  0.0547 -0.0977  0.5103
 2013SOL     OW17671   0.688   3.937   5.893 -0.4018  0.0107 -0.2495
 2013SOL    HW117672   0.713   3.986   5.814 -0.1247 -0.1937 -0.2877
 2013SOL    HW217673   0.596   3.923   5.871 -0.5336 -2.3283  1.8276
 2014SOL     OW17674   2.156   0.775   9.229  1.1063  0.3295 -0.6902
 2014SOL    HW117675   2.175   0.711   9.298  2.6152 -0.3960 -1.7964
 2014SOL    HW217676   2.206   0.848   9.267 -1.2760  2.1315 -1.0151
 2015SOL     OW17677   2.194   4.739   3.705 -0.1537  0.1871  0.5102
 2015SOL    HW117678   2.177   4.702   3.618  2.5186 -1.8376  0.8361
 2015SOL    HW217679   2.281   0.034   3.685 -1.3439  3.4855  1.3169
 2016SOL     OW17680   1.324   0.217   6.583 -0.4662  0.4255  0.1618
 2016SOL    HW117681   1.260   0.234   6.515 -1.4006 -2.1597  0.3701
 2016SOL    HW217682   1.392   0.269   6.540 -1.2980  2.5496  1.4514
 2017SOL     OW17683   4.521   0.494   8.871  0.3920 -0.6681 -0.3325
 2017SOL    HW117684   4.539   0.433   8.799  4.2424  0.5140 -0.3261
 2017SOL    HW217685   4.457   0.451   8.928  1.8326  0.6713  2.2784
 2018SOL     OW17686   3.897   3.936   4.390 -0.0925  0.4704 -0.8113
 2018SOL    HW117687   3.812   3.895   4.375  0.0509 -1.4313  3.5806
 2018SOL    HW217688   3.940   3.916   4.307  0.0975 -0.9019 -0.3804
 2019SOL     OW17689   3.647   1.993   6.865 -0.7483 -0.4045 -0.3339
 2019SOL    HW117690   3.589   2.068   6.864  1.1794  1.0879 -0.4909
 2019SOL    HW217691   3.696   2.000   6.947 -0.7721  1.2851 -0.4626
 2020SOL     OW17692   2.400   0.442   1.768  0.6140 -0.7806  0.4599
 2020SOL    HW117693   2.433   0.492   1.693  0.4145 -0.1205  0.8049
 2020SOL    HW217694   2.330   0.505   1.790  0.4114 -0.1074 -2.0980
 2021SOL     OW17695   2.646   0.386  15.995  0.1575  0.3701 -0.6093
 2021SOL    HW117696   2.735   0.359  15.972  0.1339  1.8402 -2.4376
 2021SOL    HW217697   2.626   0.445  15.922 -1.1127 -0.2221 -0.7387
 2022SOL     OW17698   3.727   0.357   2.154 -0.4529  0.4915 -0.0225
 2022SOL    HW117699   3.801   0.350   2.093 -0.2113 -1.2846  0.4708
 2022SOL    HW217700   3.660   0.300   2.116  1.9902 -1.0449 -2.0890
 2023SOL     OW17701   4.680   1.689   7.287  0.2405  0.1688  0.1302
 2023SOL    HW117702   4.641   1.735   7.362  2.4206  0.6154  0.9853
 2023SOL    HW217703   4.647   1.728   7.206  0.5186 -2.1913 -1.1259
 2024SOL     OW17704   3.962   1.387   8.877 -0.3540  0.6172 -0.1413
 2024SOL    HW117705   3.943   1.404   8.970 -0.1974 -0.0804  0.0123
 2024SOL    HW217706   4.058   1.389   8.879 -0.3419 -1.4561  2.0362
 2025SOL     OW17707   3.905   2.909   3.471  0.4048 -0.3291  0.3625
 2025SOL    HW117708   3.860   2.951   3.544  0.8822 -2.4903  1.9003
 2025SOL    HW217709   3.946   2.829   3.505  1.9588  0.3070 -0.0313
 2026SOL     OW17710   4.085   3.773   8.950  0.4996 -0.0564  0.0608
 2026SOL    HW117711   4.100   3.724   8.870  1.9825  0.1324  0.2275
 2026SOL    HW217712   4.017   3.726   8.998 -0.4832  0.8280 -0.4544
 2027SOL     OW17713   0.079   0.111   2.407 -0.2582 -0.4123 -0.0920
 2027SOL    HW117714   0.023   0.179   2.369  1.9149  2.5273  1.9211
 2027SOL    HW217715   0.137   0.166   2.460 -0.7839 -1.3047  1.3902
 2028SOL     OW17716   2.189   1.838   3.541  0.7124 -0.1771 -0.5897
 2028SOL    HW117717   2.250   1.768   3.518  0.5262  0.5599 -3.2911
 2028SOL    HW217718   2.103   1.810   3.510 -1.0028  1.1925  2.8644
 2029SOL     OW17719   1.262   4.420  11.098  0.0081  0.1020 -0.1070
 2029SOL    HW117720   1.218   4.485  11.044  1.5762  0.1146 -1.3478
 2029SOL    HW217721   1.184   4.393  11.147  0.7286  1.9305  2.0160
 2030SOL     OW17722   3.799   2.870   5.708  0.1744  0.0985  0.0077
 2030SOL    HW117723   3.882   2.826   5.690 -0.4337 -0.2189 -2.0164
 2030SOL    HW217724   3.827   2.957   5.733 -3.0682  1.0724  0.3226
 2031SOL     OW17725   1.435   0.806   7.190  0.3567  0.3010  0.0672
 2031SOL    HW117726   1.379   0.828   7.264 -0.8915  0.2912 -0.8798
 2031SOL    HW217727   1.374   0.745   7.149 -0.7247  1.0043  0.6075
 2032SOL     OW17728   1.920   2.133   3.767  0.2611 -0.4147  0.7490
 2032SOL    HW117729   1.910   2.219   3.807 -0.8410 -1.1060  1.9728
 2032SOL    HW217730   1.934   2.168   3.679  1.0450 -2.2394  0.1428
 2033SOL     OW17731   4.451   0.019   3.784 -0.7339  0.0189  0.2916
 2033SOL    HW117732   4.457   4.671   3.751  0.0777 -0.7656  2.5341
 2033SOL    HW217733   4.415   0.070   3.711 -0.9859 -0.1299  0.3131
 2034SOL     OW17734   0.123   3.371   8.702 -0.1293 -0.2824  0.3398
 2034SOL    HW117735   0.194   3.391   8.763  1.0800 -0.1128 -1.1186
 2034SOL    HW217736   0.119   3.452   8.651  0.3113 -0.1746  0.4753
 2035SOL     OW17737   2.417   3.941   0.359 -0.1323  0.0708  0.3275
 2035SOL    HW117738   2.381   3.968   0.444 -0.4468 -0.6249  0.4176
 2035SOL    HW217739   2.345   3.888   0.323 -1.4685  0.5510  2.2782
 2036SOL     OW17740   1.153   3.297   5.418 -0.9258 -0.5476 -0.1332
 2036SOL    HW117741   1.120   3.384   5.440  2.2006  0.7888 -0.7344
 2036SOL    HW217742   1.177   3.302   5.326  1.7007  0.1771  0.5609
 2037SOL     OW17743   3.004   4.302   7.562 -0.2024 -0.3596 -0.1220
 2037SOL    HW117744   3.071   4.248   7.521  0.4274  1.6556 -1.7475
 2037SOL    HW217745   2.992   4.256   7.645 -2.4478 -1.0715 -0.8333
 2038SOL     OW17746   0.609   0.116   3.514  0.2173  0.1000  0.0071
 2038SOL    HW117747   0.571   0.108   3.601  1.9568 -0.0635  0.7564
 2038SOL    HW217748   0.650   0.203   3.518  1.1620 -0.3337 -0.1540
 2039SOL     OW17749   2.398   4.509   4.567  0.3265  0.3909  0.2688
 2039SOL    HW117750   2.384   4.441   4.501 -1.6683  1.3859 -0.3204
 2039SOL    HW217751   2.325   4.568   4.547  0.6424  0.8491  0.4667
 2040SOL     OW17752   3.787   4.142   6.572 -0.0140 -0.1450  0.3921
 2040SOL    HW117753   3.828   4.057   6.554 -0.1734  0.2578 -1.8405
 2040SOL    HW217754   3.853   4.196   6.530  2.2677 -2.8758  0.4423
 2041SOL     OW17755   1.248   1.237   6.495 -0.2081 -0.4071  0.5742
 2041SOL    HW117756   1.329   1.283   6.474  0.6265 -1.3137  1.8357
 2041SOL    HW217757   1.245   1.185   6.414 -1.3206 -1.0154  1.0056
 2042SOL     OW17758   0.023   0.527   8.508 -0.4785  0.1794 -0.5769
 2042SOL    HW117759   4.697   0.460   8.500 -0.3274  0.1929 -1.9975
 2042SOL    HW217760   4.713   0.598   8.471 -1.9629 -0.4390  0.3055
 2043SOL     OW17761   1.476   3.806   2.678  0.4172  0.4983 -0.3171
 2043SOL    HW117762   1.560   3.850   2.674  1.2654 -1.0108  0.9590
 2043SOL    HW217763   1.424   3.878   2.714 -0.9877  0.1386 -1.6287
 2044SOL     OW17764   4.608   0.689  13.842  0.2383  0.3098  0.5475
 2044SOL    HW117765   4.600   0.783  13.853 -0.2247  0.0493  2.5213
 2044SOL    HW217766   4.581   0.682  13.750 -1.6143 -1.3258  1.2188
 2045SOL     OW17767   1.627   3.199   7.046 -0.5802 -0.4104  0.5274
 2045SOL    HW117768   1.582   3.201   6.961 -0.3825 -0.2886  0.4267
 2045SOL    HW217769   1.662   3.110   7.053 -0.9886 -0.5028  1.4658
 2046SOL     OW17770   1.359   2.182   7.024  0.4341 -0.1544 -0.3770
 2046SOL    HW117771   1.446   2.184   6.984 -0.0908 -0.3414 -1.5263
 2046SOL    HW217772   1.338   2.089   7.030  3.1503 -0.8296 -1.2973
 2047SOL     OW17773   2.945   2.366   3.966 -0.2455  0.1054 -0.0652
 2047SOL    HW117774   3.022   2.403   3.923  1.1246 -1.3612  1.1410
 2047SOL    HW217775   2.890   2.438   3.997 -0.6643 -0.3138  0.1661
 2048SOL     OW17776   1.487   1.580  16.856 -0.1945  0.2957 -0.0378
 2048SOL    HW117777   1.500   1.602  16.763 -0.3401 -1.1086 -0.3852
 2048SOL    HW217778   1.485   1.486  16.841  2.1251  0.0380  1.2992
 2049SOL     OW17779   0.581   2.945   9.128  0.2691  0.2010  0.7553
 2049SOL    HW117780   0.651   2.913   9.185  2.3068  0.1691 -1.7507
 2049SOL    HW217781   0.549   2.863   9.089  0.1067 -0.2864  1.8937
 2050SOL     OW17782   4.191   1.627  16.032 -0.8559  0.1564  0.3477
 2050SOL    HW117783   4.120   1.652  15.973 -0.7190  0.0887  0.1518
 2050SOL    HW217784   4.176   1.533  16.045  0.4037 -0.1672 -0.4830
 2051SOL     OW17785   3.882   3.915   3.274  0.2170  0.9807  0.2153
 2051SOL    HW117786   3.961   3.968   3.284  0.6996  0.2993 -0.0022
 2051SOL    HW217787   3.913   3.849   3.213 -0.1211  0.7213  0.3294
 2052SOL     OW17788   0.391   4.658  16.575  0.5359 -0.1091 -0.2556
 2052SOL    HW117789   0.439   4.681  16.496 -1.0330  0.1467 -1.1410
 2052SOL    HW217790   0.449   4.587  16.603 -0.7317 -1.2434 -0.5399
 2053SOL     OW17791   0.283   4.151   0.660  0.1683 -0.5959 -0.1073
 2053SOL    HW117792   0.313   4.232   0.618 -0.9307  0.7886  1.7932
 2053SOL    HW217793   0.273   4.182   0.750 -1.4238  0.3944 -0.6298
 2054SOL     OW17794   3.298   3.778   8.569 -0.3129 -0.5879 -0.6009
 2054SOL    HW117795   3.392   3.794   8.575 -0.6758  1.1957  0.3666
 2054SOL    HW217796   3.281   3.742   8.656  3.7761  1.0917  0.8622
 2055SOL     OW17797   1.128   3.946   1.860 -0.2299  0.3716  0.0621
 2055SOL    HW117798   1.193   3.906   1.803  1.3243 -1.7443  3.3045
 2055SOL    HW217799   1.126   3.872   1.922  0.9760  2.5080  2.6594
 2056SOL     OW17800   1.422   2.686   5.564  0.3718 -0.1180  0.3485
 2056SOL    HW117801   1.336   2.726   5.578  0.6349  0.9645 -1.1107
 2056SOL    HW217802   1.456   2.710   5.478  0.2196  0.7477  0.5354
 2057SOL     OW17803   1.717   2.228   8.628  0.7713 -0.3180 -0.2690
 2057SOL    HW117804   1.703   2.269   8.542  0.8718 -1.0948 -0.6560
 2057SOL    HW217805   1.793   2.174   8.605 -1.6487 -3.0156 -1.9926
 2058SOL     OW17806   2.337   2.794  10.324 -0.1396  0.1554 -0.2615
 2058SOL    HW117807   2.286   2.714  10.337 -0.4481  0.7171  2.0558
 2058SOL    HW217808   2.289   2.853  10.381  1.8688  1.5376  0.0121
 2059SOL     OW17809   0.695   2.780  16.828  0.0202  0.3169 -0.5610
 2059SOL    HW117810   0.774   2.807  16.874 -0.3815 -0.6347  0.6988
 2059SOL    HW217811   0.699   2.824  16.743  2.2780  0.0539 -0.5967
 2060SOL     OW17812   2.848   3.560   9.412  0.7437 -0.0755  0.3976
 2060SOL    HW117813   2.885   3.520   9.334 -2.4019 -1.4112 -0.4036
 2060SOL    HW217814   2.770   3.504   9.413  1.2235 -0.7198  1.5902
 2061SOL     OW17815   3.770   0.769   9.586 -0.2851 -0.0266  0.8301
 2061SOL    HW117816   3.794   0.815   9.506 -0.2229  1.6443  1.8262
 2061SOL    HW217817   3.695   0.715   9.558 -1.1582  1.1679  0.8747
 2062SOL     OW17818   1.861   3.929   5.913  0.3264 -0.5052  0.1769
 2062SOL    HW117819   1.778   3.888   5.937 -0.2917 -0.0372 -1.1697
 2062SOL    HW217820   1.826   4.004   5.865  1.5262 -0.4177 -0.5643
 2063SOL     OW17821   3.503   0.111   0.889  0.1749  0.0483 -0.3440
 2063SOL    HW117822   3.474   0.052   0.958 -0.3660  0.1986 -0.4427
 2063SOL    HW217823   3.590   0.075   0.870 -0.7599 -1.2264 -2.2317
 2064SOL     OW17824   0.606   0.237   8.782 -0.1509  0.3562 -0.0213
 2064SOL    HW117825   0.559   0.159   8.809 -2.0869  1.1128 -1.1725
 2064SOL    HW217826   0.650   0.205   8.703 -0.5744  0.4626 -0.2979
 2065SOL     OW17827   1.528   0.267  11.583 -0.4678 -0.0114  0.2710
 2065SOL    HW117828   1.591   0.326  11.623  1.2819 -0.7750 -1.3602
 2065SOL    HW217829   1.587   0.192  11.573  0.3874  0.8376 -0.9822
 2066SOL     OW17830   4.660   1.219   5.972  0.4509 -0.2146 -0.2769
 2066SOL    HW117831   4.676   1.129   5.940 -0.2537 -0.1674 -0.7571
 2066SOL    HW217832   4.685   1.213   6.064  0.5446 -0.8301 -0.3384
 2067SOL     OW17833   0.987   2.754   7.976 -0.3130  0.0359 -0.1909
 2067SOL    HW117834   0.914   2.760   7.914  0.4670  0.1978 -1.0880
 2067SOL    HW217835   1.059   2.745   7.913 -0.5805  1.3953 -0.6933
 2068SOL     OW17836   0.669   0.703   7.227 -0.1643 -0.3066  0.3688
 2068SOL    HW117837   0.737   0.689   7.293 -1.5339 -3.0778  1.2490
 2068SOL    HW217838   0.606   0.743   7.287 -0.3846 -0.6330  0.3575
 2069SOL     OW17839   4.645   4.402   4.573  0.0071  0.6385 -0.0568
 2069SOL    HW117840   4.633   4.428   4.665  2.3436 -0.2462  0.4960
 2069SOL    HW217841   4.556   4.399   4.538  0.0969  2.8468 -0.4730
 2070SOL     OW17842   0.342   4.711   6.241  0.3134 -0.0815  0.4727
 2070SOL    HW117843   0.379   4.643   6.297  1.4977 -0.4696 -0.7676
 2070SOL    HW217844   0.276   4.733   6.306 -1.9362  2.9896 -2.8324
 2071SOL     OW17845   3.650   0.449   8.537 -0.4571  0.8471 -0.1586
 2071SOL    HW117846   3.584   0.475   8.601  0.4466  2.0504  0.2963
 2071SOL    HW217847   3.603   0.439   8.455 -2.2728 -0.8231  1.0955
 2072SOL     OW17848   3.849   1.324   2.991 -0.2847 -0.0873  0.6041
 2072SOL    HW117849   3.799   1.262   3.044 -1.0837 -0.7323 -0.9080
 2072SOL    HW217850   3.839   1.286   2.904  3.0196  0.1599  0.0922
 2073SOL     OW17851   4.110   4.139   0.803 -0.1224 -0.0991  0.4501
 2073SOL    HW117852   4.088   4.061   0.752  0.7485  0.9424 -1.5461
 2073SOL    HW217853   4.062   4.128   0.885 -2.0650 -0.7343 -0.7715
 2074SOL     OW17854   2.225   4.566   8.938 -0.0826  0.3848 -0.7148
 2074SOL    HW117855   2.133   4.580   8.916 -0.9920 -0.2885  2.5676
 2074SOL    HW217856   2.251   4.552   8.847 -2.3348  0.9067 -1.4367
 2075SOL     OW17857   4.447   4.154   7.287 -0.1554  0.4880  0.3003
 2075SOL    HW117858   4.468   4.074   7.239 -1.3061  0.3949 -0.0415
 2075SOL    HW217859   4.482   4.136   7.374 -0.1576 -1.9782 -0.2054
 2076SOL     OW17860   1.106   1.179   9.026  0.2373  0.0681 -0.1248
 2076SOL    HW117861   1.050   1.120   9.076 -0.0919  0.1463 -0.4001
 2076SOL    HW217862   1.089   1.160   8.934  1.3872  0.6283 -0.4544
 2077SOL     OW17863   1.422   4.594   5.486 -0.5719 -0.1471  0.3059
 2077SOL    HW117864   1.406   4.511   5.531  0.6006 -1.3605 -1.5220
 2077SOL    HW217865   1.480   4.555   5.421 -1.5155 -1.6758  0.3821
 2078SOL     OW17866   2.924   3.057   5.360 -0.2012  0.5861  0.0357
 2078SOL    HW117867   2.841   3.049   5.406 -1.3912 -0.7597 -2.3584
 2078SOL    HW217868   2.959   2.969   5.354  0.0658  0.5719  1.8754
 2079SOL     OW17869   3.231   0.670   8.292  0.0193 -0.2878 -0.7413
 2079SOL    HW117870   3.164   0.739   8.289  0.3587  0.1714  1.9473
 2079SOL    HW217871   3.314   0.716   8.282 -0.2820  0.3920 -0.1529
 2080SOL     OW17872   3.794   0.050   8.088 -0.1118  0.2717  0.1342
 2080SOL    HW117873   3.752   0.029   8.171 -1.3609  0.9713 -0.3291
 2080SOL    HW217874   3.872   4.736   8.090  0.6574  1.4389  2.5274
 2081SOL     OW17875   4.692   3.697   8.609 -0.2526 -0.7491  0.3428
 2081SOL    HW117876   4.740   3.756   8.668 -2.0067  0.6300  0.3900
 2081SOL    HW217877   4.717   3.739   8.527 -2.3953  0.8427  0.5195
 2082SOL     OW17878   0.890   0.840   2.202  0.0298 -0.0932  0.6021
 2082SOL    HW117879   0.978   0.862   2.233 -0.0102 -1.2151  1.4978
 2082SOL    HW217880   0.867   0.773   2.267  2.8755 -0.3092  1.4154
 2083SOL     OW17881   4.135   0.199   2.583 -0.1406 -0.1696 -0.7448
 2083SOL    HW117882   4.147   0.105   2.596  0.4852 -0.2774 -2.0812
 2083SOL    HW217883   4.124   0.221   2.675  2.4189 -2.3155  0.0584
 2084SOL     OW17884   2.734   2.639  12.485 -0.2203 -0.5775 -0.0880
 2084SOL    HW117885   2.814   2.688  12.507 -0.0381 -1.5468  1.4308
 2084SOL    HW217886   2.742   2.643  12.390 -0.3603  0.9506 -0.0464
 2085SOL     OW17887   0.226   1.168   2.782 -0.0882  0.0192 -0.0393
 2085SOL    HW117888   0.138   1.187   2.749  0.8105  0.0520 -2.3614
 2085SOL    HW217889   0.243   1.250   2.827  0.2135 -0.0328 -0.0617
 2086SOL     OW17890   2.844   3.567   8.498  0.2865 -0.2969  0.2244
 2086SOL    HW117891   2.817   3.476   8.504 -2.3930  0.3803 -1.7368
 2086SOL    HW217892   2.763   3.610   8.527  0.0047 -0.1736 -0.7515
 2087SOL     OW17893   4.255   1.612   9.031  0.7330  0.1770  0.2729
 2087SOL    HW117894   4.251   1.623   8.936 -1.4635  1.1637  0.4810
 2087SOL    HW217895   4.283   1.521   9.033 -1.0529 -0.4046 -1.1496
 2088SOL     OW17896   0.583   2.447   5.624 -0.0613 -0.3325  0.2860
 2088SOL    HW117897   0.672   2.468   5.596 -0.3070  2.4023  1.5865
 2088SOL    HW217898   0.588   2.353   5.609  0.2825 -0.5506  1.8552
 2089SOL     OW17899   1.193   3.575  11.201 -0.0282 -0.6097 -0.2394
 2089SOL    HW117900   1.220   3.498  11.251  0.8069 -0.0217  0.2198
 2089SOL    HW217901   1.098   3.570  11.194 -0.2249  1.8685  0.9830
 2090SOL     OW17902   4.344   0.327   3.917  0.4525 -0.1894  0.0378
 2090SOL    HW117903   4.260   0.366   3.894  1.4522  2.3539  0.7840
 2090SOL    HW217904   4.375   0.380   3.990  2.1451 -0.2107 -0.6495
 2091SOL     OW17905   3.959   4.678   0.647  0.0239  0.1717 -0.6177
 2091SOL    HW117906   4.022   0.001   0.678  0.0854  0.8129 -2.0805
 2091SOL    HW217907   3.990   4.602   0.696  1.0862  1.0392  0.0406
 2092SOL     OW17908   0.118   3.729   8.365 -0.5230 -0.2816 -0.3449
 2092SOL    HW117909   0.161   3.801   8.410 -0.8013 -1.0464  1.1362
 2092SOL    HW217910   0.072   3.777   8.296  1.6721  1.8418 -0.3075
 2093SOL     OW17911   3.400   2.848   9.900  0.7770 -0.6236  0.3912
 2093SOL    HW117912   3.348   2.839   9.980 -1.4938 -0.1776 -1.0422
 2093SOL    HW217913   3.486   2.856   9.941  2.2835  0.6287 -3.0367
 2094SOL     OW17914   0.857   3.723   1.606  0.1887  0.1567  0.0915
 2094SOL    HW117915   0.763   3.712   1.618 -0.0731  1.1479 -1.1072
 2094SOL    HW217916   0.881   3.725   1.699  0.0415  1.6378  0.0884
 2095SOL     OW17917   3.519   0.727   8.412 -0.1650 -0.0387  0.5398
 2095SOL    HW117918   3.599   0.711   8.361 -1.9506 -3.8096 -1.0773
 2095SOL    HW217919   3.494   0.636   8.426 -3.1761  0.8449  0.8353
 2096SOL     OW17920   3.441   3.417   6.104  0.1831  0.3343  0.1554
 2096SOL    HW117921   3.510   3.388   6.045 -0.4361  1.5411 -1.1691
 2096SOL    HW217922   3.367   3.410   6.043  0.8031 -3.6788 -0.1759
 2097SOL     OW17923   1.982   3.511   2.384 -0.0041 -0.3571  0.6487
 2097SOL    HW117924   2.004   3.541   2.296  0.1554 -3.1393 -0.2338
 2097SOL    HW217925   2.016   3.588   2.430 -0.5471  0.4209 -0.2560
 2098SOL     OW17926   2.350   4.417  16.594 -0.0163  0.2414 -0.7431
 2098SOL    HW117927   2.316   4.507  16.590 -0.7844 -0.0419 -0.4199
 2098SOL    HW217928   2.273   4.364  16.615  0.3571 -0.4036 -1.0122
 2099SOL     OW17929   0.597   0.468   7.738 -0.0915 -0.1603 -0.3626
 2099SOL    HW117930   0.568   0.548   7.694  2.3206  0.9323  0.0035
 2099SOL    HW217931   0.553   0.466   7.823 -1.1321  0.6890 -0.8915
 2100SOL     OW17932   0.990   1.774   2.891  0.4124 -0.0992  0.2853
 2100SOL    HW117933   0.955   1.862   2.875 -0.7234 -0.2529  2.0175
 2100SOL    HW217934   0.948   1.766   2.976  0.8036 -0.3011  0.4618
 2101SOL     OW17935   2.641   2.512  13.626  0.2244 -0.8260  0.3081
 2101SOL    HW117936   2.628   2.599  13.665 -0.7979 -0.4821 -0.7894
 2101SOL    HW217937   2.573   2.457  13.665 -1.1608  1.6912  1.4450
 2102SOL     OW17938   2.046   0.688   7.163  0.5853 -0.2421 -0.0047
 2102SOL    HW117939   1.995   0.610   7.144 -0.0150  0.2167 -0.2535
 2102SOL    HW217940   2.094   0.671   7.244  1.3532 -1.6182 -0.7595
 2103SOL     OW17941   3.906   3.721  10.150 -0.5993 -0.8512  0.3064
 2103SOL    HW117942   3.971   3.652  10.164 -0.6087 -1.0728 -0.7629
 2103SOL    HW217943   3.862   3.718  10.235  0.6108  0.7292  0.9778
 2104SOL     OW17944   3.573   1.187   8.518  0.1743  0.4013 -0.3823
 2104SOL    HW117945   3.656   1.175   8.564  0.2973  1.6273 -0.2754
 2104SOL    HW217946   3.522   1.228   8.589  1.2773  1.9357 -0.4853
 2105SOL     OW17947   1.755   4.741   6.422  0.2199  0.0849  0.0884
 2105SOL    HW117948   1.846   4.713   6.432  0.4506  1.0971  0.9027
 2105SOL    HW217949   1.751   0.084   6.468 -0.4677  0.6261 -0.9727
 2106SOL     OW17950   0.538   0.979   9.965 -0.2439  0.0467  0.5454
 2106SOL    HW117951   0.484   1.058   9.973  0.9395  0.7531  1.6663
 2106SOL    HW217952   0.625   1.013   9.985 -0.8904  1.3481  1.1466
 2107SOL     OW17953   1.522   2.824   5.350  0.1136  0.3398  0.7025
 2107SOL    HW117954   1.452   2.807   5.287  0.6765 -0.4389  0.2903
 2107SOL    HW217955   1.491   2.902   5.396 -0.5691 -0.2248  1.2058
 2108SOL     OW17956   2.710   3.407  16.934 -0.0944  0.6153  0.1275
 2108SOL    HW117957   2.628   3.385  16.978 -0.6642  1.4759 -0.5121
 2108SOL    HW217958   2.775   3.383  16.999  1.8893 -0.2065 -2.1687
 2109SOL     OW17959   3.930   0.387   7.145 -0.2640  0.0861  0.7449
 2109SOL    HW117960   3.969   0.387   7.058 -0.9194  2.7338  0.4612
 2109SOL    HW217961   3.844   0.347   7.129 -0.2537 -0.0263  0.9654
 2110SOL     OW17962   2.692   4.681   9.842  0.3278  0.1227 -0.1457
 2110SOL    HW117963   2.759   0.008   9.843  0.8598 -0.4004  0.1495
 2110SOL    HW217964   2.611   4.724   9.868 -0.2151 -1.0018  0.0392
 2111SOL     OW17965   0.034   4.020  15.080  0.4725  0.3300 -0.0147
 2111SOL    HW117966   0.018   3.974  14.997  1.1776  2.8844 -1.5547
 2111SOL    HW217967   0.116   3.976  15.103 -1.2179 -1.5260  2.4392
 2112SOL     OW17968   3.290   4.525   2.274 -0.2290  0.4490  0.1448
 2112SOL    HW117969   3.361   4.483   2.323  1.6710  2.3065 -1.0278
 2112SOL    HW217970   3.270   4.584   2.346 -1.7011  0.2657 -0.1119
 2113SOL     OW17971   4.426   0.223   2.883  0.3826 -0.1651  0.5700
 2113SOL    HW117972   4.432   0.238   2.789  0.4598 -0.2336  0.5644
 2113SOL    HW217973   4.385   0.302   2.918  0.5038 -0.1200  0.6110
 2114SOL     OW17974   1.344   0.094   3.856  0.6204  0.2286 -0.0737
 2114SOL    HW117975   1.377   0.015   3.899 -0.9440 -0.5741 -0.3819
 2114SOL    HW217976   1.399   0.085   3.778  0.0711 -0.7266 -0.3409
 2115SOL     OW17977   0.888   4.666  14.845 -0.1484 -0.0655  0.2066
 2115SOL    HW117978   0.956   4.650  14.779 -1.0582  0.5835 -0.8973
 2115SOL    HW217979   0.803   4.662  14.801 -0.2670 -0.2095  0.4504
 2116SOL     OW17980   3.446   1.682   4.618  0.5131  0.2197 -0.0109
 2116SOL    HW117981   3.461   1.716   4.707 -1.1259 -0.7227  0.6185
 2116SOL    HW217982   3.420   1.765   4.578 -0.6464 -0.5859 -0.9016
 2117SOL     OW17983   1.471   3.456   2.544 -0.5140  0.5058  0.0690
 2117SOL    HW117984   1.560   3.490   2.538 -0.6340  0.1637 -3.4105
 2117SOL    HW217985   1.432   3.479   2.629  0.5934 -2.4771  1.3797
 2118SOL     OW17986   2.361   4.288   7.628  0.0710  0.0410  0.2207
 2118SOL    HW117987   2.454   4.277   7.648 -0.3567 -2.0394  1.0081
 2118SOL    HW217988   2.349   4.382   7.643  1.9078  0.4815 -1.0317
 2119SOL     OW17989   2.766   4.493   6.378 -0.0732 -0.5741  0.0416
 2119SOL    HW117990   2.793   4.501   6.470  1.2411 -1.6156 -0.2427
 2119SOL    HW217991   2.673   4.472   6.383 -0.3672  0.1005 -2.6441
 2120SOL     OW17992   3.897   2.738   2.135 -0.2431 -0.5007  0.4403
 2120SOL    HW117993   3.951   2.693   2.071  0.2868 -0.0071  0.5422
 2120SOL    HW217994   3.848   2.657   2.150  0.5585 -0.9379  0.6776
 2121SOL     OW17995   3.159   2.431   6.906 -0.4593  0.5347  0.0744
 2121SOL    HW117996   3.206   2.424   6.823 -0.2928 -0.4493  0.2534
 2121SOL    HW217997   3.078   2.474   6.876 -0.9783 -0.3539  0.1932
 2122SOL     OW17998   3.670   1.481   7.965  0.3301 -0.5012  0.5233
 2122SOL    HW117999   3.637   1.556   7.915  0.6925 -1.4409 -1.1318
 2122SOL    HW218000   3.581   1.454   7.987 -0.5258  1.8114 -0.1051
 2123SOL     OW18001   0.457   4.653  13.917 -0.1618 -0.1504  0.7553
 2123SOL    HW118002   0.392   4.675  13.850 -0.5843 -0.8583  0.9321
 2123SOL    HW218003   0.410   4.584  13.965 -0.6165  0.5201  1.2644
 2124SOL     OW18004   1.752   3.205   7.817 -0.0999  0.1702 -0.4863
 2124SOL    HW118005   1.743   3.279   7.757  0.9301 -0.1044 -0.9892
 2124SOL    HW218006   1.824   3.245   7.866 -0.4334 -0.4296  0.4852
 2125SOL     OW18007   1.786   0.630   2.668 -0.3219  1.6586 -0.0080
 2125SOL    HW118008   1.843   0.559   2.636 -1.1118 -0.1913  2.7148
 2125SOL    HW218009   1.850   0.700   2.655  0.7143  0.3392 -2.1657
 2126SOL     OW18010   1.349   4.262   2.371 -0.2030 -0.4488 -0.1661
 2126SOL    HW118011   1.289   4.235   2.301  1.4209  0.5034 -1.9427
 2126SOL    HW218012   1.415   4.193   2.374  2.5965  2.2612  0.4460
 2127SOL     OW18013   1.708   2.205   5.336 -0.5671  0.1777  0.3457
 2127SOL    HW118014   1.770   2.136   5.357 -1.7884 -1.1978 -0.5818
 2127SOL    HW218015   1.742   2.281   5.384  1.1526 -0.1087 -0.4301
 2128SOL     OW18016   4.394   1.112   3.786  0.0694 -0.0362  0.6827
 2128SOL    HW118017   4.354   1.054   3.721  0.1578  0.8662 -0.1831
 2128SOL    HW218018   4.327   1.180   3.782  0.7737  0.4943 -2.4382
 2129SOL     OW18019   0.813   3.007   3.066 -0.2462  0.2863  0.4979
 2129SOL    HW118020   0.895   3.056   3.059  0.7334 -1.8164 -3.0649
 2129SOL    HW218021   0.771   3.036   3.147  0.4466 -0.0566  0.9792
 2130SOL     OW18022   0.769   2.511   3.106 -0.0938  0.3041 -0.3511
 2130SOL    HW118023   0.683   2.539   3.077 -0.6289 -1.3746 -0.4219
 2130SOL    HW218024   0.794   2.443   3.043  0.5243 -0.9235  1.1968
 2131SOL     OW18025   4.590   1.841   3.205 -0.3582  0.1129 -0.3110
 2131SOL    HW118026   4.609   1.889   3.286  2.1856 -1.0911 -0.2130
 2131SOL    HW218027   4.663   1.863   3.148  1.1546  0.0099  1.5886
 2132SOL     OW18028   0.183   4.420  14.267 -0.4429  0.5459  0.4727
 2132SOL    HW118029   0.218   4.439  14.354  1.1369 -1.1222  0.2072
 2132SOL    HW218030   0.109   4.364  14.291  0.3925 -1.2171 -1.0842
 2133SOL     OW18031   1.287   1.932   5.347  0.2640  0.4302  0.0372
 2133SOL    HW118032   1.334   2.009   5.377 -1.2943  0.4480  2.4591
 2133SOL    HW218033   1.203   1.971   5.321  0.3734 -0.6679 -2.0167
 2134SOL     OW18034   1.241   1.693  11.082 -0.1792 -0.7377  0.0792
 2134SOL    HW118035   1.318   1.640  11.065  0.2697  0.7635 -2.6672
 2134SOL    HW218036   1.267   1.785  11.089 -0.8902 -0.6531  1.5955
 2135SOL     OW18037   3.894   4.324   5.903  0.0481  0.0539 -0.1215
 2135SOL    HW118038   3.862   4.382   5.834  1.2576 -2.6456 -2.9229
 2135SOL    HW218039   3.978   4.309   5.860 -0.0799  0.6617 -0.5847
 2136SOL     OW18040   1.505   2.708   4.354 -0.3719 -0.0292  0.3217
 2136SOL    HW118041   1.434   2.770   4.371  0.3114  0.6979  0.5313
 2136SOL    HW218042   1.525   2.735   4.264  1.3063 -0.1989  0.6364
 2137SOL     OW18043   3.031   4.692   2.686  0.4068  0.1732  0.1593
 2137SOL    HW118044   3.089   4.685   2.761  0.5277 -0.6154 -0.0043
 2137SOL    HW218045   2.982   0.032   2.698  0.8413  0.5547 -0.6694
 2138SOL     OW18046   0.057   0.548  13.036 -0.0626  0.0327 -0.2125
 2138SOL    HW118047   0.143   0.574  13.069 -0.3728  0.4809  0.2300
 2138SOL    HW218048   0.020   0.506  13.114  0.4990  2.0236  1.1150
 2139SOL     OW18049   1.896   3.503   9.408 -0.5806  0.3457  0.7990
 2139SOL    HW118050   1.988   3.511   9.432  0.0009 -0.7489 -1.1212
 2139SOL    HW218051   1.861   3.430   9.460 -3.4193  0.0220 -1.5826
 2140SOL     OW18052   3.058   0.552   7.343 -0.2983  0.1295  0.1759
 2140SOL    HW118053   3.010   0.594   7.414  0.2522  1.5202 -0.2761
 2140SOL    HW218054   3.113   0.628   7.326  1.9210 -1.3619  0.6402
 2141SOL     OW18055   2.859   3.091   5.087  0.2556  0.2383 -0.3743
 2141SOL    HW118056   2.766   3.102   5.108 -0.0550  1.1758 -2.1769
 2141SOL    HW218057   2.891   3.090   5.177 -2.1677 -1.5392  0.4769
 2142SOL     OW18058   1.366   2.958  11.353 -0.0044  0.4333 -0.2259
 2142SOL    HW118059   1.441   3.016  11.371  0.6108 -0.3678 -0.2124
 2142SOL    HW218060   1.329   2.931  11.437  1.1961  0.1927  0.2381
 2143SOL     OW18061   0.909   3.276  10.351  0.4485 -0.0640  0.2471
 2143SOL    HW118062   0.927   3.298  10.259  1.6383 -0.5205  0.3674
 2143SOL    HW218063   0.831   3.221  10.345  1.3789 -1.2411 -1.0530
 2144SOL     OW18064   2.027   0.881   4.134 -0.1630  0.0171 -0.3946
 2144SOL    HW118065   2.111   0.894   4.179 -0.4051 -0.9985  0.3626
 2144SOL    HW218066   2.002   0.973   4.127 -0.2160  0.0639  0.3545
 2145SOL     OW18067   3.902   1.420   9.137 -0.1709 -0.4239 -0.1940
 2145SOL    HW118068   3.895   1.400   9.230  1.0909  0.5783  0.1073
 2145SOL    HW218069   3.918   1.514   9.137  2.1632 -0.8361 -0.6966
 2146SOL     OW18070   1.196   0.722   8.484  0.6927 -0.3993 -0.4066
 2146SOL    HW118071   1.122   0.721   8.545  1.4357 -1.3754  0.4736
 2146SOL    HW218072   1.259   0.678   8.541 -0.6733 -2.2267 -0.2971
 2147SOL     OW18073   0.410   0.732   6.599 -0.1540 -0.3020  0.8737
 2147SOL    HW118074   0.503   0.748   6.610 -0.2979  1.7084 -0.9953
 2147SOL    HW218075   0.396   0.658   6.659  2.7939 -2.3261 -0.9868
 2148SOL     OW18076   0.254   0.221   7.234 -0.3933 -0.1459  0.1726
 2148SOL    HW118077   0.311   0.292   7.204  0.7993 -0.6994  1.1098
 2148SOL    HW218078   0.183   0.273   7.272  1.4531  1.9578  0.7661
 2149SOL     OW18079   0.838   2.423  13.583  0.1115  0.0379 -0.0425
 2149SOL    HW118080   0.923   2.456  13.555  0.1066  2.5637  2.8414
 2149SOL    HW218081   0.786   2.492  13.543  0.5900 -0.6383 -1.7960
 2150SOL     OW18082   2.869   3.451   8.135 -0.3236  0.2189  0.3094
 2150SOL    HW118083   2.792   3.436   8.190 -1.8222  3.0185 -1.0152
 2150SOL    HW218084   2.844   3.530   8.087  0.2597 -0.3731 -0.9787
 2151SOL     OW18085   1.533   2.099   3.462  0.6459  0.3847  0.0318
 2151SOL    HW118086   1.457   2.150   3.491 -0.2453 -0.5228 -0.7402
 2151SOL    HW218087   1.508   2.075   3.373  0.7440  1.5405 -0.3108
 2152SOL     OW18088   4.312   1.930   6.677  0.0310 -0.7919  0.0680
 2152SOL    HW118089   4.323   1.883   6.595 -0.2249 -0.3809 -0.2019
 2152SOL    HW218090   4.302   1.867   6.748 -0.8014 -2.8657 -1.9181
 2153SOL     OW18091   0.843   3.998   7.382  0.0713  0.0840 -0.5466
 2153SOL    HW118092   0.910   4.049   7.337  1.5089 -1.4247 -0.1264
 2153SOL    HW218093   0.819   3.948   7.304 -1.7624 -1.2144  0.8482
 2154SOL     OW18094   1.388   0.139   6.130  0.3405 -0.1411 -0.1404
 2154SOL    HW118095   1.462   0.184   6.170  1.7789  0.1581 -3.1095
 2154SOL    HW218096   1.409   0.153   6.038 -1.6249 -2.0092 -0.8819
 2155SOL     OW18097   4.741   3.517   3.577 -0.0565  0.0997  0.2150
 2155SOL    HW118098   4.691   3.449   3.622  2.1429 -0.3162  2.0285
 2155SOL    HW218099   0.085   3.487   3.608  1.2645  2.1306 -1.4643
 2156SOL     OW18100   3.124   3.953  16.038  0.4193 -0.5004 -0.4173
 2156SOL    HW118101   3.211   3.963  16.078  0.7435  0.9752 -1.4963
 2156SOL    HW218102   3.100   3.874  16.085 -0.4970  0.4617  0.7174
 2157SOL     OW18103   2.800   0.247  14.793 -0.2026  0.2796 -0.4559
 2157SOL    HW118104   2.744   0.270  14.718  0.1010  2.6532  0.0553
 2157SOL    HW218105   2.867   0.200  14.743 -2.0249 -1.3462 -1.3829
 2158SOL     OW18106   2.034   1.311   2.090  0.0685 -0.7899  0.1449
 2158SOL    HW118107   2.007   1.323   1.999  4.0543 -0.7824 -1.0280
 2158SOL    HW218108   1.974   1.370   2.137 -0.3865 -2.3960  1.5859
 2159SOL     OW18109   2.625   4.562   7.483  0.1169 -0.0627  0.0210
 2159SOL    HW118110   2.543   4.513   7.481  0.3245 -0.3680 -0.8671
 2159SOL    HW218111   2.633   4.604   7.398  0.9100  0.6411  0.4422
 2160SOL     OW18112   1.675   3.738   9.033 -0.4931  0.0196  0.8769
 2160SOL    HW118113   1.637   3.653   9.009 -0.0542  0.2154 -0.4965
 2160SOL    HW218114   1.745   3.705   9.090  0.6879  0.4634 -0.3273
 2161SOL     OW18115   0.002   0.124   7.726  0.5306 -0.1110  0.7102
 2161SOL    HW118116   4.731   0.040   7.681 -0.4487  0.5655 -0.2800
 2161SOL    HW218117   0.084   0.158   7.691  0.0335 -1.5773 -1.9241
 2162SOL     OW18118   2.211   1.647   6.442 -0.1528 -0.4505  0.3153
 2162SOL    HW118119   2.301   1.625   6.466 -0.0441 -0.3253  0.0222
 2162SOL    HW218120   2.165   1.589   6.503 -2.3882  0.8793 -0.1070
 2163SOL     OW18121   2.607   3.242   7.545 -0.3961  0.0483  0.3783
 2163SOL    HW118122   2.685   3.219   7.596 -0.8058 -2.7638 -0.2613
 2163SOL    HW218123   2.537   3.241   7.611  2.1239  2.4173  3.0827
 2164SOL     OW18124   3.644   0.680   2.128  0.0765 -0.1163 -0.4713
 2164SOL    HW118125   3.712   0.618   2.100 -1.3217 -1.0986 -1.6731
 2164SOL    HW218126   3.678   0.758   2.084  2.3670 -0.6965  0.2535
 2165SOL     OW18127   0.035   2.399   4.328  0.0317 -0.0098 -0.0734
 2165SOL    HW118128   0.101   2.331   4.339 -0.0254 -0.4000 -2.1377
 2165SOL    HW218129   0.086   2.480   4.337  1.7049 -1.2932  1.8869
 2166SOL     OW18130   3.172   2.540   2.514  0.5937  0.4920  0.2868
 2166SOL    HW118131   3.136   2.629   2.507 -0.4424  0.0484 -0.0905
 2166SOL    HW218132   3.263   2.557   2.539  0.7154  0.6435 -0.2615
 2167SOL     OW18133   4.669   1.204   4.312 -0.7753  0.2096 -0.2571
 2167SOL    HW118134   4.671   1.184   4.406  0.4469  1.4762 -0.0000
 2167SOL    HW218135   4.577   1.218   4.289 -1.0479 -0.0901  0.6326
 2168SOL     OW18136   4.587   2.659   3.544  0.0729  0.1979  0.3000
 2168SOL    HW118137   4.580   2.572   3.504  0.9961  1.1918 -1.9732
 2168SOL    HW218138   4.507   2.686   3.498  1.2592  2.4865 -0.4163
 2169SOL     OW18139   1.692   3.412  14.364 -0.1545  0.2080  0.0490
 2169SOL    HW118140   1.727   3.353  14.430 -0.7081 -0.2365 -0.0579
 2169SOL    HW218141   1.658   3.354  14.296 -0.0714  1.0655 -0.7288
 2170SOL     OW18142   0.528   4.330   6.116  0.2243  0.2369  0.0686
 2170SOL    HW118143   0.570   4.245   6.111  0.1495  0.3174 -2.1958
 2170SOL    HW218144   0.546   4.338   6.209 -0.5277  0.9552  0.1504
 2171SOL     OW18145   0.637   0.969   2.344 -0.1574 -0.2017  0.1885
 2171SOL    HW118146   0.732   0.973   2.359 -0.1452  1.9547 -0.4541
 2171SOL    HW218147   0.613   1.061   2.347 -0.4494 -0.3162  1.1503
 2172SOL     OW18148   2.453   2.149   4.097 -0.4065  0.2816 -0.9042
 2172SOL    HW118149   2.414   2.182   4.178 -0.1903  0.9412 -1.0715
 2172SOL    HW218150   2.462   2.228   4.044  0.3458  0.1801 -0.9239
 2173SOL     OW18151   3.408   2.504   2.360 -0.1099 -0.6250 -0.1722
 2173SOL    HW118152   3.446   2.417   2.373 -1.0743 -1.3803 -2.4379
 2173SOL    HW218153   3.314   2.490   2.353 -0.2736  0.1412  0.4294
 2174SOL     OW18154   0.976   1.515   4.690  0.3804 -0.4455 -0.4280
 2174SOL    HW118155   1.057   1.544   4.734  0.7670 -1.1125 -0.7001
 2174SOL    HW218156   0.957   1.596   4.644  4.1379  1.0242  0.6087
 2175SOL     OW18157   3.096   2.959   9.582 -0.5944 -0.2084  0.8100
 2175SOL    HW118158   3.191   2.965   9.575 -0.7760 -0.5521 -1.8683
 2175SOL    HW218159   3.085   2.873   9.623 -2.2976  0.2385  1.3133
 2176SOL     OW18160   3.738   2.470   8.490 -0.4976 -0.7019  0.1098
 2176SOL    HW118161   3.812   2.522   8.523 -0.2768  0.1375 -1.7535
 2176SOL    HW218162   3.779   2.386   8.512  0.1169 -0.9827 -2.1128
 2177SOL     OW18163   3.515   2.983   6.456  0.2144  0.1297  0.3198
 2177SOL    HW118164   3.485   2.902   6.414 -0.2155 -0.0494  0.9738
 2177SOL    HW218165   3.505   3.036   6.377 -1.2529  0.5637  0.7898
 2178SOL     OW18166   3.617   1.534   8.736 -0.5801 -0.3371 -0.7871
 2178SOL    HW118167   3.672   1.583   8.798  0.5094  0.0323 -2.0540
 2178SOL    HW218168   3.556   1.606   8.718 -0.0458 -0.2613 -2.2433
 2179SOL     OW18169   3.419   0.046   8.108 -0.0754 -0.8432 -0.1638
 2179SOL    HW118170   3.346   0.011   8.057  0.4521 -1.5167 -0.4571
 2179SOL    HW218171   3.481   4.716   8.094  0.0162 -0.1442 -3.2442
 2180SOL     OW18172   3.803   2.151  16.374 -0.4970 -0.2270  0.2585
 2180SOL    HW118173   3.777   2.060  16.383 -1.7216 -0.0352 -1.4245
 2180SOL    HW218174   3.717   2.192  16.385 -0.7136 -0.0337 -2.2464
 2181SOL     OW18175   2.832   3.679  13.515  0.3964 -0.3160 -0.0368
 2181SOL    HW118176   2.774   3.755  13.515 -0.3979 -0.9244 -1.1277
 2181SOL    HW218177   2.770   3.611  13.488 -0.8447  0.2531  1.3855
 2182SOL     OW18178   3.370   1.491   8.436 -0.4476 -0.0007 -0.7960
 2182SOL    HW118179   3.412   1.559   8.383 -2.0699 -1.3885 -3.8551
 2182SOL    HW218180   3.364   1.412   8.382  1.0764 -0.6027 -0.0924
 2183SOL     OW18181   1.081   0.121   4.291 -0.0542  0.0794  0.2498
 2183SOL    HW118182   1.102   0.029   4.306 -1.4904 -0.4218 -0.7936
 2183SOL    HW218183   1.121   0.163   4.367 -1.7172 -0.4187  1.3915
 2184SOL     OW18184   0.358   1.645   9.469 -0.0188  0.0798  0.1664
 2184SOL    HW118185   0.272   1.652   9.429 -1.5427 -1.1935  3.1988
 2184SOL    HW218186   0.326   1.579   9.531 -1.7566 -1.0351 -1.9306
 2185SOL     OW18187   0.694   3.666  15.298  0.2122  0.2594  0.0286
 2185SOL    HW118188   0.670   3.729  15.366 -0.0930 -0.0882  0.2437
 2185SOL    HW218189   0.787   3.691  15.297  1.0950 -3.0348 -0.4150
 2186SOL     OW18190   2.929   1.851   4.704 -0.2474 -0.5912  0.3068
 2186SOL    HW118191   2.952   1.939   4.674  1.9566 -1.2004  0.1664
 2186SOL    HW218192   2.841   1.853   4.667 -0.3045 -0.2218  0.4623
 2187SOL     OW18193   1.076   1.795   6.508 -0.1576  0.0016 -0.5496
 2187SOL    HW118194   1.042   1.875   6.467  1.4702  1.0931  0.2623
 2187SOL    HW218195   1.046   1.733   6.441 -3.1727 -0.5222  1.2467
 2188SOL     OW18196   3.659   1.157   3.758 -0.6141  0.5728 -0.1601
 2188SOL    HW118197   3.726   1.090   3.746 -0.4636  0.7986 -0.5790
 2188SOL    HW218198   3.661   1.151   3.853 -0.1872  1.1514 -0.1294
 2189SOL     OW18199   3.607   0.283   8.891 -0.3457  0.3939  0.0101
 2189SOL    HW118200   3.545   0.219   8.856  0.4800  0.0255 -0.8058
 2189SOL    HW218201   3.687   0.255   8.845 -1.0320  0.7604 -1.4170
 2190SOL     OW18202   0.969   1.237   2.445  0.2858 -0.1429  0.3452
 2190SOL    HW118203   1.037   1.171   2.432  0.3708 -0.2096  1.1249
 2190SOL    HW218204   0.976   1.296   2.370  1.5270 -1.1921 -0.3690
 2191SOL     OW18205   3.721   4.011   8.722 -0.2629 -0.2735  0.0754
 2191SOL    HW118206   3.740   3.932   8.774 -1.2253 -0.5111  0.0604
 2191SOL    HW218207   3.732   4.084   8.783  0.8263 -1.8331  1.7826
 2192SOL     OW18208   4.493   4.676   5.239 -0.0068  0.3623 -0.2771
 2192SOL    HW118209   4.406   4.639   5.222 -0.0131  0.1957  0.1069
 2192SOL    HW218210   4.538   4.678   5.155 -1.0398 -1.1119 -0.8656
 2193SOL     OW18211   0.793   2.213   8.337  0.3859  0.4713  0.1523
 2193SOL    HW118212   0.738   2.287   8.363 -0.9787  0.1733 -1.9170
 2193SOL    HW218213   0.812   2.179   8.425  0.4551 -2.9240 -1.1558
 2194SOL     OW18214   2.863   0.394  17.007  0.4617  0.0732 -0.5467
 2194SOL    HW118215   2.809   0.416  16.931 -2.0816 -0.8035  1.0306
 2194SOL    HW218216   2.808   0.376  17.082 -0.7801 -0.6994 -1.6503
 2195SOL     OW18217   1.539   4.649  14.939  0.0552 -0.2478  0.6941
 2195SOL    HW118218   1.583   4.687  15.014 -1.9345  1.1888  1.1433
 2195SOL    HW218219   1.560   4.556  14.936  1.9608  0.1959  0.6993
 2196SOL     OW18220   0.002   0.530   4.790  0.4335 -0.4761  0.3010
 2196SOL    HW118221   4.651   0.539   4.811  0.6760  2.1490  0.1810
 2196SOL    HW218222   0.021   0.624   4.789 -1.5271 -0.0848  0.1897
 2197SOL     OW18223   3.978   0.604   5.941  0.4207  0.0736  0.0381
 2197SOL    HW118224   3.973   0.545   5.866 -1.3157  0.1536  0.0919
 2197SOL    HW218225   3.921   0.547   5.993  1.1718 -1.3163 -0.6478
 2198SOL     OW18226   1.406   1.271   8.372  0.4297  0.2015 -0.2814
 2198SOL    HW118227   1.331   1.330   8.370 -0.6078 -1.0878  1.3161
 2198SOL    HW218228   1.380   1.185   8.403  1.9198 -0.3937 -0.6539
 2199SOL     OW18229   4.197   2.085   4.407  0.2655 -0.2001  0.0043
 2199SOL    HW118230   4.154   2.161   4.367  3.9678  1.5961 -0.4941
 2199SOL    HW218231   4.194   2.026   4.332 -0.4717 -1.4353  1.0043
 2200SOL     OW18232   2.438   3.336   5.675  0.1919 -0.1615 -0.1463
 2200SOL    HW118233   2.515   3.282   5.689  1.8112  1.7157 -1.7208
 2200SOL    HW218234   2.467   3.373   5.591  0.6720 -2.6909 -1.1123
 2201SOL     OW18235   3.909   4.666   5.153  0.4939 -0.7387 -0.0596
 2201SOL    HW118236   3.923   0.007   5.108 -0.7557 -0.9268 -0.7764
 2201SOL    HW218237   3.847   4.692   5.221  3.5750  0.3707  2.3600
 2202SOL     OW18238   1.395   0.644  10.461  0.3708  0.6478  0.1909
 2202SOL    HW118239   1.410   0.552  10.442 -0.4129  0.1850  1.7853
 2202SOL    HW218240   1.472   0.690  10.428  1.5627 -0.2340  1.7690
 2203SOL     OW18241   1.164   2.379   8.317  0.2328 -0.3320 -0.3700
 2203SOL    HW118242   1.187   2.444   8.250  2.2392 -1.4089 -0.7218
 2203SOL    HW218243   1.154   2.297   8.270  0.8759  0.0238 -1.1296
 2204SOL     OW18244   3.272   1.589   2.216 -0.1516  0.0263  0.4040
 2204SOL    HW118245   3.223   1.670   2.230  0.2640  0.3990 -0.2636
 2204SOL    HW218246   3.340   1.609   2.152  1.4833 -0.8694  1.8560
 2205SOL     OW18247   3.256   2.414   5.693 -0.2441 -0.0007  0.0534
 2205SOL    HW118248   3.318   2.344   5.716 -1.7200 -1.1836  0.4170
 2205SOL    HW218249   3.294   2.448   5.612  0.8005 -0.2437  0.4396
 2206SOL     OW18250   3.177   2.251   2.707 -0.3066  0.0835 -0.2109
 2206SOL    HW118251   3.099   2.199   2.728 -0.2392 -0.3349 -1.0201
 2206SOL    HW218252   3.230   2.243   2.787 -2.8692  3.1376  1.7718
 2207SOL     OW18253   2.135   3.062   1.006  0.5520  0.0209  0.2464
 2207SOL    HW118254   2.126   3.127   1.076  1.6463  0.5601 -0.1177
 2207SOL    HW218255   2.117   2.983   1.058 -0.8903 -0.3636 -0.8240
 2208SOL     OW18256   2.052   3.098   9.203  0.2510 -0.2592  1.0800
 2208SOL    HW118257   2.029   3.172   9.146 -0.6356 -1.4957 -0.1669
 2208SOL    HW218258   1.999   3.024   9.175  0.8602 -0.7098  1.1249
 2209SOL     OW18259   3.023   4.307   4.032  0.2708  0.4076 -0.1402
 2209SOL    HW118260   3.014   4.266   3.946  1.1468  1.0751 -0.5509
 2209SOL    HW218261   2.942   4.274   4.071  0.1559  0.4791 -0.3217
 2210SOL     OW18262   0.664   3.939   2.411 -0.2869 -0.2536 -0.1404
 2210SOL    HW118263   0.570   3.935   2.390 -0.1676  3.6012 -1.4913
 2210SOL    HW218264   0.669   4.033   2.394  1.8717 -0.1461  1.1002
 2211SOL     OW18265   0.781   2.455   8.969 -0.0761  0.2616  0.4113
 2211SOL    HW118266   0.869   2.474   8.934 -0.8355  0.7164 -1.2705
 2211SOL    HW218267   0.744   2.428   8.885  1.1800 -2.1948  0.6592
 2212SOL     OW18268   3.696   0.972  15.407  0.4582 -0.5333 -0.0237
 2212SOL    HW118269   3.666   1.037  15.470  1.2264  1.3959 -1.6758
 2212SOL    HW218270   3.791   0.972  15.415  0.3497 -0.1641  1.1695
 2213SOL     OW18271   2.576   2.715   3.394 -0.3402  0.4122 -0.3436
 2213SOL    HW118272   2.627   2.644   3.356 -1.4399 -0.0735 -0.8653
 2213SOL    HW218273   2.628   2.786   3.356  2.2239 -1.5210 -0.4312
 2214SOL     OW18274   4.515   2.026   4.988 -0.3874 -0.2756  0.3749
 2214SOL    HW118275   4.494   2.118   5.001  3.4803  0.8442 -1.2818
 2214SOL    HW218276   4.606   2.026   5.019 -1.0156 -3.9829  2.2844
 2215SOL     OW18277   4.602   0.979   3.484 -0.3690 -0.4298  0.6348
 2215SOL    HW118278   4.658   1.057   3.484  2.2899 -2.3210 -1.7192
 2215SOL    HW218279   4.592   0.971   3.389 -1.2080  0.1843  0.6729
 2216SOL     OW18280   4.518   1.835   7.074  0.0061  0.6374  0.2893
 2216SOL    HW118281   4.468   1.897   7.127  0.2990  2.3610 -1.4299
 2216SOL    HW218282   4.548   1.908   7.019  2.2662  1.0917  2.1390
 2217SOL     OW18283   4.659   0.041   6.815 -0.1194  0.1291  0.5382
 2217SOL    HW118284   4.705   0.113   6.771 -1.9560  0.9513 -0.0434
 2217SOL    HW218285   4.604   0.015   6.741 -2.2889  2.9753  1.1546
 2218SOL     OW18286   1.099   0.537  11.507  0.4917 -0.2112 -0.4752
 2218SOL    HW118287   1.113   0.613  11.564 -0.6707  0.9021 -1.6634
 2218SOL    HW218288   1.172   0.484  11.539 -0.0259 -0.4317  0.3238
 2219SOL     OW18289   2.134   4.336  10.176  0.1117  0.2949  0.0857
 2219SOL    HW118290   2.152   4.287  10.096  1.3170 -0.9956  1.1325
 2219SOL    HW218291   2.048   4.375  10.158  0.8869  1.4074 -1.2550
 2220SOL     OW18292   3.036   4.175   0.565 -0.1527  0.1095 -0.6646
 2220SOL    HW118293   2.941   4.185   0.568 -0.1197 -0.1845  1.2876
 2220SOL    HW218294   3.047   4.147   0.474 -1.5215  1.8253 -1.3620
 2221SOL     OW18295   3.076   3.517   9.844  0.3903 -0.1202  0.2389
 2221SOL    HW118296   3.023   3.482   9.772  1.4037  1.9768 -1.4925
 2221SOL    HW218297   3.118   3.589   9.797  2.8849 -0.9106  1.2718
 2222SOL     OW18298   3.812   4.015   2.267 -0.0207  0.3376  0.3063
 2222SOL    HW118299   3.741   4.052   2.214 -0.8356 -1.5501  0.0909
 2222SOL    HW218300   3.826   4.087   2.329  0.9840  0.5662 -0.1924
 2223SOL     OW18301   1.799   4.603   2.358  0.3718  0.2143  0.1040
 2223SOL    HW118302   1.719   4.550   2.365 -0.0443  1.0203  1.6073
 2223SOL    HW218303   1.752   4.686   2.368 -0.1912  0.1743 -2.2730
 2224SOL     OW18304   3.675   3.277   9.356  0.0930 -0.2798 -0.3635
 2224SOL    HW118305   3.632   3.232   9.429 -0.4764  2.0311  0.7541
 2224SOL    HW218306   3.756   3.298   9.404 -1.2409  3.2282  0.3513
 2225SOL     OW18307   2.028   2.173  12.362 -0.3031 -0.1627 -0.1088
 2225SOL    HW118308   2.097   2.107  12.372 -0.0218  0.2054  0.3990
 2225SOL    HW218309   2.074   2.239  12.310 -1.0254 -0.0238 -0.5665
 2226SOL     OW18310   2.490   2.638   3.127  0.2938  0.0836 -0.3277
 2226SOL    HW118311   2.580   2.635   3.094  1.3905 -2.0901  2.8432
 2226SOL    HW218312   2.472   2.545   3.114  0.4854 -0.0706  0.5046
 2227SOL     OW18313   0.755   2.840   5.483  0.0769 -0.5577  0.1673
 2227SOL    HW118314   0.729   2.820   5.573 -0.8523  1.1106  0.2705
 2227SOL    HW218315   0.680   2.893   5.457 -0.3457 -0.3708  1.7118
 2228SOL     OW18316   3.720   4.569  17.394 -0.5219 -0.4177 -0.6275
 2228SOL    HW118317   3.688   4.654  17.364 -2.8507 -1.6886 -1.7201
 2228SOL    HW218318   3.780   4.537  17.326  1.4058  0.2053  0.7634
 2229SOL     OW18319   0.174   0.016   8.092  0.2416 -0.2826 -0.4625
 2229SOL    HW118320   0.121   0.085   8.133  0.5054 -0.8014  0.7632
 2229SOL    HW218321   0.113   4.697   8.049 -2.1750  2.6887 -1.2706
 2230SOL     OW18322   2.163   2.083  10.057 -0.0878 -0.5181  0.0888
 2230SOL    HW118323   2.186   2.158  10.112 -2.1995  0.4176 -0.2995
 2230SOL    HW218324   2.073   2.062  10.082 -0.2775 -0.7197 -0.7862
 2231SOL     OW18325   2.922   1.341   3.012 -0.7128  0.2330  0.0665
 2231SOL    HW118326   3.009   1.313   2.988  0.3461  2.8768  0.7418
 2231SOL    HW218327   2.957   1.416   3.061  0.1839 -0.7288  0.8920
 2232SOL     OW18328   2.486   2.010   3.684  0.3438  0.4055  0.1258
 2232SOL    HW118329   2.448   1.930   3.720  0.3222 -0.2383 -1.3514
 2232SOL    HW218330   2.573   1.976   3.663  0.0664  0.1995 -0.6956
 2233SOL     OW18331   1.696   0.299  15.404  0.1281  0.1885  0.1570
 2233SOL    HW118332   1.665   0.209  15.396  4.1567 -1.0821 -1.0127
 2233SOL    HW218333   1.763   0.276  15.469  0.7710 -0.6664 -0.8131
 2234SOL     OW18334   2.182   1.966   5.694 -0.5319 -0.3259 -0.0202
 2234SOL    HW118335   2.090   1.972   5.667 -0.4534  0.9832  0.0036
 2234SOL    HW218336   2.223   1.904   5.634  1.7008 -0.3646  1.5586
 2235SOL     OW18337   0.077   0.148  12.298 -0.0288  0.7489 -0.3435
 2235SOL    HW118338   0.151   0.086  12.304  0.9742  1.8280 -1.4552
 2235SOL    HW218339   0.009   0.090  12.263  0.4776 -0.0476 -0.0102
 2236SOL     OW18340   2.170   4.109   2.889  0.2404 -0.0285  0.2285
 2236SOL    HW118341   2.119   4.180   2.929  0.0263  1.0069 -1.8838
 2236SOL    HW218342   2.152   4.123   2.797 -1.9568 -0.0608  0.6575
 2237SOL     OW18343   1.799   0.748  12.366 -0.4894 -0.2542 -0.1395
 2237SOL    HW118344   1.755   0.690  12.427 -1.6435  1.4435  0.6413
 2237SOL    HW218345   1.883   0.708  12.346  0.2935  0.2591  2.1894
 2238SOL     OW18346   1.064   2.991   9.464 -0.4386  0.6645 -0.2490
 2238SOL    HW118347   1.127   2.920   9.458  0.4110  1.3086  1.1811
 2238SOL    HW218348   1.116   3.066   9.437  1.0011  0.2340  1.3214
 2239SOL     OW18349   2.987   3.651   8.293  0.4300 -0.1464  0.1143
 2239SOL    HW118350   2.983   3.577   8.232 -0.2775 -0.3824  0.4444
 2239SOL    HW218351   2.935   3.617   8.366 -0.2453  1.5100  0.4071
 2240SOL     OW18352   0.155   4.487   7.981  0.2460  0.6549  0.2382
 2240SOL    HW118353   0.202   4.422   8.032  0.9592  1.5294  0.6914
 2240SOL    HW218354   0.230   4.542   7.958  2.3848 -2.6727 -0.7707
 2241SOL     OW18355   4.676   0.512  12.178 -0.1229 -0.5109 -0.1171
 2241SOL    HW118356   4.590   0.471  12.169  0.5548 -2.2523  1.2637
 2241SOL    HW218357   4.721   0.467  12.106  0.1291  0.0069 -0.2843
 2242SOL     OW18358   3.101   4.052   9.502  0.4311  0.1171  0.0795
 2242SOL    HW118359   3.011   4.082   9.512  0.9108  0.2611  4.2599
 2242SOL    HW218360   3.093   3.957   9.510  2.4954 -0.0165  0.7589
 2243SOL     OW18361   0.140   1.705  17.544  0.0852 -0.4397  0.0124
 2243SOL    HW118362   0.134   1.746  17.458 -0.7711 -1.2055 -0.2939
 2243SOL    HW218363   0.098   1.767  17.603 -0.9185  0.8197 -2.0342
 2244SOL     OW18364   0.431   3.895   5.850 -0.5580 -0.2867 -0.6749
 2244SOL    HW118365   0.376   3.817   5.845 -2.5690  1.2515 -2.9048
 2244SOL    HW218366   0.359   3.959   5.843 -1.4564 -1.1545  0.4628
 2245SOL     OW18367   4.518   1.855  11.963 -0.6245 -0.0399 -0.2911
 2245SOL    HW118368   4.477   1.850  12.049 -1.1673  0.1449 -0.5386
 2245SOL    HW218369   4.440   1.886  11.917 -1.0035 -0.3105  0.1769
 2246SOL     OW18370   0.175   1.228   5.606 -0.6857 -0.5206 -0.1056
 2246SOL    HW118371   0.199   1.284   5.680  1.2276 -1.7694  0.2189
 2246SOL    HW218372   0.144   1.292   5.542 -0.5269 -0.9860 -0.6571
 2247SOL     OW18373   0.402   3.359   6.390 -0.2338 -0.0398  0.0458
 2247SOL    HW118374   0.410   3.362   6.294  0.3727  1.3683  0.1510
 2247SOL    HW218375   0.397   3.266   6.413  0.1729  0.2599  1.3488
 2248SOL     OW18376   4.353   0.147   5.099 -0.0493  0.0907 -0.6010
 2248SOL    HW118377   4.297   0.209   5.144 -0.1892 -1.1970  0.9854
 2248SOL    HW218378   4.440   0.183   5.116 -0.7432  0.4937  2.0132
 2249SOL     OW18379   4.628   0.029   0.016 -0.1494 -0.2367 -0.3797
 2249SOL    HW118380   4.699   0.083   0.052 -1.4920  0.6695  0.8685
 2249SOL    HW218381   4.630   4.695   0.075  1.0802  0.0249 -0.0855
 2250SOL     OW18382   2.580   0.217   5.797  0.0259  0.8341 -0.0238
 2250SOL    HW118383   2.531   0.266   5.864 -0.5188  0.9292 -0.4883
 2250SOL    HW218384   2.511   0.204   5.732  0.6910 -2.4710 -0.0854
 2251SOL     OW18385   2.409   0.302  14.871 -0.0306  0.4473 -0.0014
 2251SOL    HW118386   2.435   0.212  14.852 -3.9359 -0.8694  0.8877
 2251SOL    HW218387   2.405   0.337  14.783 -2.3055 -2.7498 -1.1893
 2252SOL     OW18388   2.482   0.233   8.101 -0.3892 -0.0936 -0.4192
 2252SOL    HW118389   2.420   0.299   8.071 -1.1667 -1.3403 -1.5916
 2252SOL    HW218390   2.541   0.280   8.160  0.1326  0.2018 -1.1779
 2253SOL     OW18391   2.334   0.478   9.705 -0.7430 -0.2841 -0.0311
 2253SOL    HW118392   2.369   0.403   9.657 -0.6370 -0.4988  0.3791
 2253SOL    HW218393   2.352   0.443   9.792  1.6440  0.8544 -0.0763
 2254SOL     OW18394   1.624   1.435   5.511  0.3600  0.0414 -0.2451
 2254SOL    HW118395   1.657   1.510   5.561  1.2350  0.0368 -0.8054
 2254SOL    HW218396   1.625   1.375   5.585  0.3029  1.2997  0.7790
 2255SOL     OW18397   1.054   2.512   9.865 -0.0124 -0.2236  0.3535
 2255SOL    HW118398   1.063   2.580   9.799 -0.8578 -2.2387 -1.8096
 2255SOL    HW218399   1.064   2.433   9.813  0.8437 -0.4431  0.8393
 2256SOL     OW18400   0.802   1.864   1.728  0.0123  0.4031  0.1621
 2256SOL    HW118401   0.714   1.865   1.765 -0.3486  2.6116 -0.8122
 2256SOL    HW218402   0.809   1.953   1.695 -0.3852  0.3434 -0.0760
 2257SOL     OW18403   0.251   1.467  17.410 -0.4377  0.4193  0.3980
 2257SOL    HW118404   0.258   1.518  17.490 -1.4740 -0.2357  0.9185
 2257SOL    HW218405   0.344   1.463  17.388 -0.5262  1.5483 -0.1634
 2258SOL     OW18406   3.450   4.693   1.184  0.1700  0.1124  0.1163
 2258SOL    HW118407   3.541   4.689   1.157 -0.0629 -2.1871 -0.3272
 2258SOL    HW218408   3.419   4.603   1.178 -2.5592  1.0269  0.3733
 2259SOL     OW18409   2.693   2.024  11.661 -0.2503  0.8082  0.3729
 2259SOL    HW118410   2.618   1.971  11.633 -0.8039  1.1683  1.1444
 2259SOL    HW218411   2.660   2.113  11.672  2.0754  1.6136  0.7688
 2260SOL     OW18412   1.758   3.609   5.812 -0.0555 -0.4784  0.0298
 2260SOL    HW118413   1.817   3.658   5.755 -0.4572  2.5108  2.1698
 2260SOL    HW218414   1.738   3.526   5.768  0.1911  0.3818 -1.6908
 2261SOL     OW18415   0.633   4.082   6.162  0.2498 -0.3852  0.0579
 2261SOL    HW118416   0.545   4.046   6.150  0.6064 -1.0510 -0.5042
 2261SOL    HW218417   0.678   4.055   6.083 -1.9380 -0.0134 -1.3178
 2262SOL     OW18418   1.223   4.205   9.096  0.2204 -0.0855  0.1252
 2262SOL    HW118419   1.318   4.210   9.108  0.2385  0.1011 -0.1012
 2262SOL    HW218420   1.178   4.285   9.121  0.2236 -0.3713  1.0279
 2263SOL     OW18421   3.056   0.784   1.554 -0.1033 -0.5752  0.1122
 2263SOL    HW118422   3.012   0.755   1.474 -0.1935 -1.6728  0.5563
 2263SOL    HW218423   2.981   0.807   1.609  1.7212  0.8786  1.9780
 2264SOL     OW18424   0.136   3.765   3.744 -0.5113  0.0359  0.2406
 2264SOL    HW118425   0.119   3.735   3.833 -0.7825  1.0365  0.5222
 2264SOL    HW218426   0.053   3.739   3.704 -0.7947  2.4736 -0.7779
 2265SOL     OW18427   1.630   0.307   5.539 -0.2869 -0.8192  0.0883
 2265SOL    HW118428   1.544   0.339   5.509  0.1599  1.5593  1.3561
 2265SOL    HW218429   1.607   0.225   5.582 -0.4635  0.1205  1.7705
 2266SOL     OW18430   3.299   3.501   4.624  0.4059  0.8941 -0.6693
 2266SOL    HW118431   3.295   3.594   4.604 -0.9259  0.7184 -1.2515
 2266SOL    HW218432   3.211   3.473   4.597  0.5973 -1.1645  0.8399
 2267SOL     OW18433   4.240   1.048   9.346  0.3599 -0.1469 -0.2855
 2267SOL    HW118434   4.320   1.055   9.397  1.2800 -3.1620 -1.3083
 2267SOL    HW218435   4.200   0.965   9.372 -1.6677  0.6119 -1.0047
 2268SOL     OW18436   2.931   3.499   4.317 -0.3247 -0.8231  0.3713
 2268SOL    HW118437   2.911   3.566   4.252 -0.4623 -1.5519 -0.3410
 2268SOL    HW218438   2.882   3.421   4.290 -1.4756 -0.2442  0.7934
 2269SOL     OW18439   4.341   2.774  13.484 -0.0358  0.1765 -0.2133
 2269SOL    HW118440   4.252   2.806  13.467 -2.3900 -5.7830  0.8958
 2269SOL    HW218441   4.307   2.687  13.504 -0.3632  0.4427  0.3842
 2270SOL     OW18442   0.074   2.840   8.483  0.3320 -0.0707 -0.7460
 2270SOL    HW118443   4.722   2.821   8.493  0.0746 -0.2578 -3.4115
 2270SOL    HW218444   0.082   2.935   8.476  2.4093 -0.2020 -0.1239
 2271SOL     OW18445   4.686   4.693   3.193 -0.1460 -1.1363  0.4383
 2271SOL    HW118446   0.004   4.636   3.144 -0.0898 -2.4554  2.0657
 2271SOL    HW218447   4.609   4.637   3.181 -1.1404  0.5235 -0.9655
 2272SOL     OW18448   2.038   1.398   3.995 -0.4018 -0.5376  0.2775
 2272SOL    HW118449   2.046   1.487   3.961 -1.6969 -0.4190  0.3101
 2272SOL    HW218450   2.071   1.404   4.085 -0.9868  0.5904  0.4074
 2273SOL     OW18451   4.508   3.030   4.157 -0.0701 -0.4951  0.2962
 2273SOL    HW118452   4.582   3.030   4.098  0.3110  0.7258  0.7765
 2273SOL    HW218453   4.482   3.122   4.162  0.0667 -0.5217  1.6808
 2274SOL     OW18454   4.460   2.079   2.379 -0.8252 -0.0927  0.2144
 2274SOL    HW118455   4.379   2.093   2.329 -0.9388  1.9358  1.0025
 2274SOL    HW218456   4.425   2.065   2.466 -0.3930 -0.1381  0.3816
 2275SOL     OW18457   4.198   0.790   9.934 -0.1273 -0.3419 -0.2600
 2275SOL    HW118458   4.256   0.732   9.886  0.4910  1.1443 -1.2948
 2275SOL    HW218459   4.244   0.873   9.930 -1.8745  0.6194 -0.7398
 2276SOL     OW18460   2.109   3.143   7.942  0.6866 -0.4554  0.5111
 2276SOL    HW118461   2.105   3.187   7.857  1.5661  1.7279  1.5773
 2276SOL    HW218462   2.034   3.189   7.981  0.1533  0.9431 -2.1226
 2277SOL     OW18463   0.567   4.041   8.953  0.2638 -0.2322  0.3016
 2277SOL    HW118464   0.621   3.988   8.894  1.5439  0.1613  1.1248
 2277SOL    HW218465   0.607   4.032   9.039 -0.1667  0.4152  0.5687
 2278SOL     OW18466   2.459   1.941   6.920 -0.1126 -0.0073 -0.0368
 2278SOL    HW118467   2.491   1.868   6.867  0.4077 -1.2249  1.9910
 2278SOL    HW218468   2.382   1.962   6.868 -0.6191 -2.8765 -0.3896
 2279SOL     OW18469   2.241   4.117   5.156 -0.1422  0.4811 -0.2184
 2279SOL    HW118470   2.257   4.190   5.095 -0.0332  0.5641 -0.0907
 2279SOL    HW218471   2.321   4.066   5.149 -1.1587 -1.0339 -0.7304
 2280SOL     OW18472   1.707   2.017   3.060  0.7818  0.3697 -0.2347
 2280SOL    HW118473   1.779   2.013   2.997  0.1033  0.5024 -1.0226
 2280SOL    HW218474   1.671   1.928   3.064  0.7794  0.4557  1.7634
 2281SOL     OW18475   3.735   1.415   0.371  0.2045 -0.1649  0.1990
 2281SOL    HW118476   3.696   1.386   0.453  0.4071  0.3275  0.4692
 2281SOL    HW218477   3.757   1.333   0.325  1.4036 -0.3150  1.0299
 2282SOL     OW18478   3.637   4.283  12.168  0.3753 -0.8292 -0.7113
 2282SOL    HW118479   3.571   4.351  12.155  2.7061  1.7310  0.8344
 2282SOL    HW218480   3.639   4.269  12.262  0.7481 -0.3052 -0.6410
 2283SOL     OW18481   0.587   3.958  13.178  0.4507  0.1343  0.1705
 2283SOL    HW118482   0.537   3.886  13.216 -1.4230 -0.0937 -2.7851
 2283SOL    HW218483   0.549   4.031  13.227 -1.6728 -0.2391 -0.9200
 2284SOL     OW18484   1.729   4.704  15.677  0.2538  0.0558  0.7067
 2284SOL    HW118485   1.634   4.705  15.675  0.3002  2.9001 -1.0730
 2284SOL    HW218486   1.747   4.641  15.746  2.0083  0.9739  1.0872
 2285SOL     OW18487   3.932   1.412  12.974 -0.5048 -0.1645  0.4912
 2285SOL    HW118488   4.006   1.471  12.988  0.5474 -1.9940  2.6477
 2285SOL    HW218489   3.968   1.333  13.014 -1.4205 -0.0975  1.4177
 2286SOL     OW18490   4.350   3.634   7.134 -0.3956 -0.4932 -0.1465
 2286SOL    HW118491   4.294   3.581   7.190 -0.4472 -0.0293  0.2400
 2286SOL    HW218492   4.371   3.574   7.062  0.9167  0.8276 -0.8630
 2287SOL     OW18493   0.041   2.242   3.066  0.2530  0.0725 -0.0226
 2287SOL    HW118494   4.692   2.240   3.095 -0.1395 -3.0343 -1.4432
 2287SOL    HW218495   0.059   2.336   3.062 -1.6696  0.5253  2.2104
 2288SOL     OW18496   4.335   1.014   2.069 -0.2334 -0.5350 -0.6910
 2288SOL    HW118497   4.343   0.919   2.069 -0.7532 -0.5913  1.5497
 2288SOL    HW218498   4.369   1.047   1.986  1.0713 -0.6914 -0.2202
 2289SOL     OW18499   3.370   0.837   6.736  0.4467 -0.5919  0.2248
 2289SOL    HW118500   3.357   0.839   6.831  1.5412  0.3618  0.3496
 2289SOL    HW218501   3.408   0.924   6.730  0.4308 -0.4235  2.5212
 2290SOL     OW18502   0.174   3.699   4.564 -0.1099  0.2937 -0.9589
 2290SOL    HW118503   0.099   3.651   4.598 -0.4828  1.4105 -0.2037
 2290SOL    HW218504   0.229   3.693   4.642 -0.9113 -0.9153 -0.4881
 2291SOL     OW18505   2.909   2.454   9.448  0.4152  0.7810  0.4407
 2291SOL    HW118506   2.999   2.484   9.460  0.8006  0.1997 -0.9527
 2291SOL    HW218507   2.869   2.491   9.527 -3.1159 -1.0846 -0.4707
 2292SOL     OW18508   4.298   2.510   7.084  0.0735 -0.2373 -0.2751
 2292SOL    HW118509   4.367   2.462   7.039  0.7147 -1.1992  1.7323
 2292SOL    HW218510   4.351   2.553   7.150  1.1741 -0.9342 -0.7106
 2293SOL     OW18511   4.225   3.068   9.480  0.8471 -0.2393  0.0263
 2293SOL    HW118512   4.320   3.060   9.473  0.7391 -0.3886 -1.2853
 2293SOL    HW218513   4.214   3.159   9.505 -1.4700 -0.4429 -0.2032
 2294SOL     OW18514   2.443   3.577   6.669 -0.0325  0.1489  0.2744
 2294SOL    HW118515   2.397   3.587   6.586  2.1368  0.7730 -0.8779
 2294SOL    HW218516   2.470   3.665   6.696 -2.8844  1.2181 -0.3685
 2295SOL     OW18517   4.641   2.090   7.466  0.4310 -0.3722  0.1083
 2295SOL    HW118518   4.730   2.064   7.443  0.1495 -1.0946 -0.1758
 2295SOL    HW218519   4.589   2.014   7.442  0.9356 -0.8067  0.3872
 2296SOL     OW18520   3.980   0.949  12.541  0.0790  0.2286 -0.0006
 2296SOL    HW118521   4.032   0.887  12.488 -3.1798 -2.0001 -0.5828
 2296SOL    HW218522   3.909   0.965  12.479  1.4376 -1.9650 -2.1275
 2297SOL     OW18523   3.157   4.720  14.952  0.2724 -0.5447 -0.5026
 2297SOL    HW118524   3.238   4.709  15.002 -0.7205  0.5458  1.3634
 2297SOL    HW218525   3.144   0.073  14.947 -0.9590 -0.6111  1.5917
 2298SOL     OW18526   2.211   1.014   7.404  0.3233 -0.1325 -0.3930
 2298SOL    HW118527   2.194   1.090   7.459 -1.3637  0.3891 -1.6380
 2298SOL    HW218528   2.306   1.026   7.401  0.4155 -0.6410  0.4746
 2299SOL     OW18529   1.807   0.898   1.933 -0.5923 -0.0760 -0.0008
 2299SOL    HW118530   1.872   0.856   1.989 -1.6293 -3.6591 -1.4494
 2299SOL    HW218531   1.738   0.831   1.944 -0.1440 -0.4960  0.2556
 2300SOL     OW18532   2.849   0.540   7.156 -0.5765  0.5785  0.1570
 2300SOL    HW118533   2.889   0.471   7.102 -0.3762 -0.1314  1.2098
 2300SOL    HW218534   2.920   0.555   7.218 -1.0559  2.6868  0.1762
 2301SOL     OW18535   2.374   2.369   7.873 -0.0304  0.3365  0.1691
 2301SOL    HW118536   2.318   2.309   7.923 -2.3277  0.0736 -2.6870
 2301SOL    HW218537   2.407   2.417   7.949 -0.1650  1.3698 -0.4287
 2302SOL     OW18538   4.153   0.726  15.429  0.5408 -0.3981  0.2985
 2302SOL    HW118539   4.243   0.710  15.401  0.9924  0.6609  1.1309
 2302SOL    HW218540   4.115   0.663  15.369  0.9399 -0.9141  0.5876
 2303SOL     OW18541   1.245   4.400   7.161  0.3797  0.2799 -0.2587
 2303SOL    HW118542   1.247   4.383   7.255 -1.0747 -0.1183 -0.3014
 2303SOL    HW218543   1.152   4.420   7.152 -0.1184 -2.1447 -0.5677
 2304SOL     OW18544   4.181   1.244   8.756  0.3674 -0.7816  0.0007
 2304SOL    HW118545   4.257   1.188   8.770  1.6024  0.4382 -1.7842
 2304SOL    HW218546   4.126   1.208   8.825 -0.7529  0.2447 -0.3388
 2305SOL     OW18547   4.150   0.986  11.845 -0.2198  0.0269 -0.8929
 2305SOL    HW118548   4.211   0.932  11.794  0.3668  0.5279 -0.7166
 2305SOL    HW218549   4.172   1.069  11.804 -0.1197 -0.2637 -1.4303
 2306SOL     OW18550   0.594   0.834  16.903  1.0336  0.2189 -0.0357
 2306SOL    HW118551   0.542   0.849  16.982  2.5673 -2.1405  1.4272
 2306SOL    HW218552   0.518   0.827  16.845  1.4473 -1.0230 -0.4253
 2307SOL     OW18553   1.886   3.454   0.559 -0.3670  0.2866 -0.3969
 2307SOL    HW118554   1.863   3.417   0.644  0.4084  1.9918  0.5759
 2307SOL    HW218555   1.851   3.543   0.562 -0.5787  0.1268  2.2320
 2308SOL     OW18556   3.973   2.593   2.553  0.0833  0.3760 -0.0176
 2308SOL    HW118557   4.005   2.594   2.643 -1.0691  0.5091  0.3920
 2308SOL    HW218558   4.041   2.535   2.519 -0.6751  0.9634 -2.5450
 2309SOL     OW18559   4.639   3.742   9.100  0.3456 -0.1422 -0.5724
 2309SOL    HW118560   4.718   3.794   9.086 -0.4939  0.6599 -2.2980
 2309SOL    HW218561   4.614   3.703   9.016  1.2046 -3.0912  0.5408
 2310SOL     OW18562   3.499   1.853   1.199 -0.2316  0.0545  0.1703
 2310SOL    HW118563   3.452   1.881   1.121  0.7923 -0.5822 -0.6807
 2310SOL    HW218564   3.586   1.893   1.203  0.8382 -2.0864 -1.9120
 2311SOL     OW18565   0.455   2.356   5.174 -0.2129 -0.3795  0.0848
 2311SOL    HW118566   0.491   2.268   5.180 -0.7417 -0.6063 -0.0463
 2311SOL    HW218567   0.435   2.357   5.080 -1.9767  1.3668  0.4839
 2312SOL     OW18568   0.838   0.748   6.475  0.1319  0.3971 -0.2717
 2312SOL    HW118569   0.745   0.735   6.453  0.1491 -1.6220  0.8239
 2312SOL    HW218570   0.826   0.739   6.569 -1.5191 -2.6357 -0.7425
 2313SOL     OW18571   3.666   2.406  11.170  0.3147 -0.3701  0.3639
 2313SOL    HW118572   3.762   2.414  11.173  0.4780 -2.1970 -0.2263
 2313SOL    HW218573   3.646   2.439  11.258 -0.1304  1.5072 -0.4409
 2314SOL     OW18574   2.172   2.939   8.105 -0.2008 -0.0211 -0.4775
 2314SOL    HW118575   2.155   2.851   8.069  1.8125 -0.6668  0.1645
 2314SOL    HW218576   2.154   2.992   8.028 -0.2930 -1.0039 -1.1434
 2315SOL     OW18577   1.704   4.109  11.642  0.2723 -0.2885 -0.2165
 2315SOL    HW118578   1.644   4.062  11.700 -0.4032 -0.0995 -0.7658
 2315SOL    HW218579   1.758   4.038  11.607  0.0490 -0.2049 -0.7353
 2316SOL     OW18580   3.174   2.306  14.252  0.4352 -0.0809 -0.2090
 2316SOL    HW118581   3.237   2.255  14.302 -0.3279 -1.4651 -0.6475
 2316SOL    HW218582   3.206   2.300  14.162  2.8673  2.1755  0.5186
 2317SOL     OW18583   4.712   3.138  15.642 -0.0013  0.0851 -0.5442
 2317SOL    HW118584   4.688   3.214  15.590  3.0549 -1.0990 -3.7278
 2317SOL    HW218585   4.633   3.086  15.627 -0.7420  0.8626  0.6768
 2318SOL     OW18586   1.311   3.771   2.382  0.1617  0.5940  0.1620
 2318SOL    HW118587   1.394   3.811   2.408  1.3437 -1.9267  0.1705
 2318SOL    HW218588   1.262   3.758   2.463 -2.0253 -0.6846 -1.3620
 2319SOL     OW18589   3.214   0.064   4.746  0.3486 -0.1333  0.5157
 2319SOL    HW118590   3.124   0.095   4.740  0.8920  1.0949 -1.3906
 2319SOL    HW218591   3.193   4.712   4.745  0.3135 -0.1184 -0.2599
 2320SOL     OW18592   0.452   3.444   3.542 -0.2039  0.0591  0.1949
 2320SOL    HW118593   0.536   3.421   3.501  0.9737 -0.2678  2.8235
 2320SOL    HW218594   0.442   3.372   3.603  0.5681  0.3822  0.7035
 2321SOL     OW18595   2.462   2.411  13.068 -0.3231 -0.5128  0.5211
 2321SOL    HW118596   2.426   2.495  13.098 -0.8287 -0.6059  0.1664
 2321SOL    HW218597   2.557   2.423  13.062 -0.0079 -3.2457  0.1548
 2322SOL     OW18598   1.801   4.159   1.309  0.3031 -0.6197  0.1250
 2322SOL    HW118599   1.716   4.119   1.291  1.1630 -1.5415 -1.9989
 2322SOL    HW218600   1.783   4.244   1.270 -1.8593 -1.8748 -1.6460
 2323SOL     OW18601   3.499   3.869   2.561 -0.6180 -0.2508  0.2046
 2323SOL    HW118602   3.461   3.920   2.490 -0.5666  1.9602  1.7654
 2323SOL    HW218603   3.418   3.852   2.610  0.0981  0.0998  1.5317
 2324SOL     OW18604   3.097   4.574   3.772  0.3140 -0.0743 -0.3711
 2324SOL    HW118605   3.075   4.628   3.848  0.2529  0.9899 -1.1478
 2324SOL    HW218606   3.178   4.543   3.812 -0.1886 -0.6159  0.2251
 2325SOL     OW18607   3.818   1.090   1.204 -0.4119  0.4173  0.5862
 2325SOL    HW118608   3.741   1.113   1.257  0.1472  0.5590  1.3421
 2325SOL    HW218609   3.824   0.998   1.230 -0.5125  0.7027  1.6305
 2326SOL     OW18610   3.514   3.371   7.638  0.9740 -0.1463  0.3405
 2326SOL    HW118611   3.448   3.399   7.702  0.6989 -0.4744  0.2017
 2326SOL    HW218612   3.465   3.355   7.558  0.6415 -1.3781  0.7861
 2327SOL     OW18613   1.757   4.699  17.152 -0.5081 -1.0441 -0.1595
 2327SOL    HW118614   1.797   4.713  17.066 -0.9197  0.7505 -0.0678
 2327SOL    HW218615   1.773   4.605  17.159  2.3365 -0.4276  1.3330
 2328SOL     OW18616   3.539   2.313   0.380 -0.8919  0.1867  0.6984
 2328SOL    HW118617   3.447   2.286   0.376 -0.7309 -0.2943  0.0958
 2328SOL    HW218618   3.571   2.310   0.289 -2.6568 -5.6397  0.2176
 2329SOL     OW18619   0.474   2.658   3.504  0.6668  1.3321 -0.1586
 2329SOL    HW118620   0.390   2.694   3.473 -1.3167 -2.0724  1.2106
 2329SOL    HW218621   0.459   2.675   3.597  0.5611  0.2680  0.0252
 2330SOL     OW18622   3.048   3.274   8.808  0.1647 -0.4656 -0.4013
 2330SOL    HW118623   3.136   3.241   8.826  0.4604 -0.2079 -1.3741
 2330SOL    HW218624   3.059   3.369   8.813  0.7245 -0.5531  0.0426
 2331SOL     OW18625   0.354   0.325   6.522 -0.0797  0.1005 -0.6141
 2331SOL    HW118626   0.414   0.375   6.466  1.1378 -2.5993 -1.6770
 2331SOL    HW218627   0.281   0.307   6.463 -1.6835  5.1074 -0.2089
 2332SOL     OW18628   1.594   4.580   6.614 -0.4155  0.2495  0.4640
 2332SOL    HW118629   1.632   4.645   6.556 -0.7629 -1.3673 -1.5941
 2332SOL    HW218630   1.501   4.605   6.623 -0.8172  0.0193 -3.0717
 2333SOL     OW18631   0.013   0.968   8.248 -0.5153 -0.0254 -0.6929
 2333SOL    HW118632   4.674   0.944   8.202 -1.0098 -0.1373  0.2259
 2333SOL    HW218633   0.011   0.920   8.331  0.2239  1.3768  0.1470
 2334SOL     OW18634   3.929   2.349   6.382 -0.4004 -0.3696 -0.3710
 2334SOL    HW118635   3.837   2.373   6.371 -0.3429  1.0189  2.2353
 2334SOL    HW218636   3.911   2.258   6.408 -0.3257 -0.0593  0.7753
 2335SOL     OW18637   0.101   1.441   2.326  0.5207  0.3940 -0.0289
 2335SOL    HW118638   0.078   1.359   2.282 -0.0127 -0.2032  1.3587
 2335SOL    HW218639   0.027   1.449   2.386 -1.1591  1.5953 -2.3132
 2336SOL     OW18640   2.414   3.263   5.942  0.5417  0.3818 -0.2524
 2336SOL    HW118641   2.333   3.213   5.941  0.6439  0.1843  2.0862
 2336SOL    HW218642   2.423   3.299   5.853  1.4537 -1.6292 -0.9653
 2337SOL     OW18643   2.400   4.296   8.376 -0.1209  0.3896  0.0550
 2337SOL    HW118644   2.426   4.223   8.320  2.2968  1.2915  0.0348
 2337SOL    HW218645   2.360   4.357   8.314  2.9126 -1.1180 -3.3738
 2338SOL     OW18646   4.564   2.863   4.535  0.5746  0.2875  0.9742
 2338SOL    HW118647   4.634   2.873   4.598 -0.0150 -0.2370  1.7122
 2338SOL    HW218648   4.505   2.925   4.579  0.7173  0.7707  0.4834
 2339SOL     OW18649   2.580   4.019   9.569  0.1401  0.2559 -0.1510
 2339SOL    HW118650   2.592   3.954   9.639  1.7437  0.9409  0.2012
 2339SOL    HW218651   2.492   4.039   9.601  1.4956  3.0695  1.8004
 2340SOL     OW18652   1.048   4.522   9.458 -0.5442  0.8117  0.4477
 2340SOL    HW118653   1.133   4.522   9.504 -0.4447  0.7491  0.2630
 2340SOL    HW218654   1.079   4.528   9.368  0.8395 -1.3521  0.7744
 2341SOL     OW18655   1.657   3.351   4.395  0.1808 -0.1367  0.2052
 2341SOL    HW118656   1.675   3.444   4.399 -1.7325  0.2274  0.8158
 2341SOL    HW218657   1.589   3.343   4.463 -0.1450 -1.4853 -0.2697
 2342SOL     OW18658   3.850   1.847   5.665 -0.4080  0.4486 -0.7378
 2342SOL    HW118659   3.849   1.880   5.755 -0.8497 -1.8767  0.1311
 2342SOL    HW218660   3.902   1.914   5.622 -1.7861  0.1679 -2.8533
 2343SOL     OW18661   2.826   2.761   5.674 -0.5511  0.2024  0.6080
 2343SOL    HW118662   2.919   2.741   5.685 -1.3343 -1.2131  4.4915
 2343SOL    HW218663   2.789   2.673   5.674 -0.3586  0.1175 -1.2243
 2344SOL     OW18664   3.436   4.297   7.296 -0.0123  0.0994  0.0553
 2344SOL    HW118665   3.511   4.354   7.279 -1.1987  1.6524  0.0198
 2344SOL    HW218666   3.411   4.273   7.206 -1.4258  1.9514 -0.0589
 2345SOL     OW18667   2.458   1.805  16.531  0.4678 -0.2793  0.4770
 2345SOL    HW118668   2.480   1.869  16.463  0.6843 -1.6374 -0.7483
 2345SOL    HW218669   2.379   1.771  16.486  0.5443  0.1777 -0.0023
 2346SOL     OW18670   0.540   1.073   3.099 -0.0886 -0.0410 -0.0461
 2346SOL    HW118671   0.566   1.113   3.016  1.5557  0.5061  0.7405
 2346SOL    HW218672   0.613   1.033   3.145  0.1866  0.4275 -0.0771
 2347SOL     OW18673   2.054   1.626   3.873 -0.0558  0.5029  0.2156
 2347SOL    HW118674   1.978   1.612   3.817 -1.2553 -2.3349  2.5183
 2347SOL    HW218675   2.063   1.721   3.878  3.2534  0.0601  2.3177
 2348SOL     OW18676   0.148   2.308  10.585 -0.0700  0.0963  0.1213
 2348SOL    HW118677   0.142   2.317  10.490 -2.7775  0.0119  0.2835
 2348SOL    HW218678   0.152   2.213  10.593  1.0917  0.1413 -0.0428
 2349SOL     OW18679   2.110   4.455   6.161 -0.1214 -0.4792  0.9545
 2349SOL    HW118680   2.157   4.373   6.175 -0.2274 -0.6027  0.5720
 2349SOL    HW218681   2.070   4.447   6.075 -0.5734 -0.1553  1.1349
 2350SOL     OW18682   3.240   0.069   8.498  0.3425 -0.3265  0.0460
 2350SOL    HW118683   3.237   0.148   8.552 -1.7933 -0.3413 -0.0753
 2350SOL    HW218684   3.321   0.093   8.452  0.0340 -2.4418 -1.6022
 2351SOL     OW18685   2.991   1.634  11.874  0.0045 -0.1179  0.2009
 2351SOL    HW118686   2.978   1.728  11.860  2.9130  0.1029 -1.1867
 2351SOL    HW218687   2.973   1.623  11.967 -0.3563  0.1582  0.1627
 2352SOL     OW18688   3.658   3.585  11.034  0.4099 -0.1004  0.0397
 2352SOL    HW118689   3.725   3.544  10.980  2.0811  2.0896  0.4386
 2352SOL    HW218690   3.712   3.633  11.097  0.9989 -0.1325 -0.4407
 2353SOL     OW18691   4.510   4.499   8.548  0.1267  0.4386 -0.0390
 2353SOL    HW118692   4.569   4.550   8.604 -1.1829  1.2782  0.5716
 2353SOL    HW218693   4.457   4.567   8.507 -0.6322 -1.3280 -2.0197
 2354SOL     OW18694   3.297   4.122   6.749 -0.3818 -0.1710 -0.3657
 2354SOL    HW118695   3.202   4.130   6.759 -0.1110 -1.2632  3.0288
 2354SOL    HW218696   3.321   4.126   6.656 -0.3420 -0.9783 -0.3851
 2355SOL     OW18697   1.994   0.512   4.704  0.6190 -0.0084  0.3942
 2355SOL    HW118698   1.945   0.594   4.700 -0.3569 -0.4922  2.1312
 2355SOL    HW218699   1.945   0.463   4.771  1.0257 -0.7641  0.1465
 2356SOL     OW18700   4.065   4.547   2.806  0.8787 -0.0483 -0.2702
 2356SOL    HW118701   4.109   4.484   2.862 -1.0054 -2.4909 -1.5270
 2356SOL    HW218702   3.985   4.497   2.791 -0.2020  1.6436 -0.2416
 2357SOL     OW18703   1.176   1.947   5.956 -0.2605  0.0242  0.0121
 2357SOL    HW118704   1.087   1.928   5.983 -0.9244 -0.3783 -2.4441
 2357SOL    HW218705   1.169   2.041   5.969  2.1285  0.0696  1.0772
 2358SOL     OW18706   2.218   0.502   8.224  0.4772  0.0110 -0.1088
 2358SOL    HW118707   2.203   0.596   8.236  1.3214  0.5430 -3.0499
 2358SOL    HW218708   2.148   0.471   8.281  2.3944 -1.3666  1.5221
 2359SOL     OW18709   2.247   3.775   5.379 -0.0433 -0.7872  0.1406
 2359SOL    HW118710   2.342   3.789   5.373 -0.1304  0.6170  2.2792
 2359SOL    HW218711   2.232   3.820   5.462 -0.3361 -3.4338  1.5323
 2360SOL     OW18712   3.599   2.804   4.745  0.2567  0.0828 -0.1324
 2360SOL    HW118713   3.519   2.790   4.694  1.1188 -2.5959 -0.8069
 2360SOL    HW218714   3.660   2.788   4.672 -3.4816 -3.5814 -2.4896
 2361SOL     OW18715   0.462   3.284  13.388  0.0356 -0.4527  0.5289
 2361SOL    HW118716   0.423   3.203  13.420  1.7145 -1.5516 -0.2004
 2361SOL    HW218717   0.478   3.256  13.297 -2.2435 -1.8231  0.5266
 2362SOL     OW18718   3.752   2.041   1.764  0.1427 -0.1262  0.3034
 2362SOL    HW118719   3.836   2.028   1.719 -0.1574  0.5257 -0.4603
 2362SOL    HW218720   3.780   2.104   1.830 -0.3265 -1.0309  1.3578
 2363SOL     OW18721   3.314   3.224  10.067 -0.0537 -0.3583  0.3792
 2363SOL    HW118722   3.271   3.240   9.983  0.2571 -0.3515  0.2215
 2363SOL    HW218723   3.250   3.165  10.107  0.4204  0.7350  2.7366
 2364SOL     OW18724   2.323   0.723   7.141  0.1375  0.2846  0.6934
 2364SOL    HW118725   2.229   0.711   7.148  0.0528 -0.3382 -1.5664
 2364SOL    HW218726   2.329   0.787   7.070 -1.4119 -3.1469 -2.5286
 2365SOL     OW18727   1.020   4.433  15.018 -0.2623  0.3473 -0.2807
 2365SOL    HW118728   1.113   4.433  15.042 -0.6412 -1.0727  1.2144
 2365SOL    HW218729   1.021   4.500  14.950 -0.2180  0.9407  0.3052
 2366SOL     OW18730   3.753   0.635   8.277 -0.0945 -0.3007  0.4499
 2366SOL    HW118731   3.759   0.640   8.182  0.0464 -5.7958  0.1496
 2366SOL    HW218732   3.796   0.553   8.301 -0.7992 -0.9504 -0.5042
 2367SOL     OW18733   1.208   2.562   4.297  0.3290 -0.2367 -0.6055
 2367SOL    HW118734   1.119   2.531   4.317  0.6267 -0.4567  0.3688
 2367SOL    HW218735   1.259   2.512   4.360 -0.0004 -0.4943 -0.5445
 2368SOL     OW18736   0.694   4.585   6.605 -0.5293 -0.0047  0.2766
 2368SOL    HW118737   0.787   4.587   6.629 -0.2448 -0.2626 -0.8104
 2368SOL    HW218738   0.667   4.565   6.695  2.3556 -0.6736  1.0095
 2369SOL     OW18739   0.272   3.367   7.338  0.7091  0.2445 -0.3783
 2369SOL    HW118740   0.250   3.433   7.272 -1.5429  0.4051  0.5455
 2369SOL    HW218741   0.315   3.302   7.283  0.1797 -0.4268  0.0188
 2370SOL     OW18742   4.579   3.588  12.686 -0.7815  0.9341 -0.0887
 2370SOL    HW118743   4.594   3.497  12.711  0.7087  1.0366 -0.6199
 2370SOL    HW218744   4.488   3.580  12.659 -0.8340  0.7056  0.1548
 2371SOL     OW18745   2.338   4.160   9.043 -0.1246  0.0159 -0.5291
 2371SOL    HW118746   2.423   4.201   9.028  1.2565 -1.8406  2.1803
 2371SOL    HW218747   2.355   4.078   9.090  1.2734 -0.1072 -1.2614
 2372SOL     OW18748   2.917   0.434   4.546 -0.4097 -0.2060  0.1180
 2372SOL    HW118749   2.900   0.422   4.640 -2.6288  2.0273 -0.0198
 2372SOL    HW218750   3.010   0.454   4.556 -0.4933  1.0058 -1.6463
 2373SOL     OW18751   1.085   4.161  10.597  0.6234  0.2250  0.1710
 2373SOL    HW118752   1.155   4.121  10.545  2.1001 -1.2816  3.2988
 2373SOL    HW218753   1.039   4.078  10.602  0.2062  0.4081 -0.6618
 2374SOL     OW18754   4.062   2.031   6.364 -0.0396  0.6159  0.4418
 2374SOL    HW118755   3.994   2.033   6.296 -0.4511  3.1310  0.9162
 2374SOL    HW218756   4.012   1.992   6.436 -0.1846  0.2802  0.1558
 2375SOL     OW18757   1.362   0.362   2.581 -0.0219  0.1775 -0.6944
 2375SOL    HW118758   1.428   0.399   2.640  0.5439 -2.5717  0.4070
 2375SOL    HW218759   1.406   0.286   2.542  1.9544  0.1604  1.5418
 2376SOL     OW18760   1.952   0.935   7.374 -0.5282 -0.2580  0.2677
 2376SOL    HW118761   2.046   0.948   7.389 -0.6389  0.5159  0.3110
 2376SOL    HW218762   1.925   0.916   7.464  0.0456 -0.1821  0.4589
 2377SOL     OW18763   0.165   1.551   7.343  0.8727  0.0183 -0.6044
 2377SOL    HW118764   0.081   1.588   7.317  0.2804 -1.1614 -0.3409
 2377SOL    HW218765   0.214   1.629   7.372  0.8877  0.1787 -1.0619
 2378SOL     OW18766   3.803   3.545   4.124  0.3040  0.4129  0.3182
 2378SOL    HW118767   3.729   3.486   4.139  1.4092 -1.5921 -2.2125
 2378SOL    HW218768   3.775   3.631   4.157 -2.1131 -1.1083  2.2514
 2379SOL     OW18769   0.602   0.936  10.272 -0.3858 -0.4290  0.0573
 2379SOL    HW118770   0.514   0.922  10.238 -1.2084  0.2135  1.9286
 2379SOL    HW218771   0.648   0.870  10.220 -1.1739 -0.7591 -0.2122
 2380SOL     OW18772   0.210   2.268   4.051  0.6824  0.2520  0.1745
 2380SOL    HW118773   0.150   2.337   4.022  0.0877 -0.6521 -0.7392
 2380SOL    HW218774   0.231   2.233   3.964 -0.4775 -0.9937  0.3976
 2381SOL     OW18775   0.746   3.528   7.787 -0.4508  0.5175  0.1606
 2381SOL    HW118776   0.833   3.496   7.807 -1.0046 -0.5924  0.7537
 2381SOL    HW218777   0.689   3.488   7.853 -0.6983 -2.1317 -1.6632
 2382SOL     OW18778   0.083   1.458   5.474 -0.4528 -0.1102  0.1599
 2382SOL    HW118779   0.044   1.515   5.540  0.8503 -0.3082  1.1143
 2382SOL    HW218780   0.135   1.524   5.428 -1.2457  1.3875  1.4160
 2383SOL     OW18781   3.694   2.318  17.433  0.1821  0.2735  0.0030
 2383SOL    HW118782   3.771   2.319  17.490  0.8078 -1.3792 -0.7890
 2383SOL    HW218783   3.641   2.274  17.499 -3.5835  1.6159 -2.1359
 2384SOL     OW18784   3.821   0.164   3.261 -0.2574 -0.1641  0.1467
 2384SOL    HW118785   3.738   0.121   3.279 -0.3899  0.1049  0.1678
 2384SOL    HW218786   3.793   0.232   3.199 -0.1048 -1.3554 -1.2432
 2385SOL     OW18787   1.854   0.194   4.700  0.1546  0.2627 -0.1957
 2385SOL    HW118788   1.912   0.158   4.633  0.2632 -1.0095  0.6050
 2385SOL    HW218789   1.782   0.231   4.649 -1.1489 -1.6314  0.3036
 2386SOL     OW18790   0.371   2.818   1.152  0.2773  0.1415  0.4565
 2386SOL    HW118791   0.393   2.893   1.098 -2.0409 -1.0320 -2.1402
 2386SOL    HW218792   0.413   2.831   1.236  2.2429 -1.1519 -0.3265
 2387SOL     OW18793   1.234   3.101   2.594  0.1386 -0.4956 -0.4249
 2387SOL    HW118794   1.244   3.014   2.633 -1.3994 -1.5668 -2.4251
 2387SOL    HW218795   1.301   3.155   2.636  0.8551 -0.4224 -1.6695
 2388SOL     OW18796   1.676   3.571   5.135 -0.0433  0.0441 -0.1757
 2388SOL    HW118797   1.732   3.629   5.187 -1.6377 -0.9456  2.6987
 2388SOL    HW218798   1.637   3.633   5.075  1.2857 -0.2246 -1.3203
 2389SOL     OW18799   3.727   0.545   4.958  0.1350 -0.1578 -0.5491
 2389SOL    HW118800   3.663   0.586   5.017 -0.5418 -2.0591  0.0429
 2389SOL    HW218801   3.727   0.452   4.982 -1.1634  0.2822  1.2108
 2390SOL     OW18802   1.229   1.719   6.721 -0.0905 -0.0496 -0.1237
 2390SOL    HW118803   1.194   1.760   6.641  2.3965  0.9963 -0.6706
 2390SOL    HW218804   1.320   1.693   6.707 -0.7365 -1.5674 -1.5583
 2391SOL     OW18805   1.140   0.150   4.557  0.0035  0.0447  0.0006
 2391SOL    HW118806   1.144   0.065   4.601  0.9707 -0.6956 -1.5045
 2391SOL    HW218807   1.229   0.183   4.570 -0.8329  1.2985  2.5578
 2392SOL     OW18808   1.740   2.382   0.518  0.3606  0.5965  0.7726
 2392SOL    HW118809   1.785   2.466   0.512  1.5073 -0.1223 -0.7394
 2392SOL    HW218810   1.762   2.360   0.609 -1.1967 -2.1841  0.4669
 2393SOL     OW18811   1.770   1.892   3.939  0.5708  0.3201 -0.0404
 2393SOL    HW118812   1.795   1.974   3.898 -0.9948  1.4118  1.2213
 2393SOL    HW218813   1.692   1.854   3.898  2.4042 -1.2511 -2.0815
 2394SOL     OW18814   0.856   1.374   2.204  0.1081 -0.5012 -0.3960
 2394SOL    HW118815   0.777   1.428   2.193 -0.0458 -0.4796  0.8421
 2394SOL    HW218816   0.816   1.288   2.193 -0.2245 -0.5979  1.5355
 2395SOL     OW18817   2.217   0.140   6.733  0.6805 -1.0192 -0.1851
 2395SOL    HW118818   2.235   0.219   6.683  0.0440 -0.4757  0.4435
 2395SOL    HW218819   2.250   0.078   6.668  1.9738 -0.3384 -0.1730
 2396SOL     OW18820   0.294   0.463   4.820 -0.3453  0.2732  0.3087
 2396SOL    HW118821   0.292   0.440   4.727 -0.9098  1.1545  0.1068
 2396SOL    HW218822   0.201   0.483   4.831 -0.1334  0.3656  1.9086
 2397SOL     OW18823   0.657   2.836   8.369  0.3877 -0.0317 -0.0044
 2397SOL    HW118824   0.718   2.806   8.301  1.4073 -2.3001  1.9281
 2397SOL    HW218825   0.719   2.870   8.433  1.2327 -2.1576  0.3223
 2398SOL     OW18826   1.427   2.230   4.281  0.2363  0.3320  0.2556
 2398SOL    HW118827   1.483   2.285   4.336  0.8963  1.5902 -1.6829
 2398SOL    HW218828   1.415   2.157   4.342  0.2555  0.2926  0.2124
 2399SOL     OW18829   3.685   0.132  12.188  0.1737  0.1106 -0.1172
 2399SOL    HW118830   3.684   0.037  12.172  0.5309 -0.2166  1.8006
 2399SOL    HW218831   3.778   0.136  12.165 -0.2224  3.4923 -1.1887
 2400SOL     OW18832   1.989   2.267   8.892 -0.2596 -0.3045 -0.2717
 2400SOL    HW118833   2.077   2.283   8.927 -0.9164 -0.3566  1.3607
 2400SOL    HW218834   1.999   2.172   8.898  0.0950 -0.3677 -1.7115
 2401SOL     OW18835   2.811   1.918   5.537  0.2378 -0.1961  0.7953
 2401SOL    HW118836   2.781   1.835   5.501 -1.1831  0.5279  0.2950
 2401SOL    HW218837   2.842   1.894   5.624 -1.9725 -2.3686  0.9753
 2402SOL     OW18838   0.608   4.437   6.388  0.3231 -0.3020 -0.2985
 2402SOL    HW118839   0.695   4.405   6.364 -0.8770 -3.0016 -1.1046
 2402SOL    HW218840   0.629   4.499   6.457 -0.4907 -1.4106  0.9546
 2403SOL     OW18841   1.857   4.673   6.889 -0.3494  0.0515 -0.4890
 2403SOL    HW118842   1.884   0.004   6.834 -1.9284  0.8764 -0.1737
 2403SOL    HW218843   1.828   4.708   6.973  1.9912 -0.2978  0.4443
 2404SOL     OW18844   2.672   0.250   9.254 -0.5901 -1.0558 -0.5763
 2404SOL    HW118845   2.589   0.277   9.214 -0.4012 -0.0303 -0.2918
 2404SOL    HW218846   2.648   0.187   9.321  0.4635 -1.3245 -0.4622
 2405SOL     OW18847   1.732   1.301  15.400  0.8388 -0.0001 -0.2353
 2405SOL    HW118848   1.811   1.259  15.367  1.3556  0.8070 -0.0382
 2405SOL    HW218849   1.659   1.251  15.367  0.2067  1.1585 -0.5939
 2406SOL     OW18850   3.797   3.371   5.326  0.4570  0.0662 -0.2147
 2406SOL    HW118851   3.871   3.428   5.304  1.1780 -0.1571  1.5795
 2406SOL    HW218852   3.722   3.425   5.301  0.1928 -0.0265  0.3726
 2407SOL     OW18853   4.594   4.507  12.367 -0.0385 -0.0118 -0.0190
 2407SOL    HW118854   4.644   4.460  12.301 -0.9638  2.5043 -2.5457
 2407SOL    HW218855   4.513   4.495  12.317  0.8452 -0.0814 -1.4377
 2408SOL     OW18856   2.767   3.284  16.699  0.4784  0.5709 -0.7848
 2408SOL    HW118857   2.689   3.229  16.687 -0.9431  2.2735  0.5489
 2408SOL    HW218858   2.750   3.328  16.782 -0.1106  0.3709 -0.8002
 2409SOL     OW18859   1.060   0.719   8.043 -0.0475 -0.3281 -0.6987
 2409SOL    HW118860   1.037   0.696   8.133  0.2402  3.2096  0.2821
 2409SOL    HW218861   1.136   0.661   8.038  0.8211  0.7974 -0.4869
 2410SOL     OW18862   3.951   3.844   3.721  0.2633  0.2901 -0.2361
 2410SOL    HW118863   3.881   3.822   3.659 -2.9665  0.7305  3.2346
 2410SOL    HW218864   3.994   3.759   3.731 -0.3154 -0.3580 -3.1933
 2411SOL     OW18865   1.711   1.224  14.399  0.0893  0.6001  0.2144
 2411SOL    HW118866   1.618   1.204  14.393  0.4871 -0.7972 -1.3237
 2411SOL    HW218867   1.744   1.168  14.468 -0.4475 -2.1015 -1.7091
 2412SOL     OW18868   2.139   1.665  15.103 -0.6020  0.2840 -0.3169
 2412SOL    HW118869   2.153   1.738  15.163 -0.0280  0.6249 -0.8611
 2412SOL    HW218870   2.211   1.663  15.039  0.4429  0.6257  0.8374
 2413SOL     OW18871   1.059   4.704   8.981 -0.9619 -0.3081 -0.1747
 2413SOL    HW118872   0.986   0.024   8.974 -0.8755 -0.0546  1.1004
 2413SOL    HW218873   1.115   0.016   8.925 -1.6027 -0.4193 -0.9160
 2414SOL     OW18874   0.456   3.672   6.074 -0.1012 -0.0666  0.0668
 2414SOL    HW118875   0.413   3.692   5.991 -0.9241 -1.7052  0.1085
 2414SOL    HW218876   0.535   3.631   6.041 -0.2904 -1.5797  1.5067
 2415SOL     OW18877   1.915   2.763  12.971 -0.2651  0.0770 -0.4545
 2415SOL    HW118878   1.949   2.712  13.044 -1.3471  1.6208  1.1318
 2415SOL    HW218879   1.842   2.709  12.942 -0.3845 -0.1004  0.1843
 2416SOL     OW18880   0.939   0.010   6.860  0.1497  0.2280 -0.2193
 2416SOL    HW118881   0.854   0.055   6.859 -0.8328 -1.6700 -1.5476
 2416SOL    HW218882   0.909   4.663   6.840 -0.9097  0.3657  0.7476
 2417SOL     OW18883   0.676   0.778  13.769 -0.6548  0.2853  0.2400
 2417SOL    HW118884   0.682   0.826  13.852  0.7724  0.8587 -0.2031
 2417SOL    HW218885   0.768   0.753  13.759 -0.3517  1.3227  0.3894
 2418SOL     OW18886   4.490   1.082   1.866 -1.0554  0.4446  0.3574
 2418SOL    HW118887   4.457   1.159   1.820 -2.8822 -0.6902 -0.2231
 2418SOL    HW218888   4.537   1.038   1.795 -2.1267 -1.7658  1.0346
 2419SOL     OW18889   2.307   0.400   9.973  0.6620 -0.0600 -0.0136
 2419SOL    HW118890   2.366   0.390  10.048  0.1409 -1.3051  0.2293
 2419SOL    HW218891   2.228   0.361  10.012  0.1592 -0.8681 -1.8442
 2420SOL     OW18892   0.603   2.771   7.274  0.7694 -0.1871  0.4279
 2420SOL    HW118893   0.524   2.736   7.315 -1.6145  2.4611 -1.9057
 2420SOL    HW218894   0.672   2.760   7.339 -0.0217 -1.7777  1.0128
 2421SOL     OW18895   3.947   2.945   1.752  0.6344 -0.0132  0.2280
 2421SOL    HW118896   3.879   3.005   1.721  1.6165  2.2197  2.3835
 2421SOL    HW218897   3.931   2.870   1.695  0.5145 -1.0552  1.6388
 2422SOL     OW18898   4.140   4.121   3.295 -0.2293  0.6531 -0.0077
 2422SOL    HW118899   4.178   4.148   3.379 -0.5167  0.5439  0.1554
 2422SOL    HW218900   4.086   4.195   3.272  0.0544 -0.0867 -3.0549
 2423SOL     OW18901   0.414   3.797   9.108 -0.1386  0.1370 -0.3056
 2423SOL    HW118902   0.473   3.746   9.053 -0.7383 -1.8303  0.8861
 2423SOL    HW218903   0.430   3.882   9.066 -0.8328  0.1663 -0.5182
 2424SOL     OW18904   2.122   2.110   7.138 -0.0725  0.1949  0.2126
 2424SOL    HW118905   2.178   2.147   7.206 -1.8682  0.6071  1.4424
 2424SOL    HW218906   2.096   2.197   7.106  0.2387  0.2412  0.0837
 2425SOL     OW18907   2.032   1.217  15.261 -0.1970 -0.3778  0.5808
 2425SOL    HW118908   2.126   1.208  15.246  0.0887  1.3575  1.3185
 2425SOL    HW218909   2.004   1.125  15.264  0.9185 -0.7085  1.3215
 2426SOL     OW18910   1.329   1.337   3.161 -0.6232 -0.0068  0.6568
 2426SOL    HW118911   1.324   1.270   3.093  0.6470  1.0400 -0.4621
 2426SOL    HW218912   1.377   1.285   3.226 -0.7740 -0.6802  0.2359
 2427SOL     OW18913   1.740   4.531   4.445  0.0667  0.1172  0.4913
 2427SOL    HW118914   1.692   4.596   4.393  1.5420  0.2980 -0.6578
 2427SOL    HW218915   1.703   4.541   4.533 -1.5651 -0.5595 -0.1108
 2428SOL     OW18916   2.497   3.133   3.015  0.1869  0.0842 -0.1177
 2428SOL    HW118917   2.506   3.043   3.046 -1.4526 -0.9198 -2.5564
 2428SOL    HW218918   2.487   3.133   2.920 -4.7184 -0.1715  0.4313
 2429SOL     OW18919   3.450   0.681   9.244  0.3310  0.5498  0.4541
 2429SOL    HW118920   3.439   0.758   9.188 -0.5875 -2.1803 -3.0913
 2429SOL    HW218921   3.533   0.648   9.209  0.2684  0.1966  0.6368
 2430SOL     OW18922   0.170   1.983   7.926  0.2134  0.3037 -0.4627
 2430SOL    HW118923   0.257   1.970   7.965  0.8730  1.0912 -1.6887
 2430SOL    HW218924   0.109   1.935   7.982 -1.3493  1.5780 -1.0471
 2431SOL     OW18925   0.917   1.219   3.949  0.3742  0.0345  0.4758
 2431SOL    HW118926   0.926   1.210   3.854 -1.1995 -1.2332  0.4476
 2431SOL    HW218927   0.994   1.273   3.967 -0.2259  0.5813  1.3889
 2432SOL     OW18928   3.426   1.745   2.456  0.3272 -0.1133  0.0656
 2432SOL    HW118929   3.455   1.829   2.421  2.4298 -0.1902  1.6153
 2432SOL    HW218930   3.473   1.680   2.403 -0.2029  1.4053 -2.2052
 2433SOL     OW18931   1.109   2.406   2.334  0.2393  0.1428 -0.1665
 2433SOL    HW118932   1.037   2.404   2.270  0.3495  0.6420 -0.3002
 2433SOL    HW218933   1.130   2.312   2.336 -3.0084 -0.5845 -0.0556
 2434SOL     OW18934   4.626   2.653   6.507  0.0904  0.8234  0.1185
 2434SOL    HW118935   4.571   2.732   6.507  1.0366  1.4850  0.3241
 2434SOL    HW218936   4.620   2.629   6.600 -2.1851  1.5584  0.1666
 2435SOL     OW18937   0.448   0.177  17.146  0.0750  0.4966  0.0104
 2435SOL    HW118938   0.375   0.141  17.196  0.6941 -0.2471  0.3919
 2435SOL    HW218939   0.530   0.129  17.164 -0.7276 -0.2851  1.5603
 2436SOL     OW18940   4.699   1.129   7.373  0.1966  0.2481 -1.2311
 2436SOL    HW118941   0.016   1.197   7.406  0.2160 -0.9339  1.2060
 2436SOL    HW218942   4.659   1.178   7.301  0.1452  0.9437 -0.7260
 2437SOL     OW18943   2.561   0.705   7.503 -0.0477  0.2986  0.1450
 2437SOL    HW118944   2.500   0.660   7.562  0.3224 -2.8053 -1.8373
 2437SOL    HW218945   2.586   0.627   7.454 -1.2010 -0.4981  0.8173
 2438SOL     OW18946   1.685   1.667   9.315  0.2531 -0.1583  0.0435
 2438SOL    HW118947   1.763   1.660   9.259  1.0741  1.2105  1.0171
 2438SOL    HW218948   1.653   1.576   9.318  0.0809 -0.0920  0.1889
 2439SOL     OW18949   3.955   1.491  10.398 -0.0997  0.0582 -0.1514
 2439SOL    HW118950   3.924   1.449  10.479 -2.0754 -0.1035 -0.9789
 2439SOL    HW218951   3.889   1.552  10.365 -0.4168  1.2010  2.6198
 2440SOL     OW18952   1.565   1.735   7.468 -0.4557 -0.2615 -0.0701
 2440SOL    HW118953   1.656   1.764   7.471 -0.2906 -0.5569 -1.7903
 2440SOL    HW218954   1.531   1.805   7.412 -1.8896 -1.5954 -0.8544
 2441SOL     OW18955   2.335   3.420   6.313  0.0753 -0.6818  0.0193
 2441SOL    HW118956   2.250   3.392   6.278  0.1232 -0.9776  0.1387
 2441SOL    HW218957   2.393   3.363   6.262  0.0558  1.1332 -2.0171
 2442SOL     OW18958   1.862   3.967   7.799 -0.3543  0.1648  0.3589
 2442SOL    HW118959   1.860   3.932   7.888 -2.9980  3.1017  1.4771
 2442SOL    HW218960   1.953   3.942   7.788 -1.3020 -3.8040  1.7002
 2443SOL     OW18961   1.439   1.966  14.360 -0.0646 -0.4521 -0.0641
 2443SOL    HW118962   1.473   2.026  14.294  0.6335 -0.5748  0.1926
 2443SOL    HW218963   1.524   1.937  14.391 -0.1300 -0.5595  0.0142
 2444SOL     OW18964   3.339   1.000   5.946  0.7137 -0.3779  0.3106
 2444SOL    HW118965   3.385   0.982   5.864  3.0736 -1.1623  1.8236
 2444SOL    HW218966   3.325   0.914   5.987 -1.7089  0.5974  1.5576
 2445SOL     OW18967   4.269   1.201   7.913  0.0982 -0.8355  0.3944
 2445SOL    HW118968   4.323   1.215   7.836  1.9115 -1.7061  1.5052
 2445SOL    HW218969   4.178   1.189   7.884  0.6625 -0.8398 -1.3368
 2446SOL     OW18970   4.377   3.508  10.536  0.4944 -0.2367 -0.0630
 2446SOL    HW118971   4.399   3.461  10.616 -1.4989  1.1290  1.2680
 2446SOL    HW218972   4.363   3.595  10.573  0.2691 -0.7296  1.0050
 2447SOL     OW18973   4.164   2.204   0.050  0.0930 -0.2250  0.1014
 2447SOL    HW118974   4.204   2.233   0.132 -1.5057 -1.2334  1.2303
 2447SOL    HW218975   4.071   2.208   0.071  0.3823  2.2396  0.8329
 2448SOL     OW18976   3.939   3.550   5.906  0.3754 -0.0976 -0.1212
 2448SOL    HW118977   3.891   3.503   5.974  0.2777 -0.2442 -0.2911
 2448SOL    HW218978   3.973   3.623   5.958  2.5845  0.8437 -2.8740
 2449SOL     OW18979   2.555   3.628  10.449 -0.0301 -0.3676 -0.3926
 2449SOL    HW118980   2.573   3.555  10.390 -0.6019 -1.7996  1.2020
 2449SOL    HW218981   2.527   3.702  10.395 -0.1044 -1.0631 -1.2949
 2450SOL     OW18982   3.662   0.914   7.598 -0.4521 -0.6983  0.3224
 2450SOL    HW118983   3.749   0.916   7.558 -0.5891 -1.7859 -0.0121
 2450SOL    HW218984   3.667   0.996   7.648 -0.7715  0.4121 -1.4630
 2451SOL     OW18985   2.750   2.393  12.956 -0.0088 -0.2024  0.0324
 2451SOL    HW118986   2.821   2.370  13.016  1.6200  0.2940 -1.6605
 2451SOL    HW218987   2.784   2.474  12.918 -0.7970  0.1591  0.1011
 2452SOL     OW18988   3.424   3.280  10.623 -0.0739 -0.2659 -0.2258
 2452SOL    HW118989   3.347   3.266  10.678  2.3186 -2.8856  2.4496
 2452SOL    HW218990   3.424   3.376  10.628 -3.1351 -0.2238 -1.4779
 2453SOL     OW18991   0.451   0.673   2.614 -0.9159  0.6357 -0.7938
 2453SOL    HW118992   0.462   0.686   2.520  0.1478 -1.8284 -1.0132
 2453SOL    HW218993   0.364   0.635   2.624  0.8102 -2.0483  3.7677
 2454SOL     OW18994   4.635   4.577  15.418 -0.1391 -0.0724  0.4191
 2454SOL    HW118995   4.594   4.508  15.469  1.2161 -0.3985  1.0671
 2454SOL    HW218996   4.596   4.572  15.331  1.2432 -3.4432  0.0042
 2455SOL     OW18997   0.993   3.919   8.956 -0.0582  0.4066 -0.3835
 2455SOL    HW118998   0.963   4.009   8.957  1.1440  0.7859  1.4417
 2455SOL    HW218999   1.057   3.912   9.027 -2.2263  0.6989  1.5914
 2456SOL     OW19000   2.719   4.575  15.198 -0.1521 -0.5258 -0.2434
 2456SOL    HW119001   2.744   4.638  15.131 -0.7982  2.6973  2.5093
 2456SOL    HW219002   2.630   4.598  15.227  0.9701 -0.7858  3.3683
 2457SOL     OW19003   2.576   1.358   2.202  0.2581  0.6584 -0.2952
 2457SOL    HW119004   2.505   1.348   2.266  1.0322 -0.1081  0.4518
 2457SOL    HW219005   2.596   1.264   2.202  0.4976  0.6988 -2.9768
 2458SOL     OW19006   4.320   1.987   2.007  0.0204 -0.0585 -0.6440
 2458SOL    HW119007   4.343   2.063   2.058  3.0742 -3.0871  2.4455
 2458SOL    HW219008   4.282   1.924   2.068  1.6597 -1.8216 -1.4262
 2459SOL     OW19009   0.592   4.411   3.178  0.5957  0.1902 -0.0893
 2459SOL    HW119010   0.672   4.424   3.127 -0.4307 -0.7867 -1.9357
 2459SOL    HW219011   0.625   4.344   3.238  1.6037  2.0321  1.4269
 2460SOL     OW19012   4.206   0.912  12.099  0.1979  0.2341 -0.3868
 2460SOL    HW119013   4.190   0.933  12.007  3.1595 -1.8084 -1.3666
 2460SOL    HW219014   4.257   0.831  12.090 -0.0797  0.1668 -1.3440
 2461SOL     OW19015   1.486   0.416   6.478  0.3903  0.1924  0.4147
 2461SOL    HW119016   1.548   0.422   6.551  0.4845 -1.9182  0.5306
 2461SOL    HW219017   1.530   0.467   6.410  2.4555 -0.7465  1.0494
 2462SOL     OW19018   0.012   1.487   8.233  0.2214  0.3059  0.0813
 2462SOL    HW119019   0.029   1.394   8.250  0.9978 -0.1283 -3.1801
 2462SOL    HW219020   0.064   1.528   8.303 -1.4344  0.6235  1.1258
 2463SOL     OW19021   3.881   1.637   8.378 -0.4501  0.1050 -0.0363
 2463SOL    HW119022   3.882   1.600   8.466  3.2290  1.9558  0.7267
 2463SOL    HW219023   3.844   1.563   8.331 -1.0374  0.8628 -0.7786
 2464SOL     OW19024   1.955   3.717   0.423  0.1801 -0.3428  0.7975
 2464SOL    HW119025   1.957   3.670   0.340  2.9212  1.7513 -0.3183
 2464SOL    HW219026   2.027   3.678   0.472  0.0577 -0.6916  0.6960
 2465SOL     OW19027   3.223   2.756   2.962  0.8063 -0.2629  0.6039
 2465SOL    HW119028   3.257   2.686   3.017 -0.8618 -0.7370  1.0237
 2465SOL    HW219029   3.307   2.799   2.943 -0.0139  1.4376  0.8232
 2466SOL     OW19030   4.070   3.553  17.208  0.1058 -0.0646 -0.3920
 2466SOL    HW119031   4.141   3.557  17.273  0.9822  0.1473 -1.3570
 2466SOL    HW219032   4.016   3.624  17.241 -0.7039  0.0153 -1.9029
 2467SOL     OW19033   1.854   2.869   6.762 -0.2196  0.2144 -0.1456
 2467SOL    HW119034   1.833   2.824   6.680  0.0986  0.8580 -0.5761
 2467SOL    HW219035   1.947   2.846   6.764  0.3806  2.7697  0.7253
 2468SOL     OW19036   0.294   3.424  12.861  0.1669  0.4367  0.0279
 2468SOL    HW119037   0.315   3.489  12.793 -0.0905  0.4233 -0.0659
 2468SOL    HW219038   0.257   3.353  12.809 -2.4227  1.2392  0.7569
 2469SOL     OW19039   2.053   1.653   5.270 -0.6951  0.2338 -0.2647
 2469SOL    HW119040   2.081   1.712   5.200 -1.3095 -0.2244 -0.8894
 2469SOL    HW219041   2.027   1.581   5.213  0.8241 -1.0043  0.6229
 2470SOL     OW19042   2.890   0.794  13.616 -0.5685  0.5108  0.1397
 2470SOL    HW119043   2.959   0.729  13.627 -1.4925 -0.3045  1.2646
 2470SOL    HW219044   2.814   0.754  13.658  0.1539  0.9442  1.8604
 2471SOL     OW19045   1.121   1.127  16.023 -0.2719  0.5550  0.1355
 2471SOL    HW119046   1.090   1.159  15.938  1.0441 -0.1455 -0.6061
 2471SOL    HW219047   1.187   1.060  16.002  0.5766  1.3669  0.2035
 2472SOL     OW19048   3.934   0.637   2.031  0.1006  0.1617  0.2591
 2472SOL    HW119049   3.928   0.649   1.936  0.0376 -2.1178 -0.0137
 2472SOL    HW219050   3.974   0.551   2.042  0.0137 -0.1843 -2.1043
 2473SOL     OW19051   0.801   2.985   4.804  0.5705  0.0934 -0.2791
 2473SOL    HW119052   0.810   3.073   4.842  0.9884 -0.1399  0.1648
 2473SOL    HW219053   0.804   2.931   4.883 -0.1719  0.8708  0.2842
 2474SOL     OW19054   3.870   4.605   9.511  0.5842 -0.9583  0.1417
 2474SOL    HW119055   3.858   4.681   9.454 -0.7690 -0.1634  1.4968
 2474SOL    HW219056   3.958   4.602   9.549 -0.4257  0.1602  2.5544
 2475SOL     OW19057   1.898   1.530   8.646 -0.3334 -0.0493 -0.4561
 2475SOL    HW119058   1.947   1.557   8.568 -0.5243  1.3469 -0.0984
 2475SOL    HW219059   1.853   1.610   8.674 -0.0480 -0.7263  1.9885
 2476SOL     OW19060   2.055   3.920   5.229 -0.2123 -0.2483  0.8854
 2476SOL    HW119061   2.079   3.998   5.179 -1.8302 -1.2991 -1.5723
 2476SOL    HW219062   2.138   3.872   5.226  0.5261  0.9639  2.1424
 2477SOL     OW19063   0.502   2.496   2.644 -0.0293 -0.3314 -0.1306
 2477SOL    HW119064   0.563   2.556   2.687 -0.1336 -1.3530  1.4927
 2477SOL    HW219065   0.550   2.484   2.563  0.5511 -0.1738  0.1894
 2478SOL     OW19066   0.822   1.950   6.943 -0.2783 -0.0321  0.3189
 2478SOL    HW119067   0.745   1.925   6.893 -1.7654  0.8380  2.1703
 2478SOL    HW219068   0.879   1.992   6.878 -2.8992  0.2820 -1.7617
 2479SOL     OW19069   0.584   1.075   7.687 -0.1643 -0.2094  0.1468
 2479SOL    HW119070   0.506   1.089   7.741  0.0756  1.9156 -0.0720
 2479SOL    HW219071   0.546   1.050   7.602  1.0027  1.3859 -0.8490
 2480SOL     OW19072   2.894   1.935  11.034 -0.6379 -0.1845  0.6717
 2480SOL    HW119073   2.955   1.987  11.087 -0.4831  0.8004 -0.4416
 2480SOL    HW219074   2.957   1.909  10.966 -2.2978 -1.6753 -0.2973
 2481SOL     OW19075   0.098   3.160  12.355 -0.1106 -0.6133 -0.4489
 2481SOL    HW119076   0.054   3.078  12.379 -1.1258 -0.2386 -1.0262
 2481SOL    HW219077   0.186   3.121  12.352  0.5345  0.7948  0.3494
 2482SOL     OW19078   1.440   0.802   0.393  0.0821 -0.2560 -1.0157
 2482SOL    HW119079   1.533   0.824   0.394  0.4268 -1.7030 -1.1197
 2482SOL    HW219080   1.412   0.881   0.347  0.5716  1.5346  1.7494
 2483SOL     OW19081   3.162   1.447  12.932 -0.2057  0.1441 -0.8765
 2483SOL    HW119082   3.079   1.412  12.964  2.2248 -1.5933  3.5383
 2483SOL    HW219083   3.149   1.541  12.931 -1.7001 -0.0594 -0.8062
 2484SOL     OW19084   3.995   2.479   8.945 -0.0307 -0.1072  0.3055
 2484SOL    HW119085   4.077   2.435   8.922  1.0199  1.7224  0.5835
 2484SOL    HW219086   3.994   2.468   9.040 -1.1108 -1.7745  0.0944
 2485SOL     OW19087   4.081   3.604  14.338  0.2450  0.1910 -0.1032
 2485SOL    HW119088   4.150   3.671  14.340  0.8904 -0.4985  1.2190
 2485SOL    HW219089   4.138   3.528  14.353 -0.3683  0.2028  2.3478
 2486SOL     OW19090   2.937   2.235   7.783  0.1516 -0.2773  0.4161
 2486SOL    HW119091   2.980   2.226   7.868  3.5739  4.7916 -0.7617
 2486SOL    HW219092   2.993   2.177   7.732  0.7874  0.1017  0.6876
 2487SOL     OW19093   3.530   2.596   4.966 -0.2381  0.1121  0.0582
 2487SOL    HW119094   3.549   2.685   4.935  1.0630  0.1920  1.0467
 2487SOL    HW219095   3.613   2.552   4.947 -0.1939 -0.4390  1.5355
 2488SOL     OW19096   0.883   0.189   9.252 -0.0645  0.0550 -0.1009
 2488SOL    HW119097   0.888   0.111   9.308 -2.0911 -0.2399 -0.3470
 2488SOL    HW219098   0.949   0.244   9.294 -0.8650  2.0758 -1.5234
 2489SOL     OW19099   2.253   4.149   2.626  0.4204  0.3380  0.1753
 2489SOL    HW119100   2.318   4.193   2.681  1.5046  0.1535 -0.9459
 2489SOL    HW219101   2.305   4.145   2.545  2.5141  1.7704  1.4402
 2490SOL     OW19102   1.163   3.220   6.063 -0.3251 -0.2891 -0.2518
 2490SOL    HW119103   1.117   3.268   6.131 -0.4122 -0.1682 -0.3970
 2490SOL    HW219104   1.092   3.228   5.999  0.7400  0.7044 -1.3165
 2491SOL     OW19105   4.621   2.400   7.947  0.1845  0.4571 -0.2550
 2491SOL    HW119106   4.701   2.352   7.968  0.4531  0.9166 -0.2346
 2491SOL    HW219107   4.554   2.332   7.958  1.6545 -0.7974  0.9496
 2492SOL     OW19108   4.424   0.812   6.399 -0.8897 -0.1110 -0.1082
 2492SOL    HW119109   4.334   0.782   6.381 -0.6188 -0.7994 -0.3088
 2492SOL    HW219110   4.446   0.759   6.475  2.5606 -2.1717 -2.5760
 2493SOL     OW19111   1.078   0.385   6.859  0.0521  0.1443  0.2194
 2493SOL    HW119112   1.071   0.363   6.952 -1.1844  0.4871  0.2121
 2493SOL    HW219113   1.168   0.363   6.835 -0.3831 -1.1614 -0.2176
 2494SOL     OW19114   3.386   3.034   5.448 -0.1074  0.1984 -0.1214
 2494SOL    HW119115   3.379   2.972   5.376  0.8353 -1.0948  0.8836
 2494SOL    HW219116   3.409   3.115   5.404 -0.2682 -0.0771 -0.7085
 2495SOL     OW19117   2.812   3.767   8.755  0.4531 -0.0817  0.2291
 2495SOL    HW119118   2.827   3.824   8.679  0.3720 -0.5472 -0.1318
 2495SOL    HW219119   2.869   3.805   8.822  0.5174  0.5499 -0.1762
 2496SOL     OW19120   4.406   1.393   6.837  0.3389 -0.0304 -0.4670
 2496SOL    HW119121   4.459   1.469   6.860 -0.2058  0.7594 -1.8491
 2496SOL    HW219122   4.341   1.373   6.905 -1.9134  1.3818 -2.1929
 2497SOL     OW19123   1.933   0.502   9.331 -0.4223  0.1944  0.4713
 2497SOL    HW119124   1.886   0.533   9.409  0.3463  1.8507  0.2648
 2497SOL    HW219125   2.023   0.480   9.357 -0.1294 -1.3858 -1.8879
 2498SOL     OW19126   2.029   0.766   6.751 -0.0137  0.1795 -0.2905
 2498SOL    HW119127   2.003   0.845   6.703  3.8691  1.4048 -0.3108
 2498SOL    HW219128   2.069   0.810   6.826  0.6579  0.4207 -0.7933
 2499SOL     OW19129   4.125   2.549   5.778 -0.2580  0.2408 -0.6104
 2499SOL    HW119130   4.205   2.507   5.747  0.0423 -0.0814  0.6190
 2499SOL    HW219131   4.055   2.490   5.751 -0.2191 -0.5476  1.0273
 2500SOL     OW19132   1.710   4.484   8.332 -0.1758  0.1102 -0.0866
 2500SOL    HW119133   1.703   4.456   8.423  1.7383  1.1829  0.3943
 2500SOL    HW219134   1.642   4.430   8.291 -1.1810  0.6726  0.8216
 2501SOL     OW19135   3.571   3.561   3.375 -0.1465  0.5819  0.3714
 2501SOL    HW119136   3.650   3.519   3.409 -2.3602  0.4420  5.3473
 2501SOL    HW219137   3.507   3.521   3.434 -1.6645 -1.1717 -2.4559
 2502SOL     OW19138   2.743   4.362   4.182 -0.2227 -0.4051  0.4230
 2502SOL    HW119139   2.652   4.391   4.191  0.1122  0.2251  1.8765
 2502SOL    HW219140   2.737   4.274   4.219  0.6749  0.1333  1.8145
 2503SOL     OW19141   3.401   1.814   3.587 -0.5858  0.3889  0.1615
 2503SOL    HW119142   3.411   1.722   3.561 -0.1767  0.5705 -0.3325
 2503SOL    HW219143   3.411   1.857   3.502 -2.5518 -0.4409 -0.4942
 2504SOL     OW19144   4.422   0.432   4.567  0.7503  0.3320  0.0190
 2504SOL    HW119145   4.335   0.471   4.574  1.4713  1.6603  1.7684
 2504SOL    HW219146   4.463   0.490   4.503  1.3931  0.0811  0.2020
 2505SOL     OW19147   1.691   0.565  16.099  0.1432 -0.9364  0.5745
 2505SOL    HW119148   1.631   0.496  16.127  1.3414 -2.1181  0.2318
 2505SOL    HW219149   1.758   0.511  16.059  0.2508 -2.5170  2.9276
 2506SOL     OW19150   3.130   4.354   9.857  0.7917 -0.7256 -0.1282
 2506SOL    HW119151   3.208   4.299   9.865 -0.1998 -2.1727 -0.3992
 2506SOL    HW219152   3.170   4.440   9.848 -0.1378 -0.3027 -0.2079
 2507SOL     OW19153   1.369   4.506  17.128  0.1500  0.1285  0.1205
 2507SOL    HW119154   1.425   4.511  17.205  0.2872  1.4634 -0.0693
 2507SOL    HW219155   1.411   4.431  17.087 -1.5445  0.4498 -2.1749
 2508SOL     OW19156   1.376   1.243   5.680  0.1838  0.3254 -0.0969
 2508SOL    HW119157   1.318   1.234   5.756 -0.5696 -0.3296 -0.7490
 2508SOL    HW219158   1.432   1.308   5.723  2.2576 -1.5578  0.0286
 2509SOL     OW19159   0.041   3.788   4.013 -0.0834  0.5686 -0.3369
 2509SOL    HW119160   0.088   3.831   4.085  1.2953 -2.7292  0.7318
 2509SOL    HW219161   0.038   3.696   4.038 -0.0747  0.5282 -0.4864
 2510SOL     OW19162   1.378   1.891   1.197  0.0689  0.4793  0.3342
 2510SOL    HW119163   1.416   1.877   1.110 -0.1727  0.1428  0.2805
 2510SOL    HW219164   1.304   1.947   1.174 -0.4467 -0.1399  0.4692
 2511SOL     OW19165   4.524   1.762   5.749  0.3536  0.5337  0.6050
 2511SOL    HW119166   4.565   1.751   5.835 -0.9080  3.0461  1.5164
 2511SOL    HW219167   4.578   1.711   5.689  3.4046  1.3700  2.6335
 2512SOL     OW19168   0.760   3.764   3.129 -0.6229 -0.1042  0.3514
 2512SOL    HW119169   0.714   3.691   3.089  0.8640 -0.4558 -0.7447
 2512SOL    HW219170   0.819   3.713   3.185  0.0058  0.2457  0.0098
 2513SOL     OW19171   1.456   2.558   0.608 -0.6013  0.1616  0.0315
 2513SOL    HW119172   1.537   2.507   0.615 -0.9241 -0.5401 -1.3723
 2513SOL    HW219173   1.481   2.616   0.680  0.9396 -0.1527 -0.2539
 2514SOL     OW19174   3.094   1.068   6.011 -0.0491 -0.3031 -0.1397
 2514SOL    HW119175   3.164   1.048   5.949 -0.3749  1.3490 -1.0395
 2514SOL    HW219176   3.142   1.101   6.088 -1.1610  1.1855 -0.1023
 2515SOL     OW19177   3.708   4.591  12.158 -0.1515 -0.1806  0.1538
 2515SOL    HW119178   3.751   4.550  12.083  2.4872 -0.0881  1.5895
 2515SOL    HW219179   3.762   4.571  12.235 -1.6225 -0.4343  1.1180
 2516SOL     OW19180   4.224   0.814   4.336 -0.5419 -0.2594  0.1107
 2516SOL    HW119181   4.249   0.750   4.269  0.4904  0.2935 -0.0308
 2516SOL    HW219182   4.311   0.825   4.374 -0.5480  0.1356  0.0131
 2517SOL     OW19183   3.212   4.531   7.569  0.1086 -0.1061  0.3281
 2517SOL    HW119184   3.291   4.476   7.573  1.5775  1.9316 -0.5590
 2517SOL    HW219185   3.139   4.469   7.567  1.1096 -1.2926  0.2799
 2518SOL     OW19186   0.798   1.716   9.040  0.0080  0.2555  0.5579
 2518SOL    HW119187   0.847   1.677   9.112  0.4168 -0.5479 -0.1569
 2518SOL    HW219188   0.876   1.745   8.993 -0.7873 -0.0788 -0.9745
 2519SOL     OW19189   3.227   2.388  13.317  0.3279  0.0490  0.3270
 2519SOL    HW119190   3.321   2.377  13.330  0.2396 -1.9422 -0.7352
 2519SOL    HW219191   3.190   2.320  13.373 -2.6621  0.1303 -1.5463
 2520SOL     OW19192   0.414   3.957  16.593 -0.4859  0.0106 -0.7016
 2520SOL    HW119193   0.469   4.033  16.612  1.1151 -0.6490 -2.5974
 2520SOL    HW219194   0.485   3.894  16.578 -2.3882 -2.1138 -0.8492
 2521SOL     OW19195   3.284   3.449   8.102 -0.0295 -0.2164 -0.0188
 2521SOL    HW119196   3.282   3.495   8.186  1.7541 -1.5019  0.7240
 2521SOL    HW219197   3.206   3.395   8.116 -0.3079  0.7227  2.0664
 2522SOL     OW19198   3.820   3.553  16.700  0.1582 -0.4662  0.2029
 2522SOL    HW119199   3.855   3.552  16.790  0.8153  0.2035 -0.0415
 2522SOL    HW219200   3.802   3.460  16.691  0.8279 -0.5194 -0.6099
 2523SOL     OW19201   1.338   1.995   3.240 -0.3260  0.1931  0.3479
 2523SOL    HW119202   1.304   2.067   3.187 -3.0329 -1.5640 -0.3003
 2523SOL    HW219203   1.305   1.925   3.184  0.3254  0.8028 -0.7854
 2524SOL     OW19204   1.755   3.672   8.619  0.3336  0.3969  0.3108
 2524SOL    HW119205   1.821   3.608   8.648  0.7206  1.3282  1.5038
 2524SOL    HW219206   1.679   3.616   8.608 -0.9375  1.8393  1.7360
 2525SOL     OW19207   3.327   1.697   5.833  0.4658 -0.2089  0.2369
 2525SOL    HW119208   3.410   1.692   5.880  2.3360  1.9181 -2.8194
 2525SOL    HW219209   3.275   1.649   5.897 -0.0559 -0.9250 -0.7309
 2526SOL     OW19210   2.130   2.098   1.164  0.2566 -0.1613 -0.1095
 2526SOL    HW119211   2.202   2.141   1.119 -0.0813  0.3950 -0.1257
 2526SOL    HW219212   2.168   2.098   1.252 -0.0124 -0.5323  0.0070
 2527SOL     OW19213   0.791   4.538   7.663  0.0308 -0.2050 -0.3736
 2527SOL    HW119214   0.750   4.453   7.673  0.9473 -0.7644 -1.3439
 2527SOL    HW219215   0.733   4.579   7.600 -0.3857  1.3061  0.9895
 2528SOL     OW19216   4.020   0.775   3.957  0.4398  0.0417  0.0728
 2528SOL    HW119217   4.027   0.869   3.976 -2.6005  0.4408 -0.7666
 2528SOL    HW219218   4.045   0.781   3.865  0.9197 -1.2963  0.1229
 2529SOL     OW19219   2.637   0.173   4.296 -0.5541  0.0937 -0.4276
 2529SOL    HW119220   2.661   0.081   4.307 -0.8385  0.1442  0.6014
 2529SOL    HW219221   2.718   0.219   4.274 -0.5843  0.1407 -0.4416
 2530SOL     OW19222   3.016   1.979   4.368 -0.3788 -0.6042 -0.5270
 2530SOL    HW119223   3.033   2.032   4.290  1.8114 -0.7496 -0.1325
 2530SOL    HW219224   3.004   1.894   4.327 -0.3142 -0.5764 -0.6032
 2531SOL     OW19225   1.359   3.337   2.267  0.1716 -0.1252  0.1167
 2531SOL    HW119226   1.438   3.300   2.226 -0.3166  1.2295 -2.0485
 2531SOL    HW219227   1.395   3.342   2.355  2.8022 -0.6176 -0.9284
 2532SOL     OW19228   1.406   4.527   3.541 -0.2248  0.1565  0.6762
 2532SOL    HW119229   1.367   4.508   3.627  1.4318  0.0856  1.4102
 2532SOL    HW219230   1.369   4.458   3.486 -0.4112  0.9219 -0.1607
 2533SOL     OW19231   3.164   3.039   0.279  0.0779 -0.6320 -0.2659
 2533SOL    HW119232   3.197   3.128   0.273 -2.0429  0.1813  0.0138
 2533SOL    HW219233   3.069   3.054   0.275 -0.3556 -3.1605  0.1424
 2534SOL     OW19234   3.265   3.849   9.346  0.0805  0.6837 -0.4424
 2534SOL    HW119235   3.253   3.757   9.325  1.1951  0.0391  1.8608
 2534SOL    HW219236   3.327   3.850   9.418  1.2578 -1.9818 -1.4416
 2535SOL     OW19237   2.153   3.725   6.250  0.0320  0.2981  0.2053
 2535SOL    HW119238   2.192   3.704   6.165 -0.5451  2.0835 -0.5088
 2535SOL    HW219239   2.141   3.819   6.235  0.8365  0.2807 -0.5745
 2536SOL     OW19240   2.555   2.320   4.588 -0.3423  0.8198  0.1958
 2536SOL    HW119241   2.542   2.236   4.631 -0.7258  0.2440 -1.0210
 2536SOL    HW219242   2.575   2.380   4.659 -1.1097  0.1166  1.0127
 2537SOL     OW19243   0.446   0.401  12.016 -0.3626 -0.1344  0.0449
 2537SOL    HW119244   0.377   0.371  12.076  0.4812  1.4399  1.8030
 2537SOL    HW219245   0.433   0.345  11.940 -0.2678  1.2435 -0.9800
 2538SOL     OW19246   0.910   3.565  11.172 -0.2130 -0.2700  0.1966
 2538SOL    HW119247   0.834   3.607  11.132  0.9220 -0.2162 -1.9109
 2538SOL    HW219248   0.870   3.481  11.198 -1.1564  0.9123  2.5744
 2539SOL     OW19249   3.524   0.048   4.096 -0.2672 -0.1145  0.6007
 2539SOL    HW119250   3.605   0.022   4.053 -0.0580  0.8792  0.3858
 2539SOL    HW219251   3.553   0.041   4.187 -0.3485 -0.4433  0.6006
 2540SOL     OW19252   2.961   1.760   6.721  0.8760 -0.4580  0.1449
 2540SOL    HW119253   2.897   1.825   6.749  1.3287  1.0998 -2.4556
 2540SOL    HW219254   2.984   1.726   6.808  2.4695 -0.4912 -0.2894
 2541SOL     OW19255   0.764   2.037  11.238 -0.7833  0.5093 -0.2248
 2541SOL    HW119256   0.773   2.113  11.296  0.5810 -0.4783  0.8508
 2541SOL    HW219257   0.669   2.032  11.228 -1.0233  1.5595  1.4562
 2542SOL     OW19258   1.140   2.455  10.637 -0.4014  0.1790  0.1826
 2542SOL    HW119259   1.138   2.491  10.725  0.8282  0.0869  0.2457
 2542SOL    HW219260   1.136   2.363  10.662  3.8120 -0.0953 -0.1945
 2543SOL     OW19261   3.413   2.118   3.542 -0.0899  0.0836 -0.4045
 2543SOL    HW119262   3.334   2.068   3.560 -0.2753 -0.1065 -1.7619
 2543SOL    HW219263   3.462   2.094   3.620 -0.5038 -0.4694 -0.3159
 2544SOL     OW19264   0.894   0.950  16.732  0.1564 -0.4958 -0.4720
 2544SOL    HW119265   0.815   0.897  16.748  1.2174 -1.4591  1.5568
 2544SOL    HW219266   0.866   0.997  16.654 -2.6590 -0.9676  0.2436
 2545SOL     OW19267   3.462   0.954   6.513  0.3822 -0.0313 -0.5119
 2545SOL    HW119268   3.530   1.020   6.500 -1.3985  1.7563 -0.7029
 2545SOL    HW219269   3.396   1.001   6.564  1.7129 -2.0202  3.0463
 2546SOL     OW19270   2.662   4.648   2.214  0.1466  0.1976  0.1950
 2546SOL    HW119271   2.634   4.648   2.123  0.5784  1.4089  0.0522
 2546SOL    HW219272   2.702   4.562   2.219 -1.9950 -0.8925 -1.3294
 2547SOL     OW19273   2.012   2.131   6.325 -0.5465  0.9722  0.0603
 2547SOL    HW119274   1.921   2.160   6.329 -0.3548  1.8159 -1.8551
 2547SOL    HW219275   1.995   2.039   6.305 -0.6703  0.5482  2.1197
 2548SOL     OW19276   2.940   2.823   7.142 -0.4351 -0.5767 -0.2165
 2548SOL    HW119277   2.845   2.813   7.135 -0.3750 -0.4947 -1.1482
 2548SOL    HW219278   2.953   2.902   7.089 -0.0519 -0.2572  0.3491
 2549SOL     OW19279   2.620   1.921   5.069 -0.0333 -0.2441  0.2323
 2549SOL    HW119280   2.680   1.853   5.100  1.3688  1.3475  1.0975
 2549SOL    HW219281   2.662   1.998   5.108 -1.6279 -1.2264  3.9260
 2550SOL     OW19282   3.793   0.610   5.421  0.4272 -0.3796  0.0325
 2550SOL    HW119283   3.755   0.540   5.369  0.5524 -1.4197  1.3460
 2550SOL    HW219284   3.818   0.673   5.353 -1.7158  0.2421 -0.1933
 2551SOL     OW19285   1.953   2.047   6.599  0.2520  0.2098  0.0793
 2551SOL    HW119286   1.989   2.095   6.525 -0.9942 -0.1180 -0.7368
 2551SOL    HW219287   1.960   1.955   6.575  1.6545  1.1862 -3.3631
 2552SOL     OW19288   2.837   0.676   9.033 -0.2800  0.0058 -0.1530
 2552SOL    HW119289   2.773   0.609   9.056  1.7314 -2.2780 -1.2561
 2552SOL    HW219290   2.789   0.759   9.029  1.2124  0.8139 -1.0213
 2553SOL     OW19291   4.297   1.128   7.109 -0.3474  0.1852  0.0695
 2553SOL    HW119292   4.319   1.108   7.200 -0.0294  0.5123  0.0648
 2553SOL    HW219293   4.375   1.092   7.068 -0.3830  1.8437 -1.5000
 2554SOL     OW19294   0.942   2.559   4.626 -0.5560  0.7738 -0.1768
 2554SOL    HW119295   0.924   2.512   4.708 -0.4001  1.3671  0.1943
 2554SOL    HW219296   1.036   2.576   4.627 -0.4746  0.3550 -0.9265
 2555SOL     OW19297   1.235   4.166   4.088  0.4728  0.3823  0.0603
 2555SOL    HW119298   1.265   4.076   4.100 -0.8045 -0.2024 -1.1729
 2555SOL    HW219299   1.226   4.175   3.993 -0.0778  0.0190  0.0781
 2556SOL     OW19300   2.134   4.595   2.525  0.3094  0.3216 -1.0084
 2556SOL    HW119301   2.111   4.588   2.433 -0.8483 -2.4899 -0.4751
 2556SOL    HW219302   2.156   4.689   2.524  1.6747  0.0069 -0.6517
 2557SOL     OW19303   4.169   3.603   7.975  0.0828 -0.1629  0.3261
 2557SOL    HW119304   4.091   3.627   7.925  1.1121  3.1628  0.3233
 2557SOL    HW219305   4.165   3.668   8.045  0.0511 -0.8560  0.9728
 2558SOL     OW19306   1.273   4.099  10.412 -0.3330 -0.7128  0.3957
 2558SOL    HW119307   1.256   4.146  10.330 -0.6512  2.3212  2.2003
 2558SOL    HW219308   1.318   4.017  10.391 -1.5540 -1.1987 -0.3502
 2559SOL     OW19309   3.151   1.701  12.744 -0.2758 -0.6003  0.7009
 2559SOL    HW119310   3.087   1.735  12.807 -0.0861  2.0485 -0.5237
 2559SOL    HW219311   3.228   1.757  12.753 -0.6432  0.1878 -1.0363
 2560SOL     OW19312   3.218   3.260   4.175  0.0292  0.6091  0.7202
 2560SOL    HW119313   3.264   3.269   4.258  1.5902  0.4154 -0.1380
 2560SOL    HW219314   3.234   3.348   4.141 -0.7003  0.5353  0.1830
 2561SOL     OW19315   2.184   0.593   9.455  0.0337  0.6400 -0.6730
 2561SOL    HW119316   2.147   0.639   9.531 -0.5650  0.2435 -0.7262
 2561SOL    HW219317   2.266   0.575   9.500 -0.5846 -0.9340 -0.1890
 2562SOL     OW19318   3.056   3.625   5.594  0.3321  0.2096 -0.1358
 2562SOL    HW119319   3.112   3.555   5.562 -2.4315 -0.6331 -3.2122
 2562SOL    HW219320   3.064   3.619   5.689 -0.3050  1.6963  0.0194
 2563SOL     OW19321   2.182   1.256   7.563 -0.0706 -0.0708 -0.1892
 2563SOL    HW119322   2.095   1.283   7.534  0.8186  0.5003 -2.3057
 2563SOL    HW219323   2.242   1.316   7.518  0.3501 -0.0761  0.3533
 2564SOL     OW19324   1.356   2.865   5.841  0.1527  0.4597 -0.5150
 2564SOL    HW119325   1.273   2.848   5.884  0.1956  1.3949 -0.0516
 2564SOL    HW219326   1.392   2.777   5.837 -1.5018 -0.2956  1.2149
 2565SOL     OW19327   2.838   0.046   7.773  0.2313 -0.1572 -0.0793
 2565SOL    HW119328   2.837   4.717   7.708  1.5002  1.2177 -1.5936
 2565SOL    HW219329   2.933   0.060   7.775  0.4218 -1.3193 -0.7363
 2566SOL     OW19330   1.164   2.267  12.188 -0.3449  0.1921  0.6051
 2566SOL    HW119331   1.151   2.277  12.093  1.1894  1.1376  0.4912
 2566SOL    HW219332   1.071   2.264  12.207 -0.4230 -2.9498 -0.2277
 2567SOL     OW19333   1.451   2.934   7.081  0.2959  0.4633 -0.1221
 2567SOL    HW119334   1.416   2.979   7.004 -0.6649 -1.6167 -0.9127
 2567SOL    HW219335   1.537   2.918   7.043  0.9037 -1.9617  2.3242
 2568SOL     OW19336   0.675   0.663   1.555 -0.3518 -0.0468  0.2766
 2568SOL    HW119337   0.704   0.622   1.636 -1.9932 -0.9068  0.4069
 2568SOL    HW219338   0.734   0.623   1.491  0.0063  1.3507 -0.2671
 2569SOL     OW19339   3.834   4.604   7.625 -0.8297 -0.4570  0.7444
 2569SOL    HW119340   3.858   4.682   7.575 -1.5431 -0.8794 -0.2504
 2569SOL    HW219341   3.807   4.533   7.567  0.7829 -1.5152  1.3034
 2570SOL     OW19342   2.423   2.891   5.633  0.1416 -0.4457 -0.6132
 2570SOL    HW119343   2.354   2.883   5.698  1.0588  1.0613  0.5464
 2570SOL    HW219344   2.412   2.984   5.612  1.8745 -0.1961 -0.4590
 2571SOL     OW19345   1.020   4.194  12.260  0.2673 -0.6261 -0.2641
 2571SOL    HW119346   0.969   4.154  12.190 -0.6391 -1.3673  0.8250
 2571SOL    HW219347   1.025   4.125  12.326 -0.6537 -0.0027  0.4681
 2572SOL     OW19348   3.387   1.618   6.330 -0.4079 -0.2618  0.4902
 2572SOL    HW119349   3.397   1.699   6.279 -1.4546 -1.3806 -1.5118
 2572SOL    HW219350   3.431   1.648   6.409  1.0331  0.9832 -0.7917
 2573SOL     OW19351   1.933   4.405   8.907  0.1621  0.7783 -0.2243
 2573SOL    HW119352   1.993   4.334   8.929 -0.1816  0.7624  0.6729
 2573SOL    HW219353   1.944   4.392   8.813 -1.7818 -0.3282 -0.2987
 2574SOL     OW19354   0.696   4.683   9.790  0.1591 -0.2100  0.4755
 2574SOL    HW119355   0.702   4.627   9.713  0.5650 -0.5598  0.7606
 2574SOL    HW219356   0.738   4.627   9.857  0.4819 -2.7945 -1.8793
 2575SOL     OW19357   2.373   2.914  12.873 -0.3406  0.1604 -0.4358
 2575SOL    HW119358   2.327   2.913  12.789  0.0680  2.8900 -0.6909
 2575SOL    HW219359   2.342   3.000  12.900  2.1784  0.0129  2.9991
 2576SOL     OW19360   1.923   0.190   1.866  0.0460 -0.1696 -0.3423
 2576SOL    HW119361   1.898   0.283   1.859  0.3490 -0.1582 -1.1976
 2576SOL    HW219362   1.846   0.153   1.909 -0.1235 -1.1702 -1.5268
 2577SOL     OW19363   3.483   2.860   2.915 -0.2028  0.1867  0.0336
 2577SOL    HW119364   3.537   2.874   2.837 -1.3411 -0.8097 -0.9326
 2577SOL    HW219365   3.546   2.831   2.981 -1.2224  0.3480  1.0626
 2578SOL     OW19366   1.279   3.604   2.172 -0.1475  0.3804 -0.0609
 2578SOL    HW119367   1.282   3.512   2.198  1.1049  0.3037 -0.4630
 2578SOL    HW219368   1.308   3.652   2.250  1.7345  0.3572 -0.7565
 2579SOL     OW19369   2.978   2.580  13.046  0.1611 -0.5090  0.1575
 2579SOL    HW119370   3.056   2.528  13.065 -0.8514 -1.4906  1.6175
 2579SOL    HW219371   2.967   2.569  12.951  1.3335  0.7935 -0.1211
 2580SOL     OW19372   0.729   4.272   8.217  0.0536 -0.3781  0.3358
 2580SOL    HW119373   0.749   4.180   8.200  1.9782  0.1907 -0.4634
 2580SOL    HW219374   0.741   4.303   8.127 -1.1390 -0.5437  0.1191
 2581SOL     OW19375   0.794   2.347   7.658 -0.4697 -0.5414 -0.1775
 2581SOL    HW119376   0.774   2.363   7.565  2.5862 -2.0239 -1.1102
 2581SOL    HW219377   0.721   2.393   7.699  0.0982 -1.1701  1.5350
 2582SOL     OW19378   2.152   1.081   9.400 -0.6988 -0.1147 -0.6668
 2582SOL    HW119379   2.192   1.168   9.401 -2.4102  0.6505  1.3189
 2582SOL    HW219380   2.228   1.031   9.432 -0.9424  0.2784  0.5302
 2583SOL     OW19381   1.986   4.314   7.798  0.2243 -0.7069  0.4684
 2583SOL    HW119382   1.904   4.332   7.844  1.1917 -0.9121  2.2908
 2583SOL    HW219383   2.017   4.403   7.818 -1.6209  0.1399 -0.3851
 2584SOL     OW19384   4.286   0.287  12.691  0.0301  0.1998  0.4244
 2584SOL    HW119385   4.240   0.231  12.628  1.3554 -0.3843 -0.0187
 2584SOL    HW219386   4.255   0.374  12.666  1.4131  0.4852 -0.3042
 2585SOL     OW19387   0.042   0.094   4.372 -0.5069 -0.2685 -0.0963
 2585SOL    HW119388   0.017   0.002   4.362  0.6495 -0.3872 -1.8362
 2585SOL    HW219389   4.713   0.152   4.344  0.0009  1.2401  1.7986
 2586SOL     OW19390   2.561   2.301   3.420  0.7612  0.0070  0.7497
 2586SOL    HW119391   2.507   2.354   3.362  1.5293 -1.5368 -1.3705
 2586SOL    HW219392   2.647   2.314   3.381  0.4848  1.6900  0.6902
 2587SOL     OW19393   3.276   2.197   0.423 -0.4305  0.4773  0.6569
 2587SOL    HW119394   3.212   2.246   0.474  0.1824  1.8818  0.0553
 2587SOL    HW219395   3.231   2.112   0.423  0.9357 -0.2625 -0.6737
 2588SOL     OW19396   2.997   1.139   3.776 -0.1264  0.1264 -0.1649
 2588SOL    HW119397   3.055   1.210   3.801  0.1237 -0.4617  0.9239
 2588SOL    HW219398   3.000   1.082   3.853 -0.7750  0.2667 -0.0343
 2589SOL     OW19399   1.532   3.772   4.572  0.1035 -0.0519 -0.2217
 2589SOL    HW119400   1.475   3.790   4.647  2.0722 -1.4916  1.6301
 2589SOL    HW219401   1.614   3.747   4.614  0.6666  1.7189 -0.2741
 2590SOL     OW19402   4.292   2.918   3.231  0.3042  0.2006  0.1840
 2590SOL    HW119403   4.346   2.876   3.298 -1.2812 -1.9409  0.1447
 2590SOL    HW219404   4.297   2.856   3.159 -3.3197  0.8355 -0.6461
 2591SOL     OW19405   0.630   3.362   9.706 -0.1797 -0.6630  0.6453
 2591SOL    HW119406   0.584   3.437   9.667  0.7938  0.9909  2.6937
 2591SOL    HW219407   0.577   3.285   9.684 -2.0385 -0.0830  3.1538
 2592SOL     OW19408   3.228   2.627   4.062 -0.0457  0.5128  0.4952
 2592SOL    HW119409   3.256   2.556   4.120  0.2431 -0.0732 -0.3614
 2592SOL    HW219410   3.139   2.647   4.091  0.2245  2.2214  0.1794
 2593SOL     OW19411   0.601   0.577   3.553  0.2086 -0.3403  0.1143
 2593SOL    HW119412   0.579   0.634   3.627 -1.4652 -0.5902 -0.1918
 2593SOL    HW219413   0.527   0.585   3.493  1.3111  0.8702 -1.0818
 2594SOL     OW19414   4.083   2.112   9.179  0.3796 -0.0932  0.2638
 2594SOL    HW119415   4.158   2.069   9.219 -0.5283 -2.2810 -0.4013
 2594SOL    HW219416   4.117   2.108   9.090 -2.5341 -0.8566 -0.8051
 2595SOL     OW19417   0.292   2.146   8.772 -0.1842 -0.4511  0.3147
 2595SOL    HW119418   0.208   2.128   8.814  0.1116 -0.6811  0.8005
 2595SOL    HW219419   0.331   2.061   8.793  0.5500 -0.1369  0.2348
 2596SOL     OW19420   1.754   2.889  11.207  0.1006  0.1253 -0.5432
 2596SOL    HW119421   1.711   2.829  11.268  2.1635 -0.4381  0.3335
 2596SOL    HW219422   1.787   2.953  11.270 -2.7928 -0.1589  1.2982
 2597SOL     OW19423   3.868   3.125  16.154  0.8366 -0.5999 -0.0285
 2597SOL    HW119424   3.799   3.131  16.220 -0.0421  2.9981 -1.3331
 2597SOL    HW219425   3.931   3.071  16.203  0.4602 -0.7467  0.2944
 2598SOL     OW19426   1.625   2.600  13.134  0.8337  0.4206 -0.0590
 2598SOL    HW119427   1.578   2.599  13.051  0.6023 -0.5491  0.0930
 2598SOL    HW219428   1.691   2.535  13.112 -0.0526 -0.8323  1.0472
 2599SOL     OW19429   3.916   2.691   9.287  0.1162  0.5183  0.0355
 2599SOL    HW119430   3.860   2.763   9.260 -2.3649 -0.7627  1.7752
 2599SOL    HW219431   3.888   2.622   9.227  1.3519  0.6623 -0.7170
 2600SOL     OW19432   2.062   0.950   4.730  0.0410 -0.0197 -0.1918
 2600SOL    HW119433   2.090   0.889   4.662 -0.8432 -0.4787 -0.1444
 2600SOL    HW219434   2.140   1.002   4.745 -1.2492  1.3415  1.7737
 2601SOL     OW19435   2.656   2.240   2.004  0.1847  0.2628  0.3941
 2601SOL    HW119436   2.673   2.314   1.946  0.2202  0.5840  0.8181
 2601SOL    HW219437   2.714   2.246   2.079  1.6707 -1.5575 -0.6104
 2602SOL     OW19438   3.857   0.475   7.401  0.3745 -0.2022  0.1911
 2602SOL    HW119439   3.908   0.468   7.321 -0.5707 -1.7506 -0.2672
 2602SOL    HW219440   3.828   0.390   7.435 -1.4866  0.8716  1.3237
 2603SOL     OW19441   1.706   3.943   3.984  0.0814 -0.1514 -0.4380
 2603SOL    HW119442   1.664   3.991   4.055  0.5645 -1.0167  0.4358
 2603SOL    HW219443   1.699   3.854   4.017 -0.0714  0.6138  1.5722
 2604SOL     OW19444   2.511   2.025   1.963 -0.2652  0.1576 -0.3432
 2604SOL    HW119445   2.548   1.966   2.028  1.7965  0.6479 -1.0586
 2604SOL    HW219446   2.563   2.102   1.987 -1.5959  1.3617 -1.2855
 2605SOL     OW19447   3.052   2.477   3.600  0.9250  0.1589 -0.3385
 2605SOL    HW119448   3.068   2.537   3.528 -0.1511 -0.3824 -1.0174
 2605SOL    HW219449   3.143   2.458   3.625  0.4196 -0.0875  1.3589
 2606SOL     OW19450   0.044   0.988   5.916  0.0028 -0.5572 -0.4704
 2606SOL    HW119451   4.714   0.972   5.855 -0.6972 -4.4826  1.3759
 2606SOL    HW219452   0.067   0.896   5.932 -0.7002 -0.4915  0.9676
 2607SOL     OW19453   2.604   0.398   8.703 -0.1410  0.2899  0.3887
 2607SOL    HW119454   2.638   0.344   8.774 -1.4537 -0.2709  0.6037
 2607SOL    HW219455   2.605   0.336   8.630  0.4682 -0.3000  0.8956
 2608SOL     OW19456   2.680   1.324   5.927 -0.3985  0.0005 -0.3038
 2608SOL    HW119457   2.606   1.338   5.987  1.2244 -0.2759  1.7556
 2608SOL    HW219458   2.641   1.369   5.852  0.1485 -0.6403 -0.9665
 2609SOL     OW19459   4.628   3.975   9.791  0.9323 -0.6803  0.4804
 2609SOL    HW119460   4.586   3.996   9.874 -1.4772  0.5489 -1.0731
 2609SOL    HW219461   4.613   3.881   9.779 -1.7874 -0.2483  0.6632
 2610SOL     OW19462   1.722   2.317   8.344 -0.6658  0.2549  0.1182
 2610SOL    HW119463   1.629   2.337   8.356 -1.2101 -0.8337 -2.2855
 2610SOL    HW219464   1.768   2.400   8.333 -0.1510  0.0560  0.7595
 2611SOL     OW19465   2.915   2.658  11.363  0.0081 -0.4126  0.2630
 2611SOL    HW119466   2.845   2.669  11.428 -0.5118  0.0237 -0.3791
 2611SOL    HW219467   2.978   2.701  11.420 -0.0723  0.8370 -0.6082
 2612SOL     OW19468   1.835   2.543   5.249 -0.4750 -0.1866 -0.0320
 2612SOL    HW119469   1.862   2.491   5.325 -1.5292  0.2333  0.6321
 2612SOL    HW219470   1.794   2.622   5.285 -1.2545 -0.5866 -0.0462
 2613SOL     OW19471   1.721   2.860   1.509 -0.0519 -0.4362 -0.1432
 2613SOL    HW119472   1.642   2.810   1.489 -0.1068 -0.0479 -0.8825
 2613SOL    HW219473   1.673   2.940   1.527 -1.0794 -1.0139 -0.3351
 2614SOL     OW19474   1.615   1.075   2.015 -0.0762  0.1864 -0.6793
 2614SOL    HW119475   1.697   1.033   1.990  0.7543  1.0337  0.6303
 2614SOL    HW219476   1.606   1.140   1.946 -0.1154  1.4659  0.5369
 2615SOL     OW19477   1.903   2.581  17.469  0.3888  0.3360  0.6277
 2615SOL    HW119478   1.887   2.661  17.417  2.2757 -0.5060 -1.2548
 2615SOL    HW219479   1.934   2.516  17.406 -1.6022  1.4684 -1.5708
 2616SOL     OW19480   1.976   4.592   6.375  0.8623 -0.1292  0.9056
 2616SOL    HW119481   2.003   4.523   6.435  0.6211 -1.4409 -0.5074
 2616SOL    HW219482   2.029   4.575   6.297 -2.7992  0.0008 -1.6260
 2617SOL     OW19483   0.881   2.430  10.157 -0.1879 -0.1669 -0.1840
 2617SOL    HW119484   0.889   2.467  10.069 -1.3091  0.4483 -0.0262
 2617SOL    HW219485   0.957   2.374  10.173 -0.6536 -0.1948  2.0102
 2618SOL     OW19486   1.088   3.888   4.365  0.0753 -0.4084 -0.1386
 2618SOL    HW119487   1.066   3.841   4.285  1.0595  1.5320 -1.5312
 2618SOL    HW219488   1.083   3.817   4.429  0.2276  0.1047  0.4428
 2619SOL     OW19489   0.712   0.776  11.782 -0.3860 -0.5352 -0.3296
 2619SOL    HW119490   0.739   0.785  11.874 -0.2999 -1.9997 -0.2184
 2619SOL    HW219491   0.668   0.692  11.770 -0.8978 -0.2758 -0.2755
 2620SOL     OW19492   1.811   3.514   3.213  0.5388 -0.1862  0.3435
 2620SOL    HW119493   1.826   3.582   3.279  0.7455 -1.3833  1.5362
 2620SOL    HW219494   1.718   3.496   3.228  0.3713  0.2143 -0.2152
 2621SOL     OW19495   3.128   0.943   5.117 -0.3166  0.0976  0.2539
 2621SOL    HW119496   3.117   1.006   5.045 -2.7632  1.5932  1.9454
 2621SOL    HW219497   3.076   0.995   5.178 -0.5851  0.8360 -0.6027
 2622SOL     OW19498   4.506   1.317   5.589 -0.2164 -0.3870 -0.4153
 2622SOL    HW119499   4.470   1.236   5.624 -0.5342 -0.3103 -0.5671
 2622SOL    HW219500   4.469   1.379   5.653  0.3196 -1.8216  1.2692
 2623SOL     OW19501   2.610   1.396   3.209  0.7994  0.3416 -0.1371
 2623SOL    HW119502   2.593   1.363   3.297 -1.9053 -1.3824 -1.2821
 2623SOL    HW219503   2.659   1.475   3.231  0.6716  0.2064  0.6415
 2624SOL     OW19504   4.326   2.826   9.140  0.1762  0.2363 -0.0578
 2624SOL    HW119505   4.319   2.795   9.230 -0.6624  0.6790  0.0309
 2624SOL    HW219506   4.303   2.918   9.158  0.5332  0.6409 -1.6450
 2625SOL     OW19507   0.100   0.134   5.361 -0.5759 -0.5845 -0.1545
 2625SOL    HW119508   0.037   0.197   5.326 -0.5754 -0.7860 -0.5186
 2625SOL    HW219509   0.164   0.188   5.407  0.6982 -3.1341  1.0830
 2626SOL     OW19510   3.736   4.428   4.165  0.3680 -0.1477  0.5300
 2626SOL    HW119511   3.779   4.368   4.226  0.0024 -2.0868 -1.1210
 2626SOL    HW219512   3.709   4.360   4.104  0.2811  2.1500 -2.0078
 2627SOL     OW19513   0.074   0.673   5.445  0.1960 -0.0245  0.1179
 2627SOL    HW119514   0.016   0.668   5.369 -0.2708 -1.4460  0.5598
 2627SOL    HW219515   0.148   0.716   5.402  0.9187 -1.3710  0.0130
 2628SOL     OW19516   3.037   0.252  12.769  0.3062  0.4355  0.0974
 2628SOL    HW119517   3.130   0.272  12.770  0.2607  0.5771  1.0589
 2628SOL    HW219518   3.008   0.283  12.683 -0.7319 -1.4056 -0.2223
 2629SOL     OW19519   4.600   0.878   5.361 -0.0082 -0.2396  0.1025
 2629SOL    HW119520   4.522   0.921   5.398 -0.2997  0.1091 -0.9326
 2629SOL    HW219521   4.641   0.849   5.443  1.5808 -1.7845 -1.2438
 2630SOL     OW19522   1.338   4.741   7.569  0.2496 -0.3654 -0.3045
 2630SOL    HW119523   1.358   0.086   7.533  0.9102 -0.5179 -0.2976
 2630SOL    HW219524   1.385   4.682   7.510  1.0774 -0.7229  0.7286
 2631SOL     OW19525   4.411   2.094   2.661 -0.4781 -0.2382  0.2284
 2631SOL    HW119526   4.409   2.049   2.745  1.5266 -0.6057  0.0944
 2631SOL    HW219527   4.419   2.184   2.694  0.7477 -0.4556  0.5237
 2632SOL     OW19528   2.691   1.469   1.739  0.0193 -0.3514 -0.0128
 2632SOL    HW119529   2.667   1.503   1.826  0.9579  0.9123 -0.2551
 2632SOL    HW219530   2.778   1.506   1.728  0.8447 -1.6125  2.1765
 2633SOL     OW19531   2.649   4.088  11.451 -0.1651 -0.4914 -0.0059
 2633SOL    HW119532   2.594   4.010  11.459 -0.7830  0.1290  1.8897
 2633SOL    HW219533   2.727   4.033  11.440 -0.6658 -1.0035 -0.9949
 2634SOL     OW19534   1.824   0.753   8.129 -0.4633  0.5559  0.1230
 2634SOL    HW119535   1.807   0.803   8.208  1.0809 -2.2695  2.2593
 2634SOL    HW219536   1.872   0.677   8.163  1.3661  1.9246  0.5956
 2635SOL     OW19537   2.175   2.872   6.292  0.2731  0.1106 -0.2702
 2635SOL    HW119538   2.253   2.884   6.239  0.2664  1.3732  0.0075
 2635SOL    HW219539   2.211   2.809   6.355  0.3253 -0.2511 -0.6620
 2636SOL     OW19540   2.722   2.111   8.470  0.7569 -0.2985  0.2591
 2636SOL    HW119541   2.781   2.065   8.412  0.8972  0.1097  0.0749
 2636SOL    HW219542   2.779   2.187   8.486  3.0727 -2.0570  0.3185
 2637SOL     OW19543   1.892   0.854   8.405  0.1989 -0.4888 -0.5594
 2637SOL    HW119544   1.959   0.913   8.441  1.1282 -1.1481 -1.2271
 2637SOL    HW219545   1.830   0.849   8.478  0.0486 -1.7938 -0.7826
 2638SOL     OW19546   2.702   2.907   5.466 -0.2655 -0.1291  0.3594
 2638SOL    HW119547   2.749   2.844   5.521 -1.9338 -0.3269  1.5575
 2638SOL    HW219548   2.619   2.919   5.512 -0.2907  1.8602 -0.2096
 2639SOL     OW19549   0.573   2.450   8.752  0.4055 -0.4413  0.5337
 2639SOL    HW119550   0.496   2.420   8.801  1.8216 -1.7432  1.9678
 2639SOL    HW219551   0.544   2.510   8.683  2.0222 -0.8398 -0.4799
 2640SOL     OW19552   1.692   0.272  10.392  0.0682  0.0497  0.1288
 2640SOL    HW119553   1.682   0.367  10.405  0.3454  0.0596  0.2770
 2640SOL    HW219554   1.608   0.247  10.354 -0.3796  1.4630  0.2030
 2641SOL     OW19555   0.788   0.493   2.052 -0.0709 -0.5643  0.0619
 2641SOL    HW119556   0.867   0.490   2.106  0.5222  0.9570 -0.7214
 2641SOL    HW219557   0.826   0.501   1.965 -0.3037  1.1250  0.1176
 2642SOL     OW19558   2.374   1.378   1.282 -0.0317 -0.2633  0.3622
 2642SOL    HW119559   2.307   1.315   1.305  1.3588 -1.4342  1.2317
 2642SOL    HW219560   2.327   1.451   1.241 -0.0426 -0.8136 -0.6091
 2643SOL     OW19561   1.186   2.036   6.613  0.2766  0.4782 -0.0853
 2643SOL    HW119562   1.173   2.111   6.555 -1.0441 -0.0137 -0.4369
 2643SOL    HW219563   1.203   1.961   6.557  1.3469  1.9293 -1.7042
 2644SOL     OW19564   0.209   3.377  15.808  0.9570 -0.0096 -0.1462
 2644SOL    HW119565   0.164   3.443  15.756 -1.7366 -1.5164  0.2344
 2644SOL    HW219566   0.170   3.299  15.768 -0.9331 -0.7658  3.1304
 2645SOL     OW19567   3.239   4.130   7.785 -0.6313 -0.4074  0.2060
 2645SOL    HW119568   3.238   4.071   7.860  1.1683  1.6596  1.8386
 2645SOL    HW219569   3.334   4.144   7.781 -0.8242  1.1471  1.0921
 2646SOL     OW19570   2.612   0.030   3.837  0.3457 -0.0032  0.0545
 2646SOL    HW119571   2.605   0.015   3.931 -1.3604 -0.0753 -0.0781
 2646SOL    HW219572   2.656   4.692   3.806 -1.3191 -0.4476 -1.2036
 2647SOL     OW19573   1.790   2.100   2.794 -0.5367 -0.4002 -0.7127
 2647SOL    HW119574   1.826   2.178   2.753  0.8921 -0.6278  0.1134
 2647SOL    HW219575   1.781   2.024   2.736 -0.0493 -1.8307  1.0675
 2648SOL     OW19576   4.253   1.800   6.945 -1.0555 -0.1403  0.3089
 2648SOL    HW119577   4.212   1.738   7.005 -0.4567  0.9026  1.8169
 2648SOL    HW219578   4.335   1.811   6.992  0.6045  1.2813 -2.9080
 2649SOL     OW19579   3.418   3.390   3.522 -0.0765  0.6632 -0.3213
 2649SOL    HW119580   3.490   3.328   3.527 -2.3465 -1.9950 -0.9084
 2649SOL    HW219581   3.370   3.362   3.600 -3.2056  0.4767 -2.3179
 2650SOL     OW19582   1.729   1.101   2.849  0.1577 -0.0348 -0.4909
 2650SOL    HW119583   1.734   1.126   2.942 -2.4216  2.3016 -0.9857
 2650SOL    HW219584   1.812   1.055   2.838  0.3928  0.2189  0.1975
 2651SOL     OW19585   3.609   0.232   5.631  0.4394 -0.1699  0.2087
 2651SOL    HW119586   3.534   0.283   5.600  2.7287  2.3756 -1.1652
 2651SOL    HW219587   3.588   0.228   5.724  0.0018 -1.6806  0.0320
 2652SOL     OW19588   2.409   0.820   5.399 -0.1531 -0.1311  0.2393
 2652SOL    HW119589   2.488   0.769   5.383  1.2879  2.0961  0.3119
 2652SOL    HW219590   2.354   0.754   5.442 -0.3483 -0.6345 -0.7857
 2653SOL     OW19591   1.147   0.108   6.265 -0.5645  0.3806 -0.1974
 2653SOL    HW119592   1.229   0.136   6.224  0.1357 -1.2178  0.0876
 2653SOL    HW219593   1.083   0.112   6.194 -0.8238 -1.6448 -0.0986
 2654SOL     OW19594   0.967   0.505   7.253 -0.1790 -0.9148  0.3252
 2654SOL    HW119595   0.914   0.483   7.177  2.7004 -1.7832 -1.4279
 2654SOL    HW219596   0.907   0.562   7.301  0.0608 -0.6966  0.3693
 2655SOL     OW19597   2.193   1.303   5.390 -0.2773  0.1398  0.3698
 2655SOL    HW119598   2.241   1.248   5.452  0.5653  1.7780  1.1700
 2655SOL    HW219599   2.249   1.314   5.314 -0.1770 -2.4717  0.0688
 2656SOL     OW19600   0.375   3.857   7.986 -0.5254 -0.5318  0.4114
 2656SOL    HW119601   0.291   3.849   7.942 -0.0258 -1.7330 -0.3553
 2656SOL    HW219602   0.439   3.860   7.915 -1.9617  0.9418 -0.8028
 2657SOL     OW19603   2.243   4.385   2.950 -0.0116  0.3040  0.2422
 2657SOL    HW119604   2.295   4.461   2.977  0.2865  0.5966 -1.1260
 2657SOL    HW219605   2.153   4.412   2.969 -1.1495 -3.4423  0.2177
 2658SOL     OW19606   2.822   4.231   8.588 -0.0862  0.2796  0.5247
 2658SOL    HW119607   2.855   4.316   8.615 -0.5851  0.6589 -0.0520
 2658SOL    HW219608   2.818   4.192   8.675  0.3896 -0.3872  0.2533
 2659SOL     OW19609   0.590   0.583   9.242 -0.0100 -0.7639  0.5525
 2659SOL    HW119610   0.583   0.585   9.337 -1.2428 -0.0123  0.4369
 2659SOL    HW219611   0.604   0.489   9.227 -0.4271 -1.0056  1.6932
 2660SOL     OW19612   1.642   4.395  14.171  0.4668  0.1996 -0.2423
 2660SOL    HW119613   1.588   4.474  14.169  0.0055 -0.0350  3.3859
 2660SOL    HW219614   1.570   4.332  14.177  0.3506  0.4660  1.1225
 2661SOL     OW19615   3.391   0.209   9.181 -0.0944  0.7265 -0.0036
 2661SOL    HW119616   3.357   0.239   9.265 -0.1420  0.4583  0.0744
 2661SOL    HW219617   3.314   0.174   9.136 -1.1614  2.5048  0.4830
 2662SOL     OW19618   2.586   3.591  11.601  0.1989 -0.1689 -0.0700
 2662SOL    HW119619   2.515   3.579  11.538  0.7192 -1.2660 -0.4400
 2662SOL    HW219620   2.547   3.570  11.686  0.3790  2.0236  0.5574
 2663SOL     OW19621   0.370   3.025  12.865  0.0705 -0.1243  0.2393
 2663SOL    HW119622   0.347   3.008  12.957  0.2063  0.5720  0.3964
 2663SOL    HW219623   0.453   3.073  12.871  0.1109  0.0084 -1.5712
 2664SOL     OW19624   3.777   0.413  11.867 -0.5637  0.1978 -0.2821
 2664SOL    HW119625   3.754   0.458  11.948 -2.0430 -2.2699  0.6299
 2664SOL    HW219626   3.765   0.484  11.804 -0.9053  0.7304  0.3809
 2665SOL     OW19627   3.675   0.958   8.208  0.0548  0.5683 -0.0280
 2665SOL    HW119628   3.687   0.881   8.154  0.4712 -0.4449  1.5104
 2665SOL    HW219629   3.720   0.920   8.284  0.6480 -0.4203 -0.8762
 2666SOL     OW19630   2.763   0.721  17.099  0.5368  0.9208 -0.4267
 2666SOL    HW119631   2.696   0.723  17.168  0.0991 -0.4855 -0.8138
 2666SOL    HW219632   2.843   0.686  17.138  1.3827  1.6891 -1.4782
 2667SOL     OW19633   1.146   4.303   7.411  0.3330  0.5713  0.2791
 2667SOL    HW119634   1.071   4.291   7.353  1.2222 -0.8141 -0.6067
 2667SOL    HW219635   1.166   4.215   7.443  2.2204  0.5978 -0.8268
 2668SOL     OW19636   4.129   3.780   5.171 -0.0569 -0.2959  0.1056
 2668SOL    HW119637   4.087   3.866   5.169 -0.3658 -0.4555 -0.2839
 2668SOL    HW219638   4.221   3.789   5.193 -0.1561  0.6565  0.1097
 2669SOL     OW19639   3.524   1.940   8.873 -0.1073  0.6025  0.4047
 2669SOL    HW119640   3.570   1.867   8.832  3.3114  2.4404  0.9021
 2669SOL    HW219641   3.574   1.948   8.954  0.0346 -0.2656  0.4024
 2670SOL     OW19642   3.450   0.419   6.084 -0.4676 -0.6465 -0.4483
 2670SOL    HW119643   3.373   0.372   6.117 -1.3418  1.0489 -0.0872
 2670SOL    HW219644   3.482   0.458   6.165  0.4473 -0.8768 -0.7026
 2671SOL     OW19645   3.379   2.122   8.725  0.5314  0.1323 -0.1141
 2671SOL    HW119646   3.448   2.072   8.769 -0.2012 -1.9165 -1.3222
 2671SOL    HW219647   3.401   2.212   8.749  1.3653  0.0155 -0.4690
 2672SOL     OW19648   4.563   1.136  11.524 -0.1125 -0.3440  0.0117
 2672SOL    HW119649   4.628   1.142  11.593 -0.2119 -0.7566  0.1398
 2672SOL    HW219650   4.622   1.157  11.451  0.4799  1.6487  1.0645
 2673SOL     OW19651   2.819   1.887   9.189  0.0117 -0.7068  0.1824
 2673SOL    HW119652   2.865   1.812   9.227 -0.5609 -0.9470  0.4004
 2673SOL    HW219653   2.847   1.961   9.244  0.2408 -0.5650 -0.1247
 2674SOL     OW19654   1.381   0.712  12.391  0.3863 -0.3041 -0.0778
 2674SOL    HW119655   1.460   0.660  12.379  0.4725 -0.7006  2.3210
 2674SOL    HW219656   1.330   0.691  12.313  0.9282 -1.1057 -0.2135
 2675SOL     OW19657   4.567   3.566  15.708 -0.1006  0.3841  0.0884
 2675SOL    HW119658   4.494   3.544  15.765 -1.2838  2.9725 -0.4482
 2675SOL    HW219659   4.579   3.657  15.737 -1.9493  0.0303  1.9486
 2676SOL     OW19660   2.895   1.192   3.536  0.2231 -0.5553 -0.3573
 2676SOL    HW119661   2.805   1.195   3.568  0.7157 -1.3330  1.1140
 2676SOL    HW219662   2.939   1.167   3.617  1.1742 -0.5534 -0.8793
 2677SOL     OW19663   1.119   2.710   0.771 -0.1713 -0.1217  0.1084
 2677SOL    HW119664   1.176   2.751   0.707 -1.0518 -0.2798 -0.7906
 2677SOL    HW219665   1.046   2.771   0.762  1.8305  2.2029 -0.2217
 2678SOL     OW19666   3.852   4.655   9.909  0.0848 -0.2576  0.0156
 2678SOL    HW119667   3.906   4.576   9.902 -1.5134 -1.3050 -0.4387
 2678SOL    HW219668   3.803   4.647   9.991 -0.9766  0.5227 -0.5371
 2679SOL     OW19669   0.631   1.425   4.758  0.3447 -0.0024  0.2709
 2679SOL    HW119670   0.581   1.506   4.760 -0.5763 -0.6716  4.0273
 2679SOL    HW219671   0.562   1.360   4.743 -1.0267  0.9972  2.3338
 2680SOL     OW19672   2.316   4.665  12.802 -0.4864 -0.3478  0.2842
 2680SOL    HW119673   2.247   4.677  12.868 -0.8933 -0.1426 -0.1781
 2680SOL    HW219674   2.263   4.627  12.732 -0.7212  2.0015 -0.8100
 2681SOL     OW19675   2.626   4.653   4.628 -0.5176 -0.0698  0.3781
 2681SOL    HW119676   2.534   4.631   4.615 -0.6869  0.7098  0.2942
 2681SOL    HW219677   2.639   4.575   4.683  3.1926  0.9216  0.9448
 2682SOL     OW19678   3.384   2.366   6.759 -0.1528 -0.1893  0.0230
 2682SOL    HW119679   3.387   2.301   6.829 -3.3581  0.2872  0.6137
 2682SOL    HW219680   3.474   2.397   6.767 -0.5754  1.1029 -0.2075
 2683SOL     OW19681   3.195   2.958   8.951  0.4250  0.1300  0.2290
 2683SOL    HW119682   3.108   2.998   8.957  0.9517  1.1319  0.9863
 2683SOL    HW219683   3.192   2.878   9.003  1.0369  0.0871  0.1960
 2684SOL     OW19684   0.341   4.312   8.792 -0.1941 -0.6384  0.0637
 2684SOL    HW119685   0.259   4.359   8.809  0.1114  0.7002 -2.1687
 2684SOL    HW219686   0.350   4.322   8.697  2.7074  1.5382  0.5659
 2685SOL     OW19687   3.957   1.892   4.299 -0.2797  0.1306 -0.5233
 2685SOL    HW119688   4.023   1.953   4.267  0.6406 -0.9246 -0.6239
 2685SOL    HW219689   4.017   1.844   4.356  0.8563  0.4476 -1.4583
 2686SOL     OW19690   2.505   0.715   4.514 -0.1865  0.1688  0.0142
 2686SOL    HW119691   2.561   0.665   4.454  1.3848  1.9974 -0.0706
 2686SOL    HW219692   2.524   0.669   4.595 -1.1435 -3.5792 -1.9257
 2687SOL     OW19693   0.571   2.879   2.824  0.4477 -0.3442 -0.4673
 2687SOL    HW119694   0.621   2.799   2.808 -0.9033 -1.1598 -0.6555
 2687SOL    HW219695   0.502   2.839   2.877 -0.7956 -0.6240 -2.3050
 2688SOL     OW19696   2.534   4.179  10.254 -0.4499  0.6934  0.8873
 2688SOL    HW119697   2.626   4.203  10.257 -0.1741 -0.0620 -1.0588
 2688SOL    HW219698   2.485   4.261  10.258  0.2387  1.1113  0.6236
 2689SOL     OW19699   3.614   1.239   7.781 -0.0984 -0.0276  0.0600
 2689SOL    HW119700   3.653   1.183   7.849 -0.4948 -1.6259 -1.0299
 2689SOL    HW219701   3.690   1.266   7.729 -1.0718  2.0134 -0.2758
 2690SOL     OW19702   0.419   4.170   5.629  0.2567 -0.4592 -0.2466
 2690SOL    HW119703   0.405   4.149   5.721  1.1946 -0.2724 -0.0614
 2690SOL    HW219704   0.345   4.225   5.603  1.6617  0.6281 -1.9429
 2691SOL     OW19705   4.321   2.282   9.618  0.1820 -0.4663 -0.1889
 2691SOL    HW119706   4.256   2.351   9.603  1.6481  1.4290  2.0561
 2691SOL    HW219707   4.308   2.221   9.546 -0.7466  2.4346 -2.4736
 2692SOL     OW19708   0.684   2.483   2.276  0.3006 -0.2185  0.1640
 2692SOL    HW119709   0.628   2.439   2.212 -1.4138  0.0580  1.4948
 2692SOL    HW219710   0.773   2.466   2.245  0.0998  1.1506 -1.1848
 2693SOL     OW19711   4.655   1.691   2.731 -0.0404  0.4366 -0.1686
 2693SOL    HW119712   4.635   1.715   2.822  0.4814 -1.6075  0.4978
 2693SOL    HW219713   4.666   1.598   2.753  0.8505  0.0504 -2.2940
 2694SOL     OW19714   2.572   0.774  17.285  1.0215  0.2699 -0.3373
 2694SOL    HW119715   2.518   0.729  17.349  1.4819  1.1318  0.6511
 2694SOL    HW219716   2.569   0.865  17.316  2.6578  0.0541  0.4666
 2695SOL     OW19717   2.230   2.587   8.779  0.2190 -0.0639 -0.0826
 2695SOL    HW119718   2.158   2.548   8.730 -0.8190 -1.0638  2.2664
 2695SOL    HW219719   2.302   2.528   8.762  2.2332  2.3796 -0.0055
 2696SOL     OW19720   3.463   1.137   7.507 -0.4831  0.5648 -0.1949
 2696SOL    HW119721   3.397   1.108   7.571  1.1020 -0.0135  1.1754
 2696SOL    HW219722   3.516   1.196   7.561  0.5631 -0.5488  0.0110
 2697SOL     OW19723   3.649   3.290   6.370 -0.3200 -0.0039 -0.1355
 2697SOL    HW119724   3.647   3.256   6.460 -2.6108  2.6910  0.8320
 2697SOL    HW219725   3.739   3.321   6.367 -0.7041  1.0284 -1.0686
 2698SOL     OW19726   1.149   4.033   0.846 -0.4548 -0.5957 -0.2782
 2698SOL    HW119727   1.172   4.123   0.870  2.1006 -1.2559 -0.2413
 2698SOL    HW219728   1.076   4.048   0.786 -0.9907 -1.1964  0.2159
 2699SOL     OW19729   1.577   3.979   6.296  0.0234 -0.7741  0.2627
 2699SOL    HW119730   1.529   4.060   6.313 -0.3690 -0.9670  0.0732
 2699SOL    HW219731   1.666   4.012   6.281  0.0778 -0.4492  1.2940
 2700SOL     OW19732   2.802   0.284   6.103  0.0425  0.0275 -0.2793
 2700SOL    HW119733   2.884   0.237   6.091  0.7065  1.3279 -0.8120
 2700SOL    HW219734   2.746   0.212   6.133 -0.2161  0.3681  0.0510
 2701SOL     OW19735   3.449   0.006   4.915  0.3512  0.0315  1.4061
 2701SOL    HW119736   3.364   0.027   4.877  1.3878 -0.3836 -1.1625
 2701SOL    HW219737   3.499   4.724   4.837  2.7237 -0.1677  2.9652
 2702SOL     OW19738   0.009   1.483  12.406  0.6854  0.8574 -0.4386
 2702SOL    HW119739   0.069   1.514  12.340 -1.2147  1.2712 -1.9790
 2702SOL    HW219740   0.070   1.493  12.479 -0.0369 -2.0611  0.5731
 2703SOL     OW19741   0.860   4.677   5.043 -0.5855 -0.3517 -0.2303
 2703SOL    HW119742   0.827   4.594   5.077 -0.7536  0.4299  1.5055
 2703SOL    HW219743   0.823   4.730   5.113  1.1712  1.5885 -0.7761
 2704SOL     OW19744   3.232   3.855   1.608 -0.6029 -0.3162  0.1386
 2704SOL    HW119745   3.188   3.940   1.599  1.7831  1.1956  2.5945
 2704SOL    HW219746   3.229   3.823   1.518  1.0509  0.4464 -0.1907
 2705SOL     OW19747   0.030   0.794   4.765 -0.5161 -0.9140 -0.6394
 2705SOL    HW119748   4.684   0.825   4.742  0.3236  1.9356  0.0455
 2705SOL    HW219749   0.074   0.788   4.680  2.1779  0.9567  0.5980
 2706SOL     OW19750   1.205   2.245   4.110  0.6886 -0.1396 -0.0797
 2706SOL    HW119751   1.162   2.171   4.153  0.9808 -0.8826 -1.0582
 2706SOL    HW219752   1.293   2.240   4.149  1.9678  0.2132 -2.8907
 2707SOL     OW19753   0.531   4.341   5.364  0.5016  0.1386  0.2473
 2707SOL    HW119754   0.445   4.380   5.351 -0.1549 -1.4351 -0.0502
 2707SOL    HW219755   0.590   4.417   5.355  0.3280  0.1370 -0.9776
 2708SOL     OW19756   0.938   3.760   0.490  0.0495  0.5301 -0.3336
 2708SOL    HW119757   0.969   3.670   0.478 -0.2139  0.3967 -0.0136
 2708SOL    HW219758   0.878   3.776   0.417 -0.6800  0.3537  0.2257
 2709SOL     OW19759   3.973   1.832   1.708  0.3703 -0.1630 -0.6293
 2709SOL    HW119760   3.991   1.764   1.643  1.6826  0.5367 -1.0005
 2709SOL    HW219761   4.044   1.894   1.693  0.3504  0.2660  1.1104
 2710SOL     OW19762   3.349   0.278   9.461  0.6063  0.2257 -0.0612
 2710SOL    HW119763   3.317   0.346   9.521  1.8911  2.0479 -1.4399
 2710SOL    HW219764   3.429   0.262   9.510  0.7142 -0.7972 -0.5752
 2711SOL     OW19765   2.350   2.502   6.493 -0.0158  0.6598  0.0235
 2711SOL    HW119766   2.327   2.594   6.502  0.3318  0.5650  1.7397
 2711SOL    HW219767   2.422   2.509   6.430  0.3996  1.7433  0.6155
 2712SOL     OW19768   0.982   1.160  14.555  0.4326  0.7507 -0.2907
 2712SOL    HW119769   1.032   1.181  14.476  0.6416  0.5931 -0.2007
 2712SOL    HW219770   1.040   1.195  14.622  0.6834 -2.4204  1.1724
 2713SOL     OW19771   0.065   4.681   6.392 -0.5431  0.1714  0.0547
 2713SOL    HW119772   0.032   0.024   6.423  2.1087  1.7541 -1.4478
 2713SOL    HW219773   0.025   4.685   6.305  0.8127  3.5744 -0.4306
 2714SOL     OW19774   3.909   4.488   4.440  0.0636  0.3259  0.4362
 2714SOL    HW119775   3.903   4.583   4.429  0.5357  0.2970 -0.1190
 2714SOL    HW219776   3.981   4.481   4.503 -1.7894  3.4106  2.8724
 2715SOL     OW19777   4.142   3.104   6.254  0.0380  0.1275  0.2659
 2715SOL    HW119778   4.179   3.192   6.255 -0.7175  0.4285  2.4194
 2715SOL    HW219779   4.086   3.101   6.177 -0.1451 -0.7454  0.4395
 2716SOL     OW19780   1.006   1.885   3.399  0.0242 -0.2664 -0.1869
 2716SOL    HW119781   1.100   1.874   3.414  0.0401 -1.1152 -0.9422
 2716SOL    HW219782   0.995   1.967   3.350 -0.2975 -0.4287 -0.3774
 2717SOL     OW19783   3.835   4.219   7.272 -0.0493  0.2920 -0.5174
 2717SOL    HW119784   3.911   4.171   7.305 -0.4127 -0.2889 -0.5259
 2717SOL    HW219785   3.833   4.179   7.185  0.0114  1.0574 -0.8679
 2718SOL     OW19786   2.109   1.364   2.471 -0.0768 -0.2572 -0.0209
 2718SOL    HW119787   2.133   1.358   2.563  2.8391  0.0283 -0.7792
 2718SOL    HW219788   2.198   1.349   2.439  0.2866 -1.2264  1.4373
 2719SOL     OW19789   1.704   1.144   6.467 -0.6237  0.3501  0.0058
 2719SOL    HW119790   1.726   1.195   6.389  0.1760  0.8495  0.5587
 2719SOL    HW219791   1.659   1.067   6.432 -0.7415  0.9080 -1.0603
 2720SOL     OW19792   3.987   3.607   3.554  0.0639  0.5572 -0.3648
 2720SOL    HW119793   4.058   3.670   3.542 -0.0346  0.6226 -0.5938
 2720SOL    HW219794   3.916   3.648   3.505  0.7602  1.1797 -0.8439
 2721SOL     OW19795   0.135   2.261   7.993 -0.3238  0.1146  0.6816
 2721SOL    HW119796   0.122   2.168   7.972 -0.2047  0.5813 -1.5027
 2721SOL    HW219797   0.179   2.259   8.078  2.7252  0.7757 -0.8809
 2722SOL     OW19798   1.526   4.102   2.007  0.3737 -0.1045 -0.6407
 2722SOL    HW119799   1.433   4.119   1.992 -0.0166 -0.9704  0.7613
 2722SOL    HW219800   1.541   4.032   1.945 -0.5418  0.5216 -1.5619
 2723SOL     OW19801   4.442   2.360   4.479  0.7206 -0.2946 -0.1747
 2723SOL    HW119802   4.484   2.446   4.476 -0.7283  0.4343  0.3791
 2723SOL    HW219803   4.349   2.381   4.488  0.6688 -0.3410 -0.5999
 2724SOL     OW19804   2.333   3.719   6.032  0.0288  0.2882 -0.0171
 2724SOL    HW119805   2.414   3.686   5.992 -0.1031  1.5096 -1.3012
 2724SOL    HW219806   2.268   3.687   5.970 -2.0309  0.2869  2.1250
 2725SOL     OW19807   3.919   1.676   7.752 -0.0669  0.1008 -0.6956
 2725SOL    HW119808   4.012   1.653   7.762 -0.5573 -2.8358 -2.9250
 2725SOL    HW219809   3.914   1.695   7.659 -0.2112 -1.1056 -0.9267
 2726SOL     OW19810   2.316   4.539  15.901 -0.4035  0.7410  0.0947
 2726SOL    HW119811   2.371   4.473  15.859 -1.0560  1.9919 -2.7456
 2726SOL    HW219812   2.391   4.580  15.943  0.5224 -1.3326  0.4248
 2727SOL     OW19813   0.843   2.873   9.304  0.2455 -0.2184 -0.8498
 2727SOL    HW119814   0.885   2.792   9.277 -0.8818 -0.3612 -2.2111
 2727SOL    HW219815   0.911   2.919   9.353  2.2771 -4.4107  0.2459
 2728SOL     OW19816   2.725   4.645   5.939 -0.4939  0.8138 -0.6686
 2728SOL    HW119817   2.643   4.598   5.951 -0.2397  0.0628 -1.9923
 2728SOL    HW219818   2.779   4.575   5.902  1.5118  2.1009 -0.2053
 2729SOL     OW19819   0.416   1.846   8.798  0.1433 -0.0953 -0.5354
 2729SOL    HW119820   0.334   1.803   8.825  0.7311 -0.7335  0.2347
 2729SOL    HW219821   0.419   1.801   8.714  0.1602 -0.8857 -0.1065
 2730SOL     OW19822   4.182   4.663   6.452  0.1122  0.2633 -0.3675
 2730SOL    HW119823   4.242   4.589   6.437  0.7294  0.8555 -0.8266
 2730SOL    HW219824   4.226   4.729   6.398  0.9026  1.3607  1.6241
 2731SOL     OW19825   4.103   0.221   6.672 -0.0684 -0.5857  0.6137
 2731SOL    HW119826   4.111   0.158   6.744  1.6472  0.2291  1.1366
 2731SOL    HW219827   4.188   0.265   6.670 -0.6630  0.4881 -1.8913
 2732SOL     OW19828   1.371   0.869   3.265  0.0828  0.7517  0.2338
 2732SOL    HW119829   1.428   0.802   3.302 -0.5289 -0.1925 -0.5441
 2732SOL    HW219830   1.288   0.843   3.304  0.3260  0.3211  0.4572
 2733SOL     OW19831   2.818   3.275   3.200 -0.1092 -0.0824 -0.1321
 2733SOL    HW119832   2.723   3.278   3.215  0.2792  2.1038  1.9085
 2733SOL    HW219833   2.821   3.273   3.104 -0.7236 -0.8761 -0.1385
 2734SOL     OW19834   3.924   2.950   0.818  0.3706  0.1009  0.0399
 2734SOL    HW119835   3.882   2.869   0.847  0.4076  0.7104  1.7700
 2734SOL    HW219836   4.016   2.930   0.833  0.8271  0.8398 -1.7265
 2735SOL     OW19837   1.386   2.196   5.092 -0.3885 -0.4474 -0.3745
 2735SOL    HW119838   1.405   2.176   5.184  0.1222  0.3626 -0.2963
 2735SOL    HW219839   1.390   2.111   5.050  0.6042 -0.3061 -0.5470
 2736SOL     OW19840   1.841   1.467   2.222  0.1414  0.0819 -0.4713
 2736SOL    HW119841   1.856   1.473   2.316 -1.6040  2.4319 -0.3355
 2736SOL    HW219842   1.755   1.426   2.210  0.2204  0.5991 -2.9307
 2737SOL     OW19843   1.565   0.493   9.034  0.8408 -0.6913  0.4755
 2737SOL    HW119844   1.608   0.437   9.099 -1.6869 -3.4558 -0.2416
 2737SOL    HW219845   1.620   0.499   8.956 -2.1193  1.6424 -1.4621
 2738SOL     OW19846   0.291   2.072   0.909 -0.3204  0.7673 -0.6832
 2738SOL    HW119847   0.222   2.049   0.970 -0.4019 -0.0818 -1.0907
 2738SOL    HW219848   0.292   2.168   0.918  1.0851  0.8943 -2.1452
 2739SOL     OW19849   2.130   0.969   6.922  1.0415  0.2104 -0.5994
 2739SOL    HW119850   2.176   0.992   6.841 -1.0144  1.1052 -1.5132
 2739SOL    HW219851   2.043   1.006   6.908  1.3756  1.2815  0.1688
 2740SOL     OW19852   2.645   3.829  13.922 -0.0952  0.2147 -0.2863
 2740SOL    HW119853   2.609   3.914  13.947 -0.0299  0.2842 -0.4272
 2740SOL    HW219854   2.604   3.818  13.837  0.1591  1.0167 -0.5153
 2741SOL     OW19855   1.395   2.513  10.303 -0.5566  0.2657 -0.7506
 2741SOL    HW119856   1.319   2.550  10.258 -0.7647 -0.9960 -1.4565
 2741SOL    HW219857   1.446   2.495  10.223  0.4866  0.8656 -0.2253
 2742SOL     OW19858   1.836   3.241   5.554  0.1230  0.2216 -0.6530
 2742SOL    HW119859   1.895   3.305   5.514 -0.0152  1.0618  0.5027
 2742SOL    HW219860   1.765   3.294   5.589  1.4808  0.6231  1.4828
 2743SOL     OW19861   1.508   2.933   7.395  0.3012 -0.1643 -0.3871
 2743SOL    HW119862   1.481   2.998   7.459 -2.0144 -0.8003 -0.7183
 2743SOL    HW219863   1.602   2.925   7.410  0.8080  2.5539 -1.8811
 2744SOL     OW19864   1.108   1.868  17.628 -0.7705 -0.8560  0.6156
 2744SOL    HW119865   1.062   1.812  17.565  2.1681 -0.1829 -2.1030
 2744SOL    HW219866   1.105   1.818  17.709  0.5232  0.7769  1.6807
 2745SOL     OW19867   0.105   1.263   6.526  0.5512  0.1538  0.4129
 2745SOL    HW119868   0.174   1.266   6.459  0.4821 -0.0847  0.3334
 2745SOL    HW219869   0.111   1.182   6.577  1.8501 -0.0211 -0.0034
 2746SOL     OW19870   3.212   0.391   3.220 -0.4992 -0.9420  0.4538
 2746SOL    HW119871   3.155   0.453   3.174 -1.0780 -2.6497 -1.1452
 2746SOL    HW219872   3.263   0.449   3.276  0.0840  1.7175 -2.7786
 2747SOL     OW19873   4.403   4.353   2.223 -0.0296  0.0170  0.0259
 2747SOL    HW119874   4.442   4.302   2.294  0.0496 -0.7815 -0.5817
 2747SOL    HW219875   4.445   4.435   2.246  0.3342 -0.4099  0.9001
 2748SOL     OW19876   0.349   2.347   2.390  0.4262  0.1361  0.0195
 2748SOL    HW119877   0.365   2.340   2.485  0.7438  1.3649  0.0527
 2748SOL    HW219878   0.292   2.424   2.389  3.2282  2.1844 -1.5911
 2749SOL     OW19879   0.579   0.556   3.276  0.3720  0.4995  0.1656
 2749SOL    HW119880   0.645   0.625   3.276  0.0451  0.8108  0.3257
 2749SOL    HW219881   0.495   0.602   3.286 -0.1254 -0.5600  0.8899
 2750SOL     OW19882   3.804   3.869   5.970  0.5188  0.3717  0.3384
 2750SOL    HW119883   3.890   3.867   5.928 -0.2622 -0.0543 -1.2756
 2750SOL    HW219884   3.806   3.955   6.011  1.7680  1.3996 -1.8674
 2751SOL     OW19885   0.639   1.924   3.708 -0.5000  0.4738  0.3291
 2751SOL    HW119886   0.564   1.951   3.656 -0.6289 -1.0442 -0.2929
 2751SOL    HW219887   0.659   1.997   3.766  1.1738  0.4470 -0.2184
 2752SOL     OW19888   3.693   3.644   9.353 -0.1086  0.1728  0.0085
 2752SOL    HW119889   3.679   3.568   9.409 -0.0479  0.7440  0.7876
 2752SOL    HW219890   3.687   3.707   9.424 -1.3645 -0.6665  0.6476
 2753SOL     OW19891   4.474   1.114   9.013 -0.4248 -0.1173 -0.1998
 2753SOL    HW119892   4.441   1.025   9.021  1.0458 -0.7161 -0.8186
 2753SOL    HW219893   4.561   1.094   9.047 -0.2175  0.9204 -0.1091
 2754SOL     OW19894   3.050   3.441  16.633  0.5818 -0.0660 -0.0429
 2754SOL    HW119895   2.969   3.393  16.617  0.4866  0.0830 -0.0049
 2754SOL    HW219896   3.097   3.390  16.699 -0.2781 -1.0702 -0.2105
 2755SOL     OW19897   0.744   3.790  11.026 -0.0983 -0.9138 -0.3641
 2755SOL    HW119898   0.699   3.725  10.971  1.2868 -1.7237 -0.5513
 2755SOL    HW219899   0.701   3.782  11.111 -0.5245 -0.1841 -0.5123
 2756SOL     OW19900   3.244   4.329   4.727 -0.7969 -0.0546  0.1907
 2756SOL    HW119901   3.320   4.345   4.784 -1.0793 -2.8742  1.3856
 2756SOL    HW219902   3.254   4.399   4.663 -0.9480  0.2807  0.5373
 2757SOL     OW19903   2.543   0.542   9.464 -0.6940 -0.0705  0.0017
 2757SOL    HW119904   2.537   0.601   9.539 -0.7896 -2.2323  1.7024
 2757SOL    HW219905   2.518   0.457   9.499  0.3038  0.5231  2.1350
 2758SOL     OW19906   3.098   4.317   2.390  0.1182  0.4197  0.1769
 2758SOL    HW119907   3.165   4.316   2.459 -0.6052 -1.5848  0.8699
 2758SOL    HW219908   3.115   4.398   2.343  2.1117 -0.2404 -0.2097
 2759SOL     OW19909   2.716   0.287   7.888 -0.5342  0.3310  0.2645
 2759SOL    HW119910   2.790   0.232   7.862  0.6823  1.4395  1.3773
 2759SOL    HW219911   2.720   0.284   7.983  1.7870  1.9592  0.1987
 2760SOL     OW19912   3.657   2.923   0.216 -0.0786 -0.1406 -0.2057
 2760SOL    HW119913   3.616   2.836   0.210  1.3894 -0.9384  1.2383
 2760SOL    HW219914   3.681   2.930   0.309  0.0699 -1.7331 -0.1224
 2761SOL     OW19915   4.680   1.399   1.085 -0.0391 -0.0782  0.2582
 2761SOL    HW119916   4.595   1.370   1.117 -0.6577 -2.2680 -3.3773
 2761SOL    HW219917   4.679   1.367   0.995  0.5418 -0.0846  0.2519
 2762SOL     OW19918   1.391   0.264  12.860  0.4119  0.8658  1.0378
 2762SOL    HW119919   1.476   0.276  12.902  0.2960  0.0493  1.4933
 2762SOL    HW219920   1.352   0.348  12.886  1.8211  2.2006 -1.0897
 2763SOL     OW19921   0.706   1.817   7.797  0.3613  0.9671 -0.2167
 2763SOL    HW119922   0.649   1.778   7.731 -0.2396 -2.2500  2.2515
 2763SOL    HW219923   0.671   1.906   7.797 -1.9803  0.0224  0.6626
 2764SOL     OW19924   2.735   2.354   6.477  0.2264  0.3984 -0.0922
 2764SOL    HW119925   2.821   2.341   6.436 -0.6251  0.7312 -1.9625
 2764SOL    HW219926   2.707   2.264   6.496 -1.7180  1.3096  1.3256
 2765SOL     OW19927   0.401   0.636   8.592 -0.2251  0.4912 -0.3389
 2765SOL    HW119928   0.362   0.565   8.540 -3.1078  0.3778  1.9876
 2765SOL    HW219929   0.347   0.635   8.670  1.1480  0.1161  0.6136
 2766SOL     OW19930   1.247   3.423  14.699 -0.2690  0.7525 -0.1816
 2766SOL    HW119931   1.334   3.424  14.657 -0.4542  2.9773 -0.5309
 2766SOL    HW219932   1.209   3.380  14.623  2.0894  1.8142 -1.9720
 2767SOL     OW19933   2.748   2.724   6.700 -0.2735  0.3361 -0.2575
 2767SOL    HW119934   2.654   2.741   6.705 -0.4326 -0.1984 -1.4737
 2767SOL    HW219935   2.792   2.800   6.739 -0.8254  0.3223  0.3884
 2768SOL     OW19936   2.731   2.452   6.916  0.1749  0.3332 -0.2422
 2768SOL    HW119937   2.757   2.361   6.932 -0.5831 -0.2141 -2.1620
 2768SOL    HW219938   2.811   2.485   6.875  2.0555 -1.8813  1.6772
 2769SOL     OW19939   1.738   3.312  17.582 -0.3087 -0.1567  0.3009
 2769SOL    HW119940   1.789   3.249  17.632  1.4128  2.4516  1.8215
 2769SOL    HW219941   1.660   3.268  17.548  0.3179 -1.3189  0.3905
 2770SOL     OW19942   0.359   4.446  14.042 -0.2320 -0.4622 -0.0414
 2770SOL    HW119943   0.313   4.445  14.126  0.1630  1.3115  0.2046
 2770SOL    HW219944   0.299   4.399  13.984  1.2184 -1.6511 -0.5797
 2771SOL     OW19945   2.020   3.827  13.097  0.1300 -0.6258 -0.0663
 2771SOL    HW119946   1.986   3.906  13.139  1.7728  0.5997 -1.0194
 2771SOL    HW219947   1.958   3.763  13.130 -0.6198  1.4764  2.6250
 2772SOL     OW19948   3.892   4.646   8.899  0.2339 -0.5368 -0.4691
 2772SOL    HW119949   3.812   4.594   8.888 -0.2756  0.4467 -1.3274
 2772SOL    HW219950   3.950   4.605   8.836 -1.0811 -2.3279 -0.5243
 2773SOL     OW19951   3.827   4.189   7.692 -0.3193  0.4168  0.3888
 2773SOL    HW119952   3.765   4.116   7.689 -0.2263  0.3469  0.2063
 2773SOL    HW219953   3.803   4.225   7.778  0.5793  0.4715  0.6173
 2774SOL     OW19954   3.657   3.500  15.394 -0.3976  0.2744 -0.0798
 2774SOL    HW119955   3.616   3.414  15.397 -0.2714  0.2827  1.7277
 2774SOL    HW219956   3.731   3.484  15.335 -0.1872  1.1303 -0.0545
 2775SOL     OW19957   0.272   2.425   6.222 -0.6324 -0.1498 -0.1838
 2775SOL    HW119958   0.213   2.473   6.281 -0.4431  2.3842 -2.0597
 2775SOL    HW219959   0.321   2.364   6.277  0.0459  0.9113  0.3720
 2776SOL     OW19960   1.791   3.593   3.668 -0.2886 -0.4360  0.3300
 2776SOL    HW119961   1.860   3.551   3.720  0.9298  1.4051  0.2124
 2776SOL    HW219962   1.758   3.668   3.717  1.6005 -0.2922  1.3956
 2777SOL     OW19963   4.169   3.882  11.045  0.5408  0.4810  0.4394
 2777SOL    HW119964   4.209   3.959  11.085  1.5065  0.4428 -0.4697
 2777SOL    HW219965   4.074   3.890  11.057  0.4018  0.1238 -0.4268
 2778SOL     OW19966   0.939   2.933   5.710 -0.5492  0.4743 -0.4257
 2778SOL    HW119967   0.852   2.895   5.727  0.3497 -1.6400 -0.5081
 2778SOL    HW219968   0.912   3.017   5.675 -1.6956 -0.1296 -0.9992
 2779SOL     OW19969   0.803   3.140   4.457 -0.0940  0.6260 -0.0860
 2779SOL    HW119970   0.863   3.075   4.494  0.7799  1.9483  0.8211
 2779SOL    HW219971   0.873   3.187   4.411  0.4149  0.8863  0.9323
 2780SOL     OW19972   4.027   0.552  10.019  0.5128 -0.3529  0.4577
 2780SOL    HW119973   4.069   0.635   9.995  0.5014 -0.7395 -0.9295
 2780SOL    HW219974   4.023   0.570  10.113  0.0711 -1.4596  0.6527
 2781SOL     OW19975   1.608   3.062   4.605  0.0216 -0.0356  0.1465
 2781SOL    HW119976   1.675   3.080   4.539 -1.3611 -2.5219 -1.9466
 2781SOL    HW219977   1.545   3.129   4.579 -0.5695  0.2915  2.3596
 2782SOL     OW19978   1.767   1.275   6.226  0.7848  0.2324  0.1469
 2782SOL    HW119979   1.746   1.326   6.148 -0.2851 -0.6161 -0.1157
 2782SOL    HW219980   1.860   1.256   6.217  0.3844 -0.9568 -1.3988
 2783SOL     OW19981   0.527   1.301   1.699 -0.1601  0.6157 -0.3927
 2783SOL    HW119982   0.583   1.285   1.775 -0.4819  1.3362 -0.0012
 2783SOL    HW219983   0.500   1.215   1.668  2.4145 -0.0990 -0.7072
 2784SOL     OW19984   0.132   4.392   9.418 -0.5022 -0.0080 -0.1336
 2784SOL    HW119985   0.151   4.349   9.501  1.6714  1.3748  0.0884
 2784SOL    HW219986   0.215   4.428   9.387 -0.4884 -0.3425 -0.4850
 2785SOL     OW19987   1.198   3.803   7.829 -0.2113  0.0249 -0.2054
 2785SOL    HW119988   1.133   3.863   7.793  0.4074  0.4114 -0.6798
 2785SOL    HW219989   1.252   3.779   7.754 -1.2770 -2.3662 -0.2005
 2786SOL     OW19990   4.019   1.793   9.421  0.2043  0.0537  0.1629
 2786SOL    HW119991   4.031   1.785   9.516 -0.6177  1.3996  0.3828
 2786SOL    HW219992   4.091   1.735   9.396 -0.6413  0.2313 -2.6929
 2787SOL     OW19993   3.104   1.359  10.387  1.1744  0.3218 -0.6855
 2787SOL    HW119994   3.075   1.418  10.318 -0.6713  0.2959  0.0644
 2787SOL    HW219995   3.061   1.276  10.364  0.9190  0.1798  0.2879
 2788SOL     OW19996   4.333   3.024   5.118 -0.3517  0.0445  0.2201
 2788SOL    HW119997   4.280   3.103   5.112 -0.3736 -0.0479 -0.7160
 2788SOL    HW219998   4.317   2.981   5.034 -3.0909  0.2595  0.6290
 2789SOL     OW19999   3.190   0.929   2.837 -0.4567 -0.4919 -0.5816
 2789SOL    HW120000   3.189   0.942   2.931  3.0417  0.9041 -0.7447
 2789SOL    HW220001   3.140   1.006   2.812  0.0799 -0.5653 -1.8853
 2790SOL     OW20002   4.594   3.094   9.476  0.2407 -0.1402 -0.6942
 2790SOL    HW120003   4.664   3.116   9.415 -0.6615 -1.6847 -2.2914
 2790SOL    HW220004   4.525   3.156   9.455  0.3434  0.4248  0.6429
 2791SOL     OW20005   1.148   4.311   6.416  0.1119 -0.0151  0.3619
 2791SOL    HW120006   1.119   4.326   6.506 -0.4292 -0.8217  0.3212
 2791SOL    HW220007   1.236   4.280   6.435  0.1074  0.2922  0.8820
 2792SOL     OW20008   4.060   0.623   6.762 -0.3676  0.0415 -0.2039
 2792SOL    HW120009   4.151   0.632   6.789 -0.4292  1.2874 -0.3932
 2792SOL    HW220010   4.020   0.704   6.793 -0.4396  0.5067 -1.4898
 2793SOL     OW20011   2.271   4.556   8.659 -0.3477  0.3629 -0.0309
 2793SOL    HW120012   2.281   4.648   8.684  1.3446  0.6436 -1.7067
 2793SOL    HW220013   2.300   4.557   8.568 -0.2839 -1.1167 -0.0199
 2794SOL     OW20014   2.172   1.875   9.186  0.3175 -0.0488  0.1386
 2794SOL    HW120015   2.221   1.892   9.266  0.0191  2.3234 -0.1555
 2794SOL    HW220016   2.221   1.926   9.121 -0.5800 -1.7026 -1.8473
 2795SOL     OW20017   1.022   3.957   7.015 -0.0953 -0.1550  0.7421
 2795SOL    HW120018   1.078   4.014   6.961 -0.3603  0.3098  0.9597
 2795SOL    HW220019   0.949   3.942   6.955 -0.2907  1.8839  0.4726
 2796SOL     OW20020   0.405   2.123   2.696  0.6568 -0.6132  0.1396
 2796SOL    HW120021   0.466   2.082   2.757  1.1768 -2.9435 -1.9736
 2796SOL    HW220022   0.439   2.102   2.609 -0.3809 -0.7967 -0.2235
 2797SOL     OW20023   1.728   1.954   6.444  0.0114 -0.0607 -0.0052
 2797SOL    HW120024   1.698   1.876   6.397 -1.6841  1.2431 -1.0622
 2797SOL    HW220025   1.789   1.910   6.503  1.4873 -1.5143 -2.6222
 2798SOL     OW20026   2.474   2.483   6.027 -0.4986  0.3326 -1.0140
 2798SOL    HW120027   2.384   2.479   5.996 -1.5546 -0.0820  2.1035
 2798SOL    HW220028   2.492   2.392   6.048  2.2631  1.2406  0.6136
 2799SOL     OW20029   1.591   0.412  10.895  0.2824  0.0573 -0.0915
 2799SOL    HW120030   1.604   0.505  10.878 -3.2765  0.1155 -2.4760
 2799SOL    HW220031   1.681   0.386  10.913 -0.2735 -1.5732  0.3546
 2800SOL     OW20032   1.912   1.691  17.076  0.2107 -0.1848  0.2432
 2800SOL    HW120033   1.822   1.713  17.052  0.6504  0.2796 -0.9739
 2800SOL    HW220034   1.904   1.707  17.170  0.3013  1.7158 -0.0663
 2801SOL     OW20035   3.641   1.377  12.980 -0.2557 -0.0954 -0.3176
 2801SOL    HW120036   3.733   1.400  12.994  0.0989 -0.6438 -1.7818
 2801SOL    HW220037   3.646   1.283  12.964 -1.3290 -0.1593 -0.2448
 2802SOL     OW20038   1.211   1.220  17.020  0.1548 -0.6708 -0.7710
 2802SOL    HW120039   1.186   1.258  16.935 -1.1581 -2.6988 -1.2946
 2802SOL    HW220040   1.185   1.128  17.013 -0.3181 -0.5682 -0.3743
 2803SOL     OW20041   3.162   2.307   1.428  0.2789  0.1630  0.4771
 2803SOL    HW120042   3.153   2.323   1.522  1.6541 -0.8376  0.7903
 2803SOL    HW220043   3.161   2.395   1.391 -2.2931 -0.5836 -1.2021
 2804SOL     OW20044   4.149   4.534  15.385 -0.0499 -0.2880  0.1931
 2804SOL    HW120045   4.140   4.592  15.309 -3.7137 -0.9496  0.0927
 2804SOL    HW220046   4.087   4.465  15.360  1.4412 -1.5223 -0.0701
 2805SOL     OW20047   1.048   0.429   5.212 -0.2214 -0.0288 -0.0793
 2805SOL    HW120048   1.091   0.451   5.295  1.5419 -1.6858 -0.5448
 2805SOL    HW220049   1.121   0.398   5.159  0.7097 -1.1704  1.8628
 2806SOL     OW20050   3.545   1.547   5.132  0.5272 -0.7026  0.8656
 2806SOL    HW120051   3.521   1.637   5.152  1.2678 -0.3967  0.3677
 2806SOL    HW220052   3.495   1.493   5.193 -0.6986 -0.8035 -0.2322
 2807SOL     OW20053   2.086   1.623   2.211 -0.1703 -0.3441 -0.4134
 2807SOL    HW120054   1.998   1.584   2.209 -1.4812  2.5590 -0.2917
 2807SOL    HW220055   2.059   1.715   2.203 -1.1839 -0.6206 -0.1506
 2808SOL     OW20056   1.456   0.927   4.431  0.1337  0.5795  0.5228
 2808SOL    HW120057   1.408   0.954   4.352  0.9800 -0.5789 -0.3911
 2808SOL    HW220058   1.396   0.889   4.495  0.7065  0.3050  0.8937
 2809SOL     OW20059   3.827   3.819  15.388 -0.3008  0.2586 -0.3017
 2809SOL    HW120060   3.860   3.762  15.319  0.3395  0.4277 -0.1445
 2809SOL    HW220061   3.912   3.831  15.431 -1.3917  1.4392  1.5338
 2810SOL     OW20062   1.787   3.059   6.365 -0.4511  0.1906  0.3748
 2810SOL    HW120063   1.796   3.133   6.305  0.8552  0.3101  0.7137
 2810SOL    HW220064   1.868   3.063   6.415 -0.4623 -1.4258  0.5137
 2811SOL     OW20065   3.703   4.186   8.941 -0.0426  0.2598  0.0860
 2811SOL    HW120066   3.685   4.266   8.990 -1.6462  1.2666 -2.1086
 2811SOL    HW220067   3.646   4.120   8.982  0.1803 -0.5114 -0.8495
 2812SOL     OW20068   2.994   2.757   4.140  0.2006 -0.5490 -0.4268
 2812SOL    HW120069   3.017   2.769   4.232 -1.5013  0.4256 -0.1257
 2812SOL    HW220070   2.949   2.840   4.125 -1.6952 -1.1205  2.1538
 2813SOL     OW20071   1.457   3.700   5.023  0.0801 -0.2251 -0.2051
 2813SOL    HW120072   1.397   3.640   4.977  0.1039  0.0502 -0.5994
 2813SOL    HW220073   1.440   3.776   4.968 -1.0814 -0.5510 -0.3090
 2814SOL     OW20074   1.536   0.535   2.721 -0.4286  0.1600  0.5899
 2814SOL    HW120075   1.622   0.552   2.685 -0.7447  1.4850  0.4516
 2814SOL    HW220076   1.494   0.615   2.689  0.4609 -0.1440 -1.3326
 2815SOL     OW20077   4.418   2.829   7.105  0.5691  0.0364 -0.4136
 2815SOL    HW120078   4.388   2.797   7.020 -0.6568  0.7568 -0.2599
 2815SOL    HW220079   4.487   2.763   7.116  0.6638  0.0600 -0.8649
 2816SOL     OW20080   2.536   2.269  14.297 -0.8039 -0.2628  0.4137
 2816SOL    HW120081   2.538   2.209  14.371  4.1853 -1.2284 -0.4323
 2816SOL    HW220082   2.551   2.352  14.341  0.3046 -1.5093  2.3745
 2817SOL     OW20083   1.516   3.242   5.436  0.2028  0.1060  0.5837
 2817SOL    HW120084   1.461   3.310   5.396 -0.4250  0.5337  2.1722
 2817SOL    HW220085   1.511   3.268   5.528 -0.9744  1.4325  0.1630
 2818SOL     OW20086   4.280   0.851  10.479 -0.4956  0.3374  0.1844
 2818SOL    HW120087   4.232   0.808  10.409  1.9244 -1.1358 -0.5429
 2818SOL    HW220088   4.344   0.784  10.502 -0.5823 -0.1682 -1.0631
 2819SOL     OW20089   1.537   3.088   5.848  0.6348 -0.2919 -0.1879
 2819SOL    HW120090   1.472   3.020   5.833  1.5032 -1.6113  2.1298
 2819SOL    HW220091   1.532   3.087   5.943  1.9061 -2.4524 -0.1546
 2820SOL     OW20092   3.132   3.442  10.855  0.0891 -0.4675 -0.0992
 2820SOL    HW120093   3.191   3.507  10.818  0.9216 -0.3564  1.4081
 2820SOL    HW220094   3.052   3.495  10.855 -0.2139 -0.9382 -1.5059
 2821SOL     OW20095   1.177   3.073   0.396 -0.0218 -0.4242 -0.0061
 2821SOL    HW120096   1.244   3.123   0.349 -1.3240 -0.3454 -1.7698
 2821SOL    HW220097   1.119   3.040   0.327 -0.3629  1.3688 -0.5749
 2822SOL     OW20098   0.125   1.436   5.848 -0.9359  0.1900  0.0036
 2822SOL    HW120099   0.110   1.484   5.930 -2.8231  1.3299 -1.0148
 2822SOL    HW220100   0.075   1.354   5.854  2.4365 -1.9158 -0.7828
 2823SOL     OW20101   0.119   2.438  13.605 -0.1405  0.3508 -0.1889
 2823SOL    HW120102   0.037   2.446  13.654  0.7868 -0.5242  1.4927
 2823SOL    HW220103   0.159   2.523  13.624 -0.7749  0.4085  0.8765
 2824SOL     OW20104   1.597   4.028   2.987  0.3650 -0.0060  0.5484
 2824SOL    HW120105   1.574   4.018   2.895  0.0625 -0.5127  0.6788
 2824SOL    HW220106   1.691   4.012   2.981  0.9276  4.1111 -1.6897
 2825SOL     OW20107   3.494   4.695  11.711 -0.0453 -0.3013  0.0139
 2825SOL    HW120108   3.409   4.723  11.677  0.3718  0.1906 -0.6437
 2825SOL    HW220109   3.468   4.702  11.803  1.3886  0.0109  0.3939
 2826SOL     OW20110   4.607   4.181   8.972 -0.5880 -0.2105  0.0050
 2826SOL    HW120111   4.701   4.197   8.978 -0.3534 -1.5929  0.0094
 2826SOL    HW220112   4.589   4.179   8.878  1.9859  0.5073 -0.5031
 2827SOL     OW20113   3.786   4.174   8.272 -0.0345 -0.1671  0.0858
 2827SOL    HW120114   3.780   4.198   8.364  1.0274  1.1986 -0.1922
 2827SOL    HW220115   3.864   4.218   8.237 -0.1375 -0.8945 -1.0676
 2828SOL     OW20116   1.949   0.201   9.128  0.5075  0.4220 -0.0642
 2828SOL    HW120117   1.863   0.240   9.119  0.0036 -0.8778 -0.8850
 2828SOL    HW220118   1.975   0.198   9.035  0.3874 -0.0945 -0.0823
 2829SOL     OW20119   0.683   0.154   5.081 -0.1487  0.1010 -0.1221
 2829SOL    HW120120   0.742   0.222   5.049  1.2915 -0.1582  1.9621
 2829SOL    HW220121   0.623   0.204   5.136  2.2408  2.2094  0.5649
 2830SOL     OW20122   1.181   0.126   4.936 -0.2448 -0.0080  0.4840
 2830SOL    HW120123   1.094   0.154   4.907 -0.4279 -0.9508  0.1281
 2830SOL    HW220124   1.163   0.044   4.981  0.9524  0.7170  2.2956
 2831SOL     OW20125   2.243   3.890  11.160 -0.1089  0.5777 -0.2666
 2831SOL    HW120126   2.311   3.873  11.225  0.4113 -0.1687 -1.0116
 2831SOL    HW220127   2.203   3.971  11.190 -0.9453 -0.5254  1.6416
 2832SOL     OW20128   0.512   1.966  11.225  0.4471 -0.2600 -0.4902
 2832SOL    HW120129   0.470   1.963  11.139 -1.5883  0.6528  0.4753
 2832SOL    HW220130   0.445   1.999  11.286  0.6887 -1.9899  0.7122
 2833SOL     OW20131   4.540   4.380   5.760  1.0870 -0.4777  0.4638
 2833SOL    HW120132   4.625   4.422   5.743  2.8797 -3.7617  1.4459
 2833SOL    HW220133   4.549   4.286   5.771  1.6061 -0.6068 -1.0983
 2834SOL     OW20134   1.848   4.437  17.129  0.2592 -0.0609  0.0647
 2834SOL    HW120135   1.938   4.410  17.114  0.4473  0.4525  0.2574
 2834SOL    HW220136   1.809   4.377  17.066  0.6947 -0.2129 -0.0571
 2835SOL     OW20137   3.797   3.477   8.456  0.2076  0.1542 -0.1197
 2835SOL    HW120138   3.717   3.443   8.414 -0.4589  0.9610  0.4895
 2835SOL    HW220139   3.754   3.522   8.529 -0.5564 -1.5796  0.4950
 2836SOL     OW20140   1.862   0.880   7.130 -0.0567  0.4379  0.5801
 2836SOL    HW120141   1.928   0.811   7.130 -0.6661 -0.1405 -1.5712
 2836SOL    HW220142   1.884   0.920   7.214 -0.4287  0.0888  0.8451
 2837SOL     OW20143   1.778   2.605   7.534  0.0379 -0.1641  0.2059
 2837SOL    HW120144   1.729   2.677   7.573  0.1466  1.0726 -1.9085
 2837SOL    HW220145   1.717   2.532   7.547  1.2034 -0.8404  1.7745
 2838SOL     OW20146   1.677   2.811  16.592 -0.5059 -0.1802  0.5264
 2838SOL    HW120147   1.669   2.789  16.499  0.8454 -1.4362  0.7122
 2838SOL    HW220148   1.586   2.838  16.608 -0.5076  0.8643 -1.1410
 2839SOL     OW20149   0.029   0.230   8.727  0.9103 -0.4398 -0.4220
 2839SOL    HW120150   4.678   0.216   8.705  0.7668 -1.2009  0.7039
 2839SOL    HW220151   0.045   0.222   8.821 -2.5477  0.9218  0.3064
 2840SOL     OW20152   1.464   3.225   6.482 -0.4807 -0.4410 -0.0176
 2840SOL    HW120153   1.387   3.278   6.461 -0.2543 -0.1635 -0.1301
 2840SOL    HW220154   1.530   3.293   6.488  2.0104 -2.9714  1.1487
 2841SOL     OW20155   3.640   2.999  10.791  0.3246 -0.0928 -0.4554
 2841SOL    HW120156   3.708   2.952  10.838 -1.9291  0.2662  3.1499
 2841SOL    HW220157   3.565   2.988  10.849  0.7813  2.9004  0.7418
 2842SOL     OW20158   0.256   1.313   3.526  0.2189 -0.1140 -0.2825
 2842SOL    HW120159   0.211   1.390   3.562 -1.3933 -0.9221 -0.5547
 2842SOL    HW220160   0.343   1.321   3.564  0.3290  0.6996 -0.6993
 2843SOL     OW20161   1.028   0.093   2.811  0.2879 -0.7243 -0.0748
 2843SOL    HW120162   1.074   0.139   2.881  1.0235 -1.4103 -0.1018
 2843SOL    HW220163   0.975   0.045   2.875 -0.8394 -1.5866 -1.6531
 2844SOL     OW20164   1.016   3.652   4.687  0.3951  0.2907 -0.0468
 2844SOL    HW120165   1.058   3.644   4.601 -1.0480  1.7769 -0.8828
 2844SOL    HW220166   1.057   3.724   4.735 -0.6538  1.1454 -0.4355
 2845SOL     OW20167   3.771   0.047   0.894  0.3800  0.4317 -0.4408
 2845SOL    HW120168   3.780   0.139   0.871 -1.5766  1.0982  1.5125
 2845SOL    HW220169   3.860   0.017   0.877 -0.5082  0.2073 -4.7641
 2846SOL     OW20170   1.165   3.664   9.684  0.0221 -0.2125 -0.2532
 2846SOL    HW120171   1.171   3.619   9.768  0.5056 -0.7579 -0.5834
 2846SOL    HW220172   1.071   3.679   9.674  0.3564  0.3926 -2.4602
 2847SOL     OW20173   1.989   4.070  13.242 -0.0157 -0.0103 -0.2298
 2847SOL    HW120174   1.933   4.099  13.314 -0.5829  0.4210 -0.8414
 2847SOL    HW220175   2.065   4.031  13.284 -0.0745 -0.4693 -0.5526
 2848SOL     OW20176   4.115   0.387   0.852  0.1037 -0.1517  0.0341
 2848SOL    HW120177   4.201   0.395   0.810  0.5136 -0.2562  0.8654
 2848SOL    HW220178   4.105   0.476   0.885 -2.0436 -0.5483  0.4807
 2849SOL     OW20179   4.430   1.117   2.806  0.0542  0.1547 -0.2344
 2849SOL    HW120180   4.389   1.040   2.844  0.9332 -0.1671  0.0732
 2849SOL    HW220181   4.516   1.080   2.785  0.3919  0.5551  0.4180
 2850SOL     OW20182   2.858   2.992   9.409  0.1711 -0.3310 -0.3156
 2850SOL    HW120183   2.880   2.969   9.319  1.4980 -1.1028  0.2182
 2850SOL    HW220184   2.945   2.978   9.446 -0.7260 -1.6017  1.3130
 2851SOL     OW20185   0.546   0.043   9.529 -0.0027 -0.2699  0.2781
 2851SOL    HW120186   0.601   0.114   9.498  0.8496 -0.9131  0.3187
 2851SOL    HW220187   0.604   4.709   9.514  0.6323  0.2594  0.0693
 2852SOL     OW20188   3.216   3.374  15.498  0.2812 -0.2861  0.0190
 2852SOL    HW120189   3.231   3.461  15.536  1.5409 -1.4046  2.1062
 2852SOL    HW220190   3.131   3.347  15.533 -0.4441  1.1009 -0.6783
 2853SOL     OW20191   0.569   4.602  11.638 -0.2130 -0.7167  0.2118
 2853SOL    HW120192   0.655   4.582  11.600 -0.8716 -1.4151 -0.9201
 2853SOL    HW220193   0.564   4.688  11.595  1.1185  0.0475  1.6172
 2854SOL     OW20194   4.140   2.355   1.089  0.3424  0.2586 -0.4642
 2854SOL    HW120195   4.173   2.325   1.173 -1.1396  0.3752  0.1634
 2854SOL    HW220196   4.056   2.310   1.078 -0.6241  1.6713  1.2098
 2855SOL     OW20197   2.583   2.865   4.871  0.3427 -0.4999 -0.0203
 2855SOL    HW120198   2.525   2.907   4.935 -0.4743 -0.6587 -0.6511
 2855SOL    HW220199   2.549   2.775   4.877  0.2850 -0.4335  0.6790
 2856SOL     OW20200   0.601   2.893   4.661 -0.3036 -0.4270  0.0111
 2856SOL    HW120201   0.562   2.865   4.744 -2.2595 -1.2910 -1.1907
 2856SOL    HW220202   0.679   2.930   4.701  0.1613 -1.9394  0.4905
 2857SOL     OW20203   1.886   0.459   1.894  0.2517  0.4378 -0.2695
 2857SOL    HW120204   1.812   0.428   1.945 -0.0980  0.9945 -0.4437
 2857SOL    HW220205   1.846   0.503   1.819  0.0890  0.5638 -0.1077
 2858SOL     OW20206   4.407   3.758   5.185  0.6971 -0.0564 -0.6938
 2858SOL    HW120207   4.463   3.718   5.119  2.0021 -3.0594  2.2091
 2858SOL    HW220208   4.402   3.687   5.250  1.0773 -2.2238 -3.0352
 2859SOL     OW20209   1.006   4.405   8.279 -0.0717 -0.4608 -0.3434
 2859SOL    HW120210   0.929   4.348   8.287  0.7019 -1.1130  2.5261
 2859SOL    HW220211   0.976   4.450   8.200 -0.1135 -0.4194 -0.3039
 2860SOL     OW20212   0.073   3.481  15.613  0.2524 -0.1599 -0.1214
 2860SOL    HW120213   4.735   3.510  15.657  0.1391 -1.1648  0.3298
 2860SOL    HW220214   0.045   3.469  15.522 -0.2532 -0.3486  0.0575
 2861SOL     OW20215   0.003   0.773   4.384 -0.1515 -0.2790  0.7693
 2861SOL    HW120216   0.064   0.837   4.348 -2.7100  1.0459 -1.2312
 2861SOL    HW220217   4.732   0.719   4.307 -1.6562  0.1295  0.7117
 2862SOL     OW20218   0.596   3.395   7.194 -0.5320  0.5785 -0.1331
 2862SOL    HW120219   0.519   3.365   7.147 -0.4763 -0.5435  0.4791
 2862SOL    HW220220   0.567   3.471   7.244 -1.8069  0.6582 -1.0026
 2863SOL     OW20221   0.905   2.301   7.357 -0.1179 -0.5124  0.6008
 2863SOL    HW120222   0.936   2.296   7.267 -1.4201 -0.7392  0.1663
 2863SOL    HW220223   0.827   2.244   7.362 -0.8522  0.4679  0.2860
 2864SOL     OW20224   0.323   2.361  17.126 -0.9140 -0.1620 -0.3998
 2864SOL    HW120225   0.417   2.343  17.118 -0.7507 -0.2678  1.5717
 2864SOL    HW220226   0.309   2.431  17.062  1.7258 -0.5415 -1.3919
 2865SOL     OW20227   1.574   4.201  15.730  0.5211 -0.3040 -0.3697
 2865SOL    HW120228   1.590   4.162  15.643 -0.5509 -0.2201 -0.6027
 2865SOL    HW220229   1.630   4.146  15.785 -0.3911 -2.1492 -1.2793
 2866SOL     OW20230   1.069   4.230  11.136 -0.3218 -0.2567  0.0842
 2866SOL    HW120231   1.012   4.159  11.165 -0.2949  0.0259  0.8082
 2866SOL    HW220232   1.155   4.187  11.137  0.5769  1.5887  1.6717
 2867SOL     OW20233   2.995   4.423   9.530  0.2351  0.2836  0.2107
 2867SOL    HW120234   2.958   4.357   9.589 -0.8820 -0.1293 -0.9460
 2867SOL    HW220235   2.920   4.483   9.537  0.7629  0.7136  2.2967
 2868SOL     OW20236   0.217   2.842   7.559 -0.0577 -0.0712 -0.2170
 2868SOL    HW120237   0.275   2.898   7.508 -0.4438 -0.4414 -1.0614
 2868SOL    HW220238   0.266   2.839   7.642  0.0569 -1.8375 -0.3572
 2869SOL     OW20239   1.667   4.239   5.248  0.2042  0.3458  0.5499
 2869SOL    HW120240   1.580   4.270   5.221  1.7120  3.1354 -1.0125
 2869SOL    HW220241   1.655   4.256   5.341 -0.8535 -0.6749  0.5996
 2870SOL     OW20242   1.534   3.457   9.175  0.0567 -0.2724 -0.3440
 2870SOL    HW120243   1.590   3.490   9.246 -1.5286 -0.5149  1.0050
 2870SOL    HW220244   1.476   3.387   9.205  2.0944 -2.1134 -0.6812
 2871SOL     OW20245   3.198   1.305   7.725  0.0126 -0.4274  0.2143
 2871SOL    HW120246   3.173   1.231   7.669  1.1207 -0.4307 -0.2893
 2871SOL    HW220247   3.245   1.252   7.790  2.2499  1.3721  0.0718
 2872SOL     OW20248   4.221   3.313   7.086  0.2626  0.2140  0.3204
 2872SOL    HW120249   4.235   3.220   7.103  1.9871  0.6292  1.2224
 2872SOL    HW220250   4.175   3.341   7.165  0.5831 -0.2917  0.6872
 2873SOL     OW20251   2.084   4.548  12.664 -0.6461  0.4239 -0.0867
 2873SOL    HW120252   2.004   4.585  12.701 -1.4049  0.0749 -1.4047
 2873SOL    HW220253   2.071   4.455  12.643  0.1543  0.1262  0.6829
 2874SOL     OW20254   4.432   0.185   2.611 -0.3225  0.4069 -0.2117
 2874SOL    HW120255   4.356   0.129   2.625 -0.6530  0.9339  0.0921
 2874SOL    HW220256   4.482   0.107   2.587 -0.1181  0.0811  1.2559
 2875SOL     OW20257   4.697   1.611   1.742 -0.3622  0.0145 -0.0327
 2875SOL    HW120258   4.619   1.632   1.690 -0.6714  0.4443  0.6092
 2875SOL    HW220259   4.656   1.582   1.823  0.7882 -0.5095  0.3666
 2876SOL     OW20260   0.183   3.150   0.474  0.3736 -0.2378  0.8419
 2876SOL    HW120261   0.175   3.240   0.505 -0.7003  0.1863 -0.6456
 2876SOL    HW220262   0.229   3.151   0.390  1.6954  0.5949  1.5911
 2877SOL     OW20263   4.708   1.156   6.824  0.0715  0.1873 -0.3538
 2877SOL    HW120264   4.707   1.074   6.873 -0.9196  0.6953  0.4979
 2877SOL    HW220265   4.656   1.224   6.869 -0.2363 -1.1073  1.2538
 2878SOL     OW20266   2.249   1.540   2.018 -0.4028  0.1773  0.7612
 2878SOL    HW120267   2.266   1.453   2.054 -1.2825 -0.8195 -1.2709
 2878SOL    HW220268   2.166   1.564   2.058  1.5057  3.6226  2.7050
 2879SOL     OW20269   3.869   1.646  16.460  0.1534 -0.4156 -0.5131
 2879SOL    HW120270   3.955   1.630  16.497  0.3978 -0.5317 -1.1382
 2879SOL    HW220271   3.819   1.578  16.506 -2.2084  1.2603 -0.6017
 2880SOL     OW20272   3.632   1.870   8.555 -0.2491  0.4298 -0.0260
 2880SOL    HW120273   3.628   1.965   8.568  1.1757  0.0002  3.5994
 2880SOL    HW220274   3.712   1.856   8.605  1.0630  0.4004 -2.1219
 2881SOL     OW20275   0.118   0.563   7.051 -0.0258 -0.1239  0.5803
 2881SOL    HW120276   0.056   0.634   7.032 -1.4237 -1.6417 -0.5312
 2881SOL    HW220277   0.169   0.602   7.122 -1.7541  0.0001  1.7576
 2882SOL     OW20278   1.706   2.663  12.669  0.3205 -0.0038  0.6802
 2882SOL    HW120279   1.637   2.596  12.673  0.4455 -0.2456 -1.1336
 2882SOL    HW220280   1.777   2.609  12.634 -1.2788 -0.9488 -1.1447
 2883SOL     OW20281   1.101   1.971   1.410  0.0831 -0.5637 -0.0260
 2883SOL    HW120282   1.135   2.054   1.375 -0.2669 -0.4252 -0.0320
 2883SOL    HW220283   1.027   2.004   1.461  2.4732  0.9993  2.4293
 2884SOL     OW20284   4.702   3.725   3.223  0.5165 -0.6137  0.8919
 2884SOL    HW120285   4.616   3.766   3.226  1.0306  0.5204  0.0642
 2884SOL    HW220286   0.018   3.799   3.243 -0.4069 -0.0043  1.3060
 2885SOL     OW20287   1.845   3.645  10.923 -0.3133 -0.1519 -0.1881
 2885SOL    HW120288   1.815   3.711  10.860 -3.1661 -1.0893  0.1905
 2885SOL    HW220289   1.841   3.701  11.001  0.9446 -0.8206  0.3609
 2886SOL     OW20290   0.536   2.905   8.665  0.5969  0.2948  0.6215
 2886SOL    HW120291   0.621   2.897   8.622 -0.5009 -1.2786 -1.2359
 2886SOL    HW220292   0.496   2.978   8.617  1.6362  0.8402  0.5819
 2887SOL     OW20293   2.888   2.392  11.364 -0.1370  0.8902  0.1374
 2887SOL    HW120294   2.955   2.365  11.301  2.1072 -2.8141  4.0207
 2887SOL    HW220295   2.901   2.487  11.362  1.8297  0.6420  0.3955
 2888SOL     OW20296   1.530   3.602   1.800  0.1709 -0.3475  0.3973
 2888SOL    HW120297   1.550   3.511   1.777 -0.6548 -0.4372  0.0482
 2888SOL    HW220298   1.518   3.640   1.714 -0.2972 -0.7504  0.2871
 2889SOL     OW20299   2.082   2.629   2.817  0.3155 -0.3765  0.8730
 2889SOL    HW120300   1.988   2.610   2.829 -0.0933  1.9969  1.3606
 2889SOL    HW220301   2.073   2.667   2.730 -0.6189  0.2439  1.2414
 2890SOL     OW20302   3.366   2.220  17.155 -0.0918 -0.3132 -0.3848
 2890SOL    HW120303   3.346   2.234  17.248 -1.2811  0.9907 -0.8483
 2890SOL    HW220304   3.339   2.128  17.156  1.5138 -0.8166 -3.2746
 2891SOL     OW20305   3.498   4.336  16.262 -0.5061 -0.5058 -0.0949
 2891SOL    HW120306   3.494   4.431  16.248  1.5457 -0.5710 -1.1005
 2891SOL    HW220307   3.577   4.319  16.314 -1.0426  0.1263  0.9330
 2892SOL     OW20308   1.008   1.230   3.696 -0.2974 -0.3628  0.0086
 2892SOL    HW120309   1.076   1.164   3.684  1.4491  1.5847 -0.6751
 2892SOL    HW220310   1.060   1.303   3.663 -1.1588  0.7310  1.0767
 2893SOL     OW20311   0.483   4.164  13.316 -0.3220  0.1711  0.2347
 2893SOL    HW120312   0.395   4.155  13.277 -0.6000  1.1460  0.6480
 2893SOL    HW220313   0.504   4.253  13.287  1.2675  0.2081  1.4985
 2894SOL     OW20314   1.346   3.939   4.113  0.2318 -0.4676 -0.2029
 2894SOL    HW120315   1.296   3.873   4.161 -0.9358  1.5600  1.3875
 2894SOL    HW220316   1.368   3.883   4.039 -2.1337 -1.6146 -0.0327
 2895SOL     OW20317   0.591   1.851  12.966  0.3718  0.4292 -0.2599
 2895SOL    HW120318   0.621   1.942  12.963  1.6000  0.0538  0.4886
 2895SOL    HW220319   0.554   1.847  13.055  0.0609  3.2856 -0.2857
 2896SOL     OW20320   3.293   3.417   7.792 -0.2635  0.4729 -0.7151
 2896SOL    HW120321   3.260   3.330   7.767 -1.5637  0.5624  0.6866
 2896SOL    HW220322   3.284   3.418   7.887  0.7803  0.5835 -0.6256
 2897SOL     OW20323   2.434   2.956   5.951 -0.1300 -0.0004  0.2073
 2897SOL    HW120324   2.504   2.944   5.887  0.5783  1.0165  0.7865
 2897SOL    HW220325   2.354   2.922   5.910  0.9600 -5.5639  2.6945
 2898SOL     OW20326   4.456   2.923   6.563 -0.0622  0.4970  0.1901
 2898SOL    HW120327   4.438   3.000   6.508 -0.2893  1.2199  1.2689
 2898SOL    HW220328   4.549   2.931   6.582  0.3096 -0.7251 -1.0463
 2899SOL     OW20329   4.651   1.795   0.765  0.1268  0.2230  0.3405
 2899SOL    HW120330   4.568   1.784   0.719  1.4117  0.3364 -1.9747
 2899SOL    HW220331   4.616   1.808   0.853 -3.3852  1.3409 -1.2136
 2900SOL     OW20332   0.846   3.224   7.797 -0.1930  0.2712  0.0803
 2900SOL    HW120333   0.826   3.138   7.761  2.0849 -0.8002  1.3659
 2900SOL    HW220334   0.802   3.222   7.882  0.9881  1.6052  0.7160
 2901SOL     OW20335   0.565   0.979   5.215  0.5075 -0.0132  0.1481
 2901SOL    HW120336   0.603   0.893   5.196 -1.1694 -1.1628  1.9598
 2901SOL    HW220337   0.607   1.006   5.297  1.7692 -1.0706 -0.1458
 2902SOL     OW20338   1.289   0.613   7.055 -0.2251  0.2487  0.3338
 2902SOL    HW120339   1.327   0.565   6.982 -0.9476  2.1277 -1.2607
 2902SOL    HW220340   1.256   0.535   7.100  2.8982 -1.6308 -0.6124
 2903SOL     OW20341   4.007   3.261  15.258  0.2877 -0.4182 -0.0397
 2903SOL    HW120342   4.078   3.199  15.246  0.1870 -0.4292 -0.6093
 2903SOL    HW220343   4.054   3.336  15.294 -0.2422  0.6521 -1.5304
 2904SOL     OW20344   1.316   0.440   8.057 -0.0035 -0.9294 -0.1023
 2904SOL    HW120345   1.400   0.396   8.067  0.4798 -0.1544 -0.7322
 2904SOL    HW220346   1.250   0.373   8.073 -1.1110 -0.4676 -2.6516
 2905SOL     OW20347   3.715   4.359   4.563 -0.1565 -0.0829  0.3922
 2905SOL    HW120348   3.648   4.380   4.499  0.8448  0.6506 -0.4131
 2905SOL    HW220349   3.791   4.386   4.513  0.1139 -2.1989 -0.3534
 2906SOL     OW20350   4.036   0.418  17.277 -0.0036  0.0123 -0.0414
 2906SOL    HW120351   3.985   0.497  17.264  1.2165  1.1353  2.0168
 2906SOL    HW220352   4.124   0.453  17.262 -0.0948  0.2865  0.0859
 2907SOL     OW20353   2.420   0.704  17.079  0.0387 -0.1566 -0.0578
 2907SOL    HW120354   2.468   0.734  17.156  0.9079  0.8171 -0.9702
 2907SOL    HW220355   2.422   0.788  17.031 -1.4649 -0.6450 -0.9721
 2908SOL     OW20356   2.153   1.168   8.358  0.0529 -0.0063  0.0111
 2908SOL    HW120357   2.182   1.259   8.354  1.4333 -0.4347  0.2499
 2908SOL    HW220358   2.079   1.169   8.420 -2.2743  3.0840 -2.7972
 2909SOL     OW20359   3.670   4.402   6.694  0.7357  0.5490  0.6322
 2909SOL    HW120360   3.710   4.432   6.775  1.5365  0.7178  0.1799
 2909SOL    HW220361   3.708   4.316   6.679  0.4268  0.3079  1.2824
 2910SOL     OW20362   4.508   0.684   8.212 -0.3554 -0.1991 -0.0032
 2910SOL    HW120363   4.460   0.618   8.163  0.3235 -0.8264  0.1759
 2910SOL    HW220364   4.600   0.675   8.186 -1.0721 -2.0300 -1.8457
 2911SOL     OW20365   3.191   0.546   6.325  0.2420  0.2393  0.3051
 2911SOL    HW120366   3.210   0.630   6.365  1.0796 -0.8235  2.1285
 2911SOL    HW220367   3.122   0.569   6.262  0.0919 -1.3339 -0.1074
 2912SOL     OW20368   2.805   1.436   7.171  0.1183  0.4214  0.2538
 2912SOL    HW120369   2.838   1.366   7.228  0.7099  0.9063  0.5046
 2912SOL    HW220370   2.768   1.396   7.092 -0.9195 -2.6676  2.3047
 2913SOL     OW20371   2.942   2.729   1.336 -0.3293 -0.5350 -0.2618
 2913SOL    HW120372   2.855   2.714   1.298 -0.7134 -1.3981  0.9442
 2913SOL    HW220373   2.955   2.824   1.334 -1.4906 -0.3384  3.4937
 2914SOL     OW20374   3.516   0.254  11.485  0.3383 -0.3566  0.1864
 2914SOL    HW120375   3.608   0.262  11.512  0.5224 -1.6856 -0.0242
 2914SOL    HW220376   3.498   0.160  11.489  1.8418 -0.6425  0.3924
 2915SOL     OW20377   3.443   2.598  10.207 -0.6407  0.5300 -0.3461
 2915SOL    HW120378   3.524   2.566  10.246 -2.0566 -1.1067  1.2534
 2915SOL    HW220379   3.472   2.675  10.158  0.8236 -0.0055 -0.3200
 2916SOL     OW20380   0.816   0.896   8.098 -0.1380 -0.4361 -0.0603
 2916SOL    HW120381   0.733   0.920   8.140 -0.0256  2.3434 -1.4138
 2916SOL    HW220382   0.875   0.962   8.134  0.4717 -1.5618  0.9753
 2917SOL     OW20383   4.571   0.278   5.002  0.2652 -0.0614 -0.1496
 2917SOL    HW120384   4.539   0.367   4.993  0.3683 -0.1586 -1.3630
 2917SOL    HW220385   4.523   0.240   4.929  0.4283 -0.0702 -0.2515
 2918SOL     OW20386   1.817   3.291   2.311 -0.0136  0.8174  0.1219
 2918SOL    HW120387   1.807   3.318   2.220 -0.1296 -0.6729 -0.3147
 2918SOL    HW220388   1.861   3.364   2.354 -1.8164  0.5226  2.4546
 2919SOL     OW20389   0.602   3.994  16.200 -0.1579 -0.2713 -0.3553
 2919SOL    HW120390   0.530   3.934  16.218  0.2978 -0.9134 -0.6481
 2919SOL    HW220391   0.559   4.042  16.129 -1.4477  2.6365  2.3893
 2920SOL     OW20392   0.807   3.541   6.845  0.3082  0.1442 -0.2066
 2920SOL    HW120393   0.816   3.496   6.929 -0.0349 -0.7124 -0.6186
 2920SOL    HW220394   0.882   3.508   6.795  1.6058  1.8040  0.6475
 2921SOL     OW20395   3.166   2.247   8.533  0.2787 -0.1813  0.1065
 2921SOL    HW120396   3.220   2.318   8.499 -2.0241  1.6741  0.3194
 2921SOL    HW220397   3.234   2.187   8.562 -0.6580  0.0037  2.6913
 2922SOL     OW20398   0.784   3.263  16.540  0.4368 -0.1289 -0.0987
 2922SOL    HW120399   0.829   3.314  16.473  0.4216  0.2747  0.2000
 2922SOL    HW220400   0.699   3.307  16.537  2.0340  3.0229  1.3073
 2923SOL     OW20401   4.400   4.038   8.011  0.2065 -0.7431  0.1975
 2923SOL    HW120402   4.488   4.063   7.983  0.0948 -0.0060  0.4753
 2923SOL    HW220403   4.409   4.051   8.106 -1.7160 -1.1649  0.4491
 2924SOL     OW20404   2.847   4.564  16.856  0.3446  0.4660  0.0559
 2924SOL    HW120405   2.879   4.652  16.874 -0.2884  1.1092 -1.9789
 2924SOL    HW220406   2.756   4.570  16.885 -0.0037 -2.1003 -0.4533
 2925SOL     OW20407   0.319   3.349   2.735 -0.1430  0.0416 -0.0184
 2925SOL    HW120408   0.228   3.348   2.706  0.3162 -1.6393 -1.4049
 2925SOL    HW220409   0.308   3.308   2.820 -1.7060 -0.3580 -0.4120
 2926SOL     OW20410   2.038   0.110   8.557 -0.4402  0.2535 -0.3096
 2926SOL    HW120411   2.049   0.041   8.623 -0.5181  1.8879  1.4084
 2926SOL    HW220412   2.063   0.062   8.478 -2.8290  0.6056 -1.2872
 2927SOL     OW20413   1.723   0.800   5.086  0.3394  0.1949 -0.2327
 2927SOL    HW120414   1.796   0.751   5.126  1.0044  0.0219 -1.6765
 2927SOL    HW220415   1.650   0.749   5.121  0.9835 -0.8091 -0.3427
 2928SOL     OW20416   0.143   3.937   3.285 -0.0922 -0.0129  0.7042
 2928SOL    HW120417   0.223   3.899   3.248 -1.6966 -2.7575  0.0803
 2928SOL    HW220418   0.161   4.031   3.281 -1.2117  0.2637  2.1157
 2929SOL     OW20419   3.727   0.943   3.469  0.4332  0.2831 -0.0517
 2929SOL    HW120420   3.788   0.969   3.539  0.5988 -0.2342 -0.0028
 2929SOL    HW220421   3.711   0.851   3.492  0.4411  0.9202  2.4970
 2930SOL     OW20422   1.617   2.805   7.647 -0.3314 -0.1224  0.5790
 2930SOL    HW120423   1.545   2.849   7.691 -0.9024 -1.5881  1.1221
 2930SOL    HW220424   1.695   2.860   7.657  0.0045 -0.5664  0.4090
 2931SOL     OW20425   4.166   3.836   8.113  0.4718 -0.1715  0.0702
 2931SOL    HW120426   4.153   3.920   8.068  2.8478 -0.5896 -1.4262
 2931SOL    HW220427   4.085   3.831   8.164  1.3820  0.3998  1.5731
 2932SOL     OW20428   1.594   2.250   3.096  0.2406  0.4018 -0.2116
 2932SOL    HW120429   1.626   2.160   3.098 -1.7110 -0.2711  0.8396
 2932SOL    HW220430   1.564   2.248   3.187 -2.1701  3.5284 -0.9156
 2933SOL     OW20431   3.217   2.839   7.152  0.0507 -0.7458  0.7332
 2933SOL    HW120432   3.123   2.837   7.168 -0.3655 -0.0333 -1.5439
 2933SOL    HW220433   3.213   2.824   7.057  0.1622 -0.0129  0.6167
 2934SOL     OW20434   1.471   3.582  16.652 -0.1703 -0.5479 -0.2358
 2934SOL    HW120435   1.534   3.618  16.589  2.9282  0.2040  3.2424
 2934SOL    HW220436   1.511   3.503  16.688  2.3434  0.6672 -0.3496
 2935SOL     OW20437   3.063   2.020   2.798 -0.8199  0.0973 -0.1450
 2935SOL    HW120438   3.023   1.933   2.801  2.0730 -1.2319 -0.1258
 2935SOL    HW220439   3.150   2.005   2.835 -1.5775 -1.2382  1.0995
 2936SOL     OW20440   2.942   2.658  17.248  0.4233  0.2488 -0.4685
 2936SOL    HW120441   2.868   2.686  17.195 -1.7879 -1.1541  1.9093
 2936SOL    HW220442   2.975   2.581  17.201 -0.8724 -1.2092  1.0270
 2937SOL     OW20443   0.060   4.098   1.665 -0.7282 -0.2171 -0.4955
 2937SOL    HW120444   0.119   4.104   1.740  1.4627 -0.3582 -2.1874
 2937SOL    HW220445   0.122   4.076   1.595 -0.7938  0.4189 -0.7514
 2938SOL     OW20446   2.157   4.498  12.326  0.3201  0.3484 -0.5276
 2938SOL    HW120447   2.079   4.531  12.369  0.3292  1.5473 -1.4344
 2938SOL    HW220448   2.131   4.406  12.324 -1.1998  0.7712  0.2494
 2939SOL     OW20449   4.101   0.077   6.938 -1.1889  0.0126 -0.3614
 2939SOL    HW120450   4.062   0.000   6.897  0.6663 -1.7098  1.0579
 2939SOL    HW220451   4.062   0.077   7.026 -2.2085  1.8711 -0.8222
 2940SOL     OW20452   3.987   1.207   1.385 -0.2995  0.1177  0.2695
 2940SOL    HW120453   3.939   1.185   1.305  0.6772  2.5013 -0.9730
 2940SOL    HW220454   3.993   1.119   1.421 -1.4327 -0.1910 -0.2999
 2941SOL     OW20455   2.766   3.630   5.571  0.6949  0.4066 -0.3283
 2941SOL    HW120456   2.754   3.711   5.522  1.5609  0.8179  0.1334
 2941SOL    HW220457   2.854   3.644   5.606  0.9612 -0.1750 -0.7811
 2942SOL     OW20458   3.551   0.801  15.733 -0.4313  0.5541 -0.2380
 2942SOL    HW120459   3.629   0.851  15.759  0.0188  0.9349 -2.3600
 2942SOL    HW220460   3.574   0.743  15.661  1.9056  1.7585 -0.4765
 2943SOL     OW20461   2.733   0.142   6.507  0.2555 -0.1181  0.0990
 2943SOL    HW120462   2.715   0.146   6.413 -0.1545 -0.3379  0.1716
 2943SOL    HW220463   2.699   0.056   6.532  0.8867 -0.0507  1.1672
 2944SOL     OW20464   1.549   2.242   7.220 -0.0932  0.8688  0.6687
 2944SOL    HW120465   1.557   2.178   7.150  0.5674  0.7586  0.8448
 2944SOL    HW220466   1.474   2.295   7.192 -0.5386  0.3785  0.9324
 2945SOL     OW20467   3.708   2.198   5.963  0.2730 -0.3300  0.8492
 2945SOL    HW120468   3.619   2.222   5.990 -0.6772 -2.5549 -0.2613
 2945SOL    HW220469   3.709   2.224   5.872 -0.1683 -2.9309  0.0880
 2946SOL     OW20470   3.628   0.407   9.777 -0.0524 -0.0521  0.0119
 2946SOL    HW120471   3.650   0.489   9.734  0.8196 -0.8998 -1.1569
 2946SOL    HW220472   3.715   0.379   9.805 -0.5591  0.8032  2.4660
 2947SOL     OW20473   0.497   4.090   1.981 -0.0851 -0.1681  0.7153
 2947SOL    HW120474   0.586   4.105   2.014  0.0248 -0.4334  0.5355
 2947SOL    HW220475   0.511   4.116   1.890  1.7126 -0.3357  0.9408
 2948SOL     OW20476   4.595   4.203   1.796 -0.4341  0.4157 -0.0824
 2948SOL    HW120477   4.665   4.188   1.732  0.2116  1.0067  0.4932
 2948SOL    HW220478   4.598   4.117   1.838  1.2951 -0.9747 -2.9796
 2949SOL     OW20479   0.166   1.723   6.457  0.2101 -0.0291  0.5634
 2949SOL    HW120480   0.111   1.727   6.535  0.6317 -0.6856  0.8919
 2949SOL    HW220481   0.104   1.745   6.387  1.1443  2.4452  0.5117
 2950SOL     OW20482   1.664   2.681   8.901 -0.4145  0.5945  0.2478
 2950SOL    HW120483   1.626   2.707   8.817 -0.8662  0.8720  0.5407
 2950SOL    HW220484   1.622   2.595   8.903  0.2940  0.2446 -0.0471
 2951SOL     OW20485   3.950   4.589   3.234 -0.0782  0.5404  0.7565
 2951SOL    HW120486   3.948   4.644   3.313 -0.5563  1.1948  0.2864
 2951SOL    HW220487   4.043   4.587   3.211  0.0047 -0.6258  1.1726
 2952SOL     OW20488   4.084   2.254   4.161 -0.3157  0.0724  0.1595
 2952SOL    HW120489   4.121   2.334   4.124  0.7401 -0.8617 -0.8193
 2952SOL    HW220490   4.009   2.239   4.104 -0.1238  2.0308 -0.6178
 2953SOL     OW20491   2.319   2.226  12.542 -0.7042  0.6261  0.2837
 2953SOL    HW120492   2.231   2.255  12.517 -0.3666 -0.8750 -2.7469
 2953SOL    HW220493   2.341   2.262  12.627 -0.8582  1.7472 -0.1499
 2954SOL     OW20494   0.743   1.190  16.001 -0.1672  0.3020 -0.8713
 2954SOL    HW120495   0.656   1.208  15.966 -0.5039 -0.0577 -0.2158
 2954SOL    HW220496   0.763   1.274  16.042  0.3633 -0.1810 -0.1361
 2955SOL     OW20497   1.957   2.995   7.216 -0.3466 -0.4117  0.0626
 2955SOL    HW120498   1.993   2.983   7.128  1.8312  0.0761  0.8921
 2955SOL    HW220499   1.926   2.908   7.243 -1.1944 -0.3038 -0.5589
 2956SOL     OW20500   3.116   4.419   5.854  0.0081 -0.4184  0.4288
 2956SOL    HW120501   3.153   4.332   5.864 -1.6438 -1.2118 -0.3338
 2956SOL    HW220502   3.151   4.446   5.769  0.4174  1.4122  1.1812
 2957SOL     OW20503   1.170   3.579   5.029 -0.6428 -0.0758  0.1538
 2957SOL    HW120504   1.181   3.546   4.940  0.3329  2.2571 -0.6136
 2957SOL    HW220505   1.148   3.503   5.083  4.5321 -0.4746  1.7237
 2958SOL     OW20506   0.226   1.674   8.862  0.4822  0.1896  0.0882
 2958SOL    HW120507   0.181   1.610   8.917  1.1302  0.7534  1.2701
 2958SOL    HW220508   0.223   1.622   8.781  1.8560 -0.6243  0.5642
 2959SOL     OW20509   2.320   3.095  16.540 -0.3388  0.5141 -0.2332
 2959SOL    HW120510   2.235   3.137  16.556  0.5899  2.2157  0.2904
 2959SOL    HW220511   2.348   3.146  16.464 -1.8420  1.0489 -0.4246
 2960SOL     OW20512   4.426   3.886   2.593 -0.0543  0.6483 -0.2171
 2960SOL    HW120513   4.420   3.803   2.545 -1.7213  1.5330 -1.5320
 2960SOL    HW220514   4.339   3.924   2.584  0.0065  0.8011 -0.1627
 2961SOL     OW20515   2.354   2.822  16.531  0.4385 -0.1668 -0.1872
 2961SOL    HW120516   2.353   2.915  16.555  2.1383  0.1465 -1.3395
 2961SOL    HW220517   2.433   2.812  16.479  1.0992  0.0552  0.7728
 2962SOL     OW20518   2.323   4.082   2.374 -0.0463  0.4971  0.3183
 2962SOL    HW120519   2.251   4.052   2.319  1.2232  1.3468 -1.7944
 2962SOL    HW220520   2.346   4.159   2.323  1.0953 -0.1142 -0.0864
 2963SOL     OW20521   0.425   2.764   4.124 -0.7805 -0.1502 -0.3125
 2963SOL    HW120522   0.437   2.805   4.210 -0.4964  0.4995 -0.6530
 2963SOL    HW220523   0.331   2.768   4.111 -0.6882  0.3114 -0.8681
 2964SOL     OW20524   2.225   2.803   5.807 -0.3197 -0.1387 -0.0458
 2964SOL    HW120525   2.143   2.839   5.841 -1.5589 -1.9887 -1.0623
 2964SOL    HW220526   2.200   2.711   5.809  0.5493 -0.3374  1.5277
 2965SOL     OW20527   3.742   2.227  16.911 -0.0053  0.2649  0.3921
 2965SOL    HW120528   3.817   2.217  16.970 -0.2177 -1.2634  0.4029
 2965SOL    HW220529   3.689   2.282  16.968  0.2136  2.2873 -1.3509
 2966SOL     OW20530   3.128   0.671   5.931  0.0135  0.1441  0.5174
 2966SOL    HW120531   3.216   0.637   5.912 -0.6025 -0.7209 -0.8292
 2966SOL    HW220532   3.106   0.644   6.020  1.3962 -1.2570  0.4468
 2967SOL     OW20533   2.308   1.758  15.512 -0.0546 -0.3397 -0.9453
 2967SOL    HW120534   2.325   1.679  15.462  0.3549 -0.0339 -1.2861
 2967SOL    HW220535   2.220   1.779  15.480  1.2925  2.4557 -2.8510
 2968SOL     OW20536   2.214   0.340   6.544  0.1562  0.0661  0.2099
 2968SOL    HW120537   2.178   0.304   6.463 -0.6844  0.1078  0.5650
 2968SOL    HW220538   2.308   0.326   6.533  0.1648 -1.2462  1.9401
 2969SOL     OW20539   1.258   3.825  10.608  0.3147  0.1757  0.1051
 2969SOL    HW120540   1.190   3.784  10.553  0.3069  1.1123 -0.5804
 2969SOL    HW220541   1.213   3.826  10.693  0.9519  2.3333  0.4049
 2970SOL     OW20542   0.650   4.698   8.305  0.2958 -0.4662  0.4543
 2970SOL    HW120543   0.562   4.736   8.297  0.1734 -0.6677  0.8467
 2970SOL    HW220544   0.625   4.606   8.305 -1.1806 -0.0730  0.1187
 2971SOL     OW20545   2.147   0.343   7.717 -0.0740  0.0514 -0.0246
 2971SOL    HW120546   2.116   0.272   7.660  0.8869 -0.9909  0.7710
 2971SOL    HW220547   2.068   0.396   7.706  0.4188  0.1345 -3.1989
 2972SOL     OW20548   0.714   0.420   5.808 -0.4223  0.4408  0.1774
 2972SOL    HW120549   0.628   0.438   5.847  0.2633  2.1076  0.9367
 2972SOL    HW220550   0.774   0.443   5.879  1.4334  0.3371 -1.3612
 2973SOL     OW20551   4.320   4.096   4.023  0.2320 -0.2416 -0.2794
 2973SOL    HW120552   4.263   4.069   3.951 -0.1376  0.4814 -0.2642
 2973SOL    HW220553   4.370   4.021   4.055 -0.0323  0.2816  1.3648
 2974SOL     OW20554   4.220   4.719   8.763 -0.7221 -0.6427 -0.2074
 2974SOL    HW120555   4.159   4.649   8.741 -1.2527 -0.8083  1.7747
 2974SOL    HW220556   4.262   4.736   8.678 -0.6613 -1.5809 -0.3589
 2975SOL     OW20557   3.296   4.713  16.954 -0.3464 -0.6358  0.2395
 2975SOL    HW120558   3.220   4.667  16.919 -0.3559 -0.9827  0.7145
 2975SOL    HW220559   3.375   4.685  16.907  0.5636  0.8254  0.8948
 2976SOL     OW20560   3.972   1.147  13.030  0.2341 -0.8603 -0.0133
 2976SOL    HW120561   4.031   1.082  12.991 -0.8635 -1.5807 -0.4708
 2976SOL    HW220562   4.013   1.156  13.116 -0.4381 -0.2332  0.2303
 2977SOL     OW20563   2.791   2.313   0.181 -0.0611  0.0603 -0.3815
 2977SOL    HW120564   2.751   2.337   0.098 -0.2549  0.0810 -0.2823
 2977SOL    HW220565   2.866   2.265   0.147  0.5863  0.5076  0.4103
 2978SOL     OW20566   0.425   0.967   3.695 -0.6183 -0.1804 -0.0906
 2978SOL    HW120567   0.366   1.000   3.763 -0.2374 -0.1660  0.2340
 2978SOL    HW220568   0.388   0.885   3.665  0.8684 -1.4460  1.5226
 2979SOL     OW20569   0.281   4.608   5.963 -0.5427 -0.1674 -0.4721
 2979SOL    HW120570   0.273   4.677   5.898  0.6783  0.6863  0.2831
 2979SOL    HW220571   0.277   4.662   6.042 -0.6980  0.1063 -0.6699
 2980SOL     OW20572   1.438   1.231   2.518  0.6542  0.3316  0.1698
 2980SOL    HW120573   1.409   1.149   2.478  0.5869 -1.0369  3.0158
 2980SOL    HW220574   1.419   1.295   2.450 -0.9865 -0.6272 -0.2908
 2981SOL     OW20575   4.392   1.260   4.325 -0.0417 -0.1929 -0.3256
 2981SOL    HW120576   4.312   1.299   4.360  0.0313 -0.1156 -0.2434
 2981SOL    HW220577   4.365   1.241   4.236  0.7602  0.1273 -0.6440
 2982SOL     OW20578   3.388   2.743   6.324  0.0100 -0.1688 -0.0350
 2982SOL    HW120579   3.377   2.762   6.230 -0.9216  0.0937  0.1294
 2982SOL    HW220580   3.450   2.671   6.313  2.7654  1.9661  1.8560
 2983SOL     OW20581   3.701   0.360   3.116 -0.3134  0.4702 -0.3862
 2983SOL    HW120582   3.738   0.353   3.028  1.1979 -2.2361  0.4679
 2983SOL    HW220583   3.710   0.453   3.134  2.1329  0.0038  0.8249
 2984SOL     OW20584   1.957   4.035   3.551 -0.8383 -0.1101  0.3751
 2984SOL    HW120585   1.977   4.039   3.457  1.2406 -1.0642  0.7819
 2984SOL    HW220586   2.043   4.009   3.584 -1.0963 -2.8342 -1.1045
 2985SOL     OW20587   0.159   1.503   1.234 -0.2143  0.5786 -0.1679
 2985SOL    HW120588   0.106   1.557   1.293  1.2139  1.6071  0.1628
 2985SOL    HW220589   0.091   1.477   1.172  0.1695 -0.9643  0.0395
 2986SOL     OW20590   2.704   0.225   3.694  0.3387  0.7169 -0.1516
 2986SOL    HW120591   2.652   0.154   3.732 -0.6724  1.2919 -0.4681
 2986SOL    HW220592   2.784   0.214   3.745 -1.4773 -1.9153  2.1383
 2987SOL     OW20593   3.597   2.319   4.464 -0.0901  0.3018  0.3717
 2987SOL    HW120594   3.542   2.330   4.542 -1.5485  1.7620 -0.8577
 2987SOL    HW220595   3.608   2.224   4.458  0.7247  0.6148 -2.6675
 2988SOL     OW20596   3.212   0.824   3.416  0.5251  0.2796  0.3387
 2988SOL    HW120597   3.291   0.827   3.362 -0.9087  0.0548 -1.7644
 2988SOL    HW220598   3.163   0.815   3.334  3.1175 -1.2944 -1.0277
 2989SOL     OW20599   3.025   2.383   2.047  0.2316  0.1281 -0.0569
 2989SOL    HW120600   2.937   2.385   2.010 -0.5071 -0.1328  1.6730
 2989SOL    HW220601   3.033   2.452   2.113 -0.9147 -0.8312  1.0826
 2990SOL     OW20602   1.462   4.270  16.968  0.5989 -0.6834 -0.0146
 2990SOL    HW120603   1.496   4.208  16.904 -0.8096 -0.0700 -1.3652
 2990SOL    HW220604   1.404   4.210  17.015  0.4119 -0.9992 -0.6595
 2991SOL     OW20605   4.287   0.278   6.985 -0.0300  0.2747  0.0348
 2991SOL    HW120606   4.217   0.225   6.949 -0.9815  1.9250 -0.5752
 2991SOL    HW220607   4.361   0.217   6.990  0.0511  0.4071  0.4373
 2992SOL     OW20608   3.130   2.149   3.103 -0.0711  0.2137  0.0818
 2992SOL    HW120609   3.173   2.066   3.124 -0.3054 -0.1996 -1.0474
 2992SOL    HW220610   3.192   2.187   3.042 -0.8048  0.2328 -0.6560
 2993SOL     OW20611   0.928   4.202   8.971  0.2347 -0.2017  0.6210
 2993SOL    HW120612   0.901   4.233   9.057 -0.5767 -1.3945  0.8016
 2993SOL    HW220613   0.946   4.288   8.934  0.3713  0.5138  2.3742
 2994SOL     OW20614   2.744   3.032   3.515 -0.2560 -0.4293  0.4623
 2994SOL    HW120615   2.795   2.955   3.540  0.5017 -0.6500 -1.7337
 2994SOL    HW220616   2.770   3.109   3.566  0.6412 -1.6049  1.7714
 2995SOL     OW20617   1.021   2.995   7.452 -0.1404 -0.6561  0.2995
 2995SOL    HW120618   0.960   3.063   7.481 -0.0320 -0.2009 -0.5412
 2995SOL    HW220619   0.991   2.983   7.362  1.1686 -3.1679  0.1929
 2996SOL     OW20620   1.375   1.731   0.609 -0.3886  0.4181 -0.6164
 2996SOL    HW120621   1.427   1.683   0.674 -0.4303  0.0477 -0.8496
 2996SOL    HW220622   1.386   1.821   0.639 -0.0175  0.5365 -1.0954
 2997SOL     OW20623   2.144   1.299   6.138  0.3310  0.3032 -0.2602
 2997SOL    HW120624   2.091   1.375   6.111 -0.4770 -0.5076 -0.9361
 2997SOL    HW220625   2.106   1.290   6.225  1.3369  0.6983  0.2255
 2998SOL     OW20626   2.349   2.678   2.865 -0.2562  0.0403  0.4050
 2998SOL    HW120627   2.257   2.659   2.845 -1.3924  3.4123  2.3869
 2998SOL    HW220628   2.345   2.681   2.960  1.6935  1.2253  0.4618
 2999SOL     OW20629   1.567   3.491   7.907  0.2851 -0.2415 -0.2848
 2999SOL    HW120630   1.626   3.437   7.959  0.6343  0.2628 -0.1511
 2999SOL    HW220631   1.606   3.486   7.820  0.2964 -0.1059 -0.2887
 3000SOL     OW20632   2.863   4.279  12.429 -0.0864 -0.3416 -0.0336
 3000SOL    HW120633   2.859   4.188  12.399  0.4800  0.0943 -1.4294
 3000SOL    HW220634   2.850   4.266  12.523 -0.8880  1.3012  0.0925
 3001SOL     OW20635   3.647   3.719  13.650 -0.2436  0.5621  0.5209
 3001SOL    HW120636   3.619   3.776  13.721 -0.4917  1.3521 -0.2130
 3001SOL    HW220637   3.627   3.776  13.576  1.6133 -0.6492 -0.9381
 3002SOL     OW20638   2.926   4.288   4.716 -0.0607 -0.0714  0.2700
 3002SOL    HW120639   2.970   4.270   4.632 -0.3983  1.4589 -0.2239
 3002SOL    HW220640   2.864   4.216   4.723  0.7345 -0.7222  0.6388
 3003SOL     OW20641   3.158   1.204   1.867 -0.1887  0.0365 -0.2167
 3003SOL    HW120642   3.127   1.148   1.795 -0.8493  0.2524 -0.1030
 3003SOL    HW220643   3.252   1.203   1.848 -0.1984  2.8979 -0.2758
 3004SOL     OW20644   1.693   2.391   1.702 -0.0981 -0.0163 -0.1908
 3004SOL    HW120645   1.732   2.449   1.768  0.4645 -1.6515  0.8984
 3004SOL    HW220646   1.717   2.303   1.730 -2.5621 -0.2269  1.2714
 3005SOL     OW20647   0.305   4.480   4.218  0.3316 -0.2453  0.2767
 3005SOL    HW120648   0.238   4.536   4.257 -0.9484 -0.0572 -2.1841
 3005SOL    HW220649   0.327   4.431   4.297 -0.8324 -1.6442 -0.2806
 3006SOL     OW20650   2.492   1.482   7.664 -0.4629 -0.0940 -0.1086
 3006SOL    HW120651   2.565   1.541   7.645 -0.8924  0.1038 -1.1447
 3006SOL    HW220652   2.466   1.458   7.574 -2.4162  2.3065 -0.1793
 3007SOL     OW20653   1.370   3.673  13.654  0.1383 -1.0628  0.1523
 3007SOL    HW120654   1.348   3.610  13.585 -1.1330  0.1565 -0.5518
 3007SOL    HW220655   1.464   3.660  13.667 -0.0126 -1.3455  0.9279
 3008SOL     OW20656   3.013   0.556   8.044 -0.6743 -0.2840 -0.7042
 3008SOL    HW120657   2.946   0.587   8.105 -0.4739  0.8000 -1.0435
 3008SOL    HW220658   3.008   0.632   7.987  0.2608  1.1803  1.1941
 3009SOL     OW20659   1.850   3.213   9.781  0.5217  0.5613 -0.3249
 3009SOL    HW120660   1.915   3.147   9.807 -1.8065 -1.2088  0.9587
 3009SOL    HW220661   1.766   3.174   9.803 -0.3221  0.9412 -2.9798
 3010SOL     OW20662   1.390   3.844   7.000 -0.5343  0.1095  0.1644
 3010SOL    HW120663   1.479   3.861   7.033 -0.0867  0.0434 -1.0101
 3010SOL    HW220664   1.361   3.928   6.964 -0.5684  0.1314  0.2431
 3011SOL     OW20665   0.844   2.431   7.053  0.1025  0.3734 -0.0332
 3011SOL    HW120666   0.801   2.348   7.032 -0.5590 -0.0490  3.0259
 3011SOL    HW220667   0.769   2.490   7.063  1.3964  2.3018 -1.6241
 3012SOL     OW20668   3.280   1.916   1.910  0.0601  0.0555  0.3974
 3012SOL    HW120669   3.338   1.952   1.977 -0.7985 -1.1917  1.8059
 3012SOL    HW220670   3.346   1.924   1.842 -2.3541  0.5377 -1.8841
 3013SOL     OW20671   3.986   1.782   6.774  0.5915  0.1230 -0.3230
 3013SOL    HW120672   4.045   1.800   6.847  1.1363 -1.1059 -0.4471
 3013SOL    HW220673   4.042   1.710   6.741 -1.5784 -0.4881 -2.6729
 3014SOL     OW20674   2.750   2.726  11.561  0.5416  0.3278 -0.2231
 3014SOL    HW120675   2.706   2.736  11.645 -0.1929 -1.3434 -0.4039
 3014SOL    HW220676   2.806   2.803  11.551  2.0678 -0.5189  1.7969
 3015SOL     OW20677   4.136   0.593   1.658 -0.0265  0.5287 -0.2619
 3015SOL    HW120678   4.156   0.528   1.725 -0.4152  1.7293  1.0347
 3015SOL    HW220679   4.042   0.608   1.670  0.1745  1.2921  0.3517
 3016SOL     OW20680   1.015   1.057   5.832  0.3314 -0.0321 -0.3218
 3016SOL    HW120681   1.010   1.112   5.753 -2.6774  0.0652 -0.0782
 3016SOL    HW220682   1.095   1.007   5.820  0.1886 -0.1233 -0.8942
 3017SOL     OW20683   0.641   3.846  16.608 -0.2705  0.4261 -0.0275
 3017SOL    HW120684   0.628   3.805  16.694  0.7785 -3.9168 -1.9480
 3017SOL    HW220685   0.671   3.777  16.549 -0.9568 -1.0319  1.3001
 3018SOL     OW20686   3.859   1.546   3.507 -0.4145  0.3528  0.6537
 3018SOL    HW120687   3.901   1.619   3.461  1.0783 -2.3726 -2.3348
 3018SOL    HW220688   3.923   1.537   3.578  1.9160 -1.7811 -1.7382
 3019SOL     OW20689   4.537   4.450  11.481 -0.2957 -0.1941  0.2875
 3019SOL    HW120690   4.538   4.408  11.567 -0.4205 -0.8373 -0.0169
 3019SOL    HW220691   4.586   4.529  11.504 -0.0622 -0.6031  1.2111
 3020SOL     OW20692   4.556   1.379   5.326  0.0812 -0.6392 -0.2030
 3020SOL    HW120693   4.536   1.374   5.420  1.6807  0.6677  0.2029
 3020SOL    HW220694   4.650   1.366   5.325  0.0966 -0.4227 -1.1074
 3021SOL     OW20695   4.435   0.295   2.150 -0.3329  0.1104 -0.1106
 3021SOL    HW120696   4.385   0.333   2.222 -1.0878  1.8271 -1.5173
 3021SOL    HW220697   4.517   0.280   2.197 -1.9138 -1.2625  2.1801
 3022SOL     OW20698   4.568   2.042   8.509 -0.2850 -0.5439 -0.2789
 3022SOL    HW120699   4.484   2.052   8.554 -1.3787 -0.5414 -2.3367
 3022SOL    HW220700   4.540   1.971   8.452  0.3607  2.3222 -4.2140
 3023SOL     OW20701   3.678   2.578   9.032  0.5271 -0.0526 -0.5455
 3023SOL    HW120702   3.716   2.585   8.944 -0.3768 -0.6669 -0.9870
 3023SOL    HW220703   3.587   2.604   9.019 -0.3896 -1.6404  2.6190
 3024SOL     OW20704   3.092   0.160   9.127 -0.0246 -0.0715 -0.0601
 3024SOL    HW120705   3.059   0.213   9.199  1.4229 -0.9377  1.2382
 3024SOL    HW220706   3.057   0.201   9.048 -1.5508  0.5244  0.9310
 3025SOL     OW20707   0.399   3.234  10.541 -0.5659  0.1677 -0.0966
 3025SOL    HW120708   0.304   3.235  10.531 -0.7793  1.3110  1.9789
 3025SOL    HW220709   0.425   3.150  10.504  0.4907  0.5236 -0.1659
 3026SOL     OW20710   0.687   3.722   5.624 -0.2074  0.0514  0.3766
 3026SOL    HW120711   0.623   3.793   5.620 -0.5301 -0.1004  2.8086
 3026SOL    HW220712   0.735   3.721   5.541  1.2663  0.9301  1.2214
 3027SOL     OW20713   0.443   1.672   3.218 -0.3544 -0.5421  0.1852
 3027SOL    HW120714   0.488   1.601   3.265  0.2511 -0.9519 -1.0354
 3027SOL    HW220715   0.349   1.656   3.234 -0.5307 -0.3748 -0.7309
 3028SOL     OW20716   2.715   1.160   7.878  0.2425 -0.3876 -0.2351
 3028SOL    HW120717   2.654   1.197   7.942  2.0471 -0.1335  1.3450
 3028SOL    HW220718   2.655   1.165   7.804  2.0065 -3.6886 -1.8500
 3029SOL     OW20719   1.205   4.508  14.769  0.8999 -0.2882 -0.0826
 3029SOL    HW120720   1.270   4.574  14.793  1.7444 -1.3704  0.5957
 3029SOL    HW220721   1.179   4.533  14.680  1.0803  0.5239  0.0901
 3030SOL     OW20722   2.519   4.327   3.291  0.3333  0.4729  0.1910
 3030SOL    HW120723   2.487   4.413   3.318 -0.2887  0.5220 -0.6819
 3030SOL    HW220724   2.451   4.296   3.231  1.9367 -0.6629 -1.0145
 3031SOL     OW20725   2.982   0.391   5.551  0.7042 -0.6733  0.0151
 3031SOL    HW120726   2.929   0.465   5.580  2.7914  0.7205  0.2663
 3031SOL    HW220727   3.016   0.371   5.638 -2.7852 -2.1397  1.0019
 3032SOL     OW20728   3.525   2.107   5.031 -0.1595 -0.4932  0.2264
 3032SOL    HW120729   3.598   2.168   5.039 -0.5911 -0.5181  4.2730
 3032SOL    HW220730   3.525   2.067   5.118 -0.5513 -3.1656 -1.0011
 3033SOL     OW20731   1.028   0.948   5.512 -0.3246 -0.6210  0.2837
 3033SOL    HW120732   1.101   0.917   5.458  0.4419  3.5156 -1.0628
 3033SOL    HW220733   1.014   0.876   5.574 -1.1116 -1.0728 -0.4181
 3034SOL     OW20734   0.283   4.566   8.932 -0.5918 -0.2536  0.6795
 3034SOL    HW120735   0.304   4.495   8.994  1.0057  1.1141  1.7089
 3034SOL    HW220736   0.205   4.597   8.978 -0.3297  0.8342  0.3757
 3035SOL     OW20737   4.433   3.200  12.462 -0.4409  0.6163  0.2113
 3035SOL    HW120738   4.413   3.195  12.555 -1.2456  1.1074  0.0707
 3035SOL    HW220739   4.514   3.249  12.461  0.4487 -0.8901 -1.4720
 3036SOL     OW20740   4.695   0.545   7.652 -0.0977 -0.3282  0.8978
 3036SOL    HW120741   4.689   0.606   7.726 -1.1862  0.0119  0.5291
 3036SOL    HW220742   4.610   0.506   7.675 -0.1743 -0.4055  0.4772
 3037SOL     OW20743   1.463   1.497   7.366  0.0702 -0.0485  0.2815
 3037SOL    HW120744   1.413   1.496   7.448 -3.0313 -1.2755 -1.6143
 3037SOL    HW220745   1.520   1.571   7.382  0.0928 -0.3082  1.3786
 3038SOL     OW20746   3.786   4.335  11.722 -0.0613  0.1474  0.0131
 3038SOL    HW120747   3.719   4.323  11.654 -0.6575 -1.0549  0.8247
 3038SOL    HW220748   3.810   4.249  11.756 -0.0644  0.1983  0.1423
 3039SOL     OW20749   1.779   4.263   6.483 -0.2072 -0.0408 -0.3757
 3039SOL    HW120750   1.811   4.277   6.572  1.2755 -0.5185 -0.8347
 3039SOL    HW220751   1.828   4.184   6.459 -0.5447  0.0764 -1.4661
 3040SOL     OW20752   0.105   1.504  12.674 -0.0915 -0.5767  0.3448
 3040SOL    HW120753   0.021   1.536  12.706 -0.8064 -0.7985 -1.2934
 3040SOL    HW220754   0.101   1.419  12.719 -3.6802 -0.1021  0.8950
 3041SOL     OW20755   2.341   3.048   8.907  0.6785  0.3973  0.2925
 3041SOL    HW120756   2.248   3.051   8.929  0.6879 -1.3803  0.5364
 3041SOL    HW220757   2.336   3.093   8.822 -1.0504  1.5450  0.9961
 3042SOL     OW20758   0.405   4.686   0.804  0.1356 -0.3400 -0.3354
 3042SOL    HW120759   0.445   4.660   0.721  2.4827 -0.5817  0.8848
 3042SOL    HW220760   0.391   4.602   0.848 -0.5610 -0.3446 -0.5619
 3043SOL     OW20761   1.941   3.450   9.911 -0.2158  0.4844  0.6983
 3043SOL    HW120762   2.024   3.404   9.903 -2.3105 -2.8704 -1.7441
 3043SOL    HW220763   1.876   3.387   9.880  0.8482  0.3387 -1.2607
 3044SOL     OW20764   1.172   2.221   6.414 -0.6722 -0.4786  0.1376
 3044SOL    HW120765   1.155   2.315   6.405  0.2113 -0.6229 -3.0976
 3044SOL    HW220766   1.246   2.218   6.354 -1.9092 -1.4379 -1.3777
 3045SOL     OW20767   1.349   0.320   5.339 -0.2902  0.2848 -0.5986
 3045SOL    HW120768   1.322   0.325   5.248  0.4868 -0.3009 -0.8644
 3045SOL    HW220769   1.287   0.381   5.380 -1.5469 -2.4592  1.6075
 3046SOL     OW20770   2.773   0.589  11.886 -0.1983 -0.0733  0.3324
 3046SOL    HW120771   2.848   0.535  11.859  0.1044  1.3891 -1.7091
 3046SOL    HW220772   2.789   0.604  11.979 -0.6974 -0.5524  0.4963
 3047SOL     OW20773   4.044   2.027  11.828  0.4638 -0.2593  0.1800
 3047SOL    HW120774   4.125   1.979  11.811 -2.3691 -4.7656 -0.6309
 3047SOL    HW220775   4.062   2.116  11.797  1.3437  0.2944  2.2549
 3048SOL     OW20776   1.363   3.319   8.679  1.1432 -0.4674 -0.4208
 3048SOL    HW120777   1.326   3.334   8.766  1.3257 -1.0855 -0.2397
 3048SOL    HW220778   1.420   3.246   8.702  0.4302 -0.5974  0.9474
 3049SOL     OW20779   2.127   2.432  12.952 -0.0217 -0.1868 -0.4932
 3049SOL    HW120780   2.105   2.477  12.870  1.4228  0.1567 -0.6977
 3049SOL    HW220781   2.176   2.356  12.923 -2.5252 -1.4313 -1.4059
 3050SOL     OW20782   1.594   1.410   1.565 -0.6979 -0.0773 -0.3682
 3050SOL    HW120783   1.611   1.339   1.628 -0.8939  1.1921  1.1311
 3050SOL    HW220784   1.573   1.487   1.617  0.5411  0.5958 -0.8790
 3051SOL     OW20785   0.578   0.486   8.891 -0.2089 -0.8785  0.0552
 3051SOL    HW120786   0.596   0.414   8.831  0.0482 -0.0990 -0.7978
 3051SOL    HW220787   0.642   0.461   8.957  0.3860 -0.1966 -0.2661
 3052SOL     OW20788   2.849   0.824   0.410 -0.3527 -0.0935 -0.0175
 3052SOL    HW120789   2.848   0.770   0.488 -3.7165  1.2608  0.8856
 3052SOL    HW220790   2.941   0.827   0.382 -0.4778  2.6337 -0.1872
 3053SOL     OW20791   0.340   2.424   6.665 -0.3603 -0.4498  0.5413
 3053SOL    HW120792   0.390   2.449   6.743  0.7308 -2.4030  0.4691
 3053SOL    HW220793   0.409   2.388   6.610  1.4370  0.0079  2.4731
 3054SOL     OW20794   4.142   0.398   1.869 -0.5678 -0.0018  0.1480
 3054SOL    HW120795   4.157   0.330   1.803 -0.0075  1.4668 -1.2308
 3054SOL    HW220796   4.072   0.360   1.923 -0.4319  1.0650  1.0768
 3055SOL     OW20797   1.061   4.123   4.732  0.1550  0.5854  0.1882
 3055SOL    HW120798   1.116   4.192   4.769 -0.2162  1.4066 -0.7680
 3055SOL    HW220799   0.989   4.138   4.794 -0.6587 -0.1583 -0.5695
 3056SOL     OW20800   0.125   1.392   3.799 -0.7252  0.0963 -0.1378
 3056SOL    HW120801   0.206   1.353   3.832 -0.0207  0.2395 -1.7002
 3056SOL    HW220802   0.078   1.315   3.767 -1.3802  0.0036  1.0399
 3057SOL     OW20803   2.423   0.046   3.572  0.0748 -0.3455 -0.1618
 3057SOL    HW120804   2.478   0.087   3.505 -1.4358 -1.9372 -2.3889
 3057SOL    HW220805   2.490   0.007   3.628 -0.1448  0.1074  0.4236
 3058SOL     OW20806   1.368   3.010   5.462  0.3252  0.1007  0.7493
 3058SOL    HW120807   1.436   3.077   5.472 -0.1316  0.3946  1.8393
 3058SOL    HW220808   1.316   3.016   5.542  0.6417 -1.0443  1.0313
 3059SOL     OW20809   2.251   4.430  13.729  0.6316  0.2575  0.0175
 3059SOL    HW120810   2.244   4.461  13.820 -0.5035  0.8225 -0.2637
 3059SOL    HW220811   2.285   4.508  13.685  0.8497  1.7098  2.6976
 3060SOL     OW20812   1.895   0.982   9.489  0.0804  1.0119  0.6034
 3060SOL    HW120813   1.969   1.044   9.486  2.4149 -1.8635 -0.7249
 3060SOL    HW220814   1.916   0.940   9.572  0.4051  0.1760  0.1016
 3061SOL     OW20815   2.812   0.784  16.646 -0.1434  0.5768 -0.5774
 3061SOL    HW120816   2.811   0.868  16.692  1.7958 -0.0674  0.6483
 3061SOL    HW220817   2.785   0.727  16.718  3.0172  0.1030  0.2222
 3062SOL     OW20818   1.164   0.159   7.345  0.7540 -0.2162  0.6409
 3062SOL    HW120819   1.211   0.094   7.293  0.9668  1.4587 -1.2170
 3062SOL    HW220820   1.235   0.217   7.373 -0.2983  0.4046  2.0252
 3063SOL     OW20821   4.727   1.191   6.235  0.0286 -0.0555  0.1494
 3063SOL    HW120822   4.682   1.109   6.256  1.0034 -0.7740 -0.5311
 3063SOL    HW220823   4.731   1.233   6.321 -3.0539 -0.8721  0.6910
 3064SOL     OW20824   4.469   2.661   2.234  0.4401 -0.0947 -0.0878
 3064SOL    HW120825   4.393   2.605   2.248 -1.8281  2.4869 -2.1455
 3064SOL    HW220826   4.518   2.588   2.197 -0.4531 -0.5656 -0.3246
 3065SOL     OW20827   3.838   3.965   0.157 -0.1485 -0.5850 -0.0054
 3065SOL    HW120828   3.844   3.938   0.066 -1.3606  1.4771 -0.6848
 3065SOL    HW220829   3.753   4.009   0.161 -0.5895 -1.4973  0.8394
 3066SOL     OW20830   3.423   2.022   3.815 -0.1461 -0.0177 -0.0145
 3066SOL    HW120831   3.344   1.971   3.794  0.2842 -0.4578 -0.5579
 3066SOL    HW220832   3.478   1.948   3.839  0.7922  0.5661 -0.3754
 3067SOL     OW20833   3.428   2.637   8.928 -0.1559  0.2694  0.3668
 3067SOL    HW120834   3.366   2.707   8.949 -0.0931 -0.5125  3.2523
 3067SOL    HW220835   3.401   2.607   8.842  1.2118  0.1318 -0.0099
 3068SOL     OW20836   1.071   1.757  11.606 -0.0591 -0.3293  0.6216
 3068SOL    HW120837   0.978   1.775  11.588  0.2197  0.0340 -0.4780
 3068SOL    HW220838   1.101   1.846  11.584 -1.1011  0.4012  2.1650
 3069SOL     OW20839   2.288   0.762   1.164  0.2889 -0.5435 -0.4467
 3069SOL    HW120840   2.208   0.772   1.112  0.6313 -0.6421 -0.9920
 3069SOL    HW220841   2.363   0.758   1.104  0.6416  2.3356 -0.2262
 3070SOL     OW20842   3.086   3.279   7.414 -0.1037 -0.0092  0.8399
 3070SOL    HW120843   3.043   3.331   7.346  0.0266  1.4251  1.8519
 3070SOL    HW220844   3.049   3.192   7.399  1.1013 -0.4188  0.2756
 3071SOL     OW20845   2.273   3.239   4.121 -0.2302 -0.2952 -0.2802
 3071SOL    HW120846   2.352   3.239   4.066  0.3212  0.8839  0.5117
 3071SOL    HW220847   2.311   3.274   4.202  2.8001 -1.3042 -1.2763
 3072SOL     OW20848   2.759   1.180   4.616  0.3077 -0.8326 -0.3788
 3072SOL    HW120849   2.743   1.262   4.663  0.8012 -1.3621  0.7182
 3072SOL    HW220850   2.723   1.110   4.671 -3.0986  1.9562  0.9132
 3073SOL     OW20851   1.906   0.391   6.133  0.1436  0.2614  0.2209
 3073SOL    HW120852   1.897   0.461   6.198 -0.3624 -0.4647  0.9296
 3073SOL    HW220853   1.973   0.332   6.165 -0.1526 -0.7805 -1.0856
 3074SOL     OW20854   2.924   2.850   3.577 -0.1548  0.3776  0.5418
 3074SOL    HW120855   2.902   2.766   3.617 -2.0582  1.2149  1.2736
 3074SOL    HW220856   3.018   2.834   3.585 -0.2683  0.4617  2.1461
 3075SOL     OW20857   4.361   3.617   4.836 -0.0430 -0.5473 -0.0093
 3075SOL    HW120858   4.384   3.524   4.842  0.4166 -0.4822 -0.7464
 3075SOL    HW220859   4.433   3.670   4.870 -0.6281  1.5032 -1.9707
 3076SOL     OW20860   3.594   3.178   3.202  0.2123 -0.0439  0.0689
 3076SOL    HW120861   3.511   3.225   3.191 -0.3806 -0.9065  0.8789
 3076SOL    HW220862   3.565   3.091   3.229  0.8671  0.4084  2.2607
 3077SOL     OW20863   2.635   0.569  13.349  0.1472  0.1050 -0.4163
 3077SOL    HW120864   2.662   0.497  13.405  0.4357  0.4771 -0.0762
 3077SOL    HW220865   2.613   0.630  13.419  1.2558 -1.5382  1.3724
 3078SOL     OW20866   2.597   2.822   5.228 -0.2013  0.0716  0.0959
 3078SOL    HW120867   2.511   2.780   5.224 -0.4787  0.7253 -0.9512
 3078SOL    HW220868   2.626   2.803   5.317 -0.2153 -2.0572 -0.3440
 3079SOL     OW20869   0.493   0.732   2.341  0.5037  0.2501  0.4330
 3079SOL    HW120870   0.507   0.722   2.247 -0.8645  0.7900  0.1808
 3079SOL    HW220871   0.538   0.816   2.351  3.4380 -1.4611  1.7623
 3080SOL     OW20872   1.505   1.954   6.040  0.2083  0.0993 -0.3201
 3080SOL    HW120873   1.595   1.927   6.060 -0.1723  0.9564  2.6241
 3080SOL    HW220874   1.517   2.021   5.973  1.8265  1.1237  0.9899
 3081SOL     OW20875   1.643   3.605  13.606  0.1399  0.2024  0.7585
 3081SOL    HW120876   1.660   3.572  13.518 -0.8814 -0.1852  0.7098
 3081SOL    HW220877   1.727   3.647  13.624  0.7982 -1.4105  1.4945
 3082SOL     OW20878   4.575   3.827   6.051  0.2554 -0.5688  0.6291
 3082SOL    HW120879   4.639   3.777   6.102 -0.8929 -0.0379  2.5885
 3082SOL    HW220880   4.499   3.809   6.106 -0.8160  0.5290 -0.4955
 3083SOL     OW20881   0.185   2.468   2.923  0.0149 -0.0684  0.3303
 3083SOL    HW120882   0.240   2.390   2.921 -1.3192 -0.9936 -0.2053
 3083SOL    HW220883   0.208   2.513   2.842  0.5942 -1.6763 -0.3987
 3084SOL     OW20884   1.583   1.375   2.154 -0.1077  0.0748 -0.5935
 3084SOL    HW120885   1.499   1.391   2.199 -0.3239  1.3643 -1.4665
 3084SOL    HW220886   1.598   1.286   2.186 -0.4105  1.0162  2.1605
 3085SOL     OW20887   1.203   2.027   1.061 -0.2062  0.1456 -0.0599
 3085SOL    HW120888   1.232   2.118   1.058  0.4091 -0.0432  0.1417
 3085SOL    HW220889   1.173   2.013   0.971  0.5063  0.1492 -0.3009
 3086SOL     OW20890   4.534   4.474   3.130 -0.5907 -0.0187  0.0169
 3086SOL    HW120891   4.478   4.400   3.152 -0.9237  1.1600  3.1771
 3086SOL    HW220892   4.525   4.485   3.035  1.9388  0.8745 -0.1280
 3087SOL     OW20893   1.886   3.820   6.969 -0.3915 -0.1141  0.2573
 3087SOL    HW120894   1.831   3.848   7.042  0.2121  1.3424  0.1566
 3087SOL    HW220895   1.974   3.853   6.990 -0.8129  1.7466 -0.9529
 3088SOL     OW20896   2.188   4.605   4.425 -0.4292 -0.5845  0.2663
 3088SOL    HW120897   2.180   4.653   4.343  0.6607  0.4699  0.7755
 3088SOL    HW220898   2.110   4.550   4.429 -0.7676 -0.2207 -1.4861
 3089SOL     OW20899   3.563   4.598  13.689  0.8394 -0.0246  0.0583
 3089SOL    HW120900   3.623   4.528  13.663 -0.7002 -0.0104 -3.4868
 3089SOL    HW220901   3.503   4.610  13.616  2.1215  1.0475 -0.8150
 3090SOL     OW20902   3.972   2.373  17.051  0.1839 -0.3707  0.1939
 3090SOL    HW120903   3.937   2.334  17.131 -1.7737  1.1601  0.0958
 3090SOL    HW220904   3.969   2.467  17.071  0.5015 -0.2065 -0.5393
 3091SOL     OW20905   0.002   3.156   3.066 -0.1949 -0.0471  0.1907
 3091SOL    HW120906   4.699   3.237   3.088 -2.5825 -1.9276  2.3476
 3091SOL    HW220907   0.092   3.187   3.056  0.2658 -1.6434 -0.8010
 3092SOL     OW20908   2.991   1.368   4.252 -0.0393 -0.4263  0.3397
 3092SOL    HW120909   2.972   1.388   4.344 -1.2865 -0.4079  0.0772
 3092SOL    HW220910   3.053   1.440   4.241 -0.9007  0.1455 -0.7701
 3093SOL     OW20911   1.174   2.876   2.038 -0.2154  0.2164 -0.2727
 3093SOL    HW120912   1.091   2.922   2.050 -0.7815 -0.7975 -0.3306
 3093SOL    HW220913   1.235   2.941   2.071 -0.3013 -0.0949  0.4831
 3094SOL     OW20914   1.446   0.021  15.671  0.3105  0.5059 -0.1637
 3094SOL    HW120915   1.430   4.694  15.736  1.0599  0.1514 -0.3477
 3094SOL    HW220916   1.390   4.738  15.598 -1.2464  0.3770  1.0889
 3095SOL     OW20917   3.975   3.302   5.612  0.1959  0.0205  0.1507
 3095SOL    HW120918   3.888   3.339   5.628 -0.5427 -3.2987  3.9167
 3095SOL    HW220919   3.954   3.209   5.615 -1.2314  0.3672  1.3398
 3096SOL     OW20920   2.908   1.587  12.988 -0.2637  0.1763 -0.5154
 3096SOL    HW120921   2.841   1.655  12.977 -0.0881 -0.0557 -3.0591
 3096SOL    HW220922   2.850   1.511  12.995 -1.1217  0.7365 -1.4680
 3097SOL     OW20923   1.399   3.439   6.957 -0.0825  0.3623  0.0943
 3097SOL    HW120924   1.408   3.347   6.931  0.2925 -0.0409  1.6489
 3097SOL    HW220925   1.305   3.451   6.971 -0.3756 -0.8632 -0.7731
 3098SOL     OW20926   3.197   3.216   6.954  0.1518 -0.4484 -0.1292
 3098SOL    HW120927   3.146   3.289   6.919 -1.0692 -1.3155 -0.1502
 3098SOL    HW220928   3.287   3.243   6.936 -0.1084  1.2110  1.0512
 3099SOL     OW20929   1.092   2.859   5.938 -0.1359  0.2034  0.1329
 3099SOL    HW120930   1.034   2.894   6.006  0.5877  1.2575  0.2126
 3099SOL    HW220931   1.032   2.863   5.864  2.1239 -0.4496 -1.7279
 3100SOL     OW20932   2.502   3.569   3.269 -0.4579 -0.1450  0.8518
 3100SOL    HW120933   2.570   3.628   3.236 -0.3976 -0.5237  0.3000
 3100SOL    HW220934   2.427   3.587   3.213 -0.4673 -1.8160  0.3400
 3101SOL     OW20935   0.778   1.439  16.092 -0.4667 -0.0451  0.2920
 3101SOL    HW120936   0.869   1.466  16.104 -1.5929  4.2289 -0.6519
 3101SOL    HW220937   0.732   1.493  16.156 -1.8393 -0.6568 -0.1759
 3102SOL     OW20938   0.786   4.173  12.422 -0.0353 -0.4267 -0.6849
 3102SOL    HW120939   0.826   4.210  12.500  2.0693 -2.6061 -0.6966
 3102SOL    HW220940   0.851   4.197  12.356 -0.3627 -0.3393 -0.9751
 3103SOL     OW20941   0.262   0.368  12.227  0.4484 -0.3236  0.4020
 3103SOL    HW120942   0.304   0.377  12.313  3.1636 -1.2154 -0.8282
 3103SOL    HW220943   0.206   0.294  12.250 -1.8805  0.7011 -1.9307
 3104SOL     OW20944   4.634   4.649   5.018  0.0386 -0.4820  0.4562
 3104SOL    HW120945   4.634   4.738   4.983  1.8744 -0.0661  1.5341
 3104SOL    HW220946   4.682   4.596   4.954  1.1689  1.1070 -0.0287
 3105SOL     OW20947   3.369   3.638  14.314 -0.5640  0.0092 -0.3689
 3105SOL    HW120948   3.282   3.615  14.279  0.1049 -0.5964 -1.6227
 3105SOL    HW220949   3.408   3.674  14.235  1.9295 -1.6507  0.1089
 3106SOL     OW20950   0.586   3.732  12.409  0.1062  0.4526 -0.0641
 3106SOL    HW120951   0.677   3.761  12.417 -0.5843  2.7216 -0.4965
 3106SOL    HW220952   0.604   3.639  12.395 -0.4686  0.3437 -0.0610
 3107SOL     OW20953   1.561   1.416   9.150 -0.4169  0.0508  0.0346
 3107SOL    HW120954   1.625   1.464   9.098  1.3326 -0.9157  1.2804
 3107SOL    HW220955   1.480   1.416   9.100 -0.6756  1.0199  0.4526
 3108SOL     OW20956   3.442   2.582   3.367 -0.6227 -0.2072 -0.3456
 3108SOL    HW120957   3.407   2.507   3.413  1.2377 -1.5179 -1.0430
 3108SOL    HW220958   3.531   2.583   3.402 -0.0965 -1.5129 -1.6233
 3109SOL     OW20959   0.991   1.563  11.098  0.0527 -0.2531  0.0780
 3109SOL    HW120960   1.076   1.605  11.102  0.7161 -1.3457 -2.5211
 3109SOL    HW220961   0.928   1.633  11.112  0.2258  0.3095 -1.9136
 3110SOL     OW20962   0.665   3.860  15.514  0.2147 -0.4831  0.1438
 3110SOL    HW120963   0.665   3.840  15.608  1.4128  2.2913  0.7433
 3110SOL    HW220964   0.710   3.944  15.515 -2.4275  0.9292 -1.0614
 3111SOL     OW20965   0.161   3.679   7.945  0.5298 -0.3749  0.3339
 3111SOL    HW120966   0.187   3.682   7.853  1.0630  1.0117  0.5313
 3111SOL    HW220967   0.087   3.618   7.934 -1.3705  2.4641 -2.6277
 3112SOL     OW20968   3.669   1.518  11.984  0.0362  0.1730 -0.7402
 3112SOL    HW120969   3.576   1.537  11.970 -0.0750  0.3005  0.1875
 3112SOL    HW220970   3.669   1.433  11.940 -1.5942 -0.3964  0.3521
 3113SOL     OW20971   4.738   0.363  14.490 -0.8152  0.3970  0.0198
 3113SOL    HW120972   0.027   0.438  14.439 -0.6143  0.2772 -0.0357
 3113SOL    HW220973   0.076   0.310  14.491  0.3044  2.0798  0.3077
 3114SOL     OW20974   3.195   4.633   8.021  0.4064 -0.1989 -0.5351
 3114SOL    HW120975   3.167   4.690   7.949  1.3371 -0.4586 -1.1092
 3114SOL    HW220976   3.106   4.631   8.055  1.1427 -3.1635  1.2009
 3115SOL     OW20977   4.044   0.163   5.416  0.4289 -0.1247 -0.1435
 3115SOL    HW120978   4.023   0.208   5.334  1.8298  1.2962  0.2573
 3115SOL    HW220979   3.956   0.138   5.441 -0.1176  1.7343 -0.1978
 3116SOL     OW20980   3.055   4.367  15.626  0.3600  0.3243  0.2849
 3116SOL    HW120981   3.063   4.274  15.649  0.3097  0.2900  0.1640
 3116SOL    HW220982   3.087   4.366  15.536  2.7434  2.3287  1.1081
 3117SOL     OW20983   2.018   3.850   1.788 -0.4616  0.2863  0.6213
 3117SOL    HW120984   2.017   3.912   1.715  0.1293 -0.5422 -0.0794
 3117SOL    HW220985   1.972   3.906   1.852  0.0843 -0.2460  1.4807
 3118SOL     OW20986   0.845   4.676  10.697 -0.5652  0.1644 -0.0172
 3118SOL    HW120987   0.788   0.003  10.662 -0.6724 -0.0123 -0.1938
 3118SOL    HW220988   0.812   4.596  10.655  1.7522 -1.5149  1.3762
 3119SOL     OW20989   2.470   0.761   9.646 -0.1239 -0.0060  0.1106
 3119SOL    HW120990   2.405   0.704   9.686  0.1989  0.3821  1.1725
 3119SOL    HW220991   2.554   0.743   9.688 -1.3068 -2.5529  1.3879
 3120SOL     OW20992   1.494   0.233  12.613  0.2509  0.8082  0.0913
 3120SOL    HW120993   1.458   0.315  12.581 -0.5336  0.6183  0.4841
 3120SOL    HW220994   1.448   0.239  12.697 -1.2216 -1.4927 -0.5366
 3121SOL     OW20995   4.107   3.811  17.760 -0.1872  0.2183  0.9231
 3121SOL    HW120996   4.129   3.887   0.050 -0.0014  0.1726  0.9093
 3121SOL    HW220997   4.186   3.761   0.018  0.4169  0.1998 -1.3091
 3122SOL     OW20998   1.684   1.924  13.214  0.2687 -0.2346  0.3058
 3122SOL    HW120999   1.710   1.847  13.266  0.4101 -1.2336 -1.2485
 3122SOL    HW221000   1.767   1.968  13.196 -0.2880  0.7814  0.2509
 3123SOL     OW21001   0.800   1.038  11.856 -0.2026  0.3965  0.2304
 3123SOL    HW121002   0.760   0.956  11.825 -0.4469  0.3706  0.6063
 3123SOL    HW221003   0.878   1.048  11.802  0.5223 -0.6762  1.0677
 3124SOL     OW21004   2.214   3.504   5.427  0.4894  0.1730 -0.6219
 3124SOL    HW121005   2.232   3.595   5.400 -2.1902  0.8288 -0.1768
 3124SOL    HW221006   2.125   3.494   5.393  0.0369 -1.2070  0.9551
 3125SOL     OW21007   0.645   4.135   1.469  0.0593 -0.0597 -0.6854
 3125SOL    HW121008   0.638   4.228   1.492  2.9584 -0.0814  0.2110
 3125SOL    HW221009   0.618   4.097   1.552  0.8468 -1.3587 -1.0279
 3126SOL     OW21010   2.906   2.235   1.683  0.5666 -0.2581  0.3983
 3126SOL    HW121011   2.964   2.298   1.725  0.8923 -1.2692  1.4846
 3126SOL    HW221012   2.965   2.162   1.663  2.0699  1.6739 -2.1131
 3127SOL     OW21013   4.602   3.149   9.172 -0.2761  0.0812  0.2242
 3127SOL    HW121014   4.625   3.070   9.123 -1.5938 -0.9927  1.3174
 3127SOL    HW221015   4.660   3.215   9.134 -0.5194  0.5090  0.5948
 3128SOL     OW21016   3.684   1.713   6.866 -0.1370 -0.2636 -0.5618
 3128SOL    HW121017   3.670   1.807   6.852 -1.4142 -0.4164 -0.3134
 3128SOL    HW221018   3.774   1.728   6.893  0.1653  0.9389 -2.2159
 3129SOL     OW21019   0.365   4.011   6.276 -0.2302 -0.2305  0.1046
 3129SOL    HW121020   0.308   4.038   6.204  1.5211  1.3164 -0.6788
 3129SOL    HW221021   0.299   3.989   6.342 -1.7688 -1.1379 -1.7051
 3130SOL     OW21022   3.708   3.360   7.822 -0.2654  0.2463  0.0327
 3130SOL    HW121023   3.642   3.391   7.884 -2.3078  1.6079 -2.8224
 3130SOL    HW221024   3.684   3.417   7.749 -1.8402  1.7109  1.6727
 3131SOL     OW21025   4.622   3.985   3.737  0.1688  0.1851 -0.2658
 3131SOL    HW121026   4.665   4.009   3.654  1.2025 -1.0029 -0.0755
 3131SOL    HW221027   4.591   3.897   3.715 -2.0530  0.9324 -0.0919
 3132SOL     OW21028   2.742   1.579   4.176  0.3029 -0.2684  0.5518
 3132SOL    HW121029   2.692   1.502   4.152  2.9076 -1.6310 -0.5142
 3132SOL    HW221030   2.790   1.589   4.094  0.4615  0.7013  0.7616
 3133SOL     OW21031   0.958   0.594   3.645 -0.2323 -0.0036  0.2318
 3133SOL    HW121032   0.884   0.581   3.705 -1.1469 -1.9941 -1.3107
 3133SOL    HW221033   1.004   0.511   3.657  0.2832  0.3885  0.9618
 3134SOL     OW21034   1.300   2.829   5.178 -0.4847  0.1594  0.5422
 3134SOL    HW121035   1.237   2.799   5.113  0.7200 -0.5184 -0.3055
 3134SOL    HW221036   1.241   2.877   5.236 -2.3553 -0.8592 -0.5380
 3135SOL     OW21037   0.603   0.807   4.949  0.1776 -0.2154 -0.3209
 3135SOL    HW121038   0.660   0.819   5.025 -0.0387  1.9432 -0.5099
 3135SOL    HW221039   0.627   0.866   4.878  0.9541  2.5820  2.2803
 3136SOL     OW21040   3.223   3.471   3.028  0.3354  0.1585  0.5531
 3136SOL    HW121041   3.142   3.520   3.018 -0.3083 -0.8818  0.6574
 3136SOL    HW221042   3.257   3.497   3.114  1.4901  1.5686 -0.3396
 3137SOL     OW21043   0.207   1.627   5.279 -0.3193 -0.7114 -0.3126
 3137SOL    HW121044   0.241   1.704   5.325  0.5627 -1.1717 -0.1915
 3137SOL    HW221045   0.167   1.662   5.200  0.9895 -1.7807 -1.4555
 3138SOL     OW21046   2.632   2.433   9.353 -0.7723  0.3484  0.0777
 3138SOL    HW121047   2.723   2.432   9.381 -1.1555  1.8901  1.3867
 3138SOL    HW221048   2.618   2.524   9.327 -0.7845  0.3392  0.0519
 3139SOL     OW21049   4.140   1.129   5.428  0.2181  0.3885 -0.7482
 3139SOL    HW121050   4.064   1.074   5.450  0.1806  0.1099 -1.5846
 3139SOL    HW221051   4.146   1.181   5.509  1.2197 -1.0701  0.1042
 3140SOL     OW21052   1.149   1.309   8.294 -0.1759  0.2585  0.2576
 3140SOL    HW121053   1.095   1.388   8.301 -1.4733 -0.5066 -0.8561
 3140SOL    HW221054   1.084   1.241   8.276 -0.3490  0.5540 -0.2454
 3141SOL     OW21055   3.472   4.642   9.744  0.2172 -0.1216  0.0971
 3141SOL    HW121056   3.390   4.629   9.697 -0.4629 -2.5839  2.0258
 3141SOL    HW221057   3.509   4.726   9.716  2.9779 -1.0955  0.8390
 3142SOL     OW21058   1.081   1.756  14.145  0.1524 -0.6099 -0.3682
 3142SOL    HW121059   1.065   1.738  14.238  2.0003  1.8873  0.4164
 3142SOL    HW221060   0.991   1.762  14.111  0.4599  2.0938 -0.6874
 3143SOL     OW21061   2.658   0.947  15.893  0.6744 -0.2907  0.0339
 3143SOL    HW121062   2.622   0.884  15.954  0.6724 -1.0702 -0.7683
 3143SOL    HW221063   2.730   0.896  15.856  0.6330  0.4269 -1.0677
 3144SOL     OW21064   1.276   2.238   5.992 -0.1133 -1.2025 -0.3040
 3144SOL    HW121065   1.195   2.267   6.034 -0.1184  0.6608 -1.6161
 3144SOL    HW221066   1.327   2.203   6.066 -0.2147 -0.6642  0.0179
 3145SOL     OW21067   3.653   1.563   2.369 -0.5008  0.0461  0.2630
 3145SOL    HW121068   3.658   1.606   2.283  1.1242  0.0948  0.3746
 3145SOL    HW221069   3.617   1.475   2.356 -0.6025  0.0847  0.2835
 3146SOL     OW21070   4.351   4.547  10.576  0.5248 -0.4681  0.4949
 3146SOL    HW121071   4.302   4.618  10.618  3.3164  0.9878  1.3300
 3146SOL    HW221072   4.440   4.564  10.606  0.6573  2.4182 -1.5129
 3147SOL     OW21073   2.700   0.830  12.480 -0.2863  0.0712 -0.0028
 3147SOL    HW121074   2.777   0.790  12.440  0.6035  0.0221  1.7328
 3147SOL    HW221075   2.734   0.840  12.569 -1.7118  2.5384  0.2870
 3148SOL     OW21076   0.631   1.153   2.864  0.7492  0.5644 -0.3075
 3148SOL    HW121077   0.608   1.082   2.803 -0.4623  1.6779 -1.1334
 3148SOL    HW221078   0.684   1.208   2.807 -2.1371  1.6604 -1.9129
 3149SOL     OW21079   0.187   1.710   4.901  0.4194  0.0589 -0.3943
 3149SOL    HW121080   0.176   1.630   4.848 -0.6614 -0.1967  0.2045
 3149SOL    HW221081   0.143   1.771   4.842 -1.6498  0.5481  1.6693
 3150SOL     OW21082   4.414   0.078   8.269  0.3356  0.5642  0.4496
 3150SOL    HW121083   4.407   0.163   8.225 -2.3495 -0.5853 -1.3584
 3150SOL    HW221084   4.384   0.016   8.202  1.5491  0.2290  0.2260
 3151SOL     OW21085   3.551   0.154   9.662 -0.0009 -0.2669 -0.5902
 3151SOL    HW121086   3.646   0.154   9.649 -0.0813  0.9975 -1.1623
 3151SOL    HW221087   3.532   0.238   9.704 -0.4689 -0.5388 -0.2555
 3152SOL     OW21088   3.672   4.240   4.861  0.2791  0.0958  0.3322
 3152SOL    HW121089   3.704   4.215   4.774  0.0222  1.5090 -0.1653
 3152SOL    HW221090   3.724   4.317   4.883  2.0180 -0.8638 -0.4216
 3153SOL     OW21091   1.218   2.219  12.472 -0.4799 -0.6145  0.0405
 3153SOL    HW121092   1.193   2.258  12.388  1.6300  0.1278 -0.2429
 3153SOL    HW221093   1.148   2.156  12.491 -1.5402  0.4059 -0.5331
 3154SOL     OW21094   2.937   0.317   8.405  0.4059 -0.8555 -0.3061
 3154SOL    HW121095   2.934   0.297   8.499  1.4331 -2.2035 -0.5736
 3154SOL    HW221096   2.882   0.244   8.377  0.6423 -1.2955  0.3830
 3155SOL     OW21097   3.699   2.591   0.468 -0.3113 -0.4297  0.4040
 3155SOL    HW121098   3.620   2.557   0.512  0.2612 -1.1986  0.8393
 3155SOL    HW221099   3.661   2.620   0.385 -0.9647 -0.8876  0.5398
 3156SOL     OW21100   4.028   1.124   9.610  0.2836 -0.2924 -0.1161
 3156SOL    HW121101   4.094   1.185   9.643 -1.3774  1.0900  0.6644
 3156SOL    HW221102   4.038   1.052   9.673 -0.3163 -0.3756 -0.1102
 3157SOL     OW21103   1.303   2.327   7.709  0.8329 -0.1857 -0.3653
 3157SOL    HW121104   1.236   2.314   7.641  0.6202 -0.8671 -0.0181
 3157SOL    HW221105   1.259   2.295   7.787  2.1541 -1.4967 -0.1467
 3158SOL     OW21106   3.942   3.641  17.651 -0.1176  0.0936 -0.2409
 3158SOL    HW121107   4.006   3.704  17.684 -1.8895  0.3589  2.7268
 3158SOL    HW221108   3.921   3.683  17.568 -0.5421 -1.2697 -0.8239
 3159SOL     OW21109   2.618   0.541   7.304 -0.5027 -0.2878 -0.1139
 3159SOL    HW121110   2.559   0.568   7.233  0.8117 -1.3038 -1.5932
 3159SOL    HW221111   2.700   0.533   7.256 -0.4522  0.6718 -0.2020
 3160SOL     OW21112   1.397   3.024   3.169  0.2006 -0.6335 -0.3197
 3160SOL    HW121113   1.487   3.005   3.141  1.0705  1.1907  1.2411
 3160SOL    HW221114   1.379   2.949   3.225  1.4696  0.7857  2.0174
 3161SOL     OW21115   2.393   2.777   6.464 -0.1194  1.1066  0.0596
 3161SOL    HW121116   2.429   2.820   6.386 -0.7520 -0.9061 -1.3466
 3161SOL    HW221117   2.430   2.825   6.538  1.5400 -0.1241  0.0253
 3162SOL     OW21118   4.051   0.688   8.421 -0.2578 -0.2024 -0.4651
 3162SOL    HW121119   3.964   0.725   8.437  0.7293  2.4404 -1.1548
 3162SOL    HW221120   4.034   0.595   8.404  2.5603 -0.8044  0.0733
 3163SOL     OW21121   1.120   2.577   5.421  0.2825 -0.1741  0.0318
 3163SOL    HW121122   1.135   2.638   5.493  1.4054  2.0536 -2.0888
 3163SOL    HW221123   1.033   2.603   5.390 -0.0188 -1.2086 -0.0082
 3164SOL     OW21124   3.961   4.678  17.058 -0.1806 -0.2025 -0.1440
 3164SOL    HW121125   4.019   0.012  17.060  1.0827 -1.1618 -0.5951
 3164SOL    HW221126   3.874   4.716  17.048 -0.4644 -1.4845 -2.4579
 3165SOL     OW21127   2.046   1.901  14.917  0.1927 -0.2348  0.2322
 3165SOL    HW121128   2.078   1.991  14.923 -0.1054 -0.1789  0.8921
 3165SOL    HW221129   2.010   1.890  15.005 -0.1465  0.1794  0.1459
 3166SOL     OW21130   1.748   1.982   3.563 -0.4922 -0.0901 -0.3999
 3166SOL    HW121131   1.758   2.024   3.648  0.8024  1.7978 -1.4778
 3166SOL    HW221132   1.660   2.015   3.542 -0.1452  0.6475 -0.7055
 3167SOL     OW21133   1.249   4.618   5.222  0.0800  0.0516 -0.0887
 3167SOL    HW121134   1.262   4.601   5.129  3.7830  4.2672 -0.3375
 3167SOL    HW221135   1.307   4.691   5.241 -1.6650  2.2379 -3.1334
 3168SOL     OW21136   3.846   2.270   4.679 -0.3190  0.0581 -0.0768
 3168SOL    HW121137   3.860   2.271   4.584  1.7710  2.0092  0.2407
 3168SOL    HW221138   3.940   2.268   4.695 -0.6314 -0.0086  1.7297
 3169SOL     OW21139   3.126   4.651  13.668 -0.4651 -0.0544 -0.3872
 3169SOL    HW121140   3.119   4.576  13.727  0.6489 -0.1022 -0.3096
 3169SOL    HW221141   3.037   4.655  13.633 -1.2978  0.3623  1.8174
 3170SOL     OW21142   4.356   0.846  16.525 -0.7285  0.1509 -0.3777
 3170SOL    HW121143   4.426   0.909  16.508 -0.3023 -0.7021 -1.7775
 3170SOL    HW221144   4.400   0.781  16.579  1.0367 -0.1714 -2.2081
 3171SOL     OW21145   3.417   1.354   6.567  0.1000  0.0689 -0.4489
 3171SOL    HW121146   3.391   1.262   6.573  1.2589 -0.1469  1.0538
 3171SOL    HW221147   3.449   1.355   6.476  0.0502  1.1118 -0.4623
 3172SOL     OW21148   1.515   3.075   1.532  0.4677 -0.0232  0.5732
 3172SOL    HW121149   1.534   3.143   1.596 -1.6631  2.0766 -1.0353
 3172SOL    HW221150   1.420   3.074   1.544  0.2384  1.2205 -1.2684
 3173SOL     OW21151   1.757   4.669   4.825  0.0804  1.1687  0.2405
 3173SOL    HW121152   1.716   4.582   4.825 -0.7541  1.5663  1.3138
 3173SOL    HW221153   1.698   4.711   4.762 -1.1587 -0.9300 -0.0127
 3174SOL     OW21154   2.426   3.902   6.660  0.3474  0.1045 -0.1251
 3174SOL    HW121155   2.341   3.888   6.618  0.3920  0.9366 -0.5026
 3174SOL    HW221156   2.396   3.917   6.750 -0.2915 -3.1329  0.1853
 3175SOL     OW21157   1.770   2.354  12.187 -0.2337  0.1335 -0.5290
 3175SOL    HW121158   1.698   2.329  12.244 -0.6298 -0.5040 -1.3229
 3175SOL    HW221159   1.781   2.282  12.125  0.5665  0.9855 -1.3823
 3176SOL     OW21160   1.489   0.314   8.636 -0.7431  0.4755 -0.3049
 3176SOL    HW121161   1.421   0.338   8.699  0.9958 -0.1064  1.7759
 3176SOL    HW221162   1.472   0.222   8.618  0.0343  0.9162 -3.3455
 3177SOL     OW21163   4.603   4.016   2.003 -0.5537 -0.4116 -0.8345
 3177SOL    HW121164   4.651   3.947   2.048  2.0667  1.6587 -0.4174
 3177SOL    HW221165   4.520   3.974   2.026 -0.7009 -0.2797 -1.1231
 3178SOL     OW21166   3.673   2.031   4.421  0.3275 -0.0462  0.0463
 3178SOL    HW121167   3.704   1.969   4.487  2.6480  0.1733 -0.8383
 3178SOL    HW221168   3.763   2.040   4.391  0.5138  0.6356  0.8016
 3179SOL     OW21169   3.067   4.061  15.683  0.1180  0.0257  0.2102
 3179SOL    HW121170   3.149   4.089  15.723  1.5198 -2.6319 -0.8123
 3179SOL    HW221171   2.990   4.075  15.738  0.4494  1.8544  0.1911
 3180SOL     OW21172   4.733   0.585   6.396 -0.0600  0.0489  0.0150
 3180SOL    HW121173   0.021   0.502   6.431 -1.6251 -0.0701  1.0538
 3180SOL    HW221174   0.048   0.650   6.439  0.2493  0.6102 -1.2410
 3181SOL     OW21175   2.420   1.324   8.819  0.2718 -0.4069 -0.7679
 3181SOL    HW121176   2.407   1.363   8.905  1.2784 -1.4921 -0.1237
 3181SOL    HW221177   2.351   1.378   8.780 -0.5891  0.2542  1.6829
 3182SOL     OW21178   4.649   2.411   1.557  0.1399 -0.7579  0.0361
 3182SOL    HW121179   4.636   2.381   1.647  2.1569 -1.1825  0.1654
 3182SOL    HW221180   4.716   2.476   1.574 -2.5358  1.3447  2.5882
 3183SOL     OW21181   4.192   0.031   3.528 -0.1366  0.1681  0.0562
 3183SOL    HW121182   4.182   0.087   3.605  1.7235 -1.2194  1.2851
 3183SOL    HW221183   4.103   0.018   3.494 -0.4608  0.2929  0.8623
 3184SOL     OW21184   0.701   3.690   9.296  0.2337 -0.2673 -0.3568
 3184SOL    HW121185   0.752   3.724   9.370 -1.2223  1.0648  0.0308
 3184SOL    HW221186   0.610   3.694   9.326  0.7463 -1.1650  1.3230
 3185SOL     OW21187   0.015   4.239   6.572 -0.5911  0.1254  0.2211
 3185SOL    HW121188   0.056   4.289   6.643  0.8557  2.3618 -2.1808
 3185SOL    HW221189   4.713   4.307   6.520  1.3944  2.4309  1.5431
 3186SOL     OW21190   2.755   1.925   5.841 -0.2795  0.3668  0.0885
 3186SOL    HW121191   2.819   1.935   5.912 -0.1254  2.6618 -0.3640
 3186SOL    HW221192   2.690   1.992   5.865 -2.7941 -2.8648  2.1779
 3187SOL     OW21193   4.331   3.220  12.709  0.6183  0.5625  0.1324
 3187SOL    HW121194   4.245   3.182  12.730  0.7505 -1.4512 -3.0152
 3187SOL    HW221195   4.387   3.175  12.772  2.5168  1.0985 -1.1889
 3188SOL     OW21196   0.397   2.066   5.417  0.0332 -0.0409 -0.8292
 3188SOL    HW121197   0.482   2.107   5.433 -0.1195 -0.2394  0.5164
 3188SOL    HW221198   0.346   2.112   5.484  1.6738 -0.1196  0.4930
 3189SOL     OW21199   4.657   1.664   6.899  0.0107 -0.1282 -0.2429
 3189SOL    HW121200   4.738   1.705   6.931 -0.4661  2.2379 -2.0216
 3189SOL    HW221201   4.596   1.720   6.947  1.0661 -0.5505  1.5936
 3190SOL     OW21202   2.172   3.527   8.877 -0.3810  0.2561  0.2028
 3190SOL    HW121203   2.215   3.606   8.845 -1.5421 -0.0084 -1.9761
 3190SOL    HW221204   2.225   3.502   8.953  1.9801 -2.8934 -2.4536
 3191SOL     OW21205   2.383   1.732   9.788  0.9029  0.4007 -0.1251
 3191SOL    HW121206   2.316   1.676   9.827  0.6037  1.3317  0.6835
 3191SOL    HW221207   2.400   1.802   9.851 -2.8719  1.7653 -0.6198
 3192SOL     OW21208   0.445   3.282   0.898 -0.0639 -0.3235  0.2949
 3192SOL    HW121209   0.492   3.300   0.816 -3.8121  1.1964 -1.5056
 3192SOL    HW221210   0.359   3.311   0.869  0.8173 -1.4983 -3.5321
 3193SOL     OW21211   1.943   1.275   4.765  0.2426 -0.5087  0.6129
 3193SOL    HW121212   1.994   1.278   4.846  2.1214 -1.2929 -0.5449
 3193SOL    HW221213   1.895   1.193   4.779 -2.4075  0.3997 -3.1164
 3194SOL     OW21214   2.079   1.577  11.888  1.0116 -0.1421  0.0672
 3194SOL    HW121215   2.151   1.622  11.843  0.2889 -2.3705 -3.3237
 3194SOL    HW221216   2.082   1.488  11.854 -2.6408  0.2358 -1.3369
 3195SOL     OW21217   2.220   2.014   5.366 -0.3604 -0.1642  0.0346
 3195SOL    HW121218   2.143   1.982   5.318  2.0874 -3.7870 -1.4835
 3195SOL    HW221219   2.187   2.090   5.414 -0.1813 -0.6127  0.8655
 3196SOL     OW21220   3.096   4.560   6.089 -0.0428 -0.0097  0.0810
 3196SOL    HW121221   3.037   4.493   6.124 -0.1235  0.1472  0.2464
 3196SOL    HW221222   3.100   4.531   5.998 -0.1277 -2.2491  0.7908
 3197SOL     OW21223   0.749   2.831   3.315  0.0631  0.1130  0.1769
 3197SOL    HW121224   0.694   2.832   3.393 -0.1538  1.4574  0.0121
 3197SOL    HW221225   0.686   2.814   3.245 -0.7094  0.6545  0.7356
 3198SOL     OW21226   1.637   1.995  15.194 -0.1862  0.0126 -0.0811
 3198SOL    HW121227   1.641   2.050  15.116  0.7039  1.2530  0.8292
 3198SOL    HW221228   1.664   1.912  15.155 -0.8482  0.2193 -0.9586
 3199SOL     OW21229   2.087   1.205  14.549  0.5709 -0.2391  0.4589
 3199SOL    HW121230   2.101   1.196  14.643  1.3633 -2.0713  0.1492
 3199SOL    HW221231   1.995   1.177  14.546  1.1302 -2.1305  0.9764
 3200SOL     OW21232   3.061   4.689   2.403 -0.2252 -0.3678 -0.7087
 3200SOL    HW121233   3.053   4.685   2.499 -1.9787 -0.5493 -0.8631
 3200SOL    HW221234   2.980   4.733   2.380  0.1446  0.0275 -1.2470
 3201SOL     OW21235   0.197   3.590   3.392  1.0012  0.1830  0.6200
 3201SOL    HW121236   0.236   3.649   3.456  0.0113  1.2242  0.2652
 3201SOL    HW221237   0.111   3.587   3.434  1.5531  0.4019  1.7706
 3202SOL     OW21238   1.143   2.972   3.471 -0.8758 -0.5609  0.7097
 3202SOL    HW121239   1.194   2.896   3.500  1.0072 -0.6667 -2.9565
 3202SOL    HW221240   1.082   2.932   3.409  1.7071  1.2091 -2.9444
 3203SOL     OW21241   0.262   2.914   1.515 -0.0598  0.3592 -0.0437
 3203SOL    HW121242   0.345   2.872   1.492  0.8955  2.2452  0.0329
 3203SOL    HW221243   0.201   2.868   1.457  0.0874 -0.5847  0.5413
 3204SOL     OW21244   4.069   4.119   9.554  0.0828  0.0622  0.2552
 3204SOL    HW121245   4.044   4.203   9.594 -0.7453 -0.6437  1.2375
 3204SOL    HW221246   4.044   4.133   9.463 -2.0022 -0.2252  0.7833
 3205SOL     OW21247   3.559   2.392   6.401  0.1287  0.4214  0.4137
 3205SOL    HW121248   3.539   2.326   6.467  0.1109  0.7168  0.7055
 3205SOL    HW221249   3.601   2.465   6.447  0.2728  0.3558  0.3860
 3206SOL     OW21250   0.219   0.867   0.888 -0.2829 -0.1686  0.5188
 3206SOL    HW121251   0.204   0.895   0.798 -2.7169  1.4772  1.4212
 3206SOL    HW221252   0.130   0.859   0.922  0.1675 -0.2228  1.6659
 3207SOL     OW21253   4.300   2.794   8.719  0.1890  0.4024 -0.3477
 3207SOL    HW121254   4.237   2.770   8.787 -1.3150  1.4375 -1.3790
 3207SOL    HW221255   4.376   2.740   8.738  0.5259  0.4765 -1.5002
 3208SOL     OW21256   0.060   0.363   9.896 -0.0992 -0.5971 -0.6340
 3208SOL    HW121257   0.131   0.421   9.923  0.1030 -1.3612  0.4707
 3208SOL    HW221258   0.116   0.297   9.855  1.6944 -0.7750  2.1320
 3209SOL     OW21259   1.833   2.788   2.341  0.6353 -0.1687  0.2600
 3209SOL    HW121260   1.750   2.815   2.302  0.3002  1.3393  1.9966
 3209SOL    HW221261   1.822   2.693   2.345  1.2501 -0.2937 -1.3046
 3210SOL     OW21262   3.332   3.692  17.376  0.7825 -0.3281  0.1562
 3210SOL    HW121263   3.277   3.615  17.365 -3.4270  2.3390  2.6378
 3210SOL    HW221264   3.344   3.721  17.285  1.1389  1.6311  0.8293
 3211SOL     OW21265   3.702   2.077   7.849 -0.2736  0.1253 -0.5964
 3211SOL    HW121266   3.722   2.072   7.756  0.7534 -0.6339 -0.3311
 3211SOL    HW221267   3.720   1.987   7.875  1.2559  0.2497 -1.2325
 3212SOL     OW21268   0.451   4.091   9.872 -0.1267  0.1793 -0.3553
 3212SOL    HW121269   0.405   4.167   9.907  1.1379  2.4521 -3.5294
 3212SOL    HW221270   0.516   4.143   9.823  1.2237 -0.2044  1.0179
 3213SOL     OW21271   2.823   4.057  12.833  0.2223  0.0432 -0.6040
 3213SOL    HW121272   2.767   4.109  12.775 -0.8310  0.6415  0.9348
 3213SOL    HW221273   2.800   4.099  12.916 -0.3945 -0.6138 -0.4484
 3214SOL     OW21274   1.636   1.739   3.758 -0.0745 -0.3344  0.1004
 3214SOL    HW121275   1.724   1.704   3.743 -0.0030 -0.0190 -0.2242
 3214SOL    HW221276   1.621   1.777   3.671 -0.6217  0.3244  0.4896
 3215SOL     OW21277   3.712   1.260   2.474 -0.2183  0.2992  0.6351
 3215SOL    HW121278   3.620   1.287   2.464  0.3278  1.0584 -2.2402
 3215SOL    HW221279   3.737   1.330   2.534 -1.3102  1.2963 -0.0803
 3216SOL     OW21280   2.004   1.236   7.027 -0.2492 -0.4808  0.0909
 3216SOL    HW121281   1.956   1.224   7.109  0.9519  2.1534  1.1664
 3216SOL    HW221282   2.087   1.250   7.072  0.0186  0.0289 -0.5651
 3217SOL     OW21283   3.909   0.191   5.087  0.4858  0.2773  0.4862
 3217SOL    HW121284   3.821   0.220   5.064 -0.1742 -3.2378 -1.3461
 3217SOL    HW221285   3.966   0.233   5.022  0.7664 -1.6519 -0.4991
 3218SOL     OW21286   4.323   4.728   2.172  0.1184  0.2922  0.4024
 3218SOL    HW121287   4.278   0.071   2.173 -0.1861  0.1436 -1.6883
 3218SOL    HW221288   4.316   4.709   2.079  1.4899  0.2700  0.3009
 3219SOL     OW21289   0.689   2.225  12.410 -0.3959 -0.4326  0.4761
 3219SOL    HW121290   0.609   2.202  12.363 -1.3518  1.7823  1.0118
 3219SOL    HW221291   0.680   2.173  12.490  1.4264  0.8733  1.5253
 3220SOL     OW21292   2.198   4.689  10.020  0.0832 -0.6549 -0.2956
 3220SOL    HW121293   2.263   0.004   9.976  2.1918 -1.7223  1.4523
 3220SOL    HW221294   2.207   4.616   9.959  0.5086 -0.6475 -0.2466
 3221SOL     OW21295   1.424   0.340   4.083 -0.2531 -0.6787  0.4166
 3221SOL    HW121296   1.419   0.418   4.138  2.8849  0.4110 -0.8444
 3221SOL    HW221297   1.354   0.361   4.020  0.6078 -0.4728 -0.4641
 3222SOL     OW21298   0.891   4.229   4.940  0.0515 -0.5005 -0.5959
 3222SOL    HW121299   0.906   4.166   5.010 -1.8166 -0.2274  0.0668
 3222SOL    HW221300   0.801   4.257   4.959  0.8069  0.5144  1.4404
 3223SOL     OW21301   1.893   0.456   7.779  0.3239 -0.2563  0.2844
 3223SOL    HW121302   1.894   0.545   7.814  2.0463 -0.4773  0.7954
 3223SOL    HW221303   1.799   0.439   7.770  0.2982  0.0420  0.0028
 3224SOL     OW21304   2.980   3.589  10.644 -0.0594 -0.1198 -0.3580
 3224SOL    HW121305   3.023   3.574  10.559  2.4741  2.1338  0.4958
 3224SOL    HW221306   2.891   3.563  10.622  0.4589 -1.0008 -1.3903
 3225SOL     OW21307   2.128   3.626   3.941 -0.1485 -0.1621 -0.1823
 3225SOL    HW121308   2.193   3.570   3.900 -0.2185 -0.8646  0.6532
 3225SOL    HW221309   2.082   3.662   3.865  0.3797 -0.8670 -0.8279
 3226SOL     OW21310   1.675   0.184   3.426 -0.0837  0.4793 -0.5089
 3226SOL    HW121311   1.702   0.181   3.334  1.9204 -2.1538  0.1273
 3226SOL    HW221312   1.582   0.177   3.409 -0.0186  0.1600 -0.7309
 3227SOL     OW21313   3.554   1.095  16.315  0.4584 -0.1830 -0.4519
 3227SOL    HW121314   3.555   1.020  16.376  1.4723  0.5223  0.3936
 3227SOL    HW221315   3.564   1.174  16.367 -1.7129  0.2648 -0.6921
 3228SOL     OW21316   1.572   0.805   3.703  0.3288  0.5641  0.0594
 3228SOL    HW121317   1.666   0.802   3.719  0.3451  1.0176  0.0519
 3228SOL    HW221318   1.539   0.730   3.753 -1.0010  0.1664 -1.4267
 3229SOL     OW21319   3.911   3.572   2.748  0.0762  0.0688  0.2878
 3229SOL    HW121320   3.848   3.584   2.677  2.7620 -1.2754 -2.3567
 3229SOL    HW221321   3.864   3.565   2.831 -2.2040  0.0556 -1.0049
 3230SOL     OW21322   4.224   1.920  17.678  0.1071  0.2863 -0.1707
 3230SOL    HW121323   4.141   1.903  17.633  0.4441  0.9911 -1.0542
 3230SOL    HW221324   4.201   2.000  17.726 -0.1325 -0.7879  1.5001
 3231SOL     OW21325   3.499   3.121  10.401 -0.0085 -0.0880  0.0106
 3231SOL    HW121326   3.434   3.051  10.402  0.8865 -0.9355 -1.9298
 3231SOL    HW221327   3.470   3.178  10.472  0.4133 -0.8546  0.7904
 3232SOL     OW21328   3.032   4.427   8.877  0.0618  0.3160  0.0008
 3232SOL    HW121329   3.013   4.346   8.924 -0.6987 -1.0731 -2.6705
 3232SOL    HW221330   2.947   4.453   8.841  0.2496  0.1462 -0.5793
 3233SOL     OW21331   1.495   3.814   0.151  0.5761  0.3710  0.1320
 3233SOL    HW121332   1.541   3.786   0.231  0.6784 -0.5800 -0.2594
 3233SOL    HW221333   1.444   3.737   0.126  0.3395  0.7299 -0.4701
 3234SOL     OW21334   2.185   2.530   7.254 -0.3844  0.0098  0.9698
 3234SOL    HW121335   2.217   2.445   7.284  1.7183 -0.0715 -1.4753
 3234SOL    HW221336   2.193   2.517   7.159 -2.3661 -1.6762  1.0472
 3235SOL     OW21337   1.954   2.749   1.377  0.4914  0.0867  0.0075
 3235SOL    HW121338   1.873   2.798   1.393  0.7659  1.0618 -1.5482
 3235SOL    HW221339   1.936   2.680   1.440  0.6995  2.5535  2.7558
 3236SOL     OW21340   2.582   3.064  16.984 -0.6555  0.0472 -0.1425
 3236SOL    HW121341   2.504   3.009  16.974  0.5096 -2.2140  3.2372
 3236SOL    HW221342   2.590   3.086  16.891 -0.4148  0.9342  0.0900
 3237SOL     OW21343   0.080   2.723   6.796 -0.1387  0.2804 -1.0609
 3237SOL    HW121344   0.065   2.805   6.844  2.8055  1.1837 -1.7284
 3237SOL    HW221345   4.730   2.695   6.785  0.6637 -2.3297 -0.9603
 3238SOL     OW21346   2.231   2.538   5.896  0.5017  0.4010 -0.2548
 3238SOL    HW121347   2.199   2.464   5.844 -0.7329  1.8343 -1.5215
 3238SOL    HW221348   2.159   2.567   5.950  1.1741 -0.9118  1.3441
 3239SOL     OW21349   1.612   0.328   7.277 -0.1883  0.4857  0.1463
 3239SOL    HW121350   1.590   0.420   7.269  0.0940  0.4922 -0.5376
 3239SOL    HW221351   1.644   0.307   7.189 -0.2785  2.1874 -0.2819
 3240SOL     OW21352   2.546   2.459   7.684  0.3932  0.1474 -0.1245
 3240SOL    HW121353   2.538   2.553   7.701  0.8056  0.3127 -0.8624
 3240SOL    HW221354   2.474   2.428   7.738  0.2762  0.5409 -0.0559
 3241SOL     OW21355   1.693   4.096   3.559  0.5368  0.4579  0.2640
 3241SOL    HW121356   1.788   4.109   3.562  0.8863 -1.9159 -0.1311
 3241SOL    HW221357   1.674   4.052   3.476  1.0766  1.2314 -0.2680
 3242SOL     OW21358   2.422   4.597  15.259 -0.1250 -0.4426  0.6551
 3242SOL    HW121359   2.372   4.669  15.297 -1.3467 -0.8208 -0.2234
 3242SOL    HW221360   2.436   4.629  15.170 -2.0027 -1.3172  0.0457
 3243SOL     OW21361   1.323   4.346  12.515 -0.1540 -0.1130  0.0797
 3243SOL    HW121362   1.255   4.397  12.470  0.2543  1.6966  1.4930
 3243SOL    HW221363   1.400   4.402  12.528 -1.4723  1.5428  0.6488
 3244SOL     OW21364   1.567   0.938   6.325 -0.4986 -0.0233 -0.4490
 3244SOL    HW121365   1.610   0.877   6.385 -0.7187  0.3936  0.1321
 3244SOL    HW221366   1.475   0.927   6.349 -1.2452  2.4839 -2.1430
 3245SOL     OW21367   0.023   0.639   8.162 -0.3997 -0.6496 -0.4512
 3245SOL    HW121368   0.082   0.699   8.116  1.4761 -2.3566 -0.2699
 3245SOL    HW221369   0.080   0.581   8.211  0.6108  1.4836  0.9215
 3246SOL     OW21370   2.978   2.626   6.854  0.0347 -0.1354 -0.5711
 3246SOL    HW121371   2.927   2.658   6.779 -1.9039  1.7252  1.5336
 3246SOL    HW221372   2.992   2.707   6.903  0.5943  0.0689 -1.0612
 3247SOL     OW21373   0.597   1.588  12.880 -0.3329  0.2832  0.2824
 3247SOL    HW121374   0.630   1.676  12.895  0.5306  0.2665 -1.5739
 3247SOL    HW221375   0.507   1.596  12.913 -0.4548 -1.7940  0.4748
 3248SOL     OW21376   1.064   3.145   3.654  0.1112 -0.4795  0.2284
 3248SOL    HW121377   1.153   3.161   3.685  0.0264  2.3846 -0.9929
 3248SOL    HW221378   1.081   3.087   3.580  0.7234  0.3778 -0.2985
 3249SOL     OW21379   0.628   2.800  16.305  0.7479  0.3958  0.3992
 3249SOL    HW121380   0.710   2.809  16.354  1.8152  0.2111 -1.3385
 3249SOL    HW221381   0.633   2.884  16.261  1.6537  0.4225  0.5512
 3250SOL     OW21382   4.162   2.910   2.266  0.1716 -0.2169  0.2200
 3250SOL    HW121383   4.141   2.938   2.177  1.0976 -1.6635 -0.4528
 3250SOL    HW221384   4.075   2.881   2.294 -1.4897  4.4905 -0.1777
 3251SOL     OW21385   2.438   2.892   9.167 -0.3444 -0.3346 -0.1091
 3251SOL    HW121386   2.436   2.949   9.090 -0.3002 -0.9560 -0.5683
 3251SOL    HW221387   2.419   2.947   9.242  0.8836 -0.7295  0.4947
 3252SOL     OW21388   3.662   1.209   0.131 -0.7095  0.0196  0.1033
 3252SOL    HW121389   3.752   1.235   0.149 -0.1621 -1.2808 -0.7546
 3252SOL    HW221390   3.673   1.164   0.047 -1.5200  1.8703 -1.0170
 3253SOL     OW21391   1.764   4.253  16.931 -0.5585  0.6645 -0.0726
 3253SOL    HW121392   1.696   4.190  16.906  1.0711 -1.3164  0.4377
 3253SOL    HW221393   1.846   4.205  16.919 -1.0640  0.5277 -2.8340
 3254SOL     OW21394   4.653   2.892   5.313  0.5960 -0.2374 -0.5387
 3254SOL    HW121395   4.642   2.973   5.363  1.6693 -1.9009  2.3868
 3254SOL    HW221396   4.574   2.848   5.344 -0.2777  0.6132 -1.5629
 3255SOL     OW21397   2.363   4.574   6.323  0.1173 -0.3748 -0.0995
 3255SOL    HW121398   2.338   4.612   6.239 -0.2796 -0.9890 -0.2560
 3255SOL    HW221399   2.367   4.482   6.297  3.3613 -0.5243  0.8580
 3256SOL     OW21400   0.393   3.749   3.213  0.9367  0.9060 -0.0149
 3256SOL    HW121401   0.324   3.702   3.260  0.6039 -0.0712 -1.4753
 3256SOL    HW221402   0.452   3.674   3.204 -0.3143  0.2039 -2.3956
 3257SOL     OW21403   4.340   3.105   9.176 -0.3176  0.0755 -0.7771
 3257SOL    HW121404   4.435   3.098   9.165 -0.4163  0.2436 -1.7652
 3257SOL    HW221405   4.335   3.195   9.208 -1.1216 -0.6204  1.0654
 3258SOL     OW21406   3.152   3.566   1.612 -0.3561  0.2171  0.9788
 3258SOL    HW121407   3.153   3.559   1.707  0.7632  2.3550  1.1273
 3258SOL    HW221408   3.159   3.660   1.598  0.4683 -0.2567 -1.7635
 3259SOL     OW21409   4.053   4.031   5.171 -0.2958  0.3784 -0.1842
 3259SOL    HW121410   4.061   4.071   5.258  2.5354  1.2880 -0.8735
 3259SOL    HW221411   3.991   4.090   5.128  0.8975  1.7397 -0.0238
 3260SOL     OW21412   1.585   3.611   4.373  0.2316 -0.2508  0.2834
 3260SOL    HW121413   1.595   3.650   4.286 -1.8673  0.5340  0.3835
 3260SOL    HW221414   1.558   3.681   4.433 -0.0470  0.3064 -0.4789
 3261SOL     OW21415   2.374   1.824  15.196  0.4157 -0.1869  0.0528
 3261SOL    HW121416   2.372   1.847  15.289  0.5688  0.4493 -0.1005
 3261SOL    HW221417   2.466   1.831  15.170  0.7866 -0.8974  1.1735
 3262SOL     OW21418   0.748   4.056  10.474  0.3739 -0.0820  0.7011
 3262SOL    HW121419   0.685   4.051  10.547 -1.0695  0.7599 -0.4850
 3262SOL    HW221420   0.817   4.010  10.521  0.3339 -1.8002 -0.9506
 3263SOL     OW21421   0.370   0.078   1.975 -0.9231  0.7804 -0.0465
 3263SOL    HW121422   0.346   0.142   1.909 -1.7069 -0.7295 -1.2150
 3263SOL    HW221423   0.349   0.128   2.054 -0.4899  2.6390 -1.1196
 3264SOL     OW21424   0.052   3.220  16.460  0.1728 -0.5870  0.0351
 3264SOL    HW121425   0.083   3.194  16.546  1.5030  0.3005 -0.1812
 3264SOL    HW221426   4.699   3.220  16.474  0.1143  2.6958 -0.2703
 3265SOL     OW21427   0.387   0.967   4.194 -0.1672 -0.0700 -0.1545
 3265SOL    HW121428   0.449   0.909   4.239  0.1499 -2.2686 -3.4206
 3265SOL    HW221429   0.392   0.922   4.110 -1.0593 -0.7727  0.1812
 3266SOL     OW21430   2.449   3.812   3.583  0.5888  0.0396  0.4320
 3266SOL    HW121431   2.427   3.719   3.581 -0.5485  0.3167 -0.2904
 3266SOL    HW221432   2.517   3.815   3.650 -0.8649 -0.7063  1.9677
 3267SOL     OW21433   0.386   1.095  13.844 -0.1286 -0.0174  0.4946
 3267SOL    HW121434   0.359   1.014  13.802  1.4897 -0.3991  0.2141
 3267SOL    HW221435   0.434   1.053  13.916 -0.3952 -3.0377 -1.1156
 3268SOL     OW21436   1.536   3.146   0.530 -0.0737 -0.1494  0.1212
 3268SOL    HW121437   1.548   3.171   0.622  3.6297 -1.3060 -0.0425
 3268SOL    HW221438   1.627   3.158   0.502 -0.5185 -0.3060 -1.3950
 3269SOL     OW21439   2.813   2.879  10.276  0.3475  0.0014  0.0802
 3269SOL    HW121440   2.787   2.833  10.356  0.0858 -0.8619 -0.5045
 3269SOL    HW221441   2.875   2.940  10.317  0.5040  1.7369 -2.7316
 3270SOL     OW21442   2.848   0.610   1.424 -0.1685 -0.0669 -0.2806
 3270SOL    HW121443   2.895   0.555   1.361 -1.0501 -0.1007 -0.9082
 3270SOL    HW221444   2.816   0.684   1.372  0.9639 -0.1160 -1.0417
 3271SOL     OW21445   1.865   4.579   1.861 -0.0268 -0.4302 -0.0784
 3271SOL    HW121446   1.939   4.529   1.894 -0.1394 -0.8626 -0.4805
 3271SOL    HW221447   1.854   4.554   1.770  0.8502 -2.0717  0.2750
 3272SOL     OW21448   4.014   2.417   5.529  0.3147  0.3810  0.1517
 3272SOL    HW121449   4.065   2.339   5.510 -0.0743  0.0746  0.3527
 3272SOL    HW221450   4.054   2.492   5.484  0.4564  0.5140  0.4987
 3273SOL     OW21451   4.257   0.688  13.069  0.7529 -0.1541 -0.2187
 3273SOL    HW121452   4.285   0.603  13.035  0.1830 -0.0267 -1.0060
 3273SOL    HW221453   4.208   0.717  12.991  0.2977 -0.9853 -0.2445
 3274SOL     OW21454   1.843   4.022  17.628  0.2858  0.1757  0.0793
 3274SOL    HW121455   1.891   4.027  17.545  0.2494  2.1877  0.1824
 3274SOL    HW221456   1.880   4.097  17.676  0.9747  0.2240 -0.5354
 3275SOL     OW21457   3.041   4.392   2.709 -0.2912  0.0614  0.1605
 3275SOL    HW121458   3.051   4.485   2.686  0.9697 -0.2505 -0.5593
 3275SOL    HW221459   2.954   4.380   2.746  0.3509  2.6216  2.5115
 3276SOL     OW21460   3.956   3.430  11.955 -0.4891  0.3105 -0.0949
 3276SOL    HW121461   3.993   3.401  12.039  0.2164  2.1581  0.2417
 3276SOL    HW221462   3.995   3.361  11.902  0.0169  1.3185 -1.0377
 3277SOL     OW21463   2.527   1.692   7.955 -0.4141 -0.0570 -0.0066
 3277SOL    HW121464   2.543   1.774   7.909 -1.0454 -0.2397 -0.5469
 3277SOL    HW221465   2.491   1.631   7.890  2.9773  1.5086 -3.3593
 3278SOL     OW21466   0.847   0.759   4.323  0.2958 -0.0910  0.5951
 3278SOL    HW121467   0.895   0.817   4.264  1.3218  0.5273  2.0340
 3278SOL    HW221468   0.822   0.812   4.399 -1.1689  1.9001 -1.2671
 3279SOL     OW21469   2.460   1.579  15.127 -0.1628  0.1618  0.7262
 3279SOL    HW121470   2.430   1.670  15.132  1.0284  0.6667 -1.0427
 3279SOL    HW221471   2.405   1.531  15.188  0.7353 -0.6865  0.8723
 3280SOL     OW21472   1.797   2.952   1.103  0.5889  0.2288 -0.1453
 3280SOL    HW121473   1.712   2.925   1.068  2.2764 -2.7627 -1.9973
 3280SOL    HW221474   1.777   3.023   1.163  0.6822  0.5817 -0.5332
 3281SOL     OW21475   1.639   1.054   5.926  0.3669  0.0639  0.0418
 3281SOL    HW121476   1.583   1.089   5.995  0.3540 -0.8596  0.4955
 3281SOL    HW221477   1.672   0.973   5.963 -0.7458  0.0774  1.0443
 3282SOL     OW21478   2.142   0.849  16.678 -0.3271  0.1280 -0.0663
 3282SOL    HW121479   2.078   0.824  16.744  0.0367 -0.8788 -0.0950
 3282SOL    HW221480   2.086   0.898  16.618 -0.7072 -1.7558 -1.2657
 3283SOL     OW21481   1.608   3.528   9.448 -0.3323  0.4707 -0.0520
 3283SOL    HW121482   1.685   3.585   9.445 -0.0973  0.1833  0.4687
 3283SOL    HW221483   1.643   3.455   9.500 -1.0789  0.9217  1.1079
 3284SOL     OW21484   2.116   0.966   8.656  0.0851  0.1184  0.0386
 3284SOL    HW121485   2.199   1.009   8.676  0.6024 -0.0157 -1.7911
 3284SOL    HW221486   2.057   1.037   8.682  1.1222  0.9088  0.2171
 3285SOL     OW21487   2.623   3.438   8.270 -0.1860 -0.0958  1.0337
 3285SOL    HW121488   2.596   3.478   8.353 -0.3626  0.7715  0.5560
 3285SOL    HW221489   2.597   3.347   8.282 -0.6440 -0.0884  0.1236
 3286SOL     OW21490   0.079   2.301   5.233  0.0311  0.4308 -0.2143
 3286SOL    HW121491   0.169   2.327   5.253  1.0647 -0.2550 -3.9678
 3286SOL    HW221492   0.042   2.388   5.216  0.3518  0.6901  0.4169
 3287SOL     OW21493   1.510   3.526   5.936  0.8297 -0.2381 -0.1523
 3287SOL    HW121494   1.575   3.580   5.892 -0.1116  0.2714 -0.9374
 3287SOL    HW221495   1.559   3.505   6.015 -1.5368 -0.2750  1.3124
 3288SOL     OW21496   3.227   1.036  12.412  0.6691 -0.7843  0.1735
 3288SOL    HW121497   3.175   1.073  12.483  1.4296 -0.0503  0.3494
 3288SOL    HW221498   3.171   1.035  12.335 -1.0099 -0.5806  1.3996
 3289SOL     OW21499   0.029   2.889   4.332 -0.5435 -0.2641 -0.3604
 3289SOL    HW121500   4.681   2.905   4.361 -0.5915  0.2075 -0.7766
 3289SOL    HW221501   0.069   2.963   4.379 -0.0134  0.1277 -1.4305
 3290SOL     OW21502   3.233   3.967   5.305  0.6441  1.1126 -0.1581
 3290SOL    HW121503   3.325   3.995   5.307  0.1657  2.7309 -0.4360
 3290SOL    HW221504   3.217   3.915   5.383 -1.9121 -0.8644 -2.0144
 3291SOL     OW21505   0.377   0.700   1.508 -0.3413  0.2505 -0.6758
 3291SOL    HW121506   0.388   0.633   1.576 -1.1868  1.0900  0.2791
 3291SOL    HW221507   0.469   0.723   1.492 -0.6431 -0.2821 -3.0728
 3292SOL     OW21508   2.973   2.421   5.722  0.6503 -0.2100 -0.2642
 3292SOL    HW121509   2.996   2.465   5.640  2.1648  1.0835  0.8722
 3292SOL    HW221510   3.056   2.375   5.735  0.6612 -0.6894 -2.0101
 3293SOL     OW21511   0.229   3.423  13.316 -0.2475 -0.2322  0.6954
 3293SOL    HW121512   0.182   3.346  13.348 -0.3445 -0.4712 -0.0265
 3293SOL    HW221513   0.314   3.386  13.340 -0.1303 -0.8873 -0.7525
 3294SOL     OW21514   0.351   0.431  13.481  0.2779 -0.4967 -0.1361
 3294SOL    HW121515   0.309   0.428  13.567 -0.2685  1.7424 -0.3110
 3294SOL    HW221516   0.423   0.489  13.507  0.6918 -0.5460 -1.2021
 3295SOL     OW21517   2.230   4.182   6.157  0.1149 -0.4979  0.3385
 3295SOL    HW121518   2.234   4.107   6.098 -1.0914  1.2652 -1.9953
 3295SOL    HW221519   2.280   4.155   6.234 -1.0214  1.2288  1.6701
 3296SOL     OW21520   2.334   1.129  15.270 -0.3193  0.2904  0.0325
 3296SOL    HW121521   2.354   1.038  15.292  0.9265  1.0938  2.2603
 3296SOL    HW221522   2.426   1.154  15.260 -0.8709  1.6373 -1.7550
 3297SOL     OW21523   2.032   0.394  10.369 -0.4526  0.6348 -0.1278
 3297SOL    HW121524   2.104   0.455  10.354  1.1423 -1.4105 -0.9036
 3297SOL    HW221525   1.958   0.453  10.377 -2.5655 -2.2113  1.2686
 3298SOL     OW21526   1.838   0.965   3.664  1.5051 -0.2773 -0.6082
 3298SOL    HW121527   1.887   0.924   3.736  0.3104 -0.0964  0.3083
 3298SOL    HW221528   1.813   1.048   3.704  1.4223 -0.5080 -0.1784
 3299SOL     OW21529   0.292   1.411  13.639  0.3191  0.0397  0.2640
 3299SOL    HW121530   0.262   1.371  13.557  2.0888  2.5292 -1.5894
 3299SOL    HW221531   0.369   1.354  13.642  1.4506  1.5613 -0.4090
 3300SOL     OW21532   4.599   0.463   7.237  0.1229 -0.1519  0.1784
 3300SOL    HW121533   4.638   0.522   7.301  1.2683 -1.2602  0.4980
 3300SOL    HW221534   4.558   0.396   7.292 -1.6918  0.6251 -0.2432
 3301SOL     OW21535   2.119   3.809   6.755 -0.3310 -0.6747  0.1198
 3301SOL    HW121536   2.120   3.824   6.850 -1.0087 -1.2090  0.2147
 3301SOL    HW221537   2.148   3.718   6.751  0.0239 -0.6087  1.1714
 3302SOL     OW21538   2.381   1.495  15.411 -0.0079  0.1965 -0.0167
 3302SOL    HW121539   2.422   1.454  15.487  0.3563  2.2687  0.8930
 3302SOL    HW221540   2.296   1.452  15.419 -0.6327  1.3932 -0.3419
 3303SOL     OW21541   4.009   3.082   4.251 -0.2140 -0.0091 -0.1645
 3303SOL    HW121542   4.035   3.078   4.159  1.2456 -2.2134  0.3577
 3303SOL    HW221543   4.002   3.177   4.261  0.5034  0.0051  0.1746
 3304SOL     OW21544   1.939   3.277   3.253  0.0693  0.2990  0.1213
 3304SOL    HW121545   1.994   3.302   3.327 -1.6634  1.0962  1.1417
 3304SOL    HW221546   1.894   3.358   3.228 -1.6238 -0.3909  0.8823
 3305SOL     OW21547   2.341   1.669   0.230 -0.5488  0.6084  0.0479
 3305SOL    HW121548   2.399   1.593   0.231  0.3805  1.3315  2.0821
 3305SOL    HW221549   2.375   1.705   0.148 -3.0503  0.5214 -1.0279
 3306SOL     OW21550   2.780   2.855   3.189 -0.2192 -0.2239 -0.0818
 3306SOL    HW121551   2.841   2.859   3.115  2.0981 -0.9880  1.7935
 3306SOL    HW221552   2.778   2.950   3.203 -1.5981 -0.4650  1.3843
 3307SOL     OW21553   2.662   0.676  16.849  0.3077  0.6216 -0.7048
 3307SOL    HW121554   2.612   0.597  16.869 -1.1206  1.7400  0.1945
 3307SOL    HW221555   2.700   0.689  16.936  2.6802 -1.0165 -1.5084
 3308SOL     OW21556   3.259   2.029  16.479  0.2069  0.4926 -0.0156
 3308SOL    HW121557   3.229   1.939  16.467  2.2467 -0.3607  1.2786
 3308SOL    HW221558   3.177   2.058  16.519  0.3022  1.7790 -0.7533
 3309SOL     OW21559   1.332   0.176  10.572  0.1643 -0.1018  0.1494
 3309SOL    HW121560   1.264   0.121  10.611 -0.7510  0.4118 -0.6990
 3309SOL    HW221561   1.354   0.109  10.507 -3.1434 -0.8182 -0.2326
 3310SOL     OW21562   0.396   0.373  15.989 -1.0931 -0.1419  0.6475
 3310SOL    HW121563   0.337   0.382  15.914 -2.2688  0.1246  1.6062
 3310SOL    HW221564   0.481   0.392  15.950 -0.3498  1.0009  2.8384
 3311SOL     OW21565   4.244   1.915   5.011  0.0193 -0.3476  0.1793
 3311SOL    HW121566   4.198   1.983   4.961  0.3686 -0.6761 -0.5889
 3311SOL    HW221567   4.330   1.951   4.987 -0.6052 -0.0121 -1.5780
 3312SOL     OW21568   2.652   0.545   1.950 -0.0498 -0.1535 -0.3482
 3312SOL    HW121569   2.719   0.517   1.887  0.7224  1.7930 -0.4183
 3312SOL    HW221570   2.636   0.625   1.899  4.7720  0.6878 -0.5467
 3313SOL     OW21571   1.133   2.152   1.711 -0.1929  0.7581  0.1118
 3313SOL    HW121572   1.196   2.210   1.756  0.2357  1.7058 -1.7150
 3313SOL    HW221573   1.079   2.217   1.668 -0.4906  1.2085  1.1631
 3314SOL     OW21574   4.649   0.073   9.670 -0.7048 -0.2926  0.1622
 3314SOL    HW121575   4.592   0.106   9.740 -0.5407  0.6835 -0.1730
 3314SOL    HW221576   4.693   0.156   9.656 -0.5423 -0.2028  1.2139
 3315SOL     OW21577   2.663   3.825   9.745 -0.3001 -0.0081 -0.0695
 3315SOL    HW121578   2.755   3.848   9.759 -0.3906 -0.1007  0.6890
 3315SOL    HW221579   2.630   3.807   9.833 -2.4016 -0.0382 -0.8809
 3316SOL     OW21580   0.132   4.247   5.555 -0.7270  0.1765  0.0331
 3316SOL    HW121581   0.071   4.196   5.502 -0.9101 -1.3124  1.6825
 3316SOL    HW221582   0.180   4.285   5.481  0.4620  1.7312  1.5937
 3317SOL     OW21583   0.873   0.979  16.453 -0.1736  0.5416  0.2488
 3317SOL    HW121584   0.814   0.971  16.378  0.0523 -2.5300  0.3999
 3317SOL    HW221585   0.904   1.068  16.438 -2.1163  0.9900 -1.1564
 3318SOL     OW21586   3.112   2.719   9.958 -0.0480 -0.0886 -0.2635
 3318SOL    HW121587   3.146   2.652  10.017 -2.2261 -1.0969 -0.1612
 3318SOL    HW221588   3.054   2.769  10.015  0.4303  2.1607 -1.7348
 3319SOL     OW21589   0.937   2.571  17.246  0.5960 -0.0122  0.6418
 3319SOL    HW121590   0.984   2.608  17.171 -0.2736 -1.5511 -0.6408
 3319SOL    HW221591   0.861   2.526  17.212  0.3653  0.5383  0.4269
 3320SOL     OW21592   0.914   4.198   8.591 -0.4769 -0.1678 -0.6849
 3320SOL    HW121593   0.956   4.112   8.590 -2.4207 -1.1319  1.8865
 3320SOL    HW221594   0.990   4.256   8.596 -0.1699 -0.3597 -3.1824
 3321SOL     OW21595   3.940   2.705  10.187 -0.3346 -0.7860 -0.1814
 3321SOL    HW121596   3.925   2.799  10.198 -1.2648 -0.7793 -1.4863
 3321SOL    HW221597   3.985   2.683  10.268 -1.4294 -0.6195  0.4692
 3322SOL     OW21598   0.167   3.107   6.116  0.0442  0.1812 -0.6081
 3322SOL    HW121599   0.083   3.135   6.080  0.1011  0.0695 -0.8281
 3322SOL    HW221600   0.176   3.023   6.070  0.0756 -0.3360  0.3483
 3323SOL     OW21601   2.675   1.087  13.800  0.1736  0.1957 -0.3050
 3323SOL    HW121602   2.628   1.148  13.745 -1.3010 -1.1575 -0.5465
 3323SOL    HW221603   2.623   1.007  13.810 -0.5410  0.6174 -0.6425
 3324SOL     OW21604   3.885   1.687  17.338 -0.0325  0.1558  0.1950
 3324SOL    HW121605   3.839   1.630  17.400 -1.1392 -0.6156 -1.3101
 3324SOL    HW221606   3.884   1.639  17.255  0.3844 -0.7132  0.6938
 3325SOL     OW21607   0.877   2.160  15.180  0.1704 -0.9990  0.1387
 3325SOL    HW121608   0.941   2.100  15.141  0.6704 -0.5280  0.2449
 3325SOL    HW221609   0.850   2.220  15.111 -1.5690 -1.0165  0.7964
 3326SOL     OW21610   4.555   2.779   9.640  0.0137 -0.0616  0.2670
 3326SOL    HW121611   4.585   2.869   9.654 -0.0762  0.0192 -0.0460
 3326SOL    HW221612   4.626   2.718   9.659 -0.0742 -0.4689 -0.7037
 3327SOL     OW21613   1.928   0.809   3.867 -0.5868 -0.1175 -0.1110
 3327SOL    HW121614   1.933   0.872   3.938 -4.1675  0.9992 -0.8349
 3327SOL    HW221615   1.865   0.743   3.896  3.0088 -4.0959 -1.3317
 3328SOL     OW21616   4.247   0.579   2.780  0.1847 -0.4610 -0.0451
 3328SOL    HW121617   4.166   0.534   2.756 -0.0642  0.7313 -1.4666
 3328SOL    HW221618   4.232   0.673   2.768  3.1236 -0.0813 -0.8006
 3329SOL     OW21619   0.733   1.480   6.337  0.8405  0.3292 -0.0974
 3329SOL    HW121620   0.764   1.418   6.271  1.5568 -1.0757  1.5665
 3329SOL    HW221621   0.781   1.440   6.410 -0.3985 -1.1455 -0.1069
 3330SOL     OW21622   3.202   0.265   4.991  0.5539 -0.4793 -0.2514
 3330SOL    HW121623   3.202   0.176   5.025 -1.7118  0.0856  1.2589
 3330SOL    HW221624   3.111   0.287   4.968 -0.2418 -3.1122  0.4174
 3331SOL     OW21625   2.118   1.567  17.282 -0.8426  0.1627  0.1422
 3331SOL    HW121626   2.075   1.612  17.354  2.1790  3.0852  0.1117
 3331SOL    HW221627   2.074   1.602  17.204 -0.8446 -0.5946 -0.2054
 3332SOL     OW21628   0.550   3.837   7.763 -0.0474 -0.1647 -0.3971
 3332SOL    HW121629   0.519   3.915   7.717 -1.0626  0.2598  0.9992
 3332SOL    HW221630   0.575   3.773   7.696 -0.9597 -0.7671 -0.1638
 3333SOL     OW21631   3.883   0.423   6.794  0.5749 -0.1155 -0.2062
 3333SOL    HW121632   3.949   0.492   6.780  1.6713 -1.2263 -0.4797
 3333SOL    HW221633   3.893   0.364   6.719  1.2876  1.3016 -1.2465
 3334SOL     OW21634   1.109   4.578  10.918 -0.9505  0.0194  0.3402
 3334SOL    HW121635   1.016   4.587  10.938 -0.5732 -0.3359  2.2030
 3334SOL    HW221636   1.101   4.522  10.840 -1.5375  2.4870 -1.3769
 3335SOL     OW21637   3.283   3.165   3.206 -0.0773  0.0210  0.6068
 3335SOL    HW121638   3.188   3.152   3.212 -0.1606  0.2843 -0.0760
 3335SOL    HW221639   3.300   3.157   3.112 -1.6126 -2.6580  0.5421
 3336SOL     OW21640   0.345   0.825  12.922  0.0740  0.1248 -0.0765
 3336SOL    HW121641   0.439   0.809  12.911  0.4649  0.3550  2.9975
 3336SOL    HW221642   0.317   0.748  12.971 -0.4681  0.8689  0.7854
 3337SOL     OW21643   0.819   3.267  12.110 -0.0876 -0.5204 -0.3079
 3337SOL    HW121644   0.733   3.270  12.067  0.4451  1.9203 -1.1935
 3337SOL    HW221645   0.804   3.230  12.197  0.4992  0.1640  0.0815
 3338SOL     OW21646   0.414   2.735   3.793 -0.1864 -0.3269  0.8094
 3338SOL    HW121647   0.473   2.715   3.865 -0.9320  2.9782  2.3216
 3338SOL    HW221648   0.339   2.690   3.831  0.5020 -1.2207  1.1059
 3339SOL     OW21649   4.652   3.591   4.591 -0.4716 -0.6931 -0.0137
 3339SOL    HW121650   4.651   3.679   4.629  1.5083 -1.3637  1.6343
 3339SOL    HW221651   4.645   3.544   4.674  0.0437 -1.3362 -0.3292
 3340SOL     OW21652   1.432   1.083   8.937 -0.8968  0.5323 -0.2089
 3340SOL    HW121653   1.469   1.101   8.850 -0.1858  0.9970  0.1890
 3340SOL    HW221654   1.353   1.038   8.907 -0.5728  0.8741 -1.5922
 3341SOL     OW21655   4.522   0.631   3.707  0.1232  0.7295  0.5469
 3341SOL    HW121656   4.574   0.552   3.718 -2.3477 -1.0729 -0.7486
 3341SOL    HW221657   4.583   0.699   3.680  0.5014  1.5541  3.5240
 3342SOL     OW21658   3.381   1.842   4.287  0.2868 -0.3234  0.0357
 3342SOL    HW121659   3.321   1.865   4.359  0.4364  2.2696 -0.6914
 3342SOL    HW221660   3.399   1.749   4.300  0.5852 -0.4023 -1.0152
 3343SOL     OW21661   0.901   2.989   8.454 -0.4308 -0.0404  0.8317
 3343SOL    HW121662   0.886   3.080   8.428 -0.2377 -0.6874 -1.5577
 3343SOL    HW221663   0.936   3.005   8.541  0.5515  0.8681  0.2623
 3344SOL     OW21664   2.198   1.333   3.390 -0.2059 -0.4732 -0.2255
 3344SOL    HW121665   2.212   1.262   3.454 -0.5110  1.2483  1.7516
 3344SOL    HW221666   2.279   1.383   3.384 -1.2610  1.2427 -0.1287
 3345SOL     OW21667   0.368   0.288   6.785  0.1993  0.4652 -0.7538
 3345SOL    HW121668   0.398   0.197   6.789  0.4119  0.5318 -0.8812
 3345SOL    HW221669   0.369   0.296   6.690  0.9399 -2.0760 -0.9557
 3346SOL     OW21670   2.378   2.990   1.972  0.0469 -0.1346  0.4141
 3346SOL    HW121671   2.306   3.029   2.021 -1.8599 -2.2287 -0.7341
 3346SOL    HW221672   2.438   3.063   1.955 -1.0798  0.4746 -0.9676
 3347SOL     OW21673   1.400   4.329  15.857 -0.1582 -0.2173 -0.3834
 3347SOL    HW121674   1.469   4.276  15.819 -0.0242 -0.8499  0.7422
 3347SOL    HW221675   1.329   4.265  15.868 -0.0435 -0.5020 -1.3296
 3348SOL     OW21676   2.076   1.579   8.430  0.3709  0.1162  0.2617
 3348SOL    HW121677   2.138   1.550   8.363 -2.6401 -0.9378 -2.0345
 3348SOL    HW221678   2.014   1.618   8.367 -0.4471 -0.2068  0.8751
 3349SOL     OW21679   2.942   2.553   9.164 -0.4519 -0.2974 -0.0220
 3349SOL    HW121680   2.917   2.471   9.120 -0.3299 -0.4023  0.1051
 3349SOL    HW221681   2.883   2.555   9.240  0.6249 -0.5459  0.8150
 3350SOL     OW21682   1.332   0.269   7.150 -0.2088 -0.1882 -0.5124
 3350SOL    HW121683   1.368   0.187   7.115  0.8057  0.4175 -0.9015
 3350SOL    HW221684   1.238   0.263   7.133 -0.1507  0.3292 -1.0191
 3351SOL     OW21685   2.001   4.168   4.961 -0.2877  0.9621  0.0110
 3351SOL    HW121686   1.991   4.248   5.012  0.3063 -0.2345  2.0013
 3351SOL    HW221687   2.051   4.117   5.025 -0.4170  1.3478  0.4136
 3352SOL     OW21688   4.630   3.179   6.014  0.2131  0.0101 -0.9756
 3352SOL    HW121689   4.551   3.232   6.027 -0.0856 -0.2409 -1.7647
 3352SOL    HW221690   4.600   3.094   5.981 -0.3889 -0.3047  0.4007
 3353SOL     OW21691   4.546   2.730   3.789  0.4115 -0.1780 -0.9067
 3353SOL    HW121692   4.528   2.644   3.827  1.7888 -0.0758 -0.0066
 3353SOL    HW221693   4.570   2.711   3.699  0.5737  2.7036 -1.4842
 3354SOL     OW21694   0.367   1.199  10.034  0.0944  0.0686 -0.5701
 3354SOL    HW121695   0.296   1.204  10.097  1.6987 -2.1454  1.4272
 3354SOL    HW221696   0.313   1.219   9.958  0.7358 -0.5218 -1.1815
 3355SOL     OW21697   2.168   4.605   5.163 -0.1502 -0.1774 -0.2219
 3355SOL    HW121698   2.201   4.592   5.074  0.9736  0.6269  0.0751
 3355SOL    HW221699   2.097   4.668   5.147 -1.0695 -1.0398  0.4697
 3356SOL     OW21700   3.581   0.739   2.983 -0.3096  0.6842  0.9552
 3356SOL    HW121701   3.555   0.661   2.934 -0.4236  1.0361  0.4582
 3356SOL    HW221702   3.575   0.803   2.912 -0.7734 -1.1278 -0.6306
 3357SOL     OW21703   4.643   1.229   7.820 -0.1378  0.1373 -0.3152
 3357SOL    HW121704   4.650   1.289   7.895 -0.8588  0.5771 -0.6031
 3357SOL    HW221705   4.734   1.242   7.792  0.2452 -0.7834  0.5107
 3358SOL     OW21706   2.642   2.617   5.876  0.4911 -0.0353  0.0707
 3358SOL    HW121707   2.561   2.632   5.827  2.7577  2.0827 -3.0366
 3358SOL    HW221708   2.600   2.558   5.938 -0.5549 -0.0247 -0.6097
 3359SOL     OW21709   4.603   4.367   7.096  0.1893 -0.2069  0.0074
 3359SOL    HW121710   4.529   4.310   7.116  0.1631 -0.7767 -1.7261
 3359SOL    HW221711   4.572   4.434   7.035 -0.8705  0.1636  0.9617
 3360SOL     OW21712   4.045   0.710  12.902 -0.2410 -0.3820  0.1910
 3360SOL    HW121713   3.978   0.768  12.866 -1.4332 -1.3369  0.8659
 3360SOL    HW221714   3.994   0.668  12.971  1.6411  1.0450  2.4253
 3361SOL     OW21715   3.137   2.395   1.726  0.0564 -0.2776 -0.1015
 3361SOL    HW121716   3.181   2.329   1.779  2.7880  1.4425 -0.2633
 3361SOL    HW221717   3.202   2.465   1.729  0.4253 -0.5970 -0.7528
 3362SOL     OW21718   0.811   3.785   6.426 -0.0935 -0.1273  0.3956
 3362SOL    HW121719   0.814   3.880   6.415 -1.3674 -0.0926  0.4372
 3362SOL    HW221720   0.726   3.758   6.391  0.1658  0.5190 -0.7084
 3363SOL     OW21721   1.290   3.702   8.793 -0.0762  0.4284  0.3180
 3363SOL    HW121722   1.339   3.686   8.873 -0.9998  1.6606  1.1286
 3363SOL    HW221723   1.211   3.740   8.831 -0.5281 -2.4725  2.2621
 3364SOL     OW21724   3.941   0.575  13.118  0.5791  0.2571 -0.2509
 3364SOL    HW121725   3.986   0.574  13.203  1.6966  0.0685 -0.8393
 3364SOL    HW221726   3.906   0.486  13.117  0.9531  0.1033  0.2947
 3365SOL     OW21727   0.160   2.270   6.795 -0.6171  0.7143 -0.0519
 3365SOL    HW121728   0.226   2.319   6.747  0.6952 -0.7911  0.1912
 3365SOL    HW221729   0.136   2.342   6.853  0.2995 -1.5097  3.0937
 3366SOL     OW21730   1.537   3.131  13.880 -0.2491 -0.1024 -0.4273
 3366SOL    HW121731   1.489   3.210  13.855 -1.0794 -0.6977 -0.7229
 3366SOL    HW221732   1.524   3.082  13.799 -2.2834 -0.7189  0.2751
 3367SOL     OW21733   0.586   2.804   3.119  0.0728 -0.5709  0.3491
 3367SOL    HW121734   0.616   2.872   3.058  0.9991 -1.0235  0.2973
 3367SOL    HW221735   0.498   2.787   3.085  0.5396 -0.3344 -0.9976
 3368SOL     OW21736   1.724   0.456   6.630 -0.7080  0.0489 -0.0144
 3368SOL    HW121737   1.728   0.370   6.672  0.6549 -0.7224 -1.7134
 3368SOL    HW221738   1.813   0.491   6.633 -1.0358  0.6857  1.8868
 3369SOL     OW21739   0.940   4.483   6.376  0.2608  0.4469  0.2813
 3369SOL    HW121740   1.011   4.420   6.362  0.5891  1.2895 -1.9283
 3369SOL    HW221741   0.985   4.555   6.420 -2.8706  2.9881 -0.7725
 3370SOL     OW21742   3.078   3.343   5.572 -0.7835 -0.5370 -0.2047
 3370SOL    HW121743   3.096   3.266   5.625  1.6405  1.2515  1.5032
 3370SOL    HW221744   2.986   3.329   5.549 -0.4923 -0.7635 -1.2732
 3371SOL     OW21745   4.199   0.209   3.728 -0.0629 -0.5139  0.0389
 3371SOL    HW121746   4.261   0.253   3.787  0.0394 -0.3459 -0.1961
 3371SOL    HW221747   4.126   0.271   3.723  1.1647  0.7721 -1.7302
 3372SOL     OW21748   1.770   4.634   4.108  0.1304  0.4973  0.0108
 3372SOL    HW121749   1.693   4.674   4.068 -0.1513 -0.4051 -0.3362
 3372SOL    HW221750   1.733   4.547   4.123  2.4736 -0.9209 -2.6676
 3373SOL     OW21751   2.226   2.922  10.080 -0.2353 -0.0877  0.3231
 3373SOL    HW121752   2.250   2.871  10.157 -1.7430 -2.6945 -0.9333
 3373SOL    HW221753   2.250   2.866  10.006  1.3234  1.4153 -0.3150
 3374SOL     OW21754   0.761   1.292  11.512  0.2377 -0.4870  0.2337
 3374SOL    HW121755   0.772   1.317  11.604  0.2124  0.1176  0.0720
 3374SOL    HW221756   0.808   1.368  11.476  1.8763 -2.7814 -2.4356
 3375SOL     OW21757   2.134   0.125   7.911  0.3981  0.0911 -0.3260
 3375SOL    HW121758   2.077   0.188   7.869 -0.4097  0.0655  0.7299
 3375SOL    HW221759   2.201   0.132   7.843  0.2414  1.0698 -0.3802
 3376SOL     OW21760   3.940   1.768   3.387 -0.1150 -0.2695  0.4547
 3376SOL    HW121761   3.939   1.766   3.291  0.9340 -0.3050  0.4422
 3376SOL    HW221762   4.030   1.796   3.404  0.7001 -2.2560 -0.6223
 3377SOL     OW21763   1.203   4.215   5.318 -0.0495 -0.3058 -0.2459
 3377SOL    HW121764   1.111   4.218   5.292 -0.5460  0.1758  1.5729
 3377SOL    HW221765   1.186   4.178   5.405 -0.9359  2.4034  0.7231
 3378SOL     OW21766   4.223   0.180  16.733  0.5238 -0.1730  0.1854
 3378SOL    HW121767   4.207   0.169  16.827 -4.6193 -2.1440 -0.9174
 3378SOL    HW221768   4.131   0.191  16.709  0.2232 -1.8131  0.5880
 3379SOL     OW21769   0.104   4.475  16.652 -0.3647 -0.5700 -0.1895
 3379SOL    HW121770   0.126   4.534  16.580  1.9504 -2.6860 -1.2320
 3379SOL    HW221771   0.045   4.536  16.697 -1.2116 -1.8072  0.3756
 3380SOL     OW21772   2.581   4.293   3.890  0.3999 -0.4602  0.5925
 3380SOL    HW121773   2.565   4.230   3.960  1.2482 -0.6927  0.5798
 3380SOL    HW221774   2.488   4.315   3.879  0.0366 -1.9312  0.6656
 3381SOL     OW21775   1.639   1.070   7.188 -0.0225 -0.0172 -0.2920
 3381SOL    HW121776   1.573   1.121   7.236  1.3996  0.3011  1.3304
 3381SOL    HW221777   1.718   1.116   7.216 -0.3302  0.3362 -0.0070
 3382SOL     OW21778   3.321   0.761   5.052  0.5496  0.5705  0.6845
 3382SOL    HW121779   3.316   0.805   4.967  0.3271 -0.0271  0.3879
 3382SOL    HW221780   3.276   0.831   5.099 -1.8344 -0.4279 -0.1041
 3383SOL     OW21781   2.774   1.874   1.693 -0.7057  0.3772 -0.1889
 3383SOL    HW121782   2.857   1.903   1.732 -0.5636  0.4266 -0.5297
 3383SOL    HW221783   2.801   1.854   1.604  0.6857 -0.4918  0.4168
 3384SOL     OW21784   2.395   1.333  12.803  0.0372 -0.1234 -0.4118
 3384SOL    HW121785   2.382   1.389  12.727 -0.4240 -0.7326 -0.7791
 3384SOL    HW221786   2.360   1.390  12.872  0.5049  0.7120 -0.8701
 3385SOL     OW21787   1.939   0.052   9.665 -0.4032  0.0641  0.1385
 3385SOL    HW121788   1.853   0.043   9.707 -1.1644  3.9342 -0.5508
 3385SOL    HW221789   1.971   4.715   9.709  1.8707  0.0162 -1.6232
 3386SOL     OW21790   0.722   1.062  14.886 -0.8972  0.2710  0.2789
 3386SOL    HW121791   0.797   1.003  14.896  0.0120  0.9319 -2.7041
 3386SOL    HW221792   0.702   1.038  14.795  0.9687  1.2910 -0.3963
 3387SOL     OW21793   0.288   4.710   6.787  0.1743 -0.5198  0.2490
 3387SOL    HW121794   0.253   4.708   6.877 -1.1062  0.0919 -0.2316
 3387SOL    HW221795   0.383   4.702   6.793 -0.0446 -0.5455  3.7702
 3388SOL     OW21796   3.297   4.659  17.448  0.7609  0.1753 -0.2361
 3388SOL    HW121797   3.210   4.651  17.409  0.3752  0.2699  0.6128
 3388SOL    HW221798   3.362   4.621  17.388  1.8792 -1.4053  2.0088
 3389SOL     OW21799   2.516   4.400   9.778 -0.3379 -0.3573  0.2450
 3389SOL    HW121800   2.574   4.448   9.837 -0.2603  0.7680 -0.7314
 3389SOL    HW221801   2.559   4.389   9.693 -2.1186 -3.3094 -0.2604
 3390SOL     OW21802   3.025   3.656  16.492 -0.1923  0.3539  0.5151
 3390SOL    HW121803   2.950   3.637  16.435 -0.6795 -3.6268  2.4516
 3390SOL    HW221804   3.037   3.575  16.541 -1.3809  0.3384  0.7933
 3391SOL     OW21805   1.493   2.547  12.034 -0.1753  0.2649  0.0016
 3391SOL    HW121806   1.413   2.600  12.026 -0.2654 -0.0450 -1.1606
 3391SOL    HW221807   1.540   2.589  11.962  0.8057 -1.3872 -0.3326
 3392SOL     OW21808   2.955   0.875   5.903  0.6489  0.0502 -0.6095
 3392SOL    HW121809   3.020   0.805   5.890 -2.1142 -2.6387  0.1646
 3392SOL    HW221810   3.001   0.944   5.951 -0.6941  0.7345 -0.3234
 3393SOL     OW21811   0.116   3.197  12.753 -0.5931 -0.5498  0.6036
 3393SOL    HW121812   0.146   3.112  12.784 -1.6851 -1.2649 -0.3149
 3393SOL    HW221813   0.135   3.189  12.659 -1.6398 -0.6123  0.3913
 3394SOL     OW21814   0.174   3.121   4.369 -0.4508  0.5098  0.1360
 3394SOL    HW121815   0.150   3.155   4.283 -0.6372  0.2016  0.0706
 3394SOL    HW221816   0.242   3.184   4.395 -1.0250  0.3796  1.9383
 3395SOL     OW21817   2.250   4.008  13.331  0.2173  0.7363 -0.1861
 3395SOL    HW121818   2.316   3.961  13.280  0.0669  1.1850 -0.7970
 3395SOL    HW221819   2.262   3.987  13.424  2.9197  1.9469 -0.2467
 3396SOL     OW21820   3.205   2.276   5.413 -0.1474  0.1034 -0.1079
 3396SOL    HW121821   3.155   2.355   5.390  0.1284  1.3344  3.5100
 3396SOL    HW221822   3.149   2.226   5.472  0.1799  0.3205  0.3837
 3397SOL     OW21823   1.127   4.223  16.737 -0.3563  0.1885  0.7503
 3397SOL    HW121824   1.142   4.129  16.726  1.9539  0.5169  0.9906
 3397SOL    HW221825   1.186   4.257  16.669 -0.8839  2.0816  1.2419
 3398SOL     OW21826   1.352   3.489   4.616 -0.3267  0.1598 -0.2439
 3398SOL    HW121827   1.381   3.408   4.574  3.3351  0.5523  1.5696
 3398SOL    HW221828   1.431   3.501   4.668 -1.0208 -1.6761  1.2378
 3399SOL     OW21829   2.184   3.919  12.084  0.1492  0.3120  0.1474
 3399SOL    HW121830   2.213   3.839  12.040 -0.2737 -1.2449  2.7094
 3399SOL    HW221831   2.153   3.959  12.003  0.5343 -1.1985 -0.7509
 3400SOL     OW21832   4.607   4.730   1.408 -0.3271 -0.3193 -0.0993
 3400SOL    HW121833   4.577   4.643   1.433 -1.0150 -0.6536 -2.0631
 3400SOL    HW221834   4.691   4.724   1.455  0.3787  0.0228 -1.3071
 3401SOL     OW21835   1.336   0.963   6.975  0.2016  0.1634  0.3957
 3401SOL    HW121836   1.431   0.953   6.963  0.0452  0.6098 -1.2625
 3401SOL    HW221837   1.324   0.896   7.042 -0.8067  0.9876  1.0297
 3402SOL     OW21838   3.732   0.296   4.141 -0.6853  0.2433 -0.2844
 3402SOL    HW121839   3.727   0.354   4.065  0.3126 -0.6981 -1.0647
 3402SOL    HW221840   3.639   0.272   4.147 -0.7370  0.7290  0.9764
 3403SOL     OW21841   2.814   1.698   7.293 -0.0006  0.0471  0.5072
 3403SOL    HW121842   2.794   1.608   7.267 -2.6825  0.4698  1.0647
 3403SOL    HW221843   2.909   1.695   7.281 -0.1993 -1.7536 -0.4562
 3404SOL     OW21844   3.234   2.936   2.323  0.2809 -0.6106  0.2589
 3404SOL    HW121845   3.311   2.894   2.361 -0.0635  1.1563  2.8880
 3404SOL    HW221846   3.217   3.013   2.377 -0.7039 -1.1926  0.7493
 3405SOL     OW21847   2.292   2.909  13.334 -0.3468  0.3328  0.3744
 3405SOL    HW121848   2.198   2.909  13.353 -0.7784 -1.0948 -1.6870
 3405SOL    HW221849   2.292   2.832  13.277 -2.3771  0.3429  0.3654
 3406SOL     OW21850   3.773   0.407   3.683  0.0545 -0.1529 -0.2624
 3406SOL    HW121851   3.861   0.404   3.646 -0.1512 -2.1136 -0.5669
 3406SOL    HW221852   3.724   0.479   3.642  1.5005  1.7074  1.2510
 3407SOL     OW21853   0.179   0.168   9.188  0.3352  0.4934  0.0085
 3407SOL    HW121854   0.261   0.141   9.145 -1.0081 -0.4967 -1.9176
 3407SOL    HW221855   0.159   0.094   9.245 -0.6983 -1.8647 -3.4159
 3408SOL     OW21856   0.682   4.061  16.875  0.3159  0.1426  0.0825
 3408SOL    HW121857   0.652   3.971  16.887 -2.1130  0.6610 -1.9673
 3408SOL    HW221858   0.609   4.098  16.824 -1.5220 -0.5392  2.2070
 3409SOL     OW21859   2.361   1.106   9.088 -0.3730 -0.6129 -0.5859
 3409SOL    HW121860   2.388   1.099   9.179 -1.0187 -0.3614 -0.3724
 3409SOL    HW221861   2.283   1.051   9.085 -1.5285  1.0209 -0.6832
 3410SOL     OW21862   3.640   3.620   2.674  0.1125  0.3647 -0.2965
 3410SOL    HW121863   3.576   3.588   2.737  0.7653 -0.5866 -0.1173
 3410SOL    HW221864   3.612   3.710   2.657 -0.7436  0.5557  2.0900
 3411SOL     OW21865   0.293   2.438   8.813 -0.7286 -0.1149  0.2046
 3411SOL    HW121866   0.311   2.345   8.798  0.3501  0.3272 -1.2549
 3411SOL    HW221867   0.213   2.442   8.760  0.0605  0.3280 -0.9600
 3412SOL     OW21868   1.161   1.856   2.022 -0.2263 -0.4660  0.1813
 3412SOL    HW121869   1.070   1.855   1.995 -0.7461  0.1849  1.9265
 3412SOL    HW221870   1.191   1.947   2.019  1.6071 -1.1102 -1.1464
 3413SOL     OW21871   4.588   2.419   2.121  0.3835 -0.3104  0.3172
 3413SOL    HW121872   4.586   2.361   2.044 -0.2156 -0.6013  0.5517
 3413SOL    HW221873   4.608   2.364   2.196 -0.1926  0.5489  1.0965
 3414SOL     OW21874   3.407   0.798   8.042  0.1769 -0.3912 -0.6171
 3414SOL    HW121875   3.474   0.806   7.974 -1.4547 -0.0791 -2.1656
 3414SOL    HW221876   3.372   0.715   8.010 -1.3533  0.2041 -0.5021
 3415SOL     OW21877   4.178   3.970   9.096 -0.1689  0.2762  0.5448
 3415SOL    HW121878   4.150   3.888   9.055  0.9975 -0.1522  0.6197
 3415SOL    HW221879   4.100   4.025   9.112 -0.6921 -0.2255 -0.2961
 3416SOL     OW21880   4.488   0.979   8.023  0.2516  0.6159  0.2989
 3416SOL    HW121881   4.469   1.065   8.061  0.6183  1.9060 -2.4130
 3416SOL    HW221882   4.475   0.923   8.100  0.9683 -0.4250 -0.3496
 3417SOL     OW21883   4.465   3.941   8.494 -0.1507 -0.0740  0.1430
 3417SOL    HW121884   4.401   3.937   8.565  0.4104 -0.3264  0.6367
 3417SOL    HW221885   4.455   3.856   8.451  0.7584  0.3150 -0.8485
 3418SOL     OW21886   2.561   2.000   1.173 -0.4578 -0.5944 -0.0330
 3418SOL    HW121887   2.652   1.983   1.198 -0.5000  1.1938  1.4238
 3418SOL    HW221888   2.538   1.927   1.117 -0.3328 -0.3354 -0.4208
 3419SOL     OW21889   0.972   3.750   5.114  0.4607 -0.0443  0.1556
 3419SOL    HW121890   1.056   3.711   5.090  1.0371  1.4794 -0.3007
 3419SOL    HW221891   0.936   3.785   5.032  1.6509 -0.2602 -0.4572
 3420SOL     OW21892   3.339   4.382   8.547  0.0578  0.0500 -0.1512
 3420SOL    HW121893   3.427   4.399   8.582 -0.3199  1.4377  0.1042
 3420SOL    HW221894   3.314   4.317   8.613  1.7791 -0.1976  0.2443
 3421SOL     OW21895   0.138   0.100  15.692 -0.2278  0.3315  0.0382
 3421SOL    HW121896   0.203   0.063  15.751  1.4367  0.7514 -1.5523
 3421SOL    HW221897   0.058   0.068  15.735  0.2997  0.5875  1.1935
 3422SOL     OW21898   3.012   0.805   4.418 -0.7309 -0.2210 -0.2738
 3422SOL    HW121899   3.096   0.760   4.425 -0.7205 -0.2058 -0.3023
 3422SOL    HW221900   3.054   0.889   4.434  1.2026 -0.5836 -3.5445
 3423SOL     OW21901   3.162   3.519   6.668  0.0603 -0.3420 -0.0622
 3423SOL    HW121902   3.077   3.557   6.688 -0.1205 -0.9966  0.4359
 3423SOL    HW221903   3.166   3.552   6.579  3.8583 -2.6509 -0.7550
 3424SOL     OW21904   0.687   4.135   9.225  0.7801 -0.2873 -0.5130
 3424SOL    HW121905   0.720   4.048   9.204 -0.4985 -0.7762 -0.4921
 3424SOL    HW221906   0.615   4.124   9.287  1.2410  1.0532  0.2745
 3425SOL     OW21907   0.641   4.047   6.765  0.6141 -0.6591 -0.4072
 3425SOL    HW121908   0.587   4.027   6.688  1.7679  1.0769 -1.6532
 3425SOL    HW221909   0.687   3.964   6.776  1.5810 -0.1217 -0.4104
 3426SOL     OW21910   3.588   4.591   6.939  0.4852 -0.1470 -0.9275
 3426SOL    HW121911   3.683   4.602   6.936  0.2017  2.0049 -1.7362
 3426SOL    HW221912   3.566   4.654   7.008  0.3459 -1.6347  0.3766
 3427SOL     OW21913   3.871   1.959  17.330  0.7594 -0.3024  0.2671
 3427SOL    HW121914   3.965   1.953  17.318  1.0566  1.3650  1.7037
 3427SOL    HW221915   3.848   1.866  17.332 -2.1704  0.3687 -0.8839
 3428SOL     OW21916   1.853   3.228   1.680  0.5196  0.0708 -0.6326
 3428SOL    HW121917   1.880   3.198   1.593  1.0067  1.0924 -0.8388
 3428SOL    HW221918   1.912   3.181   1.738  0.7128  0.3966 -0.5671
 3429SOL     OW21919   0.406   3.785   7.170  0.0502 -0.3930  0.8213
 3429SOL    HW121920   0.386   3.753   7.082 -0.1471 -0.8632  1.0368
 3429SOL    HW221921   0.498   3.770   7.192 -0.5594 -1.9613  2.3502
 3430SOL     OW21922   2.975   2.883  11.524  0.6312  0.1096 -0.0660
 3430SOL    HW121923   2.957   2.941  11.450 -0.6876 -0.1553  0.0519
 3430SOL    HW221924   3.030   2.933  11.585 -0.4002  0.3906  0.6382
 3431SOL     OW21925   4.738   3.673   6.213  0.2029 -0.2656  0.2274
 3431SOL    HW121926   0.084   3.637   6.196  0.4487 -0.0092  0.9604
 3431SOL    HW221927   4.736   3.707   6.303  1.4443  0.5349 -0.0561
 3432SOL     OW21928   0.818   3.762   5.346 -0.3241  0.6630  0.3914
 3432SOL    HW121929   0.886   3.760   5.278  0.7398 -0.8550  1.5093
 3432SOL    HW221930   0.823   3.843   5.397 -0.8861  0.7982  0.2315
 3433SOL     OW21931   0.531   3.194  12.011 -0.1357  0.7794 -0.1633
 3433SOL    HW121932   0.551   3.124  11.950 -0.4531  1.2061 -0.7552
 3433SOL    HW221933   0.454   3.148  12.043 -0.0306  1.6928  1.3944
 3434SOL     OW21934   4.533   4.024   0.826  0.8315  0.0925  0.7461
 3434SOL    HW121935   4.528   3.933   0.798  2.4935  0.9634 -2.3609
 3434SOL    HW221936   4.625   4.039   0.806  1.4234 -1.8109  2.0833
 3435SOL     OW21937   4.056   1.619  11.699  0.2395  0.1396  0.5172
 3435SOL    HW121938   4.007   1.545  11.734  0.9025  0.1462  1.4462
 3435SOL    HW221939   4.083   1.657  11.783 -1.6578 -0.5540  1.4286
 3436SOL     OW21940   0.105   2.324   7.457  0.8182 -0.4588 -0.0712
 3436SOL    HW121941   0.086   2.321   7.363  2.7403 -0.5102 -0.4543
 3436SOL    HW221942   0.117   2.230   7.475 -2.0685 -0.5501  1.3666
 3437SOL     OW21943   0.802   3.754   3.993 -0.7241 -0.5796  0.1700
 3437SOL    HW121944   0.765   3.669   3.968  0.2833 -0.6884 -0.9127
 3437SOL    HW221945   0.889   3.754   3.955 -0.8589  1.5794 -0.1534
 3438SOL     OW21946   4.579   3.854   4.768 -0.1351  0.0402 -0.1107
 3438SOL    HW121947   4.494   3.896   4.785  0.4201  0.7281  0.9574
 3438SOL    HW221948   4.633   3.916   4.816 -1.0174 -0.3162  1.3232
 3439SOL     OW21949   4.426   4.498  16.822 -0.7761 -0.3195  0.8434
 3439SOL    HW121950   4.478   4.419  16.806  1.3074  1.2505 -0.1747
 3439SOL    HW221951   4.339   4.459  16.830 -0.8241 -0.1306  1.2524
 3440SOL     OW21952   2.720   1.949  12.395  0.0957  0.5512  0.5388
 3440SOL    HW121953   2.648   2.005  12.422  0.0439 -1.0193  3.6371
 3440SOL    HW221954   2.679   1.876  12.349  0.1432 -0.4877  2.1608
 3441SOL     OW21955   4.265   4.427  15.854  0.2363 -0.1926 -0.1946
 3441SOL    HW121956   4.290   4.435  15.761  0.8979 -1.1496 -0.1111
 3441SOL    HW221957   4.297   4.506  15.896  0.6948 -1.3831  1.7035
 3442SOL     OW21958   0.214   1.027  11.110  0.1631 -0.2473 -0.0969
 3442SOL    HW121959   0.306   1.007  11.091 -0.0053  0.6204 -1.8069
 3442SOL    HW221960   0.214   1.123  11.116  1.6113 -0.3957  2.2179
 3443SOL     OW21961   1.139   3.309   7.004  0.3938  0.0839 -0.4998
 3443SOL    HW121962   1.079   3.347   7.068 -0.4226  0.3718 -1.4493
 3443SOL    HW221963   1.108   3.218   6.994 -1.3809  0.6953 -0.5233
 3444SOL     OW21964   2.040   3.090   5.440  0.7907  0.1816 -0.2368
 3444SOL    HW121965   2.095   3.111   5.515  0.4917  2.6893 -0.7047
 3444SOL    HW221966   1.951   3.113   5.468  1.2135 -0.3520  1.5186
 3445SOL     OW21967   1.247   3.208   9.433 -0.2638 -0.2591  0.1933
 3445SOL    HW121968   1.339   3.211   9.458 -0.6469  0.4608  1.5246
 3445SOL    HW221969   1.219   3.275   9.495 -1.3310 -0.5274  0.0048
 3446SOL     OW21970   1.376   2.116   6.204 -0.0417 -0.3125 -0.1811
 3446SOL    HW121971   1.440   2.126   6.275  0.2100  2.2965 -0.7581
 3446SOL    HW221972   1.411   2.048   6.147  2.9584 -0.4586  1.8502
 3447SOL     OW21973   2.414   3.152   2.427  0.1251 -0.4900  0.4180
 3447SOL    HW121974   2.358   3.092   2.476 -5.2054  1.7734 -2.8693
 3447SOL    HW221975   2.493   3.099   2.417 -0.2509 -0.8560 -0.6272
 3448SOL     OW21976   2.359   3.462   4.338 -0.2811 -0.7164 -0.8742
 3448SOL    HW121977   2.389   3.399   4.404  0.0715  1.1847  0.7728
 3448SOL    HW221978   2.429   3.523   4.319 -1.7682  2.2430  3.0679
 3449SOL     OW21979   2.581   3.552   4.219  0.4224 -0.1359 -0.2337
 3449SOL    HW121980   2.670   3.565   4.187  0.4052 -0.8857 -0.5869
 3449SOL    HW221981   2.550   3.481   4.163  0.8653 -0.4947 -0.0268
 3450SOL     OW21982   1.050   1.759   2.263 -0.3821 -0.3486  0.2442
 3450SOL    HW121983   0.960   1.785   2.240 -0.3001 -0.0556  0.2554
 3450SOL    HW221984   1.080   1.751   2.173 -0.2246 -0.7037  0.3282
 3451SOL     OW21985   0.943   3.940  10.627  0.0366 -0.2018 -0.4881
 3451SOL    HW121986   0.910   3.851  10.629 -0.1225 -0.1563 -1.1036
 3451SOL    HW221987   0.923   3.972  10.715  0.5812 -0.1887 -0.3689
 3452SOL     OW21988   4.653   4.189   7.941  0.0876  0.0068 -0.2646
 3452SOL    HW121989   4.732   4.142   7.969  0.2952  1.8683  2.2704
 3452SOL    HW221990   4.675   4.207   7.849 -1.5281 -0.1096 -0.6605
 3453SOL     OW21991   1.386   4.417   8.026  0.0984  0.5661  0.2784
 3453SOL    HW121992   1.330   4.370   8.088  0.5654 -0.9149 -0.4251
 3453SOL    HW221993   1.346   4.504   8.033  2.6368  1.6528  1.2373
 3454SOL     OW21994   4.383   0.067   6.076  0.4269 -0.2913  0.7102
 3454SOL    HW121995   4.289   0.070   6.096  0.0954  1.1825 -1.1328
 3454SOL    HW221996   4.385   4.741   6.008  0.4569  0.7520 -0.3199
 3455SOL     OW21997   0.965   2.133   3.276  0.6814 -0.4559 -0.7156
 3455SOL    HW121998   0.937   2.217   3.311 -0.1919 -0.4984 -1.3066
 3455SOL    HW221999   1.033   2.170   3.220  0.6504 -0.4856 -0.7735
 3456SOL     OW22000   0.231   0.917   9.137 -0.2768 -0.6271 -0.1362
 3456SOL    HW122001   0.232   0.858   9.212 -2.7624  0.5903  0.8612
 3456SOL    HW222002   0.237   0.860   9.060 -0.0704  0.3135 -0.8212
 3457SOL     OW22003   3.986   0.872   7.053 -0.4379  0.6405 -0.0112
 3457SOL    HW122004   4.037   0.872   7.134 -0.1713 -1.1111 -0.1887
 3457SOL    HW222005   4.057   0.865   6.990 -0.2186 -0.8384  0.4175
 3458SOL     OW22006   0.410   0.427   2.092 -0.1055  0.3475 -0.4270
 3458SOL    HW122007   0.345   0.363   2.122  1.6731 -2.1131 -1.8017
 3458SOL    HW222008   0.491   0.393   2.130 -0.5382 -1.4382 -1.0695
 3459SOL     OW22009   4.349   4.384   4.006 -0.0243  0.2019 -0.0758
 3459SOL    HW122010   4.257   4.411   4.014  0.3704  0.9959  1.7085
 3459SOL    HW222011   4.341   4.298   4.049  0.0157  0.4667  0.4564
 3460SOL     OW22012   1.921   1.480  15.993 -0.3860 -0.9175  0.1812
 3460SOL    HW122013   1.955   1.422  15.924 -1.6035 -1.9906  0.4795
 3460SOL    HW222014   1.981   1.554  15.983  0.2654 -1.4265  0.3154
 3461SOL     OW22015   2.622   1.626  15.417  0.2561 -0.0152 -0.4457
 3461SOL    HW122016   2.587   1.659  15.500 -1.4627 -2.6228 -0.1274
 3461SOL    HW222017   2.549   1.571  15.391  0.7642 -1.9119  2.0878
 3462SOL     OW22018   0.272   2.238   3.510 -0.1227  0.0553 -0.3285
 3462SOL    HW122019   0.355   2.285   3.513  1.0522 -1.9658 -1.4318
 3462SOL    HW222020   0.299   2.147   3.518 -0.4580 -0.1957 -2.0904
 3463SOL     OW22021   0.361   3.303   4.427  0.6865  0.8115  0.4244
 3463SOL    HW122022   0.370   3.390   4.388  0.4858  1.4120  1.7321
 3463SOL    HW222023   0.445   3.271   4.393  0.4187  1.0629 -0.4696
 3464SOL     OW22024   4.309   1.549   4.028  0.0551  0.0968 -0.0819
 3464SOL    HW122025   4.393   1.503   4.031 -1.2219 -2.1861  0.7695
 3464SOL    HW222026   4.325   1.639   4.057 -2.2445 -0.2923  2.3024
 3465SOL     OW22027   3.848   2.072   6.209  0.0359 -0.1002 -0.2284
 3465SOL    HW122028   3.769   2.062   6.261  0.1031  0.1295 -0.0817
 3465SOL    HW222029   3.833   2.155   6.164  1.3480  0.0062 -0.4795
 3466SOL     OW22030   4.290   0.476   8.197 -0.1884  0.1713 -0.2017
 3466SOL    HW122031   4.331   0.407   8.145 -1.4995 -0.8093  0.0533
 3466SOL    HW222032   4.304   0.436   8.283 -0.0159 -0.2451 -0.4208
 3467SOL     OW22033   3.113   3.487   5.232 -0.0199 -0.5497  0.3770
 3467SOL    HW122034   3.025   3.512   5.259  0.6631  1.9224  0.3449
 3467SOL    HW222035   3.099   3.469   5.139 -3.4293  0.2353  0.7510
 3468SOL     OW22036   3.008   2.359   2.372 -0.3875 -0.0378  0.3607
 3468SOL    HW122037   3.047   2.445   2.386 -0.9690  0.6873 -2.5407
 3468SOL    HW222038   2.916   2.370   2.395 -0.6521 -1.1449 -0.1657
 3469SOL     OW22039   4.095   1.899  11.581 -0.2662 -0.0768  0.1151
 3469SOL    HW122040   4.123   1.811  11.607 -1.3234 -1.2190 -2.5416
 3469SOL    HW222041   4.005   1.893  11.614 -0.5692 -0.9916 -0.8566
 3470SOL     OW22042   4.330   0.081   1.310 -0.1938  0.1014  0.2062
 3470SOL    HW122043   4.291   0.052   1.228  0.6540  1.7701 -0.7986
 3470SOL    HW222044   4.411   0.118   1.274  0.6117 -2.7863 -0.8701
 3471SOL     OW22045   1.653   4.385   4.145  0.0368  0.5196 -0.1189
 3471SOL    HW122046   1.559   4.399   4.141  0.2737  2.4445  1.0327
 3471SOL    HW222047   1.663   4.292   4.123 -0.0405  0.1527  1.3777
 3472SOL     OW22048   1.247   4.665   8.067  0.1366  0.0500  0.7577
 3472SOL    HW122049   1.297   4.681   7.986 -0.4921 -0.7055  0.2326
 3472SOL    HW222050   1.220   0.013   8.089  0.1869  0.9620 -2.8428
 3473SOL     OW22051   0.881   4.026   1.791 -0.5010 -0.2369  0.2083
 3473SOL    HW122052   0.893   4.115   1.824 -1.4506 -0.6607  1.7412
 3473SOL    HW222053   0.969   3.994   1.809 -0.6656 -1.2480 -0.8009
 3474SOL     OW22054   2.822   0.930   1.580 -0.0364 -0.0440  0.3339
 3474SOL    HW122055   2.729   0.915   1.562 -0.0076  0.0742  0.0906
 3474SOL    HW222056   2.840   1.006   1.525  1.7924 -0.2374  0.6610
 3475SOL     OW22057   1.481   2.993   1.152 -0.0151  0.4450 -0.3699
 3475SOL    HW122058   1.552   3.036   1.201  0.7769 -1.2929 -0.0084
 3475SOL    HW222059   1.447   3.074   1.114  0.6350 -0.2568 -2.4396
 3476SOL     OW22060   3.919   3.466   0.140 -0.2565 -0.2155  0.4550
 3476SOL    HW122061   3.944   3.383   0.100 -1.7643 -1.1642  1.4615
 3476SOL    HW222062   3.939   3.522   0.065 -0.9681  0.6248  0.8841
 3477SOL     OW22063   3.464   1.930   1.716  0.1179  0.2625  0.1729
 3477SOL    HW122064   3.545   1.972   1.687 -0.4944  2.1583  1.1818
 3477SOL    HW222065   3.404   1.952   1.645 -1.5457  0.4293  1.6157
 3478SOL     OW22066   3.362   1.532  15.535  0.0510  0.5459 -0.5269
 3478SOL    HW122067   3.292   1.509  15.596  1.5514 -1.1646  0.5812
 3478SOL    HW222068   3.398   1.443  15.535 -1.1954  0.0421 -1.7571
 3479SOL     OW22069   2.877   4.418   6.152  0.2731  0.3980  0.1016
 3479SOL    HW122070   2.840   4.472   6.222  0.0333 -1.0933  1.1337
 3479SOL    HW222071   2.830   4.337   6.173 -0.7687  0.8399 -0.4749
 3480SOL     OW22072   1.849   1.193   7.279 -0.0453 -0.0916  0.0718
 3480SOL    HW122073   1.835   1.269   7.335 -2.3808  1.8028 -3.1315
 3480SOL    HW222074   1.869   1.120   7.339  0.6475  0.2040  0.1996
 3481SOL     OW22075   3.848   0.781   5.211 -0.3464  0.3336  0.3814
 3481SOL    HW122076   3.905   0.810   5.140  0.3497 -2.8463 -0.3453
 3481SOL    HW222077   3.768   0.828   5.185 -0.4117 -0.6090 -1.1554
 3482SOL     OW22078   3.123   1.129   7.544 -0.0776 -0.2233  0.2963
 3482SOL    HW122079   3.034   1.097   7.556 -0.8393  2.5549  1.9499
 3482SOL    HW222080   3.147   1.093   7.458  1.1894  1.0221  0.1396
 3483SOL     OW22081   4.657   3.400   4.285 -0.7625  0.3076  0.5072
 3483SOL    HW122082   4.605   3.448   4.348  0.5120  0.7856  1.1899
 3483SOL    HW222083   4.598   3.367   4.217  1.1057 -1.2585 -0.3931
 3484SOL     OW22084   1.310   3.195  11.612 -0.1186  0.0410 -0.0271
 3484SOL    HW122085   1.276   3.107  11.600 -0.2316  0.0752  0.0483
 3484SOL    HW222086   1.382   3.185  11.549 -1.2448 -1.7923 -1.0157
 3485SOL     OW22087   2.055   3.569   1.216 -0.0487 -0.0899  0.5413
 3485SOL    HW122088   2.054   3.584   1.122 -1.4454 -0.5186  0.4889
 3485SOL    HW222089   2.083   3.478   1.222 -1.3153 -0.4964  0.0631
 3486SOL     OW22090   0.655   2.600   3.893 -0.0437  0.2295 -0.4840
 3486SOL    HW122091   0.709   2.663   3.940  0.7634 -0.3702 -0.6030
 3486SOL    HW222092   0.710   2.527   3.863 -1.1959 -0.0890 -1.8268
 3487SOL     OW22093   3.463   2.465   5.201  0.4760 -0.5172 -0.0454
 3487SOL    HW122094   3.494   2.502   5.118  0.1622  2.1928  1.0534
 3487SOL    HW222095   3.526   2.393   5.196  2.3545  1.0324  1.1364
 3488SOL     OW22096   2.598   1.602   2.658  0.0171 -0.3213  0.3678
 3488SOL    HW122097   2.661   1.553   2.711  0.3178  1.3620  1.5495
 3488SOL    HW222098   2.516   1.558   2.679 -1.2814  1.9570  0.0600
 3489SOL     OW22099   1.794   0.324  15.807  0.0449 -0.1223  0.0291
 3489SOL    HW122100   1.856   0.286  15.745 -1.0188 -1.7430 -0.0302
 3489SOL    HW222101   1.709   0.303  15.768 -0.5894  1.7458  0.3928
 3490SOL     OW22102   2.010   3.958   6.156 -0.4559 -0.0242  0.3637
 3490SOL    HW122103   2.090   3.986   6.112 -1.3085  1.2035 -0.3859
 3490SOL    HW222104   1.949   3.936   6.085  0.3898 -2.3003  0.3301
 3491SOL     OW22105   2.554   4.556  10.509  0.0081  0.4626 -0.5520
 3491SOL    HW122106   2.539   4.574  10.602 -0.2405 -2.6041  0.0133
 3491SOL    HW222107   2.631   4.501  10.496  1.0842  1.6415  0.7472
 3492SOL     OW22108   0.314   0.132   3.021  0.0804 -0.3282 -0.1023
 3492SOL    HW122109   0.234   0.160   3.065  0.6407 -0.7597  1.1710
 3492SOL    HW222110   0.379   0.171   3.079  0.0553  0.6591 -0.7380
 3493SOL     OW22111   3.014   1.698   8.133 -0.0878 -0.0475  0.2098
 3493SOL    HW122112   2.971   1.769   8.086  0.0025  0.7299  1.2992
 3493SOL    HW222113   2.960   1.693   8.212 -0.8516  0.9662 -0.2543
 3494SOL     OW22114   2.182   3.946   3.650  0.2006  0.0538  0.0450
 3494SOL    HW122115   2.252   3.931   3.586 -0.2476 -0.3778 -0.3490
 3494SOL    HW222116   2.214   4.023   3.696  1.0077 -0.9466  1.1635
 3495SOL     OW22117   3.681   4.653   2.078 -0.4303  0.4941 -0.0067
 3495SOL    HW122118   3.630   4.586   2.124  1.8331 -2.8249 -2.3362
 3495SOL    HW222119   3.614   4.718   2.053 -2.7268 -2.4923 -1.6191
 3496SOL     OW22120   1.908   1.784  11.811  0.1980  0.1626 -0.0901
 3496SOL    HW122121   1.977   1.740  11.862 -0.2977  1.5708  1.8058
 3496SOL    HW222122   1.918   1.751  11.722 -1.5767  1.4878 -0.7816
 3497SOL     OW22123   3.987   0.081   1.518 -0.1931 -0.2390 -0.4126
 3497SOL    HW122124   4.045   0.037   1.457 -0.7680 -0.3085 -0.9061
 3497SOL    HW222125   3.905   0.034   1.503  1.3561 -2.6697 -1.0905
 3498SOL     OW22126   2.339   4.535   1.964  0.0323  0.1822 -0.1626
 3498SOL    HW122127   2.345   4.623   2.000  0.5300 -0.1714  0.6141
 3498SOL    HW222128   2.408   4.533   1.897  0.4237  0.8892  0.2232
 3499SOL     OW22129   3.954   2.666  17.091  0.6670 -0.0165 -0.8937
 3499SOL    HW122130   3.964   2.695  17.182 -1.1646 -0.0302 -0.6995
 3499SOL    HW222131   3.903   2.735  17.048 -1.2183  0.2336  1.7317
 3500SOL     OW22132   2.666   1.907   8.653  0.0480  0.5392  1.1543
 3500SOL    HW122133   2.669   1.951   8.738  0.1189  1.4124  0.6995
 3500SOL    HW222134   2.681   1.980   8.594 -0.2533 -0.8039 -0.5761
 3501SOL     OW22135   0.261   1.767  14.265 -0.8400  0.8659 -0.2491
 3501SOL    HW122136   0.277   1.848  14.216  0.3525  0.6047 -0.2813
 3501SOL    HW222137   0.173   1.743  14.237 -1.3191 -0.7286  2.5769
 3502SOL     OW22138   3.877   1.980   9.287  0.4994  0.0914 -0.9492
 3502SOL    HW122139   3.930   1.910   9.325  1.6787  1.4232 -0.1324
 3502SOL    HW222140   3.949   2.032   9.251  0.4519 -0.9039 -2.4470
 3503SOL     OW22141   4.323   2.844   3.875  0.4358  0.5233 -0.0828
 3503SOL    HW122142   4.410   2.813   3.848 -0.0288 -0.7631 -0.0800
 3503SOL    HW222143   4.291   2.895   3.801 -2.7459  0.7047  1.4257
 3504SOL     OW22144   0.199   3.031   1.736  0.0503  0.5784 -0.0418
 3504SOL    HW122145   0.274   3.091   1.735  1.7598 -1.5665  0.6144
 3504SOL    HW222146   0.200   2.994   1.648 -1.4790  1.9665 -0.6467
 3505SOL     OW22147   0.017   2.814   3.358  0.2051  0.6043  0.1678
 3505SOL    HW122148   0.085   2.783   3.418 -0.0624 -0.6192 -0.1540
 3505SOL    HW222149   4.691   2.840   3.421 -1.5688 -0.4354 -1.3013
 3506SOL     OW22150   3.318   4.127   6.455  0.6678 -0.4608 -0.4165
 3506SOL    HW122151   3.246   4.074   6.421 -1.9482  2.8758 -0.0107
 3506SOL    HW222152   3.292   4.214   6.425 -1.4229 -0.2866  1.9108
 3507SOL     OW22153   1.883   0.245   8.778 -0.4424 -0.5958  0.4854
 3507SOL    HW122154   1.964   0.293   8.761  1.2592 -3.8429 -0.5351
 3507SOL    HW222155   1.865   0.193   8.700 -0.0970 -0.2473  0.1717
 3508SOL     OW22156   4.583   0.493   9.790  0.3835  0.1144  0.6687
 3508SOL    HW122157   4.617   0.486   9.701 -0.1031  0.4107  0.4579
 3508SOL    HW222158   4.643   0.434   9.836  0.0326 -0.8654 -0.1193
 3509SOL     OW22159   4.500   3.374  10.750  0.0501 -0.0736  0.2493
 3509SOL    HW122160   4.589   3.394  10.779 -0.5686 -0.2783  2.3084
 3509SOL    HW222161   4.504   3.286  10.787  1.1324 -0.6059 -1.1453
 3510SOL     OW22162   1.367   0.270   4.573  0.0943  0.1078  0.4168
 3510SOL    HW122163   1.461   0.273   4.590  0.0367  1.3502  0.5442
 3510SOL    HW222164   1.351   0.358   4.538 -1.0529 -0.3195 -0.1544
 3511SOL     OW22165   2.179   0.122   2.532  1.0149  0.2629 -0.5309
 3511SOL    HW122166   2.133   0.163   2.605 -1.3865 -2.9584 -0.2526
 3511SOL    HW222167   2.169   0.190   2.465  0.6397 -1.1008 -1.8415
 3512SOL     OW22168   3.399   1.318   5.809  0.5566  0.0240  0.2579
 3512SOL    HW122169   3.369   1.319   5.718  1.0404 -2.2668  0.0785
 3512SOL    HW222170   3.317   1.323   5.859  1.1687  0.9668  1.1650
 3513SOL     OW22171   2.293   1.873   7.152 -0.0811  0.2405 -0.0892
 3513SOL    HW122172   2.271   1.963   7.176 -0.2720  0.1700  0.0017
 3513SOL    HW222173   2.382   1.878   7.117 -0.1272 -2.5354 -0.6095
 3514SOL     OW22174   4.019   4.552   7.368  0.0196  0.5507 -0.0957
 3514SOL    HW122175   3.933   4.586   7.343  0.0089  1.2508  0.8772
 3514SOL    HW222176   4.027   4.490   7.296 -2.4213  0.8016 -0.5872
 3515SOL     OW22177   2.633   3.204   2.749  0.1686  0.5491 -0.1666
 3515SOL    HW122178   2.575   3.265   2.704 -0.3950  0.5674  0.5871
 3515SOL    HW222179   2.615   3.124   2.701  0.5362  0.2587  0.1786
 3516SOL     OW22180   0.571   2.087   2.468 -0.0236  0.2345  0.1586
 3516SOL    HW122181   0.537   2.118   2.384  1.9708  1.4241 -0.2031
 3516SOL    HW222182   0.626   2.163   2.488 -0.5881  0.2549  1.6654
 3517SOL     OW22183   1.961   4.690   2.122 -0.1399  0.0664 -0.0975
 3517SOL    HW122184   1.916   4.699   2.038  1.8573 -1.6453 -1.3549
 3517SOL    HW222185   1.911   4.615   2.154 -1.0300  0.8858  0.4330
 3518SOL     OW22186   3.999   4.003   8.665 -0.0753 -0.5194 -0.2006
 3518SOL    HW122187   3.988   4.096   8.688 -0.5286 -0.5169 -0.4279
 3518SOL    HW222188   3.914   3.968   8.692  0.8736 -2.1467  0.6703
 3519SOL     OW22189   1.185   0.772  11.650  0.3678  0.0284  0.5325
 3519SOL    HW122190   1.267   0.804  11.612  0.8535 -0.3056  1.3110
 3519SOL    HW222191   1.184   0.831  11.725 -0.7050  1.6706 -0.7680
 3520SOL     OW22192   0.792   4.304   3.362 -0.5720 -0.3951 -0.7864
 3520SOL    HW122193   0.864   4.247   3.388 -0.5908 -1.1891 -2.4496
 3520SOL    HW222194   0.769   4.350   3.443 -2.5141 -2.8893  0.0671
 3521SOL     OW22195   4.363   4.023   0.604 -0.5405  0.6181 -0.3937
 3521SOL    HW122196   4.434   4.073   0.643  0.9341 -1.0295 -0.9963
 3521SOL    HW222197   4.302   4.089   0.570 -0.5681 -0.4587 -2.4010
 3522SOL     OW22198   2.604   4.231   5.906 -0.4947 -0.0009  0.3709
 3522SOL    HW122199   2.616   4.318   5.868  1.0039 -0.2924  0.1515
 3522SOL    HW222200   2.572   4.261   5.991 -0.4116  0.4700  0.2364
 3523SOL     OW22201   2.446   4.654  11.107 -0.2441 -0.1675  0.2077
 3523SOL    HW122202   2.457   4.600  11.029 -3.2214 -1.6169  0.7734
 3523SOL    HW222203   2.466   4.596  11.181 -0.0822  0.3029  0.5334
 3524SOL     OW22204   2.420   3.851   9.978 -0.1407 -0.3963  0.5338
 3524SOL    HW122205   2.364   3.884   9.908  0.0564 -0.3634  0.3932
 3524SOL    HW222206   2.378   3.892  10.054  0.1776  0.3991  0.2850
 3525SOL     OW22207   3.379   1.109   0.859  0.2511 -0.7576 -0.0181
 3525SOL    HW122208   3.401   1.016   0.869  2.2983 -0.3737 -0.9186
 3525SOL    HW222209   3.297   1.106   0.810  0.3900  0.1879 -0.3074
 3526SOL     OW22210   1.233   1.578   3.840  0.2944  0.0811 -0.6084
 3526SOL    HW122211   1.284   1.534   3.908 -1.5557  1.3850  1.6569
 3526SOL    HW222212   1.303   1.634   3.807 -1.6009  1.3605 -2.4536
 3527SOL     OW22213   4.622   3.703   7.255  0.1832 -0.3352 -0.4011
 3527SOL    HW122214   4.533   3.724   7.224  0.7948 -0.2350 -2.0810
 3527SOL    HW222215   4.611   3.644   7.329  0.5411  1.9902  1.5370
 3528SOL     OW22216   1.518   2.918   0.071 -0.0654  0.5788 -0.1024
 3528SOL    HW122217   1.441   2.933   0.017 -2.4864 -2.2785  2.5911
 3528SOL    HW222218   1.546   3.008   0.091  2.0212  0.3505 -1.9557
 3529SOL     OW22219   1.470   4.227   3.657  0.5029  0.3242  0.2265
 3529SOL    HW122220   1.439   4.233   3.566 -1.1463 -2.6319  0.5801
 3529SOL    HW222221   1.552   4.181   3.636  1.7034  2.2179  0.7953
 3530SOL     OW22222   2.807   3.136  14.754  0.0241 -0.0830  0.3380
 3530SOL    HW122223   2.721   3.161  14.786 -0.3555  2.0448 -2.3719
 3530SOL    HW222224   2.852   3.091  14.826  3.1724  0.7817 -1.0868
 3531SOL     OW22225   1.229   0.697  10.669 -0.2385 -0.3159  0.0147
 3531SOL    HW122226   1.243   0.786  10.699  1.0100 -0.5316  0.0712
 3531SOL    HW222227   1.283   0.685  10.590  0.0837  0.3893  0.1289
 3532SOL     OW22228   0.280   4.688   8.691  0.5898 -0.5106 -0.5547
 3532SOL    HW122229   0.308   4.676   8.782 -1.4755 -0.8256  0.0463
 3532SOL    HW222230   0.313   4.615   8.640 -1.2024 -1.1453 -0.8080
 3533SOL     OW22231   1.643   3.058  16.443 -0.0900  0.5552  0.3339
 3533SOL    HW122232   1.561   3.052  16.494 -0.0149 -1.5826  0.2317
 3533SOL    HW222233   1.682   2.974  16.465 -0.3088 -0.0884 -1.7080
 3534SOL     OW22234   4.264   2.730  17.538  0.0005 -0.1251  0.0121
 3534SOL    HW122235   4.248   2.749  17.630  1.0285  0.6210  0.0331
 3534SOL    HW222236   4.313   2.648  17.552 -2.5835 -1.6162  0.2433
 3535SOL     OW22237   2.290   1.869  17.149 -0.4754 -0.3502 -0.0018
 3535SOL    HW122238   2.213   1.892  17.098  1.6608  0.1338 -3.0281
 3535SOL    HW222239   2.255   1.888  17.236 -0.9376  3.6530 -1.0305
 3536SOL     OW22240   3.255   4.309  13.249  0.1081  0.1423  0.1186
 3536SOL    HW122241   3.209   4.241  13.200  0.2710  1.6166 -2.0840
 3536SOL    HW222242   3.184   4.358  13.290 -0.6072 -0.0911 -0.8495
 3537SOL     OW22243   1.009   4.286   5.921 -0.3930 -0.8007 -0.4501
 3537SOL    HW122244   1.030   4.249   6.007  1.9875 -1.7443 -1.4386
 3537SOL    HW222245   1.033   4.209   5.870 -1.2405 -1.1968 -0.2525
 3538SOL     OW22246   2.271   2.350   5.695  0.3720  0.1590 -0.4901
 3538SOL    HW122247   2.325   2.429   5.686  0.1824  0.3868  0.3807
 3538SOL    HW222248   2.331   2.279   5.675  1.0048  0.9961 -1.5793
 3539SOL     OW22249   1.838   2.664   1.109  0.2504  0.6308  0.1733
 3539SOL    HW122250   1.892   2.659   1.188 -1.3751  2.1496  1.3653
 3539SOL    HW222251   1.821   2.757   1.102  0.7768  0.5310 -2.3071
 3540SOL     OW22252   3.874   1.308   3.370  0.3846  0.4443 -0.0425
 3540SOL    HW122253   3.851   1.377   3.432  0.0728 -1.7337  2.2799
 3540SOL    HW222254   3.946   1.270   3.421  0.1939  0.7758  0.4772
 3541SOL     OW22255   3.924   3.363   6.372 -0.2145  0.6600  0.5186
 3541SOL    HW122256   4.005   3.369   6.321 -0.4102 -0.1699  0.1017
 3541SOL    HW222257   3.966   3.354   6.457 -0.1670  0.2047  0.4474
 3542SOL     OW22258   1.412   2.539   7.174 -0.3334  0.9875 -0.1915
 3542SOL    HW122259   1.330   2.588   7.168 -0.3566  1.1848  1.8332
 3542SOL    HW222260   1.441   2.564   7.262 -0.7614 -0.7325  0.4398
 3543SOL     OW22261   0.945   2.138   9.942  0.5029  0.0412 -0.5127
 3543SOL    HW122262   1.011   2.177   9.885 -1.3399  0.4101 -2.4116
 3543SOL    HW222263   0.971   2.163  10.030 -1.3580 -0.0046  0.0434
 3544SOL     OW22264   4.618   3.328  12.830 -0.1377 -0.1023 -0.3376
 3544SOL    HW122265   4.700   3.288  12.801 -0.4512 -0.0785 -1.2417
 3544SOL    HW222266   4.562   3.251  12.829  0.2986 -0.4296  0.2251
 3545SOL     OW22267   3.143   4.139  13.841 -0.8260  0.5686 -0.0103
 3545SOL    HW122268   3.064   4.102  13.880  1.2730 -2.5640  1.2195
 3545SOL    HW222269   3.209   4.126  13.908  1.1833 -1.4508 -2.4003
 3546SOL     OW22270   3.405   1.549   1.233  0.9582  0.3690 -0.0690
 3546SOL    HW122271   3.459   1.625   1.215  0.6446  0.8931  1.1596
 3546SOL    HW222272   3.342   1.572   1.302  0.4317  0.3289 -0.5336
 3547SOL     OW22273   2.556   3.615   8.510 -0.5500  0.0792  0.5822
 3547SOL    HW122274   2.478   3.653   8.470 -0.7386 -2.1933 -1.1825
 3547SOL    HW222275   2.540   3.645   8.599  1.5726 -1.7602  1.6026
 3548SOL     OW22276   1.839   3.624   6.316 -0.3960 -0.2510 -0.0406
 3548SOL    HW122277   1.867   3.613   6.406 -1.4646  0.6729  0.4083
 3548SOL    HW222278   1.923   3.634   6.272 -0.2937 -1.1804 -0.0548
 3549SOL     OW22279   1.279   1.560   8.545 -0.1082 -0.6682 -0.1219
 3549SOL    HW122280   1.220   1.610   8.600 -0.7181 -2.5016  0.8658
 3549SOL    HW222281   1.250   1.471   8.565  1.0188 -0.8592  0.6487
 3550SOL     OW22282   1.029   1.570   8.777 -0.1818  0.3940  0.8688
 3550SOL    HW122283   1.007   1.520   8.855 -4.1671  2.9196  1.3746
 3550SOL    HW222284   1.043   1.655   8.819 -2.9923  1.1887  0.2374
 3551SOL     OW22285   2.640   2.759  13.155 -0.2564 -0.0635  0.0212
 3551SOL    HW122286   2.661   2.743  13.063 -1.8084 -0.2312 -0.2981
 3551SOL    HW222287   2.699   2.833  13.172 -0.5781 -0.3546  2.4801
 3552SOL     OW22288   1.958   4.374   8.326 -0.5057  0.2985 -0.0840
 3552SOL    HW122289   1.879   4.427   8.339 -0.2108  0.1124  2.3422
 3552SOL    HW222290   1.931   4.323   8.249  1.0231  0.0632 -0.4692
 3553SOL     OW22291   2.542   4.155   8.132  0.6580  0.1366  0.5858
 3553SOL    HW122292   2.549   4.090   8.062 -1.3104 -0.1819  0.6647
 3553SOL    HW222293   2.632   4.142   8.158  0.2384 -1.5606  1.1710
 3554SOL     OW22294   1.560   3.257   3.095  0.5192  0.2699  0.6291
 3554SOL    HW122295   1.573   3.163   3.104  1.9619  0.2811 -1.3659
 3554SOL    HW222296   1.616   3.279   3.020 -0.7947  1.9673  0.1362
 3555SOL     OW22297   4.011   2.093   5.830 -0.6951 -0.0244  0.2210
 3555SOL    HW122298   4.007   2.081   5.736 -0.4328 -0.8137  0.3108
 3555SOL    HW222299   3.972   2.179   5.847 -1.2939  0.2997 -2.8122
 3556SOL     OW22300   0.266   3.677  15.565 -0.2944  0.2585 -0.4559
 3556SOL    HW122301   0.228   3.675  15.652  0.2585  0.5814 -0.2027
 3556SOL    HW222302   0.215   3.605  15.528  1.5177 -0.0162 -2.4314
 3557SOL     OW22303   4.149   2.823   9.531 -0.2285  0.0799  0.4843
 3557SOL    HW122304   4.185   2.911   9.518  1.4074 -0.5265  0.9313
 3557SOL    HW222305   4.054   2.839   9.524 -0.0772  0.5448 -0.5831
 3558SOL     OW22306   0.215   4.312  11.996 -0.1377  0.0003  1.0171
 3558SOL    HW122307   0.169   4.335  11.916  1.1501  1.6867  0.7556
 3558SOL    HW222308   0.241   4.223  11.973  1.9096  0.6734  0.6931
 3559SOL     OW22309   2.058   3.624   0.159 -0.4897 -0.2365 -0.2772
 3559SOL    HW122310   2.004   3.698   0.132 -2.6649 -1.1063  1.7533
 3559SOL    HW222311   2.060   3.579   0.074 -0.7273 -2.5828  0.9568
 3560SOL     OW22312   2.374   4.465  11.328  0.6667 -0.0605  0.1375
 3560SOL    HW122313   2.374   4.501  11.417 -2.9218  0.4334 -0.0868
 3560SOL    HW222314   2.285   4.479  11.298 -0.1042  0.7271  2.7999
 3561SOL     OW22315   0.708   0.551   8.081  0.1172 -0.2623 -0.2675
 3561SOL    HW122316   0.743   0.596   8.004 -0.6574  2.5035  0.9713
 3561SOL    HW222317   0.775   0.571   8.146 -1.5143  0.1791  1.2759
 3562SOL     OW22318   3.784   0.171   1.214 -0.4244 -0.2713  0.3834
 3562SOL    HW122319   3.731   0.117   1.272  1.1866 -0.0131  2.0741
 3562SOL    HW222320   3.782   0.129   1.128 -2.9140  0.4653  0.0696
 3563SOL     OW22321   2.740   0.012   3.398  0.3150  0.3790 -0.0641
 3563SOL    HW122322   2.665   0.047   3.350  0.4817 -0.6138 -1.0606
 3563SOL    HW222323   2.815   0.027   3.342 -1.1590 -1.0672 -2.4493
 3564SOL     OW22324   1.649   3.862   7.170  0.0269  0.0937  0.3125
 3564SOL    HW122325   1.596   3.800   7.220  0.2980  0.2696  0.8135
 3564SOL    HW222326   1.726   3.877   7.224 -0.1544  2.1963 -0.0121
 3565SOL     OW22327   3.562   0.201   5.906 -0.1081 -0.8003  0.1866
 3565SOL    HW122328   3.486   0.258   5.915  0.5531  0.0183  0.4914
 3565SOL    HW222329   3.559   0.151   5.988  1.3381  0.3957  0.9602
 3566SOL     OW22330   4.683   3.229   3.549 -0.1829 -0.1878  0.1381
 3566SOL    HW122331   0.003   3.184   3.608  1.1926  1.8329  0.2712
 3566SOL    HW222332   4.705   3.202   3.460  0.6694 -0.8323  0.5444
 3567SOL     OW22333   0.142   2.042  10.586  0.5434  0.0706 -0.2790
 3567SOL    HW122334   0.133   1.964  10.640 -1.1978 -1.0094 -2.1236
 3567SOL    HW222335   0.096   2.010  10.508 -0.0975 -0.2924  0.2479
 3568SOL     OW22336   1.544   2.405  15.739  0.2921  0.1990 -0.0872
 3568SOL    HW122337   1.500   2.446  15.814  1.0630  0.9951 -0.0646
 3568SOL    HW222338   1.472   2.372  15.685 -0.1520 -0.2131  0.7548
 3569SOL     OW22339   2.037   1.390   1.135 -0.1999  0.4335 -0.3146
 3569SOL    HW122340   2.012   1.342   1.214 -1.5900  0.7850 -0.5387
 3569SOL    HW222341   1.956   1.441   1.124 -0.8872 -0.4811  0.5075
 3570SOL     OW22342   1.272   3.800   5.779 -0.0026  0.1210 -0.0258
 3570SOL    HW122343   1.195   3.809   5.835 -1.9996 -0.3281 -2.7012
 3570SOL    HW222344   1.258   3.706   5.763 -1.2519  0.2025  0.5711
 3571SOL     OW22345   1.957   1.146   8.740  0.0814 -0.0019 -1.0996
 3571SOL    HW122346   1.912   1.198   8.806 -0.3930 -1.7731 -0.0330
 3571SOL    HW222347   1.911   1.175   8.661  0.0989 -1.3526 -1.5935
 3572SOL     OW22348   1.436   2.574  12.622  0.1624  0.8649 -1.1996
 3572SOL    HW122349   1.441   2.478  12.621  1.3660  0.9212 -1.0598
 3572SOL    HW222350   1.363   2.607  12.674  2.0678  2.1803  0.6395
 3573SOL     OW22351   4.088   2.598   2.019  0.9972  0.0057  0.2864
 3573SOL    HW122352   4.144   2.674   2.005  0.9676 -0.6029 -3.2486
 3573SOL    HW222353   4.073   2.569   1.929  1.1022  2.4203 -0.5272
 3574SOL     OW22354   1.471   1.516  10.977  0.0598 -0.2188  0.3653
 3574SOL    HW122355   1.439   1.593  10.931  0.4675 -0.7632 -0.8200
 3574SOL    HW222356   1.434   1.445  10.924  0.3169 -0.4073  0.4380
 3575SOL     OW22357   4.509   1.821   8.359 -0.9821 -0.1347 -0.0982
 3575SOL    HW122358   4.541   1.797   8.272 -1.5336  0.5186 -0.4764
 3575SOL    HW222359   4.464   1.743   8.393 -0.4390 -0.3790  0.0647
 3576SOL     OW22360   2.584   0.533   6.685  0.1129 -0.8284 -0.0549
 3576SOL    HW122361   2.534   0.454   6.664  2.6026 -1.7891 -2.1976
 3576SOL    HW222362   2.526   0.569   6.753 -0.1577 -0.3207 -0.5532
 3577SOL     OW22363   4.199   2.850   0.840  0.1977  0.2381 -0.5904
 3577SOL    HW122364   4.210   2.945   0.830  0.5730  0.5168  2.2510
 3577SOL    HW222365   4.291   2.824   0.830 -0.6931 -2.8212 -0.8873
 3578SOL     OW22366   0.160   0.368  11.424  0.4448 -0.1693  0.0615
 3578SOL    HW122367   0.087   0.315  11.390  0.8704 -0.9474  0.3669
 3578SOL    HW222368   0.121   0.438  11.476 -1.9906 -1.4679 -0.0261
 3579SOL     OW22369   4.697   1.481  11.312  0.2875  0.2179  0.1719
 3579SOL    HW122370   4.609   1.448  11.293  0.7955 -1.3350  0.4632
 3579SOL    HW222371   0.001   1.399  11.290 -2.2965 -1.1109 -0.1974
 3580SOL     OW22372   2.095   1.953   7.861  0.2080  0.3368  0.0362
 3580SOL    HW122373   2.021   1.912   7.905  1.6700 -1.6991  0.5991
 3580SOL    HW222374   2.110   1.887   7.793 -0.4341 -1.0324  1.2253
 3581SOL     OW22375   3.496   3.886   9.539  0.2023  0.0648 -0.3668
 3581SOL    HW122376   3.553   3.962   9.552 -2.4997  1.8162  1.1895
 3581SOL    HW222377   3.446   3.884   9.620 -0.3385  0.9577 -0.6691
 3582SOL     OW22378   4.516   3.353   7.070  0.1007  0.3969 -0.6998
 3582SOL    HW122379   4.430   3.311   7.059  0.4608 -0.1993 -1.2463
 3582SOL    HW222380   4.514   3.416   6.998  0.7428 -1.4511 -2.3257
 3583SOL     OW22381   1.329   4.147   8.122 -0.5470  0.0482 -0.7203
 3583SOL    HW122382   1.312   4.152   8.028 -2.6064 -0.1955 -0.3534
 3583SOL    HW222383   1.312   4.058   8.152 -1.2612  1.0421  1.7497
 3584SOL     OW22384   2.223   2.226  17.236  0.0580 -0.2962  0.3907
 3584SOL    HW122385   2.229   2.268  17.150 -1.1970 -2.9348 -0.9953
 3584SOL    HW222386   2.133   2.194  17.234  0.0490 -0.2875  0.6102
 3585SOL     OW22387   2.023   3.376   1.918 -0.1414 -0.7382  0.2670
 3585SOL    HW122388   2.117   3.369   1.936  0.2989  3.9650 -0.1308
 3585SOL    HW222389   2.020   3.428   1.837 -1.1881 -0.2537  0.6141
 3586SOL     OW22390   3.811   4.467  12.448 -0.3793 -0.0185 -0.9360
 3586SOL    HW122391   3.768   4.382  12.439 -0.5252 -0.1485  0.9513
 3586SOL    HW222392   3.904   4.444  12.447 -0.3951 -0.1622  0.7859
 3587SOL     OW22393   4.046   1.050   2.023  0.5084 -0.6580 -0.5001
 3587SOL    HW122394   4.139   1.029   2.012  0.3501  0.5822 -3.9237
 3587SOL    HW222395   4.041   1.099   2.105 -1.5259 -1.0645 -0.3860
 3588SOL     OW22396   0.476   2.055   2.186  0.3532 -0.1409 -0.0887
 3588SOL    HW122397   0.441   2.139   2.157  1.2597  0.8840  1.7944
 3588SOL    HW222398   0.398   2.005   2.213 -0.2309  1.7809  1.7876
 3589SOL     OW22399   2.193   0.244   6.298 -0.7356 -0.1053  0.2703
 3589SOL    HW122400   2.182   0.174   6.232  1.9576 -0.1342 -0.1657
 3589SOL    HW222401   2.288   0.249   6.286 -0.6718  1.6280  1.5547
 3590SOL     OW22402   2.959   2.690   8.256  0.3230  0.9512 -0.1698
 3590SOL    HW122403   3.041   2.679   8.209  1.9535 -0.6331  3.0466
 3590SOL    HW222404   2.991   2.690   8.347  0.2369  0.1434 -0.1399
 3591SOL     OW22405   2.170   4.721  12.144  0.3081  0.1712 -0.2323
 3591SOL    HW122406   2.263   4.737  12.160  0.2570 -1.0205  1.2581
 3591SOL    HW222407   2.185   4.629  12.165 -0.1361  0.0300 -0.5325
 3592SOL     OW22408   4.178   0.902   8.677  0.4282 -0.0632  0.3018
 3592SOL    HW122409   4.247   0.863   8.730  1.4694  0.4540 -0.6856
 3592SOL    HW222410   4.111   0.834   8.689 -0.0797  0.3550 -0.1603
 3593SOL     OW22411   1.645   2.569   6.775 -0.7447 -0.1370  0.2619
 3593SOL    HW122412   1.643   2.612   6.690 -1.5794  0.6375  0.6847
 3593SOL    HW222413   1.736   2.538   6.775 -0.6135  0.2492  1.3275
 3594SOL     OW22414   2.924   2.623   6.505  0.0033 -0.1733  0.2104
 3594SOL    HW122415   2.918   2.688   6.436  3.8379 -0.2580 -0.2434
 3594SOL    HW222416   2.846   2.638   6.558  0.9945  0.8529  1.3863
 3595SOL     OW22417   4.467   0.455   4.105  0.3832 -0.5508  0.5547
 3595SOL    HW122418   4.554   0.491   4.124  1.4652 -0.9196 -3.7053
 3595SOL    HW222419   4.406   0.523   4.133  0.2337 -0.6718  0.5254
 3596SOL     OW22420   2.794   3.135   4.422 -0.2898  0.2534 -0.2152
 3596SOL    HW122421   2.781   3.226   4.396  0.9338  0.3054 -0.6088
 3596SOL    HW222422   2.706   3.098   4.427  0.2596 -1.0073  0.1774
 3597SOL     OW22423   4.054   2.008   1.129 -0.0134  0.3220  0.2824
 3597SOL    HW122424   4.073   2.000   1.223 -0.5755  1.1375  0.4715
 3597SOL    HW222425   4.003   2.089   1.129 -0.4874  0.0199  0.2083
 3598SOL     OW22426   2.603   3.103   5.174  0.1387  0.3391  0.0335
 3598SOL    HW122427   2.594   3.016   5.212 -1.2719  0.2253 -0.5677
 3598SOL    HW222428   2.511   3.125   5.162  0.2781  2.7127  3.0234
 3599SOL     OW22429   2.857   2.808  16.193  0.0095 -0.0276 -0.3134
 3599SOL    HW122430   2.893   2.859  16.265 -0.3141 -0.5877  0.2450
 3599SOL    HW222431   2.814   2.878  16.144  2.0526  1.2781 -0.2157
 3600SOL     OW22432   2.903   4.400   3.677 -0.2255  0.2562 -0.8290
 3600SOL    HW122433   2.880   4.424   3.587  0.4743  1.6231 -0.6398
 3600SOL    HW222434   2.977   4.460   3.690  1.0561 -1.3649 -0.7321
 3601SOL     OW22435   3.040   4.257   4.457 -0.0359 -0.1168  0.2590
 3601SOL    HW122436   3.133   4.257   4.435  0.4286 -0.0339  2.2406
 3601SOL    HW222437   3.014   4.336   4.409  2.7162  1.2685  1.0046
 3602SOL     OW22438   3.143   1.521   6.394  0.9456 -0.6097 -0.0623
 3602SOL    HW122439   3.096   1.605   6.395  0.2807 -0.9995  0.4910
 3602SOL    HW222440   3.235   1.547   6.386  1.2572 -1.4954  0.7316
 3603SOL     OW22441   2.906   0.201  15.171  0.3411  0.0931 -0.7980
 3603SOL    HW122442   2.853   0.138  15.123 -0.7531 -0.2021  0.7820
 3603SOL    HW222443   2.981   0.222  15.116  0.2984 -0.3195 -1.0136
 3604SOL     OW22444   3.054   1.576  13.714  0.3019 -0.5574 -0.5941
 3604SOL    HW122445   3.052   1.532  13.798  0.4712  1.6245  0.5502
 3604SOL    HW222446   3.140   1.618  13.726 -0.5410  1.1732 -0.6089
 3605SOL     OW22447   1.392   0.285   7.439  0.0608  0.2205 -0.2732
 3605SOL    HW122448   1.476   0.286   7.393 -0.6848 -0.3161 -1.6492
 3605SOL    HW222449   1.342   0.358   7.401  1.7605  0.7562 -1.4599
 3606SOL     OW22450   3.047   3.384   4.534 -0.0823 -0.3976  0.4234
 3606SOL    HW122451   3.047   3.431   4.450 -0.1919 -2.2739 -0.6334
 3606SOL    HW222452   3.036   3.293   4.504  1.5470 -0.4723  0.0277
 3607SOL     OW22453   0.959   0.358   3.933  0.4518  0.0940 -0.9677
 3607SOL    HW122454   0.941   0.404   4.015  0.9135  2.9767 -2.4822
 3607SOL    HW222455   0.870   0.358   3.896 -0.1631  3.2562  0.4999
 3608SOL     OW22456   4.729   3.688   6.506 -0.3356  0.4650 -0.3374
 3608SOL    HW122457   4.654   3.739   6.535 -0.2391 -0.7193  2.0008
 3608SOL    HW222458   0.044   3.678   6.583  0.6729 -0.2282 -1.1490
 3609SOL     OW22459   2.275   0.591   6.659 -0.6518 -0.0098 -0.4851
 3609SOL    HW122460   2.199   0.648   6.651 -1.1916 -0.5393  0.9226
 3609SOL    HW222461   2.240   0.513   6.614 -1.5899 -0.9334  1.8483
 3610SOL     OW22462   1.473   2.575  12.910  0.0694 -0.4669  0.5045
 3610SOL    HW122463   1.409   2.591  12.841  0.8652 -0.0888 -0.1532
 3610SOL    HW222464   1.459   2.482  12.929  0.7083 -0.3663  1.4560
 3611SOL     OW22465   2.659   3.737   3.125  0.3554  0.8556 -0.8027
 3611SOL    HW122466   2.622   3.806   3.070  0.0599  1.0637 -0.3358
 3611SOL    HW222467   2.658   3.663   3.064  0.8399 -0.5737  0.9311
 3612SOL     OW22468   0.201   0.435   5.894  0.1987 -0.1022 -0.4436
 3612SOL    HW122469   0.168   0.507   5.840  1.5775 -1.6084 -3.2921
 3612SOL    HW222470   0.122   0.402   5.936 -0.0889 -0.3771 -1.2089
 3613SOL     OW22471   3.872   2.764   6.953  0.5901  0.0900  0.1000
 3613SOL    HW122472   3.883   2.694   7.018 -1.9119 -1.6435 -1.3520
 3613SOL    HW222473   3.826   2.840   6.989  0.2763  0.3012 -0.7578
 3614SOL     OW22474   3.198   1.660   1.467  0.1977  0.0677 -0.0675
 3614SOL    HW122475   3.200   1.681   1.560 -1.4559  0.1604 -0.0479
 3614SOL    HW222476   3.243   1.737   1.432  0.0437 -0.1605 -0.7661
 3615SOL     OW22477   0.571   3.119   8.304  0.3565 -0.2117 -0.5270
 3615SOL    HW122478   0.595   3.029   8.284 -0.3993 -0.5546  0.1110
 3615SOL    HW222479   0.507   3.104   8.374  0.4612  0.0242 -0.3789
 3616SOL     OW22480   1.602   1.222   3.512  0.7578 -0.2305  0.2235
 3616SOL    HW122481   1.674   1.237   3.450  1.6358 -2.7400  0.6468
 3616SOL    HW222482   1.533   1.203   3.448 -1.0898  2.1615  1.5275
 3617SOL     OW22483   1.942   2.008   5.269 -0.1223  0.4097 -0.0212
 3617SOL    HW122484   1.855   1.968   5.275 -0.0919 -0.3282 -4.1092
 3617SOL    HW222485   1.983   1.948   5.206 -1.2119 -1.6401  1.1992
 3618SOL     OW22486   0.570   1.474   6.721  0.6592 -0.6310  0.0452
 3618SOL    HW122487   0.638   1.482   6.788 -0.6501  1.2011  1.1623
 3618SOL    HW222488   0.580   1.558   6.676  0.7295 -0.1587  0.9511
 3619SOL     OW22489   1.282   3.402  13.498 -0.2408  0.1741 -0.0619
 3619SOL    HW122490   1.197   3.435  13.525  0.7593  2.6987  0.0083
 3619SOL    HW222491   1.253   3.318  13.463 -0.4240  1.0509 -2.0065
 3620SOL     OW22492   2.673   1.216  16.020 -0.2059  0.0561  0.6219
 3620SOL    HW122493   2.673   1.120  16.017 -0.9274  0.0908 -0.6899
 3620SOL    HW222494   2.750   1.221  15.963 -0.6846  0.9291  0.0445
 3621SOL     OW22495   2.968   3.641   6.854  0.1629 -0.1508  0.4143
 3621SOL    HW122496   3.046   3.612   6.901  1.0191  0.6335 -0.5352
 3621SOL    HW222497   2.905   3.579   6.890  0.5511 -0.2283  0.9606
 3622SOL     OW22498   1.958   1.133   4.080 -0.1626 -0.1525 -0.0163
 3622SOL    HW122499   1.965   1.221   4.043  4.7949 -0.1783  0.7650
 3622SOL    HW222500   1.886   1.140   4.142 -0.0274  1.9036 -0.0892
 3623SOL     OW22501   4.259   3.964   8.745  0.6865  0.4492  0.0499
 3623SOL    HW122502   4.175   4.001   8.719  0.7143 -0.1774 -0.9534
 3623SOL    HW222503   4.231   3.898   8.808  0.6267  0.7989  0.3901
 3624SOL     OW22504   3.902   3.652  15.169 -0.7658  0.1413 -0.8862
 3624SOL    HW122505   3.948   3.589  15.225  0.0121  0.2681 -1.3793
 3624SOL    HW222506   3.850   3.598  15.110 -1.2912  0.9082 -1.1291
 3625SOL     OW22507   0.788   1.600   0.212  0.2804 -0.6197  0.1570
 3625SOL    HW122508   0.739   1.625   0.133 -1.8415  0.7406  1.9211
 3625SOL    HW222509   0.836   1.674   0.249  0.9373 -2.0921  2.2451
 3626SOL     OW22510   1.623   0.351   4.553  0.1938  0.4891 -0.0623
 3626SOL    HW122511   1.635   0.345   4.458 -1.0050  4.3771 -0.4402
 3626SOL    HW222512   1.599   0.443   4.563  1.7157  0.6588  2.1111
 3627SOL     OW22513   2.835   0.506   2.532 -0.1915  0.5027 -0.1370
 3627SOL    HW122514   2.873   0.592   2.514  0.4112  0.5091  1.1309
 3627SOL    HW222515   2.749   0.514   2.491  0.0288  0.9816 -0.5130
 3628SOL     OW22516   4.216   3.207  10.089  0.3384 -0.0044  0.2483
 3628SOL    HW122517   4.311   3.209  10.099  0.4244 -0.6674 -0.4210
 3628SOL    HW222518   4.212   3.111  10.093 -1.5484 -0.0161 -1.6649
 3629SOL     OW22519   3.792   4.429   2.780  0.0552 -0.0978  0.1216
 3629SOL    HW122520   3.775   4.364   2.848  2.5688  1.3008  2.0792
 3629SOL    HW222521   3.704   4.468   2.772 -0.0960 -0.3884  0.3699
 3630SOL     OW22522   0.885   1.327   5.868  0.3310 -0.2489 -0.2855
 3630SOL    HW122523   0.923   1.262   5.808 -0.0959 -2.0587  1.4203
 3630SOL    HW222524   0.801   1.348   5.826 -0.3511  0.1788  1.2902
 3631SOL     OW22525   1.080   3.556   7.446  0.3128  0.0277  0.1846
 3631SOL    HW122526   1.030   3.490   7.398  0.1629 -0.8227  1.5047
 3631SOL    HW222527   1.048   3.538   7.535  0.6077  3.0091  0.8899
 3632SOL     OW22528   4.021   2.619   8.587  0.7335 -0.2902  0.7112
 3632SOL    HW122529   4.088   2.686   8.571 -0.2776  0.3106 -1.0415
 3632SOL    HW222530   4.025   2.573   8.503 -2.3670  0.4318  0.1916
 3633SOL     OW22531   0.056   0.357   9.008 -0.3076  0.2776  0.4293
 3633SOL    HW122532   4.724   0.296   9.000  0.9774 -1.2256  0.0729
 3633SOL    HW222533   0.105   0.302   9.069  1.0302 -0.3630 -1.2129
 3634SOL     OW22534   0.913   4.519   1.666  0.3322 -0.1169  0.2890
 3634SOL    HW122535   0.896   4.493   1.757  2.7987  0.6280  0.9677
 3634SOL    HW222536   0.822   4.530   1.641 -0.1300 -1.9308  1.2103
 3635SOL     OW22537   3.816   4.479   4.901 -0.3485 -0.4086  0.0947
 3635SOL    HW122538   3.757   4.527   4.959  0.9634  0.2184  0.9101
 3635SOL    HW222539   3.894   4.533   4.887 -0.5560  0.0884  0.8270
 3636SOL     OW22540   0.908   4.675   8.355 -0.2290 -0.7101 -1.0154
 3636SOL    HW122541   0.813   4.680   8.347 -0.4605 -1.0555  1.7049
 3636SOL    HW222542   0.939   4.622   8.281  0.5540 -0.6639 -0.7164
 3637SOL     OW22543   0.453   4.715   3.303  0.1134 -0.6992  0.6711
 3637SOL    HW122544   0.499   0.017   3.231 -2.3263 -0.3696 -0.6973
 3637SOL    HW222545   0.483   0.025   3.377 -0.8589  1.3982 -0.4058
 3638SOL     OW22546   4.384   2.854   2.399 -0.4765  0.2251 -0.1144
 3638SOL    HW122547   4.298   2.881   2.367 -0.4587  1.4503  0.8469
 3638SOL    HW222548   4.428   2.799   2.335  0.2793  0.6534  0.0355
 3639SOL     OW22549   4.620   4.136   9.245  0.2375  0.1723  0.2332
 3639SOL    HW122550   4.670   4.064   9.285  0.1866 -0.5402 -0.9955
 3639SOL    HW222551   4.632   4.122   9.151 -2.2761  0.5315 -0.1333
 3640SOL     OW22552   2.146   1.551   1.357 -0.2663  0.2245  0.4752
 3640SOL    HW122553   2.099   1.495   1.295  0.2060  0.5926 -0.2210
 3640SOL    HW222554   2.124   1.637   1.321 -0.1204  0.1598  0.2308
 3641SOL     OW22555   1.399   1.778   5.875  0.7154 -0.3664 -0.8408
 3641SOL    HW122556   1.436   1.845   5.931 -1.5110  0.3059 -0.1596
 3641SOL    HW222557   1.304   1.792   5.882  0.7504  0.0905 -1.2829
 3642SOL     OW22558   0.378   0.972   3.284 -0.2081 -0.1840  0.3287
 3642SOL    HW122559   0.448   0.981   3.219  1.1297  0.9622  1.9386
 3642SOL    HW222560   0.393   1.041   3.348 -0.4100  0.1192  0.0515
 3643SOL     OW22561   1.130   2.337   6.888 -0.1992  0.1710 -0.3930
 3643SOL    HW122562   1.190   2.402   6.851  1.9226 -2.5395 -1.7212
 3643SOL    HW222563   1.198   2.280   6.925 -0.0140  0.3988 -0.3835
 3644SOL     OW22564   2.100   2.961  13.037  0.5188 -0.2481 -0.1665
 3644SOL    HW122565   2.011   2.927  13.023 -0.0160  0.6001  1.2116
 3644SOL    HW222566   2.120   2.926  13.125 -0.2477  0.3709  0.2487
 3645SOL     OW22567   3.895   4.713   2.237 -0.2139  0.3429 -0.3728
 3645SOL    HW122568   3.947   4.633   2.231  0.0251  0.4676  0.0032
 3645SOL    HW222569   3.830   4.694   2.169 -1.0569  2.7736 -0.2515
 3646SOL     OW22570   2.682   2.580   8.010 -0.1797 -0.0366  0.1459
 3646SOL    HW122571   2.729   2.627   7.941  0.1884  0.9013  1.0353
 3646SOL    HW222572   2.701   2.489   7.985 -1.4399  0.3160 -2.0505
 3647SOL     OW22573   0.990   4.256   0.632  0.3931  0.0640  0.0887
 3647SOL    HW122574   0.905   4.222   0.659  0.9907 -0.9566  0.6679
 3647SOL    HW222575   1.033   4.189   0.580  2.5975  1.6127 -0.0620
 3648SOL     OW22576   0.314   1.610  13.883 -0.3457  0.5610 -0.2521
 3648SOL    HW122577   0.295   1.548  13.813 -0.9562 -0.7337  1.0727
 3648SOL    HW222578   0.408   1.626  13.873 -0.0105 -0.8093  0.8121
 3649SOL     OW22579   0.341   4.503   5.288 -0.5665  0.2674  0.1606
 3649SOL    HW122580   0.388   4.574   5.332 -0.5227  1.2322 -1.4461
 3649SOL    HW222581   0.312   4.561   5.217 -0.0881  0.7017  0.3162
 3650SOL     OW22582   0.203   2.895   2.633  0.1726  0.4507 -0.1014
 3650SOL    HW122583   0.283   2.893   2.581  0.1521  2.0911 -0.1790
 3650SOL    HW222584   0.142   2.942   2.577 -0.7316 -1.4271 -0.6984
 3651SOL     OW22585   1.529   0.156   5.908 -0.3117  0.2722  0.1660
 3651SOL    HW122586   1.529   0.103   5.828 -1.2390 -0.9809  0.9988
 3651SOL    HW222587   1.623   0.158   5.928 -0.4605 -0.1000  0.9346
 3652SOL     OW22588   4.111   1.312   2.505 -0.0561  0.0691  0.4905
 3652SOL    HW122589   4.122   1.356   2.589 -0.0749 -0.5007  0.7922
 3652SOL    HW222590   4.094   1.385   2.445  0.6358 -1.0631 -1.0960
 3653SOL     OW22591   2.405   3.926   8.433  0.6727  0.8152 -0.2251
 3653SOL    HW122592   2.398   3.952   8.525  0.6853  1.0652 -0.2957
 3653SOL    HW222593   2.478   3.977   8.398 -1.0115  3.1047 -0.3636
 3654SOL     OW22594   3.790   1.156   8.782 -0.2528 -0.4387  0.4594
 3654SOL    HW122595   3.851   1.116   8.721  0.2720 -1.6645  1.8007
 3654SOL    HW222596   3.843   1.224   8.823 -0.3262 -0.4916  0.6410
 3655SOL     OW22597   2.557   2.276   3.709  0.4499 -0.0972  0.2965
 3655SOL    HW122598   2.589   2.289   3.620 -0.7857  2.5302  0.2314
 3655SOL    HW222599   2.552   2.181   3.718  5.3179 -0.7244 -3.4498
 3656SOL     OW22600   3.904   4.031  11.758 -0.0940  0.3547 -0.0257
 3656SOL    HW122601   3.948   3.947  11.771  0.8864  0.9031  0.2565
 3656SOL    HW222602   3.875   4.050  11.847 -1.7775  0.7210 -0.6682
 3657SOL     OW22603   2.726   0.580   4.421  0.0350  0.2849 -0.3765
 3657SOL    HW122604   2.741   0.584   4.327 -0.6136 -0.0569 -0.4924
 3657SOL    HW222605   2.808   0.541   4.452  0.2668  0.5847 -0.6051
 3658SOL     OW22606   1.103   1.796   3.947  0.6605  0.2419 -0.0964
 3658SOL    HW122607   1.110   1.708   3.910 -1.9572 -0.3353  0.7922
 3658SOL    HW222608   1.035   1.827   3.887  0.3257  0.4130  0.3812
 3659SOL     OW22609   2.637   4.667   9.120 -0.8156 -0.3268  0.0484
 3659SOL    HW122610   2.605   4.591   9.072 -1.1443 -2.3950  3.5147
 3659SOL    HW222611   2.725   4.682   9.086 -1.6668  0.4714 -1.7374
 3660SOL     OW22612   2.053   2.562   5.079 -0.1785 -0.0675  0.0309
 3660SOL    HW122613   2.053   2.646   5.033  1.4583  0.0844  0.3313
 3660SOL    HW222614   1.962   2.557   5.110 -0.0614  2.4721  0.7321
 3661SOL     OW22615   2.487   1.446   6.547 -0.4860  0.7162 -0.3181
 3661SOL    HW122616   2.449   1.426   6.632  0.7116  0.0529  0.0620
 3661SOL    HW222617   2.440   1.379   6.498 -0.8147  0.2651  0.6141
 3662SOL     OW22618   3.047   1.276   6.599  0.2584 -0.0279 -0.3206
 3662SOL    HW122619   3.078   1.337   6.532 -0.3714  1.1872  0.4787
 3662SOL    HW222620   2.953   1.293   6.593  0.4936  1.0018 -1.0972
 3663SOL     OW22621   3.013   1.213   3.297 -0.4056  0.5933  0.4103
 3663SOL    HW122622   2.955   1.247   3.229  1.8552 -0.4766 -2.0808
 3663SOL    HW222623   2.973   1.244   3.378 -2.0310  2.2738 -1.0424
 3664SOL     OW22624   0.179   4.608  16.377  0.1790  0.2148 -0.3723
 3664SOL    HW122625   0.237   4.652  16.440 -0.9485  0.7462  0.3006
 3664SOL    HW222626   0.241   4.553  16.329  0.8884  0.6768  0.0118
 3665SOL     OW22627   4.606   2.294   6.727  0.0736 -0.2500 -0.6011
 3665SOL    HW122628   4.698   2.294   6.699  0.5976  0.9202  1.1536
 3665SOL    HW222629   4.579   2.232   6.659  2.0965 -1.5813 -0.2147
 3666SOL     OW22630   2.999   1.915   6.007  0.5786  0.0431 -0.5536
 3666SOL    HW122631   2.980   1.828   6.041  1.1197 -0.3379 -1.2296
 3666SOL    HW222632   3.047   1.949   6.083 -1.1551  1.4575 -0.0948
 3667SOL     OW22633   3.624   3.236   6.909  0.2022 -0.2533  0.2376
 3667SOL    HW122634   3.573   3.169   6.864  0.3906  0.0246 -0.3936
 3667SOL    HW222635   3.551   3.291   6.936  1.0121  1.0261 -0.1773
 3668SOL     OW22636   3.290   2.350  15.813 -0.2788  0.7052 -0.2954
 3668SOL    HW122637   3.377   2.363  15.851 -1.2984  0.2529  2.1511
 3668SOL    HW222638   3.275   2.258  15.835  1.4680  0.0762 -1.7216
 3669SOL     OW22639   3.592   2.792  14.212  0.1130  0.1845 -0.5110
 3669SOL    HW122640   3.523   2.851  14.181 -0.5493 -0.6008 -0.5144
 3669SOL    HW222641   3.664   2.794  14.149  0.0258  0.1596 -0.6111
 3670SOL     OW22642   0.087   2.850  12.795  0.8043  0.7868 -0.1424
 3670SOL    HW122643   0.031   2.905  12.740  0.3298  1.6340  1.1975
 3670SOL    HW222644   0.156   2.838  12.730  0.6260  1.2238 -0.4136
 3671SOL     OW22645   0.791   0.403   2.497 -0.1200  0.3725 -0.4944
 3671SOL    HW122646   0.843   0.351   2.558 -1.6353 -0.5899 -0.0140
 3671SOL    HW222647   0.738   0.440   2.568 -3.4067 -1.8074 -1.7724
 3672SOL     OW22648   2.512   1.563   5.468  0.6207  0.0981 -0.2333
 3672SOL    HW122649   2.417   1.567   5.471  0.5391 -1.6415 -0.2854
 3672SOL    HW222650   2.538   1.488   5.522 -0.8727 -0.0521  0.2620
 3673SOL     OW22651   0.437   1.632   1.681  0.3635  0.1835  0.3011
 3673SOL    HW122652   0.485   1.559   1.721 -0.4880  1.0609  2.8787
 3673SOL    HW222653   0.406   1.589   1.600  0.9265 -0.0388  0.2042
 3674SOL     OW22654   0.439   2.230   5.818 -0.0095  0.2337  0.5537
 3674SOL    HW122655   0.511   2.169   5.828  1.7886  2.5602  1.8759
 3674SOL    HW222656   0.466   2.293   5.884 -1.0398  1.6741 -0.3882
 3675SOL     OW22657   3.931   4.653   2.519 -0.0131  0.6259 -0.0300
 3675SOL    HW122658   3.956   4.576   2.570 -4.6119 -1.3428 -0.6647
 3675SOL    HW222659   3.908   4.616   2.434 -1.0410 -0.2913  0.6346
 3676SOL     OW22660   2.766   2.571   5.348 -0.5701  0.4818  0.5263
 3676SOL    HW122661   2.709   2.517   5.293  0.6324  0.5469 -0.7843
 3676SOL    HW222662   2.733   2.538   5.431  1.4508 -1.6741  0.4830
 3677SOL     OW22663   2.577   1.866   6.105 -0.3519  0.2159 -0.1978
 3677SOL    HW122664   2.483   1.884   6.117 -0.9559 -1.0419 -2.8544
 3677SOL    HW222665   2.586   1.881   6.011 -3.3303  1.1863 -0.3503
 3678SOL     OW22666   4.690   4.087  11.795  0.2299  0.0298  0.1955
 3678SOL    HW122667   4.672   4.001  11.757 -0.2853 -1.0820  2.9422
 3678SOL    HW222668   4.660   4.070  11.884 -1.8795 -2.0964 -0.9240
 3679SOL     OW22669   4.090   0.026   8.133 -0.3990  0.3717  0.4255
 3679SOL    HW122670   4.079   0.023   8.038  0.7016 -2.0243  0.3817
 3679SOL    HW222671   4.135   4.684   8.140  1.0842  1.0029 -1.7392
 3680SOL     OW22672   4.036   1.540   4.026 -0.2449 -0.6728 -0.8097
 3680SOL    HW122673   4.039   1.550   4.122 -1.5418 -0.3122 -0.8118
 3680SOL    HW222674   4.129   1.535   4.003  0.3967 -0.4305  1.6856
 3681SOL     OW22675   0.313   0.890   8.859 -0.1634 -0.1074  0.2575
 3681SOL    HW122676   0.368   0.818   8.891  1.4771  2.0183  2.2012
 3681SOL    HW222677   0.377   0.961   8.854 -1.0855  0.7796  1.3034
 3682SOL     OW22678   4.026   3.480   8.922  0.3068 -0.0293  0.2309
 3682SOL    HW122679   4.063   3.394   8.943 -0.0886 -0.9273 -2.7486
 3682SOL    HW222680   4.067   3.493   8.837 -0.2580  0.6608  0.0604
 3683SOL     OW22681   1.048   4.415  10.714  0.5210  0.2325 -0.3879
 3683SOL    HW122682   1.047   4.320  10.723 -0.0763  0.0883 -1.9422
 3683SOL    HW222683   0.977   4.430  10.652 -0.6583  1.0062  1.1525
 3684SOL     OW22684   2.376   2.895   4.138 -0.3242 -0.4469  0.2328
 3684SOL    HW122685   2.315   2.929   4.073 -1.1772 -3.8252 -0.7385
 3684SOL    HW222686   2.350   2.803   4.148 -1.7037 -0.0084  0.5904
 3685SOL     OW22687   4.048   4.482   2.221  0.0856 -0.5529 -0.2415
 3685SOL    HW122688   4.099   4.492   2.141  1.6293  0.8861  0.9162
 3685SOL    HW222689   4.066   4.389   2.235 -1.5968 -0.9709 -0.8425
 3686SOL     OW22690   0.446   0.747   7.422 -0.8144  0.4716 -0.3348
 3686SOL    HW122691   0.489   0.725   7.505 -0.3115 -1.1593 -1.0385
 3686SOL    HW222692   0.423   0.838   7.439 -2.1082  0.2988 -1.2536
 3687SOL     OW22693   0.541   3.143   5.778 -0.3846 -0.0809  0.0084
 3687SOL    HW122694   0.491   3.071   5.740  0.4691 -0.7548  0.1817
 3687SOL    HW222695   0.458   3.190   5.783  0.0053  0.5290  0.7720
 3688SOL     OW22696   0.921   2.876   8.959  0.0989 -0.4823 -0.2590
 3688SOL    HW122697   0.936   2.812   9.028 -1.5835  1.0687  1.5406
 3688SOL    HW222698   1.011   2.884   8.927  0.4119 -1.7425  0.3273
 3689SOL     OW22699   0.813   0.882   5.141 -0.2568  0.0194 -0.4938
 3689SOL    HW122700   0.808   0.928   5.225  0.4156 -1.7896  0.5394
 3689SOL    HW222701   0.897   0.838   5.156 -0.5454 -0.6499 -0.8473
 3690SOL     OW22702   3.161   0.226   5.403 -0.3593  0.5510 -0.1808
 3690SOL    HW122703   3.112   0.264   5.476 -1.2259 -0.7000 -0.1264
 3690SOL    HW222704   3.164   0.303   5.346  1.5022  1.1949  0.7590
 3691SOL     OW22705   1.607   3.876  16.584 -0.2527 -0.2779 -0.2221
 3691SOL    HW122706   1.687   3.851  16.631  1.3715  1.9815 -1.7806
 3691SOL    HW222707   1.624   3.827  16.504 -2.0599 -2.4692  0.7263
 3692SOL     OW22708   0.313   1.381   8.268 -0.2164 -0.3128  0.6994
 3692SOL    HW122709   0.347   1.347   8.185 -2.9261 -1.7261  0.1551
 3692SOL    HW222710   0.237   1.326   8.289  0.6282 -0.3359  3.7342
 3693SOL     OW22711   0.290   3.509   8.860 -0.7904 -0.7946 -0.2016
 3693SOL    HW122712   0.353   3.481   8.926 -3.3031 -1.7867  1.7925
 3693SOL    HW222713   0.355   3.520   8.790 -0.0795 -1.4172  0.3636
 3694SOL     OW22714   2.404   2.132   4.429 -0.3566 -0.2428 -0.1627
 3694SOL    HW122715   2.352   2.194   4.378 -0.1046  1.3493  1.5060
 3694SOL    HW222716   2.443   2.182   4.501  1.9994 -0.7861 -1.0701
 3695SOL     OW22717   4.028   0.086   7.242  0.0073  0.3549 -0.0442
 3695SOL    HW122718   4.051   0.166   7.289 -1.9331 -0.5514  2.4663
 3695SOL    HW222719   3.969   0.047   7.306  0.3315 -2.7983 -1.6559
 3696SOL     OW22720   1.470   4.082   7.508  0.3874  0.5746 -0.2274
 3696SOL    HW122721   1.529   4.017   7.547 -1.7679 -1.3968 -0.2334
 3696SOL    HW222722   1.440   4.139   7.579 -0.2533 -2.6726  2.1392
 3697SOL     OW22723   4.252   0.891   9.036 -0.3271 -0.7099  0.4204
 3697SOL    HW122724   4.187   0.825   9.060 -2.4543  0.7222 -1.3944
 3697SOL    HW222725   4.332   0.840   9.027  1.6914  2.8545 -1.9192
 3698SOL     OW22726   3.261   0.862  10.191  0.0228 -0.5896 -0.7147
 3698SOL    HW122727   3.185   0.826  10.145 -0.9267  1.7904 -0.9974
 3698SOL    HW222728   3.255   0.951  10.157 -1.0844 -0.1770  0.5593
 3699SOL     OW22729   0.942   1.200   4.336 -0.0640  0.1579  0.0359
 3699SOL    HW122730   0.984   1.156   4.409  1.0081  0.8392 -0.1802
 3699SOL    HW222731   0.999   1.274   4.314 -0.4974  0.1857 -1.0107
 3700SOL     OW22732   1.043   4.486   4.899 -0.2673  0.0276 -0.3045
 3700SOL    HW122733   0.999   4.406   4.927 -0.5685 -0.0419 -0.9755
 3700SOL    HW222734   0.993   4.552   4.947 -0.2978 -3.7942  4.8744
 3701SOL     OW22735   0.597   3.135   7.691 -0.2822  0.0923  0.8512
 3701SOL    HW122736   0.579   3.066   7.754  1.0437 -2.4538 -1.5495
 3701SOL    HW222737   0.587   3.214   7.744  1.8452  1.0939 -0.2379
 3702SOL     OW22738   4.002   2.494   8.340 -0.3349 -0.7223  0.4590
 3702SOL    HW122739   4.017   2.445   8.259 -0.7115  0.0647 -0.0904
 3702SOL    HW222740   3.979   2.577   8.298  0.2368 -1.4836 -1.3826
 3703SOL     OW22741   1.046   3.399   7.697  0.4920  1.0872  0.0111
 3703SOL    HW122742   1.050   3.423   7.790 -1.1327  2.6127 -0.3176
 3703SOL    HW222743   0.991   3.322   7.711 -1.3494  2.5318  0.7101
 3704SOL     OW22744   2.834   2.503  10.144 -0.0344  0.1081  0.0882
 3704SOL    HW122745   2.879   2.499  10.229  0.8870 -0.7213 -0.4388
 3704SOL    HW222746   2.907   2.462  10.098  2.2079  1.9133  2.0075
 3705SOL     OW22747   4.242   2.279   8.145 -0.3701 -0.4850 -0.0700
 3705SOL    HW122748   4.249   2.351   8.208  0.9696 -1.7544  1.2354
 3705SOL    HW222749   4.152   2.295   8.117 -0.6736  1.4533  1.9726
 3706SOL     OW22750   2.077   0.438   5.117  0.2658  0.5226  0.1471
 3706SOL    HW122751   1.984   0.455   5.108 -0.3239 -1.2040  3.1996
 3706SOL    HW222752   2.086   0.377   5.190  0.2944 -1.6316 -1.6729
 3707SOL     OW22753   0.215   0.916   7.814  0.0329  0.0782 -0.6662
 3707SOL    HW122754   0.223   0.830   7.775 -1.6337  0.5208 -1.9784
 3707SOL    HW222755   0.121   0.934   7.822 -0.4152 -1.9512 -1.3988
 3708SOL     OW22756   0.423   3.046   1.015  0.4664  0.5294  0.0976
 3708SOL    HW122757   0.429   3.135   0.981 -1.3286  0.3719 -0.6244
 3708SOL    HW222758   0.435   3.001   0.931  0.1882  2.5378 -1.0002
 3709SOL     OW22759   4.018   3.343   1.712  0.5619 -0.4472  0.1353
 3709SOL    HW122760   4.082   3.285   1.671  0.8412  1.0316 -1.5193
 3709SOL    HW222761   4.054   3.429   1.693 -0.3412 -0.4190 -1.4559
 3710SOL     OW22762   3.175   4.379  14.119  0.5800  0.0738 -0.0476
 3710SOL    HW122763   3.109   4.383  14.188 -0.1386 -0.7086 -0.6920
 3710SOL    HW222764   3.254   4.376  14.174 -1.3310  0.4266  2.6952
 3711SOL     OW22765   2.228   0.589  13.104  0.0046 -0.5415  0.0133
 3711SOL    HW122766   2.220   0.496  13.082 -0.7313  0.2108 -3.0313
 3711SOL    HW222767   2.301   0.612  13.046 -2.0987 -0.5062 -2.6144
 3712SOL     OW22768   2.052   3.094   5.166  0.2754 -0.5740 -0.0574
 3712SOL    HW122769   1.997   3.015   5.165  0.8292 -0.9597 -0.4184
 3712SOL    HW222770   2.042   3.110   5.260 -0.0105 -0.5990 -0.0828
 3713SOL     OW22771   1.211   1.818   3.091 -0.0013  0.3703 -0.0902
 3713SOL    HW122772   1.241   1.731   3.064 -1.6642 -1.2381  3.2943
 3713SOL    HW222773   1.118   1.795   3.093  0.2696 -0.8893 -1.3856
 3714SOL     OW22774   0.343   2.247   7.761  0.5560 -0.2016 -0.1711
 3714SOL    HW122775   0.393   2.224   7.839  0.7461  0.2625 -0.1562
 3714SOL    HW222776   0.273   2.184   7.778  1.2069 -0.9068 -0.1500
 3715SOL     OW22777   0.324   1.550   6.895 -0.1053  0.2840 -0.0132
 3715SOL    HW122778   0.342   1.500   6.816 -1.3529  0.2271 -0.2560
 3715SOL    HW222779   0.265   1.490   6.941  0.1502 -2.2809 -3.0836
 3716SOL     OW22780   4.056   2.227   1.529  0.4231  0.0910  0.0770
 3716SOL    HW122781   3.995   2.257   1.461  1.3523  2.0418  0.0993
 3716SOL    HW222782   4.139   2.249   1.487 -0.4811  2.9853 -0.2168
 3717SOL     OW22783   3.357   3.760  14.596 -0.0363  0.1606  0.1695
 3717SOL    HW122784   3.319   3.755  14.509 -0.1577 -0.3518  0.2511
 3717SOL    HW222785   3.367   3.666  14.612  0.7453  0.2652  0.2996
 3718SOL     OW22786   3.648   4.415   7.185  0.8326  0.3291  0.4629
 3718SOL    HW122787   3.684   4.332   7.215  1.4806  0.4636  0.0737
 3718SOL    HW222788   3.679   4.426   7.094 -1.2682 -0.7988 -0.3870
 3719SOL     OW22789   3.488   0.454   7.176  0.3684 -1.0880 -0.4633
 3719SOL    HW122790   3.529   0.505   7.246 -0.3506  0.4348 -1.1545
 3719SOL    HW222791   3.417   0.407   7.218  1.7620 -2.0170  0.8601
 3720SOL     OW22792   2.309   0.075   7.424  0.0364 -0.3586 -0.0777
 3720SOL    HW122793   2.338   0.164   7.406  0.6687 -0.6145 -0.2955
 3720SOL    HW222794   2.267   0.087   7.510 -0.0128  0.9487 -0.2960
 3721SOL     OW22795   4.396   3.205   5.811  0.0578 -0.1586  0.1240
 3721SOL    HW122796   4.319   3.235   5.861  1.1870 -0.2546  1.9265
 3721SOL    HW222797   4.463   3.271   5.830  1.0692 -0.6500 -1.8596
 3722SOL     OW22798   4.385   1.226   7.666 -0.2506  0.6050  0.2312
 3722SOL    HW122799   4.350   1.213   7.578 -2.1304  3.6737  0.5127
 3722SOL    HW222800   4.481   1.226   7.656 -0.3011 -1.7015 -0.0612
 3723SOL     OW22801   4.234   4.229   3.518 -0.1428  0.4128 -0.0647
 3723SOL    HW122802   4.315   4.195   3.556 -0.6480 -0.8076 -0.0890
 3723SOL    HW222803   4.261   4.317   3.490 -3.4890  1.4146 -0.1226
 3724SOL     OW22804   4.607   2.576   4.524  0.3665  0.0178 -0.2199
 3724SOL    HW122805   4.683   2.563   4.466 -0.4594  0.3430 -1.3605
 3724SOL    HW222806   4.600   2.671   4.522 -0.4055 -0.0163  0.9731
 3725SOL     OW22807   3.641   3.558  10.624  0.1013 -0.1933 -0.1686
 3725SOL    HW122808   3.546   3.549  10.616 -0.2499  2.1283  1.4917
 3725SOL    HW222809   3.661   3.495  10.693 -0.8700 -0.0402  0.2547
 3726SOL     OW22810   2.190   0.581   1.938  0.5715 -0.4469  0.2388
 3726SOL    HW122811   2.161   0.546   1.854  1.6970 -2.0059  0.5166
 3726SOL    HW222812   2.115   0.566   1.997 -0.9999  0.8433 -1.4324
 3727SOL     OW22813   1.143   1.262  11.448  0.0023 -0.0398 -0.1731
 3727SOL    HW122814   1.125   1.355  11.461 -1.8661 -0.6196  1.2909
 3727SOL    HW222815   1.145   1.267  11.352  0.2765  0.3619 -0.1485
 3728SOL     OW22816   3.129   4.583   8.548  1.1122  0.0527  0.4834
 3728SOL    HW122817   3.167   4.668   8.525 -0.0804  0.7451  1.0692
 3728SOL    HW222818   3.206   4.527   8.538 -0.2206 -1.3866 -1.7084
 3729SOL     OW22819   1.720   1.782   2.877 -0.4581  0.4110  0.5074
 3729SOL    HW122820   1.664   1.788   2.800 -2.0520 -0.2226  1.6187
 3729SOL    HW222821   1.665   1.768   2.954 -0.8119  0.9997  0.3686
 3730SOL     OW22822   3.043   4.008  12.619  0.4897 -0.4100  0.1032
 3730SOL    HW122823   2.980   4.004  12.691  0.2651 -0.2262 -0.0869
 3730SOL    HW222824   2.985   3.966  12.556 -0.6956  2.5208 -0.7265
 3731SOL     OW22825   0.484   4.659  16.326 -0.2275 -0.3259 -0.2321
 3731SOL    HW122826   0.557   4.597  16.330 -0.1136  0.0158  2.5486
 3731SOL    HW222827   0.514   4.706  16.248  0.5968  2.1786  1.6167
 3732SOL     OW22828   0.708   3.378   3.421 -0.1634 -0.0260 -0.6157
 3732SOL    HW122829   0.775   3.350   3.483 -0.3417 -0.4114 -0.5947
 3732SOL    HW222830   0.705   3.305   3.359  1.7840 -0.3513 -0.3121
 3733SOL     OW22831   2.539   2.208   8.961 -0.1946  0.4509  0.1083
 3733SOL    HW122832   2.585   2.129   8.931  0.3711  1.3174 -1.2802
 3733SOL    HW222833   2.554   2.214   9.056  0.2916  1.6176 -0.0416
 3734SOL     OW22834   2.782   0.878   2.281 -0.3083 -0.2277 -0.3414
 3734SOL    HW122835   2.774   0.786   2.260  1.0006 -0.0824 -1.4394
 3734SOL    HW222836   2.783   0.908   2.190  1.0055 -0.6835 -0.4721
 3735SOL     OW22837   1.999   3.680   4.994 -0.4408  0.7060 -0.7428
 3735SOL    HW122838   2.061   3.751   4.979 -0.9575  1.1363 -0.8511
 3735SOL    HW222839   1.954   3.711   5.072  0.4516  2.4987 -0.9357
 3736SOL     OW22840   2.664   4.220   3.609  0.0278  0.1857  0.0208
 3736SOL    HW122841   2.690   4.310   3.591 -0.3841  0.7546  2.2170
 3736SOL    HW222842   2.631   4.247   3.695 -0.4119 -1.6278  0.4224
 3737SOL     OW22843   2.896   4.443  17.273  0.0181 -0.1135  0.4294
 3737SOL    HW122844   2.881   4.520  17.327 -1.5629  0.8347 -1.3606
 3737SOL    HW222845   2.805   4.420  17.254  0.4213 -0.7593 -0.7102
 3738SOL     OW22846   0.755   1.720   1.304 -0.0341 -0.1420  0.0885
 3738SOL    HW122847   0.808   1.786   1.262  0.6394 -0.7902 -0.0799
 3738SOL    HW222848   0.756   1.656   1.233  1.4330  0.3195 -0.2913
 3739SOL     OW22849   1.036   3.274   4.352  0.0703 -0.3786 -0.2691
 3739SOL    HW122850   1.025   3.366   4.330  0.5107  0.0306  1.2355
 3739SOL    HW222851   1.129   3.259   4.335  0.0711 -1.3007  0.5257
 3740SOL     OW22852   0.642   2.738  12.197 -0.1006 -0.7359  0.2559
 3740SOL    HW122853   0.685   2.754  12.113 -0.2620  0.4321  0.3964
 3740SOL    HW222854   0.613   2.647  12.190  0.4020 -0.8635 -0.1658
 3741SOL     OW22855   3.947   3.105   9.924  0.1088 -0.4349 -0.2440
 3741SOL    HW122856   4.007   3.075   9.993 -1.3800 -1.5060  0.5912
 3741SOL    HW222857   3.882   3.152   9.975  1.2486  0.9461 -0.0872
 3742SOL     OW22858   0.601   4.461  16.632 -0.2834 -0.2115  0.0458
 3742SOL    HW122859   0.675   4.409  16.664  0.9184  1.5226  0.0998
 3742SOL    HW222860   0.650   4.541  16.610  0.4296 -0.4035  0.9279
 3743SOL     OW22861   1.834   1.517   1.768  0.0900 -0.1862 -0.5465
 3743SOL    HW122862   1.904   1.491   1.709  0.6228 -2.0817  0.8975
 3743SOL    HW222863   1.805   1.429   1.793 -1.1302  0.3291 -0.1133
 3744SOL     OW22864   4.341   4.016  13.517 -0.1572 -0.2134  0.2589
 3744SOL    HW122865   4.427   4.048  13.493 -0.3790  0.2170  0.0429
 3744SOL    HW222866   4.293   3.982  13.441 -0.3386  0.1781  0.1973
 3745SOL     OW22867   2.034   4.615   4.149  0.4421  0.0589 -0.2077
 3745SOL    HW122868   1.940   4.627   4.135  0.8000  1.8813 -1.0152
 3745SOL    HW222869   2.068   4.703   4.167 -0.9658  0.3739  0.9004
 3746SOL     OW22870   2.669   4.648   4.325  0.1092  0.4885  0.1081
 3746SOL    HW122871   2.680   4.645   4.420 -2.0810  3.2255  0.4502
 3746SOL    HW222872   2.624   4.565   4.309  3.3215 -1.1935  0.0217
 3747SOL     OW22873   3.005   2.197   5.079 -0.2367  0.5333 -0.4370
 3747SOL    HW122874   3.002   2.292   5.070 -0.1031  0.5115 -0.7120
 3747SOL    HW222875   3.084   2.182   5.132 -1.3405 -2.8422  0.2871
 3748SOL     OW22876   2.328   2.675   4.431  0.3508  0.2872  0.1266
 3748SOL    HW122877   2.251   2.642   4.386  0.7338 -1.6153  0.8526
 3748SOL    HW222878   2.298   2.761   4.459 -1.0240  0.6861 -2.6492
 3749SOL     OW22879   2.839   4.256   2.488  0.6995  0.3178 -0.7741
 3749SOL    HW122880   2.801   4.214   2.566 -0.0465  1.0018 -0.7739
 3749SOL    HW222881   2.929   4.225   2.482  0.4585 -0.5349 -0.1203
 3750SOL     OW22882   2.582   0.864  11.978 -0.0479 -0.2421 -0.3455
 3750SOL    HW122883   2.574   0.952  12.014  1.3262  0.0188 -0.6638
 3750SOL    HW222884   2.577   0.821  12.063  1.2411  1.2834  0.4986
 3751SOL     OW22885   1.653   4.422   8.588  0.3845  0.3882 -0.0841
 3751SOL    HW122886   1.659   4.437   8.682  3.6390 -2.2137  0.1221
 3751SOL    HW222887   1.572   4.373   8.574 -1.0304  3.1139 -1.3539
 3752SOL     OW22888   3.860   4.249  16.991 -0.6881  0.1721 -0.0813
 3752SOL    HW122889   3.948   4.212  16.984  0.3384  3.0334 -2.2610
 3752SOL    HW222890   3.797   4.178  16.979 -1.0438  0.6673 -1.0965
 3753SOL     OW22891   4.324   2.745   0.071 -0.3143 -0.4696  0.1534
 3753SOL    HW122892   4.282   2.673   0.118 -0.6543 -1.8685 -2.2796
 3753SOL    HW222893   4.403   2.744   0.125 -1.5848  1.1305  2.0764
 3754SOL     OW22894   4.604   1.790  13.571 -0.0405  0.3262 -0.2101
 3754SOL    HW122895   4.627   1.717  13.513  0.1892  0.4043 -0.2200
 3754SOL    HW222896   4.563   1.742  13.642  0.0429 -1.7369 -1.5538
 3755SOL     OW22897   0.615   0.126   2.140 -0.1783  0.0396  0.5136
 3755SOL    HW122898   0.529   0.130   2.100  0.1050  1.5386  0.0799
 3755SOL    HW222899   0.633   0.214   2.172  0.6210 -1.4526  4.1659
 3756SOL     OW22900   0.452   0.164   4.588  0.0347 -0.8587  0.0889
 3756SOL    HW122901   0.486   0.221   4.520 -0.2145 -1.3402 -0.4401
 3756SOL    HW222902   0.512   0.170   4.662 -1.3451 -1.2062  1.2454
 3757SOL     OW22903   4.240   1.795   4.698  0.6145  0.2690 -0.3352
 3757SOL    HW122904   4.212   1.738   4.769  0.9022  0.5881  0.0360
 3757SOL    HW222905   4.333   1.814   4.710 -0.1753  3.9262  0.1304
 3758SOL     OW22906   0.299   4.242   2.965  0.1927  0.3434  0.1892
 3758SOL    HW122907   0.366   4.307   2.984 -0.1245  0.9051 -0.6273
 3758SOL    HW222908   0.351   4.183   2.910  0.6157 -0.1399  1.0966
 3759SOL     OW22909   0.466   1.074   7.450 -0.0417  0.0989 -0.0548
 3759SOL    HW122910   0.380   1.055   7.412  0.3225  0.1358 -0.8914
 3759SOL    HW222911   0.505   1.123   7.377 -1.8132  0.6994 -0.6031
 3760SOL     OW22912   1.409   3.397   3.714  0.3067 -0.2209 -0.4094
 3760SOL    HW122913   1.382   3.305   3.721 -0.1542  0.0484  1.2120
 3760SOL    HW222914   1.328   3.433   3.678 -0.2702  0.2485  1.3673
 3761SOL     OW22915   4.304   4.016   1.823 -0.8805 -0.5942  0.8744
 3761SOL    HW122916   4.353   3.974   1.752  0.7294 -0.1246  1.7023
 3761SOL    HW222917   4.351   4.100   1.821 -0.0069 -1.1652 -3.8328
 3762SOL     OW22918   2.268   0.981   3.809 -0.2539  0.2188  0.3449
 3762SOL    HW122919   2.204   0.920   3.845 -1.0971  1.0404  0.2421
 3762SOL    HW222920   2.339   0.944   3.861  0.1482  0.8472  0.2448
 3763SOL     OW22921   0.186   3.767   8.761 -0.3590  0.2432  0.0989
 3763SOL    HW122922   0.210   3.697   8.822 -0.6758  0.6105  0.6489
 3763SOL    HW222923   0.145   3.829   8.822  0.1620 -0.1095  0.8028
 3764SOL     OW22924   4.694   0.970   7.844  0.0950 -0.2986  0.2159
 3764SOL    HW122925   4.682   1.064   7.828  3.6637  0.4267  1.7083
 3764SOL    HW222926   4.615   0.949   7.893 -0.3428 -2.0893 -1.2860
 3765SOL     OW22927   4.205   1.449  15.114 -0.2750 -0.1999 -0.5521
 3765SOL    HW122928   4.279   1.501  15.146  0.2526  0.6968 -3.2021
 3765SOL    HW222929   4.220   1.371  15.167 -0.5024  1.3426  1.7661
 3766SOL     OW22930   3.980   3.087   5.121 -0.1236 -0.3658 -0.2888
 3766SOL    HW122931   4.028   3.082   5.203 -1.8270  0.0695  0.7294
 3766SOL    HW222932   4.040   3.142   5.070 -0.1371 -0.8883 -0.8693
 3767SOL     OW22933   3.300   1.537   3.916 -0.5466  0.1252  0.0124
 3767SOL    HW122934   3.314   1.474   3.987  0.8647  0.2239 -0.1789
 3767SOL    HW222935   3.278   1.475   3.847 -1.8071  1.0721 -0.4264
 3768SOL     OW22936   4.330   1.993   6.380  0.1121 -0.1211 -0.7801
 3768SOL    HW122937   4.346   1.915   6.327  1.0336 -0.8352  0.5421
 3768SOL    HW222938   4.235   2.002   6.374  0.2198  2.4409  1.0987
 3769SOL     OW22939   3.981   3.931   6.265  0.5383 -0.2353  0.0568
 3769SOL    HW122940   3.939   3.851   6.297 -0.0502  0.5274  1.1847
 3769SOL    HW222941   3.913   3.983   6.222 -0.7559 -1.6629  0.3753
 3770SOL     OW22942   0.346   2.072  11.416  0.4538 -0.1530  0.3952
 3770SOL    HW122943   0.309   2.158  11.435  0.4829 -0.1808  0.5837
 3770SOL    HW222944   0.281   2.006  11.442 -0.9526  1.0105 -0.1978
 3771SOL     OW22945   0.403   4.442  17.324  0.6584 -0.5974  0.6271
 3771SOL    HW122946   0.412   4.485  17.239 -0.0518 -0.2564  0.7214
 3771SOL    HW222947   0.321   4.488  17.343  0.7111 -0.6536  0.9900
 3772SOL     OW22948   3.623   1.640   2.089  0.1525  0.0484 -0.4821
 3772SOL    HW122949   3.640   1.727   2.053 -1.3595 -0.0290 -1.3746
 3772SOL    HW222950   3.696   1.594   2.047 -0.5619 -0.6861 -0.9104
 3773SOL     OW22951   4.727   0.594   4.165  0.0444  0.3905 -1.0821
 3773SOL    HW122952   4.741   0.584   4.071  0.9352  1.0853 -1.0257
 3773SOL    HW222953   0.074   0.584   4.198 -0.3224  0.4957 -0.0612
 3774SOL     OW22954   2.699   4.351   0.678  0.1391 -0.1137 -0.3516
 3774SOL    HW122955   2.738   4.310   0.601 -1.4757 -0.0488 -1.1934
 3774SOL    HW222956   2.620   4.297   0.681 -0.0968  0.1367 -2.0553
 3775SOL     OW22957   4.166   4.237   2.149  0.2684 -0.1121  0.8036
 3775SOL    HW122958   4.250   4.278   2.170  0.6840 -0.3246 -0.4487
 3775SOL    HW222959   4.167   4.253   2.055 -1.8015 -2.2014  0.4335
 3776SOL     OW22960   3.448   2.071   4.781  0.4909 -0.3829  0.0153
 3776SOL    HW122961   3.460   2.101   4.871 -2.0766 -0.2162  0.2965
 3776SOL    HW222962   3.474   2.152   4.737 -0.4929 -0.1235 -0.0850
 3777SOL     OW22963   2.059   3.786  17.600 -0.1303 -0.2644 -0.4491
 3777SOL    HW122964   2.145   3.761  17.565  0.2164  1.4661 -0.8600
 3777SOL    HW222965   2.044   3.867  17.550  2.5539  1.5978  1.7320
 3778SOL     OW22966   1.021   2.185  10.186  0.6819  0.2171  0.0210
 3778SOL    HW122967   0.948   2.144  10.233  0.4927  2.5618  1.7791
 3778SOL    HW222968   1.098   2.136  10.215 -0.6511 -2.4533 -0.9383
 3779SOL     OW22969   1.596   3.866   1.878 -0.1129  0.5156 -0.1939
 3779SOL    HW122970   1.685   3.871   1.913  0.2111 -0.4074 -0.8641
 3779SOL    HW222971   1.580   3.772   1.866 -1.8286  1.0378 -2.2004
 3780SOL     OW22972   1.566   0.052   4.659  0.3236  0.0537  0.0671
 3780SOL    HW122973   1.481   0.023   4.625 -0.1308  2.4956 -0.8456
 3780SOL    HW222974   1.591   0.061   4.567  0.9344  0.1145  0.2399
 3781SOL     OW22975   4.322   0.463   3.361 -0.2430 -0.0012 -0.4044
 3781SOL    HW122976   4.261   0.408   3.313 -0.8581  2.4501 -2.4366
 3781SOL    HW222977   4.355   0.413   3.436 -0.4104 -0.3757 -0.5816
 3782SOL     OW22978   2.589   0.347   4.502  0.5076 -0.2116  0.5484
 3782SOL    HW122979   2.617   0.280   4.440 -1.8521  1.5670 -2.4603
 3782SOL    HW222980   2.648   0.418   4.476  1.0105  0.3133  3.1612
 3783SOL     OW22981   0.711   3.452   1.486  0.3773 -0.3480  0.0029
 3783SOL    HW122982   0.666   3.501   1.555 -1.0911 -1.2925 -0.2855
 3783SOL    HW222983   0.633   3.430   1.435  0.3053 -2.9009  1.2050
 3784SOL     OW22984   4.370   4.519   1.658 -0.8156  0.0589 -0.3424
 3784SOL    HW122985   4.355   4.433   1.697 -1.0793  1.0409  1.6780
 3784SOL    HW222986   4.452   4.506   1.610 -1.0917 -1.2429 -0.4607
 3785SOL     OW22987   1.906   1.368   7.965  0.4654 -0.1694  0.1081
 3785SOL    HW122988   1.821   1.405   7.989  1.1381  0.4670  1.5032
 3785SOL    HW222989   1.948   1.379   8.050  0.4221 -0.8873  0.2205
 3786SOL     OW22990   1.666   0.681  10.885 -0.4641 -0.7725 -0.2895
 3786SOL    HW122991   1.737   0.679  10.950  0.6546  0.2240 -1.4699
 3786SOL    HW222992   1.594   0.712  10.941 -0.0166  1.5567 -1.0040
 3787SOL     OW22993   2.953   2.829   7.526 -0.0749 -0.3766 -0.1006
 3787SOL    HW122994   2.956   2.734   7.520 -0.0991 -0.5180  1.8923
 3787SOL    HW222995   2.873   2.836   7.579  1.2026 -0.1253  1.8119
 3788SOL     OW22996   0.601   3.876   3.366  0.1892  0.5839  0.1716
 3788SOL    HW122997   0.517   3.832   3.371  0.6312 -0.4953 -2.0641
 3788SOL    HW222998   0.613   3.869   3.272 -0.3245 -1.3803  0.2685
 3789SOL     OW22999   1.778   2.091  10.187  0.0579  0.1290 -0.6907
 3789SOL    HW123000   1.732   2.172  10.208 -1.1483 -1.1688  1.6386
 3789SOL    HW223001   1.800   2.094  10.094  0.2064 -1.2297 -0.7001
 3790SOL     OW23002   4.048   2.587   7.147  0.4028  0.0474 -0.2249
 3790SOL    HW123003   4.090   2.670   7.170 -2.0207  0.6425  2.0153
 3790SOL    HW223004   4.122   2.554   7.096  0.1537 -4.0786  2.1570
 3791SOL     OW23005   4.582   4.333   9.545 -0.5032 -0.4186  0.7193
 3791SOL    HW123006   4.602   4.240   9.549  1.4524 -0.0313 -0.2383
 3791SOL    HW223007   4.670   4.362   9.523 -0.1863 -0.5729  1.8332
 3792SOL     OW23008   0.727   2.447  12.250  0.4953  0.2762 -0.4951
 3792SOL    HW123009   0.733   2.478  12.340  0.6823 -1.3003  0.0431
 3792SOL    HW223010   0.722   2.353  12.271 -6.5163  0.8504  0.4506
 3793SOL     OW23011   0.900   2.412   3.332 -0.0085 -0.2344 -0.2672
 3793SOL    HW123012   0.847   2.427   3.254 -0.6752 -1.3824 -0.0270
 3793SOL    HW223013   0.851   2.451   3.404  0.7516 -3.9520  2.2278
 3794SOL     OW23014   3.429   3.662   4.317  0.5390 -0.5179  0.3096
 3794SOL    HW123015   3.348   3.649   4.367 -0.0816 -0.9603 -0.8249
 3794SOL    HW223016   3.399   3.733   4.261  0.6515 -1.0370 -0.4050
 3795SOL     OW23017   2.340   3.536  14.973 -0.6448  0.4193 -0.2794
 3795SOL    HW123018   2.388   3.576  14.900  1.3848 -1.9866 -0.2366
 3795SOL    HW223019   2.293   3.615  15.000 -0.0945  0.5476  0.3013
 3796SOL     OW23020   1.316   3.442   6.142  0.1615 -0.0354 -0.3110
 3796SOL    HW123021   1.404   3.409   6.120 -0.9763 -3.4115  0.2378
 3796SOL    HW223022   1.261   3.381   6.093  0.2509  0.9152 -1.5693
 3797SOL     OW23023   0.055   2.447   8.662 -0.0149 -0.1633  0.5455
 3797SOL    HW123024   4.716   2.409   8.627 -0.0842 -0.3737  0.9287
 3797SOL    HW223025   0.099   2.477   8.583  0.8327 -0.1088  1.0353
 3798SOL     OW23026   2.734   0.750   6.611  0.2611  0.1386 -0.2510
 3798SOL    HW123027   2.712   0.840   6.586 -2.3451 -0.6185 -0.6385
 3798SOL    HW223028   2.653   0.706   6.635  2.3082 -3.1617  0.6917
 3799SOL     OW23029   1.515   0.985   5.684  0.5020 -0.0407  0.2903
 3799SOL    HW123030   1.578   1.003   5.754 -0.7538 -1.0406  1.6584
 3799SOL    HW223031   1.483   1.075   5.688  2.3614  0.6667 -0.6029
 3800SOL     OW23032   1.087   2.174  15.729  0.4308  0.0535 -0.0526
 3800SOL    HW123033   1.099   2.102  15.666 -0.5526  0.4325 -0.6735
 3800SOL    HW223034   1.006   2.214  15.699  1.5850  2.0786 -0.4751
 3801SOL     OW23035   3.829   0.930   3.762 -0.7648  0.0930  0.0266
 3801SOL    HW123036   3.782   0.849   3.779 -0.6063 -0.1720 -0.8131
 3801SOL    HW223037   3.881   0.946   3.841  0.0539 -3.7989  0.2448
 3802SOL     OW23038   2.001   1.702   4.827 -0.1580  0.2808 -0.1581
 3802SOL    HW123039   2.037   1.763   4.763  0.3319  1.6275  1.3864
 3802SOL    HW223040   1.961   1.638   4.769  0.2909 -2.1032  2.1297
 3803SOL     OW23041   2.239   3.776   8.786  0.1540 -0.1683  0.6274
 3803SOL    HW123042   2.283   3.824   8.717 -1.8986  1.9394  0.7723
 3803SOL    HW223043   2.157   3.824   8.793  1.0448  1.4661 -0.3257
 3804SOL     OW23044   4.183   3.617  10.378 -0.0472  0.0059  0.1353
 3804SOL    HW123045   4.202   3.597  10.286  0.0765 -1.2209  0.4171
 3804SOL    HW223046   4.247   3.558  10.418 -1.1519  0.5153  2.6351
 3805SOL     OW23047   2.399   4.246   4.975  0.1051 -0.3631 -0.8304
 3805SOL    HW123048   2.412   4.318   4.914  0.8370  1.1602  1.1090
 3805SOL    HW223049   2.478   4.193   4.961  1.0681  0.4118  1.5605
 3806SOL     OW23050   3.015   1.532   0.706  0.1023  0.1279 -0.1123
 3806SOL    HW123051   3.052   1.491   0.784 -0.2264  0.3411  0.1575
 3806SOL    HW223052   2.975   1.458   0.661 -2.2964  2.5695 -1.9504
 3807SOL     OW23053   0.209   2.760  14.365  0.1701  0.4474 -0.3816
 3807SOL    HW123054   0.280   2.753  14.430 -1.6413  0.3679  1.5942
 3807SOL    HW223055   0.259   2.765  14.284 -0.8080  1.1945 -0.9322
 3808SOL     OW23056   3.200   2.404   4.267 -0.6738  0.3086  0.0897
 3808SOL    HW123057   3.212   2.326   4.321 -2.0636  1.5296  2.1735
 3808SOL    HW223058   3.104   2.404   4.266 -0.6679 -0.1411 -0.4378
 3809SOL     OW23059   3.590   3.391   6.652  0.8921  0.0935  0.9398
 3809SOL    HW123060   3.564   3.342   6.730 -0.7172  1.4004  1.2366
 3809SOL    HW223061   3.535   3.470   6.652  2.1025  0.9319 -1.7150
 3810SOL     OW23062   1.412   2.426  12.265 -0.7341  0.5958  0.0476
 3810SOL    HW123063   1.432   2.471  12.183 -1.6424 -0.5851 -0.8312
 3810SOL    HW223064   1.340   2.372  12.234 -0.8269  1.7066 -1.6677
 3811SOL     OW23065   3.906   0.636   4.169  0.0116  0.4391 -0.0776
 3811SOL    HW123066   3.973   0.568   4.179 -0.0514  0.4152  0.1763
 3811SOL    HW223067   3.952   0.696   4.111  0.7335 -0.4823 -0.4673
 3812SOL     OW23068   2.739   1.546   4.468  0.0931 -0.5851  0.6043
 3812SOL    HW123069   2.720   1.561   4.375 -0.3319 -0.1471  0.7678
 3812SOL    HW223070   2.822   1.498   4.469  0.1557 -0.5264 -1.0848
 3813SOL     OW23071   4.207   1.715   2.058 -0.5834  0.3327  0.6037
 3813SOL    HW123072   4.118   1.746   2.044 -0.0788  1.7049  0.3892
 3813SOL    HW223073   4.234   1.720   2.150  1.2431  1.7451  0.0136
 3814SOL     OW23074   0.613   3.676   3.687  0.9739  0.2177  0.1907
 3814SOL    HW123075   0.527   3.686   3.646  0.3502 -0.9580  1.1801
 3814SOL    HW223076   0.634   3.757   3.734 -3.2756  0.6123  1.4410
 3815SOL     OW23077   2.323   0.210   2.944  0.0048  0.4656  0.5510
 3815SOL    HW123078   2.321   0.246   2.855  0.8590 -2.6695 -0.7407
 3815SOL    HW223079   2.402   0.156   2.943 -1.2297 -1.3395 -0.4228
 3816SOL     OW23080   1.028   2.177   8.186 -0.3623  0.3061 -0.6553
 3816SOL    HW123081   0.958   2.190   8.250 -0.0951  2.0751 -0.7266
 3816SOL    HW223082   1.009   2.085   8.168 -1.1135  0.0048  1.6976
 3817SOL     OW23083   2.865   3.458   3.475  0.2389  0.1746 -0.3279
 3817SOL    HW123084   2.928   3.388   3.493  1.3805  1.1303 -0.5574
 3817SOL    HW223085   2.910   3.502   3.403 -0.3189  0.9762 -0.1908
 3818SOL     OW23086   2.525   0.188  11.103  0.1688 -0.1219  0.4185
 3818SOL    HW123087   2.538   0.190  11.198  0.6045 -2.6421  0.3978
 3818SOL    HW223088   2.498   0.098  11.086  0.3646 -0.0094 -0.4842
 3819SOL     OW23089   4.414   2.721  13.909 -0.8157 -0.4654  0.3312
 3819SOL    HW123090   4.416   2.635  13.949  3.1686 -0.3668  0.2963
 3819SOL    HW223091   4.330   2.744  13.950 -0.9516 -0.5951  0.1243
 3820SOL     OW23092   2.274   3.090   4.720  0.7381  0.0277  0.0409
 3820SOL    HW123093   2.273   3.126   4.808  0.5813 -2.7958  1.2082
 3820SOL    HW223094   2.207   3.142   4.677  2.0230  1.0287 -0.7423
 3821SOL     OW23095   2.396   4.178   5.622  0.1518  0.2935  0.3891
 3821SOL    HW123096   2.472   4.187   5.679  1.5914 -0.3854 -1.4269
 3821SOL    HW223097   2.337   4.243   5.660 -1.6081  0.6283 -2.9024
 3822SOL     OW23098   0.381   1.123   7.852 -0.0394 -0.3086  0.2401
 3822SOL    HW123099   0.324   1.047   7.838 -1.0109  0.3700  0.5027
 3822SOL    HW223100   0.319   1.189   7.822  1.8106  0.6152 -1.5707
 3823SOL     OW23101   2.367   0.999   6.452 -0.1425  0.0132 -0.6700
 3823SOL    HW123102   2.405   1.086   6.435  0.0364 -0.2686 -1.6834
 3823SOL    HW223103   2.319   0.975   6.373 -1.6477  1.3221 -0.1765
 3824SOL     OW23104   0.047   3.433   6.429 -0.1743  0.2559  0.2977
 3824SOL    HW123105   0.108   3.453   6.359  1.1833  0.1302  1.4346
 3824SOL    HW223106   0.033   3.523   6.457  0.1382  0.7904 -1.3202
 3825SOL     OW23107   4.731   1.758   5.080 -0.6335  0.2431  0.2995
 3825SOL    HW123108   4.723   1.852   5.099  1.3830  0.8130 -1.6147
 3825SOL    HW223109   0.060   1.751   5.016  0.4002 -3.4760  1.8792
 3826SOL     OW23110   4.132   1.308  12.352  0.6198 -0.6403  0.4733
 3826SOL    HW123111   4.183   1.240  12.309 -1.2955 -1.7470 -0.0465
 3826SOL    HW223112   4.100   1.271  12.434 -0.4828 -1.3038 -0.2636
 3827SOL     OW23113   2.608   4.499  17.507 -0.3078  0.0482 -0.4143
 3827SOL    HW123114   2.662   4.566  17.466  0.6698 -2.1659 -2.7612
 3827SOL    HW223115   2.662   4.461  17.576 -1.7339  1.0650  1.2539
 3828SOL     OW23116   3.741   3.559   7.392  0.4776  0.1568 -0.3150
 3828SOL    HW123117   3.749   3.465   7.377  1.0013  0.2462 -0.5746
 3828SOL    HW223118   3.646   3.566   7.406  0.2556  0.3130 -1.9557
 3829SOL     OW23119   1.047   0.299  12.067 -0.1982 -0.5071 -0.3406
 3829SOL    HW123120   1.129   0.266  12.029 -0.5362 -0.2920 -1.2498
 3829SOL    HW223121   1.036   0.380  12.018  0.2498  1.2280  2.4436
 3830SOL     OW23122   2.891   1.107   8.960  0.1467 -0.4421  0.0946
 3830SOL    HW123123   2.924   1.154   8.884  1.5673 -0.6979  0.5594
 3830SOL    HW223124   2.917   1.182   9.014 -0.1917 -1.0730  1.1426
 3831SOL     OW23125   0.867   0.610   4.854 -0.2388 -0.1228  0.1152
 3831SOL    HW123126   0.958   0.590   4.877  0.2308  1.6598 -0.2004
 3831SOL    HW223127   0.854   0.702   4.874  0.2818  0.3050 -1.4791
 3832SOL     OW23128   3.771   3.391  15.114  0.2954 -0.0984 -0.6179
 3832SOL    HW123129   3.682   3.364  15.091  0.2146 -0.3257 -0.0543
 3832SOL    HW223130   3.819   3.318  15.152 -1.8637 -1.8791 -1.3346
 3833SOL     OW23131   1.980   2.020  15.175  0.2586  0.0537 -0.2985
 3833SOL    HW123132   2.020   2.107  15.181  0.6962 -0.4113  3.3964
 3833SOL    HW223133   1.923   2.020  15.252  0.7380 -1.9567  0.0463
 3834SOL     OW23134   4.200   0.905  16.324 -0.4083 -0.0973  0.1366
 3834SOL    HW123135   4.237   0.895  16.412 -0.7403  0.6687  0.3664
 3834SOL    HW223136   4.268   0.861  16.274 -1.1192 -1.2007  0.1416
 3835SOL     OW23137   2.246   0.619   1.387  0.4244 -0.2828 -0.6410
 3835SOL    HW123138   2.271   0.669   1.309  0.4176  0.0521 -0.4290
 3835SOL    HW223139   2.251   0.532   1.349  3.0571 -0.5027  0.2424
 3836SOL     OW23140   4.304   3.440  14.388 -0.3322  0.2961  0.4538
 3836SOL    HW123141   4.298   3.348  14.413 -0.2433  0.0170 -0.5386
 3836SOL    HW223142   4.324   3.421  14.296 -1.5629  0.0344  0.2361
 3837SOL     OW23143   1.055   1.996   4.167  0.2348 -0.6254  0.1055
 3837SOL    HW123144   1.090   1.925   4.113  0.0992 -2.4450  2.3870
 3837SOL    HW223145   1.034   1.944   4.244 -1.5439  0.4632  0.3487
 3838SOL     OW23146   2.326   3.093   5.186  0.0143  0.2636  0.1536
 3838SOL    HW123147   2.337   3.022   5.123 -3.0513  0.1263 -0.2418
 3838SOL    HW223148   2.239   3.129   5.165  1.6486  2.3554 -3.0409
 3839SOL     OW23149   2.003   1.892   7.223  0.9380 -0.1731  0.7460
 3839SOL    HW123150   2.091   1.855   7.215  2.0320  2.4497  0.3444
 3839SOL    HW223151   2.031   1.982   7.206  0.8343 -0.1356  0.7739
 3840SOL     OW23152   1.514   4.442   3.812  0.1515 -0.0296  0.5202
 3840SOL    HW123153   1.571   4.480   3.746 -1.1281  2.5448  0.8929
 3840SOL    HW223154   1.487   4.369   3.757  1.4016  0.8127 -1.1955
 3841SOL     OW23155   2.957   1.455   2.045 -0.2770  0.4059  0.2157
 3841SOL    HW123156   3.004   1.376   2.070  1.6285  1.4157 -0.1777
 3841SOL    HW223157   3.027   1.520   2.035  0.6776 -0.7762 -0.6941
 3842SOL     OW23158   3.253   1.765   4.945 -0.4529 -0.1525 -0.5505
 3842SOL    HW123159   3.347   1.758   4.935 -0.1995  0.2355  1.4206
 3842SOL    HW223160   3.244   1.851   4.903  2.4202  0.0137 -0.7866
 3843SOL     OW23161   3.807   3.536   1.000 -0.1705  0.1701 -0.1796
 3843SOL    HW123162   3.799   3.442   0.982 -1.0461  0.4784 -1.4015
 3843SOL    HW223163   3.718   3.550   1.032 -0.4851 -1.5283 -0.3222
 3844SOL     OW23164   2.538   0.870   2.891 -0.1075  0.1594 -0.0051
 3844SOL    HW123165   2.612   0.858   2.831 -2.0907 -1.2111 -2.1960
 3844SOL    HW223166   2.483   0.798   2.861 -0.6535  1.8344 -2.9872
 3845SOL     OW23167   0.427   3.715   9.366  0.3142 -0.0931  0.3026
 3845SOL    HW123168   0.397   3.638   9.318 -1.3825  0.1317  0.9994
 3845SOL    HW223169   0.436   3.773   9.290 -0.9048 -0.6944 -0.2974
 3846SOL     OW23170   0.563   4.738  10.623  0.2322 -0.0727  0.2469
 3846SOL    HW123171   0.562   0.056  10.697 -0.1822 -1.5626  1.4283
 3846SOL    HW223172   0.504   4.665  10.643 -1.5549  1.5613  0.9715
 3847SOL     OW23173   0.931   2.724   6.305 -0.3196  0.0073  0.5143
 3847SOL    HW123174   0.836   2.726   6.317 -0.2588  0.9498  0.8308
 3847SOL    HW223175   0.953   2.748   6.395  0.9127  1.3647 -0.1440
 3848SOL     OW23176   1.908   2.750  15.482 -0.2571 -0.0075  0.0488
 3848SOL    HW123177   1.938   2.831  15.522  1.0184 -0.9710  1.0614
 3848SOL    HW223178   1.833   2.719  15.533 -0.8703  0.8769 -0.3344
 3849SOL     OW23179   1.610   3.739   0.413 -0.0800 -0.3270  0.3111
 3849SOL    HW123180   1.654   3.689   0.344  1.0748 -1.5085  1.9227
 3849SOL    HW223181   1.687   3.788   0.441 -0.3271  1.2068 -1.6694
 3850SOL     OW23182   1.053   2.359   0.726  0.2418 -0.4143 -0.0386
 3850SOL    HW123183   1.111   2.368   0.651 -2.4169  1.0720 -1.9072
 3850SOL    HW223184   1.112   2.377   0.799  4.1372 -0.3393 -3.2261
 3851SOL     OW23185   2.508   4.263   0.393 -0.3892 -0.3875 -0.3170
 3851SOL    HW123186   2.440   4.254   0.459  0.6898  0.1170  0.8582
 3851SOL    HW223187   2.479   4.209   0.319 -1.6485  0.7609 -0.6450
 3852SOL     OW23188   4.610   1.428   6.465  0.2019  0.0669 -0.1810
 3852SOL    HW123189   4.671   1.502   6.467 -1.6299  1.4676  3.5189
 3852SOL    HW223190   4.662   1.357   6.501  1.3888  1.6727  1.2645
 3853SOL     OW23191   1.134   2.549  10.893  0.4223 -0.4326  0.2422
 3853SOL    HW123192   1.040   2.532  10.882  0.4944 -1.0596  0.5659
 3853SOL    HW223193   1.134   2.546  10.988 -0.9607 -0.7351  0.2369
 3854SOL     OW23194   1.445   1.212   7.331  0.1208  0.5851 -0.2898
 3854SOL    HW123195   1.473   1.291   7.378  0.3693  0.4194 -0.1576
 3854SOL    HW223196   1.401   1.247   7.254  0.9116 -0.4129 -1.1825
 3855SOL     OW23197   0.565   3.905   9.606 -0.0501 -0.2515 -0.3537
 3855SOL    HW123198   0.489   3.958   9.630  0.5607 -0.7214  2.6054
 3855SOL    HW223199   0.537   3.814   9.614 -1.4127  0.3466  1.7658
 3856SOL     OW23200   3.511   3.730   5.475  0.0605 -0.6242  0.2643
 3856SOL    HW123201   3.567   3.797   5.436 -1.1436 -0.3620 -0.9796
 3856SOL    HW223202   3.508   3.674   5.397  0.7829 -0.8662  0.4042
 3857SOL     OW23203   3.278   1.574   3.505 -0.1342 -0.0306  0.0702
 3857SOL    HW123204   3.195   1.621   3.496 -0.6538 -0.7927  0.8435
 3857SOL    HW223205   3.269   1.507   3.437  3.2999  0.2658 -0.6759
 3858SOL     OW23206   2.880   3.846   7.020 -0.4868 -0.5237  0.3045
 3858SOL    HW123207   2.916   3.795   6.948 -0.1701  0.2605 -0.0880
 3858SOL    HW223208   2.836   3.919   6.978  0.5656 -1.0983 -1.7623
 3859SOL     OW23209   2.976   3.085  10.404 -0.5797 -0.2756  0.3290
 3859SOL    HW123210   2.905   3.148  10.400  0.9793  1.3893 -1.0336
 3859SOL    HW223211   3.016   3.118  10.484  1.2566  1.1539 -1.1771
 3860SOL     OW23212   0.762   1.703   2.559  0.3201  0.4677 -0.0300
 3860SOL    HW123213   0.736   1.650   2.634 -2.3152 -0.1917 -1.4272
 3860SOL    HW223214   0.735   1.644   2.489 -2.1912 -1.0341  2.2054
 3861SOL     OW23215   0.959   1.466   1.707  0.1414  0.0235 -0.4196
 3861SOL    HW123216   0.903   1.516   1.647 -2.7266 -1.1604  1.2570
 3861SOL    HW223217   0.909   1.473   1.788  1.4526 -2.4490  0.6044
 3862SOL     OW23218   1.942   3.077   1.467 -0.4405  0.8128  0.3002
 3862SOL    HW123219   2.033   3.047   1.469 -0.6278  0.1342 -1.2865
 3862SOL    HW223220   1.889   3.010   1.511 -0.1914  1.6212  1.8327
 3863SOL     OW23221   4.356   3.216   5.506  0.5057 -0.2899  0.2892
 3863SOL    HW123222   4.410   3.293   5.491  1.9728 -1.0739  1.4421
 3863SOL    HW223223   4.331   3.212   5.599 -1.4131  2.2323 -0.1287
 3864SOL     OW23224   2.592   4.034   9.281  0.4482 -0.3982  0.0474
 3864SOL    HW123225   2.590   4.042   9.376 -0.9106  1.2258 -0.1216
 3864SOL    HW223226   2.501   4.011   9.264  0.3137 -1.2569  1.9285
 3865SOL     OW23227   3.764   0.132   2.492  0.0284  0.3248 -0.7580
 3865SOL    HW123228   3.778   0.108   2.401  1.7280 -0.2625 -0.3399
 3865SOL    HW223229   3.823   0.068   2.532 -0.3207  0.9439  0.7457
 3866SOL     OW23230   2.740   3.484   6.993  0.6222 -0.3015 -0.4371
 3866SOL    HW123231   2.762   3.535   7.071 -0.5706  1.6905 -1.4041
 3866SOL    HW223232   2.651   3.459   7.021  0.7045 -0.8935 -0.7050
 3867SOL     OW23233   0.199   3.955  13.489  0.0532  0.4684  0.0594
 3867SOL    HW123234   0.165   3.909  13.566 -2.5746 -0.9758 -1.9774
 3867SOL    HW223235   0.133   3.940  13.422 -0.8086  1.1731  0.7386
 3868SOL     OW23236   0.725   0.854   7.847 -0.2561  0.3303 -0.1425
 3868SOL    HW123237   0.768   0.878   7.929  2.1268 -0.9971 -1.0161
 3868SOL    HW223238   0.710   0.940   7.807 -0.7311  0.4800  0.3509
 3869SOL     OW23239   3.678   4.201   2.943 -0.0661 -0.4846 -0.5836
 3869SOL    HW123240   3.623   4.123   2.935  1.7069 -1.8834  1.1357
 3869SOL    HW223241   3.763   4.162   2.964 -0.5527 -1.0641  0.3400
 3870SOL     OW23242   2.880   3.894   7.671 -0.2905 -0.0263 -0.1818
 3870SOL    HW123243   2.865   3.956   7.742 -0.6210  1.0062 -1.1537
 3870SOL    HW223244   2.846   3.935   7.592 -1.7209  0.3351  0.6241
 3871SOL     OW23245   2.928   1.755   1.438  0.2687 -0.9637 -0.0140
 3871SOL    HW123246   3.018   1.731   1.458  0.4011  0.5162  1.1202
 3871SOL    HW223247   2.902   1.673   1.397  0.5508 -1.2152  0.3133
 3872SOL     OW23248   4.103   0.762   9.612 -0.1432 -0.3785  0.2482
 3872SOL    HW123249   4.190   0.756   9.651 -1.1165 -1.6193  2.2336
 3872SOL    HW223250   4.112   0.713   9.530  0.6142  0.1376  0.0184
 3873SOL     OW23251   1.992   4.413   4.426  0.5215  0.1424 -0.4997
 3873SOL    HW123252   2.028   4.392   4.513 -0.9402  1.9190  0.5420
 3873SOL    HW223253   1.901   4.443   4.426 -0.1113 -1.7976 -0.7512
 3874SOL     OW23254   2.716   1.520   2.014 -0.2143  0.1750 -0.3353
 3874SOL    HW123255   2.668   1.456   2.068  1.1520 -0.2108  0.4058
 3874SOL    HW223256   2.807   1.496   2.029 -0.8799 -1.8481  0.4940
 3875SOL     OW23257   4.040   1.562   2.345  0.4316 -0.1747 -0.2865
 3875SOL    HW123258   3.993   1.559   2.262 -1.2181 -0.8787  0.6560
 3875SOL    HW223259   4.114   1.615   2.314  1.0326 -0.8644 -0.0251
 3876SOL     OW23260   3.364   1.604   6.678  0.7169 -0.2892  0.1250
 3876SOL    HW123261   3.355   1.513   6.648 -0.0391 -0.4718  0.9069
 3876SOL    HW223262   3.285   1.649   6.650  1.7938  1.6711  0.2586
 3877SOL     OW23263   0.366   3.776   3.607 -0.2469  0.3083  0.0637
 3877SOL    HW123264   0.294   3.770   3.670  0.4272 -0.5506  0.7601
 3877SOL    HW223265   0.388   3.867   3.624 -0.0122 -0.0487  1.7310
 3878SOL     OW23266   0.802   1.208   7.488  0.3641 -0.1798 -0.4799
 3878SOL    HW123267   0.824   1.284   7.542 -0.4779  1.8269 -3.0289
 3878SOL    HW223268   0.711   1.189   7.511  0.2427  0.9490 -0.0113
 3879SOL     OW23269   0.137   1.835   1.721 -0.0954 -0.4186 -0.0311
 3879SOL    HW123270   0.075   1.764   1.736 -0.4760  0.0836  0.7620
 3879SOL    HW223271   0.210   1.792   1.677  0.1398  1.1133 -1.1539
 3880SOL     OW23272   3.898   1.957  13.886  0.1833  0.2019  0.2219
 3880SOL    HW123273   3.899   2.008  13.804  1.7440 -0.9912 -0.5021
 3880SOL    HW223274   3.991   1.972  13.902 -0.1814 -0.8746  3.2339
 3881SOL     OW23275   0.421   3.334   6.091  0.2090 -0.4221  0.2203
 3881SOL    HW123276   0.505   3.339   6.046  0.7817 -0.1589  1.3228
 3881SOL    HW223277   0.360   3.382   6.034  1.3088 -0.1151 -0.6875
 3882SOL     OW23278   1.123   3.519   1.207  1.0242 -0.7233 -0.6096
 3882SOL    HW123279   1.110   3.504   1.301  0.6106  0.9879 -0.3894
 3882SOL    HW223280   1.199   3.576   1.216 -0.1366  0.7374  0.0127
 3883SOL     OW23281   2.647   1.370  13.971  0.4659 -0.4764  0.3317
 3883SOL    HW123282   2.637   1.415  13.887  1.9205  0.6067  0.7426
 3883SOL    HW223283   2.609   1.437  14.028  1.0577  0.3445 -0.2410
 3884SOL     OW23284   3.194   2.777   8.103 -0.0095 -0.9655  0.1439
 3884SOL    HW123285   3.274   2.724   8.103  1.9306  1.9918  1.5946
 3884SOL    HW223286   3.220   2.859   8.063 -1.0995 -0.7724 -0.1651
 3885SOL     OW23287   1.293   3.918  12.005 -0.2685 -0.3894 -0.5853
 3885SOL    HW123288   1.279   3.849  12.070 -1.2416  1.4982  1.2098
 3885SOL    HW223289   1.303   3.992  12.065  1.2560  0.0483 -1.3778
 3886SOL     OW23290   4.376   4.144  15.913 -0.9928 -0.4219 -0.2197
 3886SOL    HW123291   4.427   4.221  15.938  2.4692 -3.3450  1.8020
 3886SOL    HW223292   4.319   4.169  15.840 -0.4569  2.0071  0.2141
 3887SOL     OW23293   1.874   3.292   8.023 -0.2395  0.7049  0.1014
 3887SOL    HW123294   1.881   3.386   8.007 -3.0808  0.5700 -2.0553
 3887SOL    HW223295   1.850   3.292   8.116 -1.6844 -2.9539 -0.2441
 3888SOL     OW23296   2.694   2.475   4.843 -0.1836  0.0431  0.1137
 3888SOL    HW123297   2.616   2.529   4.858 -0.6468 -0.3417 -0.8799
 3888SOL    HW223298   2.660   2.389   4.868 -1.8502 -0.0263 -2.3347
 3889SOL     OW23299   4.382   0.938   5.530  0.0527  0.2172  0.8551
 3889SOL    HW123300   4.324   1.014   5.542  1.8868  1.6011  0.9806
 3889SOL    HW223301   4.400   0.925   5.623  0.5321 -2.4765  0.3926
 3890SOL     OW23302   1.829   3.043   8.274 -0.1305 -0.3273  0.4802
 3890SOL    HW123303   1.884   2.975   8.237 -0.3239 -0.3167  0.1718
 3890SOL    HW223304   1.792   3.077   8.192  0.8533 -1.0658 -0.2620
 3891SOL     OW23305   4.191   4.680  11.542  0.3371 -0.6175 -0.3153
 3891SOL    HW123306   4.159   4.736  11.614  0.9892  0.6410 -1.0088
 3891SOL    HW223307   4.196   4.593  11.582  0.9037  0.5243  2.1445
 3892SOL     OW23308   1.825   0.342   5.897  0.0623  0.2709 -0.1079
 3892SOL    HW123309   1.843   0.347   5.991  0.8391  0.9873 -0.2946
 3892SOL    HW223310   1.879   0.416   5.868 -0.2836  1.0382  1.2400
 3893SOL     OW23311   1.886   3.351   1.058 -0.0187  0.5137 -0.0225
 3893SOL    HW123312   1.929   3.306   1.131 -0.3361  1.1881  0.5795
 3893SOL    HW223313   1.819   3.395   1.109 -0.8191 -0.4585 -0.2298
 3894SOL     OW23314   2.442   1.255   6.350 -0.1711  0.4480 -0.2301
 3894SOL    HW123315   2.446   1.313   6.275 -1.1657  1.6292  0.6259
 3894SOL    HW223316   2.532   1.225   6.363 -0.1877  1.2531  1.7885
 3895SOL     OW23317   1.116   3.744   1.444 -0.2219 -0.1656  0.0261
 3895SOL    HW123318   1.034   3.748   1.493 -0.6499  0.2761 -0.7316
 3895SOL    HW223319   1.120   3.649   1.437 -0.1842 -0.3404  2.5453
 3896SOL     OW23320   4.135   4.576   6.133  0.5764 -0.0791  0.0716
 3896SOL    HW123321   4.044   4.563   6.161  0.8378 -0.4327  0.7676
 3896SOL    HW223322   4.173   4.506   6.187  2.5465 -1.0438 -2.5233
 3897SOL     OW23323   2.895   1.604   7.759  0.6089 -0.3917 -0.0991
 3897SOL    HW123324   2.825   1.606   7.694 -0.7678 -3.8816  1.2404
 3897SOL    HW223325   2.861   1.565   7.840  1.4968  0.2292  0.5699
 3898SOL     OW23326   1.098   0.594  10.893  0.2597  0.6242 -0.6125
 3898SOL    HW123327   1.065   0.682  10.912  3.9282  1.7161  0.7703
 3898SOL    HW223328   1.135   0.616  10.808  0.2858 -2.3066 -1.3711
 3899SOL     OW23329   1.800   2.510   2.768  0.3092  0.0408  0.0616
 3899SOL    HW123330   1.712   2.482   2.741  1.6814 -0.9380 -3.4444
 3899SOL    HW223331   1.859   2.442   2.736 -1.5084 -2.5220  2.0965
 3900SOL     OW23332   0.034   1.250   1.801  0.3054 -0.4537  0.2685
 3900SOL    HW123333   0.124   1.283   1.793  0.7286 -1.4152  1.0790
 3900SOL    HW223334   0.002   1.269   1.713  1.2103  0.0480  0.0483
 3901SOL     OW23335   3.193   0.820   3.132 -0.6651 -0.0798  0.2125
 3901SOL    HW123336   3.201   0.910   3.164 -2.2308  0.4688 -0.9452
 3901SOL    HW223337   3.285   0.795   3.126 -1.1809 -2.4253  2.3296
 3902SOL     OW23338   2.234   2.439   4.924 -0.3587  0.2464 -0.8539
 3902SOL    HW123339   2.184   2.486   4.991 -2.1322  0.8311 -2.5907
 3902SOL    HW223340   2.199   2.491   4.852 -0.8562  2.5128  1.0131
 3903SOL     OW23341   4.349   2.710  12.137  0.4935  0.2985 -0.2487
 3903SOL    HW123342   4.415   2.767  12.176 -0.3248  1.7098 -0.9203
 3903SOL    HW223343   4.347   2.633  12.194  0.6361  0.5828  0.1398
 3904SOL     OW23344   3.967   0.083   9.095  0.1697 -0.0338 -0.5167
 3904SOL    HW123345   3.981   0.150   9.028  1.0299  2.0337  1.6991
 3904SOL    HW223346   3.917   0.020   9.043  1.1303 -1.2310  0.0123
 3905SOL     OW23347   0.971   2.629   7.352  0.6860 -0.0723  0.2539
 3905SOL    HW123348   0.911   2.577   7.405 -1.3451 -0.2906 -2.2668
 3905SOL    HW223349   1.054   2.584   7.366  0.5140 -0.5734 -0.3214
 3906SOL     OW23350   4.038   4.022   4.863  0.6435  0.2457 -0.2388
 3906SOL    HW123351   4.032   4.115   4.883  1.0466  0.1665  0.2489
 3906SOL    HW223352   3.946   3.996   4.873  1.1519 -0.4263  2.6813
 3907SOL     OW23353   2.415   2.141  14.074  0.1486 -0.2102 -0.0032
 3907SOL    HW123354   2.439   2.177  14.160  0.6726  1.5180 -0.8580
 3907SOL    HW223355   2.490   2.165  14.019 -0.2551 -0.1628 -0.5266
 3908SOL     OW23356   0.046   2.524   3.666 -0.0680  0.4373 -0.4243
 3908SOL    HW123357   4.717   2.583   3.640 -0.0026  0.1280 -1.2986
 3908SOL    HW223358   0.005   2.445   3.629  2.2938 -0.8278 -0.3447
 3909SOL     OW23359   2.391   1.640  17.258  0.2729  0.0693  0.3285
 3909SOL    HW123360   2.304   1.625  17.221  0.0410  1.7895  0.1847
 3909SOL    HW223361   2.409   1.726  17.220 -1.2276  0.6235  0.8593
 3910SOL     OW23362   1.630   0.619   7.070 -0.0719 -0.3600 -0.5622
 3910SOL    HW123363   1.698   0.557   7.094 -1.5125 -1.5343  0.4354
 3910SOL    HW223364   1.603   0.586   6.984  1.2150  0.2963 -1.2281
 3911SOL     OW23365   0.646   1.717   6.607 -0.3097  0.2566 -0.2403
 3911SOL    HW123366   0.737   1.688   6.607 -0.8018 -1.3490  2.1079
 3911SOL    HW223367   0.620   1.731   6.516  2.4531  0.8064 -0.9258
 3912SOL     OW23368   1.818   3.835   0.724  0.0486  0.0633  0.0997
 3912SOL    HW123369   1.779   3.776   0.788  0.1717 -0.1102  0.0157
 3912SOL    HW223370   1.851   3.907   0.777  1.2917 -0.3546 -0.0959
 3913SOL     OW23371   4.292   3.381   9.205 -0.4752 -0.2797  0.2358
 3913SOL    HW123372   4.316   3.453   9.146  1.1966 -0.3577  0.8234
 3913SOL    HW223373   4.197   3.389   9.205 -0.4607 -0.0953  0.2154
 3914SOL     OW23374   4.073   0.676   8.737 -0.2642 -0.0528  0.3985
 3914SOL    HW123375   3.987   0.663   8.699  0.1285 -1.4466 -0.0181
 3914SOL    HW223376   4.077   0.618   8.813 -2.1087 -0.0477  0.4909
 3915SOL     OW23377   2.540   1.923   8.137  0.1039 -0.3121  0.1476
 3915SOL    HW123378   2.554   1.859   8.066 -0.8754  1.3424 -1.5251
 3915SOL    HW223379   2.576   1.880   8.215  0.9000  0.4059  0.1778
 3916SOL     OW23380   0.751   3.004   2.615  0.1132 -0.4439 -0.4844
 3916SOL    HW123381   0.666   3.041   2.637  0.1931  0.0119 -0.9531
 3916SOL    HW223382   0.809   3.075   2.644  0.2418 -1.5567  1.9949
 3917SOL     OW23383   2.032   1.454  14.980  0.2748 -0.0819 -0.4565
 3917SOL    HW123384   2.038   1.530  15.038 -2.2076  0.6726 -1.1458
 3917SOL    HW223385   2.117   1.414  14.995 -0.7273 -2.1956 -0.3774
 3918SOL     OW23386   3.010   4.408  13.380  0.5851  0.1143 -0.8318
 3918SOL    HW123387   2.997   4.318  13.408  2.1761  0.0824 -0.2297
 3918SOL    HW223388   2.972   4.453  13.455 -1.4126 -0.3055 -1.5831
 3919SOL     OW23389   4.482   0.436  16.768  0.2906  0.3110 -0.3103
 3919SOL    HW123390   4.454   0.381  16.696 -1.2344  2.5288 -1.4326
 3919SOL    HW223391   4.498   0.363  16.827 -0.2742  0.8269  0.4981
 3920SOL     OW23392   0.534   2.948  10.643  0.2350 -0.4178  0.2291
 3920SOL    HW123393   0.463   2.931  10.705 -0.4182 -0.8814 -0.6623
 3920SOL    HW223394   0.555   2.860  10.613  0.3655 -0.0774 -0.6583
 3921SOL     OW23395   4.340   2.177   8.674 -0.1327 -0.2573  0.5358
 3921SOL    HW123396   4.256   2.220   8.686  0.2165  1.2400 -2.2887
 3921SOL    HW223397   4.322   2.100   8.727  2.5688 -0.2787  1.4269
 3922SOL     OW23398   2.432   3.008   9.727  0.5651  0.6279 -1.0408
 3922SOL    HW123399   2.378   2.941   9.686 -2.3471  2.2158  0.1377
 3922SOL    HW223400   2.444   2.964   9.811  1.5562  0.2565 -1.3818
 3923SOL     OW23401   3.696   4.463   9.655 -0.5787 -0.1345 -0.4912
 3923SOL    HW123402   3.621   4.523   9.657 -0.2302  0.2738 -0.0279
 3923SOL    HW223403   3.774   4.511   9.629 -0.2492 -0.4791 -0.1232
 3924SOL     OW23404   1.035   0.323   8.055 -0.2136 -0.2486  0.0136
 3924SOL    HW123405   1.031   0.409   8.096  1.3229 -0.5647  0.8306
 3924SOL    HW223406   0.952   0.282   8.081 -0.2166 -0.1689  0.1268
 3925SOL     OW23407   3.350   3.109   1.904 -0.9219  0.1432  0.0573
 3925SOL    HW123408   3.333   3.017   1.923 -1.9701  0.0796 -1.2239
 3925SOL    HW223409   3.359   3.144   1.993 -0.6424 -1.2884  0.5838
 3926SOL     OW23410   0.119   2.269  15.002  0.3004 -0.2793  0.2368
 3926SOL    HW123411   0.208   2.304  15.010  0.3064  0.2248 -2.0191
 3926SOL    HW223412   0.126   2.197  15.065 -0.0140 -0.3738  0.1633
 3927SOL     OW23413   3.178   1.598  13.249  0.1698  0.3331  0.0554
 3927SOL    HW123414   3.240   1.624  13.181 -0.6190  1.8860 -0.0800
 3927SOL    HW223415   3.229   1.526  13.285  1.2134  2.1788  2.2827
 3928SOL     OW23416   3.404   0.643   3.598 -0.3511 -0.4319  0.1497
 3928SOL    HW123417   3.332   0.624   3.659  1.6772 -0.4408  2.5127
 3928SOL    HW223418   3.417   0.737   3.615 -1.9591  0.0554 -1.2334
 3929SOL     OW23419   3.969   4.482   1.414 -0.5852  0.1245  0.0605
 3929SOL    HW123420   3.994   4.416   1.349  1.5352  1.5968 -0.6246
 3929SOL    HW223421   4.053   4.525   1.431 -0.1677 -1.1777  1.2797
 3930SOL     OW23422   1.397   0.470   4.879  0.1818  0.1363  0.3095
 3930SOL    HW123423   1.437   0.384   4.865 -2.7261 -0.8585 -1.9075
 3930SOL    HW223424   1.418   0.514   4.796  0.5015  1.9824  1.3701
 3931SOL     OW23425   4.610   3.865   7.724 -0.3995  0.0773  0.6559
 3931SOL    HW123426   4.598   3.777   7.761 -0.6629 -0.7193 -1.3235
 3931SOL    HW223427   4.537   3.870   7.663 -1.7862  1.6517  2.4753
 3932SOL     OW23428   2.589   1.123   1.845 -0.6994  0.8659 -0.0779
 3932SOL    HW123429   2.644   1.174   1.785  0.1926 -2.4397 -2.0276
 3932SOL    HW223430   2.501   1.147   1.816 -1.7716 -0.2591  2.2145
 3933SOL     OW23431   1.211   2.956  12.747 -0.2974  0.3227 -0.2041
 3933SOL    HW123432   1.245   3.037  12.785  0.3562  0.1987 -0.5239
 3933SOL    HW223433   1.176   2.973  12.659 -1.6053  1.8501  0.6079
 3934SOL     OW23434   3.093   1.854   7.470  0.5441  0.2074 -0.8717
 3934SOL    HW123435   3.066   1.769   7.434 -0.6903  0.6907 -1.1106
 3934SOL    HW223436   3.079   1.909   7.392  2.1349 -0.6551 -1.7606
 3935SOL     OW23437   4.601   1.510   0.792 -0.1943  0.1468  0.2962
 3935SOL    HW123438   4.675   1.458   0.761 -0.4200  0.5391 -0.9167
 3935SOL    HW223439   4.633   1.593   0.755  1.0177 -0.6542 -0.4572
 3936SOL     OW23440   1.611   3.471   3.944  0.1050 -0.6058 -0.2140
 3936SOL    HW123441   1.558   3.435   3.872  0.9146 -0.6443 -0.7830
 3936SOL    HW223442   1.695   3.432   3.921  0.7109 -0.1084  1.1646
 3937SOL     OW23443   2.662   0.033   2.659  0.5028 -0.2387  0.7601
 3937SOL    HW123444   2.688   4.683   2.649 -1.1076 -0.5700 -0.3462
 3937SOL    HW223445   2.729   0.081   2.708  0.4648 -0.0610  0.6369
 3938SOL     OW23446   1.139   3.750   8.417 -0.3952  0.1397 -0.0017
 3938SOL    HW123447   1.223   3.724   8.456 -0.7818 -0.5359  0.3949
 3938SOL    HW223448   1.172   3.751   8.328 -1.4743 -0.1534 -0.4053
 3939SOL     OW23449   3.878   3.299  14.548  0.4844  0.7118 -0.0995
 3939SOL    HW123450   3.802   3.335  14.594  1.5418  0.6436  1.6957
 3939SOL    HW223451   3.876   3.376  14.491 -1.4074  0.2505 -0.6596
 3940SOL     OW23452   3.062   0.208  16.098 -0.2818  0.5484  0.1774
 3940SOL    HW123453   3.032   0.144  16.163 -1.9392  2.1704  0.9961
 3940SOL    HW223454   3.141   0.248  16.134 -0.2465 -0.7385  1.5430
 3941SOL     OW23455   2.517   0.918   0.127 -0.0027 -0.2017 -0.3845
 3941SOL    HW123456   2.503   0.878   0.213 -2.9215  1.2234 -0.1909
 3941SOL    HW223457   2.612   0.905   0.121  0.2873  0.8150  1.9859
 3942SOL     OW23458   1.834   3.960  14.733 -0.3639 -0.1025  0.1889
 3942SOL    HW123459   1.802   3.880  14.776  2.3964 -0.0735  2.2784
 3942SOL    HW223460   1.891   3.942  14.658  1.7889  0.5013  1.6835
 3943SOL     OW23461   0.931   3.778   9.754  0.5214  0.5453 -0.2857
 3943SOL    HW123462   0.913   3.868   9.781  1.0902  1.2393 -2.2057
 3943SOL    HW223463   0.852   3.731   9.783  0.0986  0.8133 -0.9740
 3944SOL     OW23464   0.713   2.308   2.491  0.2121 -0.2704 -0.0693
 3944SOL    HW123465   0.694   2.380   2.430  0.2708  1.9899  2.5835
 3944SOL    HW223466   0.768   2.344   2.561  2.0046 -0.3570 -1.4204
 3945SOL     OW23467   3.091   4.142  10.789  0.4048 -0.3254 -0.0098
 3945SOL    HW123468   3.107   4.098  10.705  0.1119 -0.7020  0.1333
 3945SOL    HW223469   3.120   4.080  10.856  0.6422  1.0925  1.2146
 3946SOL     OW23470   2.434   2.281   6.661 -0.0823 -0.2671  0.4176
 3946SOL    HW123471   2.439   2.326   6.746  2.6053 -0.4789  0.3947
 3946SOL    HW223472   2.387   2.338   6.600  2.2266  0.6975 -0.4649
 3947SOL     OW23473   3.454   0.923   9.095  0.0546  0.2395 -0.6557
 3947SOL    HW123474   3.445   1.008   9.139  0.8736 -0.0937  0.1616
 3947SOL    HW223475   3.541   0.941   9.059  1.1958 -1.7343  1.1516
 3948SOL     OW23476   1.049   3.324  11.496  1.1851  0.6218  0.1783
 3948SOL    HW123477   1.110   3.358  11.431  2.2512 -1.4891  0.0842
 3948SOL    HW223478   1.094   3.356  11.574 -1.7480  1.9358  1.3366
 3949SOL     OW23479   4.297   0.352   2.373 -0.0132 -0.1405  0.0072
 3949SOL    HW123480   4.311   0.440   2.408  0.0156 -0.1309 -0.0291
 3949SOL    HW223481   4.285   0.299   2.452  1.2136  1.5695  1.3665
 3950SOL     OW23482   0.480   4.003  12.323  0.2534 -0.0461 -0.3534
 3950SOL    HW123483   0.520   3.921  12.352 -1.5476 -0.0552  2.1108
 3950SOL    HW223484   0.548   4.032  12.262  0.7792 -0.0796  0.2053
 3951SOL     OW23485   4.473   3.555   2.758 -0.0001  0.2545 -0.1328
 3951SOL    HW123486   4.495   3.495   2.829 -0.3223 -1.6349 -1.6298
 3951SOL    HW223487   4.400   3.504   2.723 -1.2345  1.5389  0.5388
 3952SOL     OW23488   2.104   4.101  11.226 -0.0874 -0.0897 -0.4671
 3952SOL    HW123489   2.068   4.168  11.168 -2.5056 -0.2494  0.8493
 3952SOL    HW223490   2.075   4.128  11.313 -0.5210  0.2295 -0.7084
 3953SOL     OW23491   2.071   3.199   8.434 -0.5250 -0.0871  0.6491
 3953SOL    HW123492   2.109   3.118   8.402 -0.8801  0.3610 -0.9243
 3953SOL    HW223493   2.142   3.255   8.464 -0.1296 -0.1371 -0.1912
 3954SOL     OW23494   1.341   1.053   7.557 -0.0151  0.3162 -0.0972
 3954SOL    HW123495   1.330   0.960   7.538 -3.1411  0.1124  2.6848
 3954SOL    HW223496   1.404   1.081   7.490  1.0621 -0.0378  0.7780
 3955SOL     OW23497   3.399   1.454  12.768  0.4827  0.1352 -0.6821
 3955SOL    HW123498   3.313   1.435  12.807  0.4014  2.6212  0.3346
 3955SOL    HW223499   3.430   1.518  12.833  0.5546  0.6096 -1.1832
 3956SOL     OW23500   2.137   3.381   2.864 -0.0387 -0.2915 -0.4389
 3956SOL    HW123501   2.126   3.299   2.913 -0.7840  0.5463  0.7720
 3956SOL    HW223502   2.141   3.455   2.924 -1.0049 -0.2076 -0.4894
 3957SOL     OW23503   0.256   2.184   4.308 -0.2270 -0.4773  0.6791
 3957SOL    HW123504   0.325   2.121   4.287 -1.0724 -0.5489 -1.9356
 3957SOL    HW223505   0.235   2.217   4.220  1.6458 -0.5968  0.1770
 3958SOL     OW23506   0.642   2.614   7.037  0.1440  0.3349  0.1228
 3958SOL    HW123507   0.667   2.652   7.121  0.7512  1.4568 -0.5569
 3958SOL    HW223508   0.586   2.687   7.010 -0.7431 -1.3297 -2.5674
 3959SOL     OW23509   1.875   0.666  11.093  0.2645  0.5736 -0.0711
 3959SOL    HW123510   1.830   0.637  11.172  0.5216 -1.8782 -0.8255
 3959SOL    HW223511   1.929   0.586  11.087  1.1784  1.1030  1.0187
 3960SOL     OW23512   2.032   0.721   8.761 -0.2378  0.0882 -0.1278
 3960SOL    HW123513   1.952   0.774   8.765  0.0169  0.5923 -1.7007
 3960SOL    HW223514   2.085   0.787   8.715 -0.7957  0.0633 -0.7951
 3961SOL     OW23515   3.462   2.241   6.044 -0.0041 -0.0111 -0.1234
 3961SOL    HW123516   3.435   2.209   6.130  1.2134  0.6117  0.4978
 3961SOL    HW223517   3.392   2.305   6.042  1.1811  1.2864  0.0990
 3962SOL     OW23518   2.825   1.132   6.052  0.2212 -0.1880  0.3347
 3962SOL    HW123519   2.903   1.102   6.006  0.5408 -0.4499  1.0506
 3962SOL    HW223520   2.791   1.204   5.999 -3.7580 -1.5770  0.9339
 3963SOL     OW23521   1.619   2.145   3.781  0.4983  0.3294 -0.8007
 3963SOL    HW123522   1.544   2.143   3.721 -0.3863 -0.3729  0.3151
 3963SOL    HW223523   1.577   2.172   3.863  1.0837 -0.6045 -0.1892
 3964SOL     OW23524   1.201   2.533   3.100  0.2139 -0.3667 -0.0545
 3964SOL    HW123525   1.134   2.592   3.064  2.7647  1.7847 -1.3433
 3964SOL    HW223526   1.282   2.578   3.075  0.7502 -1.9453 -1.1374
 3965SOL     OW23527   1.081   3.777   2.080 -0.5351 -0.7300 -0.2667
 3965SOL    HW123528   1.086   3.838   2.154 -0.7441 -0.3032 -0.6044
 3965SOL    HW223529   1.138   3.704   2.105  0.5553  0.9250  2.0751
 3966SOL     OW23530   3.858   3.005   2.104 -0.5976  0.2093  0.5515
 3966SOL    HW123531   3.851   2.909   2.101 -1.6332  0.2870  0.4492
 3966SOL    HW223532   3.950   3.012   2.079 -0.4700 -0.2652  0.8876
 3967SOL     OW23533   2.196   2.103   0.863 -0.7790 -0.2548  1.1178
 3967SOL    HW123534   2.158   2.023   0.900 -0.1131 -1.2788 -0.4347
 3967SOL    HW223535   2.245   2.068   0.789  0.4606 -0.6081  2.0992
 3968SOL     OW23536   4.712   0.515  14.728  0.1272  0.1319  0.1507
 3968SOL    HW123537   4.732   0.462  14.650  2.0752 -1.4978  1.7551
 3968SOL    HW223538   0.002   0.603  14.706 -2.9112  1.5434  1.4890
 3969SOL     OW23539   1.706   2.909   6.992 -0.4611 -0.5993 -0.5548
 3969SOL    HW123540   1.758   2.909   6.912 -0.8487 -0.2096 -0.8038
 3969SOL    HW223541   1.714   2.817   7.018 -1.2036  0.6408  4.0012
 3970SOL     OW23542   2.854   2.055   6.679 -0.3234 -1.0832  0.3063
 3970SOL    HW123543   2.820   2.084   6.764 -0.7829  1.2644 -0.6624
 3970SOL    HW223544   2.785   2.093   6.625 -0.5832 -0.3094  1.1865
 3971SOL     OW23545   3.709   1.036   5.597  0.0699  0.1423 -0.0628
 3971SOL    HW123546   3.652   0.993   5.660 -0.7418  2.4022  0.7678
 3971SOL    HW223547   3.735   1.111   5.650  1.0513 -1.7281  2.0768
 3972SOL     OW23548   1.044   1.558   5.890 -0.3349  0.6485  0.1504
 3972SOL    HW123549   1.003   1.472   5.902 -1.0847  1.2135  1.5818
 3972SOL    HW223550   1.028   1.572   5.797 -2.0165 -0.7856  0.2122
 3973SOL     OW23551   4.091   4.464  12.421 -0.2341 -0.5430  0.3774
 3973SOL    HW123552   4.140   4.391  12.460  0.0849 -0.4289  0.1914
 3973SOL    HW223553   4.115   4.546  12.463 -0.0400  0.2907 -1.3677
 3974SOL     OW23554   1.183   3.826  13.549 -0.4715  0.1602 -0.3822
 3974SOL    HW123555   1.259   3.798  13.599  0.2833  1.0291 -1.0455
 3974SOL    HW223556   1.112   3.835  13.613 -0.8168  0.2997 -0.7802
 3975SOL     OW23557   1.618   4.660  12.007 -0.2386  0.1617 -0.3515
 3975SOL    HW123558   1.537   4.617  12.034  0.0585 -0.2413 -0.1133
 3975SOL    HW223559   1.629   4.625  11.919 -1.1427  2.2257 -1.2962
 3976SOL     OW23560   1.678   0.329   2.016 -0.5530  0.1656 -0.7726
 3976SOL    HW123561   1.655   0.236   2.008  1.9470 -0.6299  1.1709
 3976SOL    HW223562   1.599   0.349   2.067 -0.3820  0.3503 -0.5809
 3977SOL     OW23563   0.390   2.597   7.355 -0.1406  0.1718  0.2453
 3977SOL    HW123564   0.371   2.558   7.440 -0.5135 -0.7197 -0.2430
 3977SOL    HW223565   0.429   2.524   7.307 -1.1100  0.5826 -1.1561
 3978SOL     OW23566   1.434   0.057   1.708  0.7490 -0.8119 -0.2761
 3978SOL    HW123567   1.518   0.098   1.689  0.1245  0.6958  0.2012
 3978SOL    HW223568   1.398   0.039   1.621 -1.0829 -1.4625  0.6102
 3979SOL     OW23569   2.431   1.906   9.978 -0.0197  0.2060  0.1019
 3979SOL    HW123570   2.513   1.936  10.017  1.5583 -2.0694 -1.4846
 3979SOL    HW223571   2.410   1.978   9.917 -0.6387 -0.0011  0.0772
 3980SOL     OW23572   4.084   2.285   8.735  0.0335  0.1699  0.3935
 3980SOL    HW123573   4.133   2.310   8.813 -0.3500 -1.2139  1.0683
 3980SOL    HW223574   4.069   2.366   8.685 -0.2994 -0.3000 -0.2592
 3981SOL     OW23575   2.176   0.074   1.809 -0.1678 -0.6347 -0.2837
 3981SOL    HW123576   2.221   0.134   1.750 -0.2608 -0.3305 -0.0500
 3981SOL    HW223577   2.085   0.105   1.807 -0.8399 -2.7555 -1.9812
 3982SOL     OW23578   3.140   2.993   6.641 -0.4700 -0.4051  0.6504
 3982SOL    HW123579   3.143   2.972   6.547 -0.5897 -0.2511  0.6113
 3982SOL    HW223580   3.175   3.081   6.631  1.9887 -1.3952  0.6498
 3983SOL     OW23581   4.024   3.000   7.747  0.0186  0.1379  0.1415
 3983SOL    HW123582   3.959   2.930   7.738 -0.1705  0.1217  1.6268
 3983SOL    HW223583   4.002   3.046   7.666  0.6220 -0.4923 -0.3851
 3984SOL     OW23584   3.767   1.933   5.955  0.3472 -0.5712  0.3621
 3984SOL    HW123585   3.857   1.913   5.982  0.4322 -0.3390  0.2523
 3984SOL    HW223586   3.762   2.028   5.961 -1.9927 -0.7733  1.3866
 3985SOL     OW23587   4.448   2.775   5.483  0.0205 -0.6680  0.4024
 3985SOL    HW123588   4.438   2.827   5.563 -1.0086  1.3496 -1.0466
 3985SOL    HW223589   4.450   2.686   5.517 -0.5297  0.3081  3.0310
 3986SOL     OW23590   0.606   2.095  12.636 -0.1329 -0.1308 -0.3118
 3986SOL    HW123591   0.546   2.087  12.710  2.1395 -2.9409  1.2176
 3986SOL    HW223592   0.627   2.003  12.624  1.3607  0.1427  0.2166
 3987SOL     OW23593   4.715   4.023   5.703 -0.0978  0.5324 -0.6152
 3987SOL    HW123594   0.032   4.051   5.633  0.6318  0.2308 -0.1278
 3987SOL    HW223595   4.633   4.059   5.668 -1.6635 -1.3338  1.1401
 3988SOL     OW23596   2.680   1.346   6.949 -0.5968 -0.2007 -0.4199
 3988SOL    HW123597   2.679   1.258   6.912  1.3507  0.3179 -1.6560
 3988SOL    HW223598   2.687   1.395   6.867  0.0281 -0.1207 -0.3179
 3989SOL     OW23599   1.479   0.093   5.161  0.1485 -0.0591  0.0470
 3989SOL    HW123600   1.481   0.129   5.073 -0.7101 -1.7948 -0.6726
 3989SOL    HW223601   1.422   0.153   5.210  2.7172  0.7985  1.9506
 3990SOL     OW23602   1.964   0.623   7.497  0.2348 -0.1232  0.2919
 3990SOL    HW123603   1.886   0.590   7.541  0.1492 -0.4344 -0.0843
 3990SOL    HW223604   1.998   0.684   7.562 -1.6640  0.9463  0.2804
 3991SOL     OW23605   3.221   2.659  13.195  0.1238  0.1475  0.5225
 3991SOL    HW123606   3.235   2.580  13.247  1.9711 -0.7731 -1.3302
 3991SOL    HW223607   3.269   2.721  13.250  0.6377  1.7959 -1.7550
 3992SOL     OW23608   2.742   0.546   6.054 -0.3795 -0.4304 -0.6651
 3992SOL    HW123609   2.687   0.554   6.131 -1.8433 -0.6030 -1.6899
 3992SOL    HW223610   2.772   0.455   6.064 -2.0171 -0.7566  1.1609
 3993SOL     OW23611   4.040   3.692  10.624  0.4249  0.3405  0.3356
 3993SOL    HW123612   4.107   3.667  10.687 -1.4327 -2.0077  1.3715
 3993SOL    HW223613   4.089   3.690  10.542 -1.2498  0.2687 -0.6776
 3994SOL     OW23614   2.256   1.488  12.622  0.2588  0.2527 -0.0480
 3994SOL    HW123615   2.178   1.435  12.607  1.2813 -2.2458  3.5148
 3994SOL    HW223616   2.213   1.570  12.645  1.4838  1.2736 -1.4336
 3995SOL     OW23617   3.464   3.571   7.387  0.2393 -0.9186 -0.1236
 3995SOL    HW123618   3.419   3.585   7.471 -0.5517 -2.4935 -0.2900
 3995SOL    HW223619   3.394   3.605   7.331  3.2919  0.0414 -3.3010
 3996SOL     OW23620   1.875   1.177  15.007  0.2720 -0.0295 -0.5142
 3996SOL    HW123621   1.956   1.207  14.965  0.7125 -1.8527 -0.9600
 3996SOL    HW223622   1.906   1.198  15.095 -1.0690 -2.7613  0.5986
 3997SOL     OW23623   1.772   2.703   5.922  0.3029  0.4036 -0.1073
 3997SOL    HW123624   1.685   2.671   5.898  0.5386 -1.1098  1.0474
 3997SOL    HW223625   1.762   2.769   5.991 -3.1856  1.2464 -1.3941
 3998SOL     OW23626   3.215   1.111   4.130  0.1731 -0.0165 -0.4390
 3998SOL    HW123627   3.238   1.203   4.128 -0.6695  0.2025 -0.1820
 3998SOL    HW223628   3.143   1.113   4.194 -0.6864  1.0595 -1.4418
 3999SOL     OW23629   1.859   1.768  17.332  0.2484  0.0976  0.5122
 3999SOL    HW123630   1.768   1.793  17.346  0.8225  2.1435  0.5478
 3999SOL    HW223631   1.902   1.752  17.416  0.4708 -1.4070  0.1244
 4000SOL     OW23632   0.186   4.025   7.082  0.1019 -0.2116 -0.5116
 4000SOL    HW123633   0.203   3.933   7.104  0.6498  0.3847  1.5746
 4000SOL    HW223634   0.171   4.031   6.988 -1.3943  0.5226 -0.2234
 4001SOL     OW23635   4.323   3.521  16.859 -0.7890  0.1258 -0.1741
 4001SOL    HW123636   4.391   3.561  16.805 -0.1271  0.4631  0.9126
 4001SOL    HW223637   4.374   3.452  16.901  1.4408  2.0100  0.1904
 4002SOL     OW23638   3.341   0.492  12.922  0.1136  0.3684  0.0769
 4002SOL    HW123639   3.294   0.434  12.862 -3.3305  3.1387  0.1129
 4002SOL    HW223640   3.376   0.550  12.854 -2.7542 -0.5228 -2.1332
 4003SOL     OW23641   0.542   0.650   8.253  0.6907 -0.2142  0.6769
 4003SOL    HW123642   0.594   0.624   8.177  1.5821 -1.0807  1.5907
 4003SOL    HW223643   0.462   0.598   8.253  1.5570 -1.5348 -0.7695
 4004SOL     OW23644   1.617   0.968   0.201 -0.3594 -0.5871 -0.2761
 4004SOL    HW123645   1.667   0.935   0.276 -0.3019 -2.3429 -1.0985
 4004SOL    HW223646   1.679   0.969   0.128  0.0971 -2.9340  0.0818
 4005SOL     OW23647   1.945   1.778   1.510  0.2570  0.1196 -0.2950
 4005SOL    HW123648   2.009   1.832   1.557 -1.6301  2.9058 -0.9668
 4005SOL    HW223649   1.985   1.775   1.423  1.4588  1.7416  0.2007
 4006SOL     OW23650   0.869   4.038   9.844 -0.2036  0.0499 -0.0202
 4006SOL    HW123651   0.835   4.032   9.933 -0.8791  1.9908 -0.1489
 4006SOL    HW223652   0.813   4.104   9.804 -0.7623 -0.8892 -0.7890
 4007SOL     OW23653   3.421   3.657  16.359  0.2725  0.6731 -0.0938
 4007SOL    HW123654   3.508   3.650  16.397  0.2680  0.8630 -0.0474
 4007SOL    HW223655   3.376   3.589  16.408  2.3189 -3.0113 -3.3813
 4008SOL     OW23656   3.608   1.842   7.483 -0.0709 -0.4030  0.3464
 4008SOL    HW123657   3.666   1.912   7.511 -0.2368  0.5459 -1.7412
 4008SOL    HW223658   3.525   1.882   7.509 -0.4316 -0.3549 -0.9052
 4009SOL     OW23659   2.512   4.516  13.060 -0.2894 -0.1847  0.5105
 4009SOL    HW123660   2.596   4.470  13.058  1.3978  2.9819 -1.4251
 4009SOL    HW223661   2.471   4.494  13.144  1.4476  0.8647  1.6325
 4010SOL     OW23662   2.768   2.568   3.994 -0.1660  0.4339  0.4558
 4010SOL    HW123663   2.834   2.613   4.046  0.8303 -1.5246  0.8696
 4010SOL    HW223664   2.698   2.588   4.055 -0.7091  0.1634 -0.0751
 4011SOL     OW23665   4.209   2.505   7.905  0.1564  0.7411  0.2466
 4011SOL    HW123666   4.272   2.447   7.861  0.4579  0.6247  0.8325
 4011SOL    HW223667   4.232   2.485   7.996 -2.3809  1.3994  1.0212
 4012SOL     OW23668   3.469   0.227   7.663 -0.1071 -0.4412  0.1944
 4012SOL    HW123669   3.496   0.136   7.671  0.0664 -0.3790  0.3234
 4012SOL    HW223670   3.376   0.220   7.642  0.2208 -1.1275 -1.0797
 4013SOL     OW23671   4.194   4.303   2.468 -0.5408  0.2040  0.2793
 4013SOL    HW123672   4.274   4.252   2.462  0.4635  1.9983 -1.8019
 4013SOL    HW223673   4.234   4.390   2.471  0.5717 -0.2567 -1.3587
 4014SOL     OW23674   2.441   0.375   5.955  0.5599  0.1596  0.0107
 4014SOL    HW123675   2.457   0.469   5.949  2.4351 -0.0964  0.9254
 4014SOL    HW223676   2.352   0.373   5.921  1.1083  0.2376 -1.4242
 4015SOL     OW23677   0.167   1.856   7.667 -0.5549  0.3428 -0.3796
 4015SOL    HW123678   0.198   1.898   7.748  0.4638 -0.0431 -0.5629
 4015SOL    HW223679   0.076   1.837   7.690 -0.0677 -1.6843 -0.0925
 4016SOL     OW23680   2.263   1.278  15.066  0.4041  0.6279 -0.4822
 4016SOL    HW123681   2.355   1.307  15.065  0.3304  0.8566 -0.6866
 4016SOL    HW223682   2.267   1.201  15.122 -0.6919  2.2857  1.8488
 4017SOL     OW23683   3.336   1.044   5.488 -0.5571  0.4338 -0.2509
 4017SOL    HW123684   3.376   1.131   5.487  0.3116  0.0438  1.0004
 4017SOL    HW223685   3.249   1.061   5.524 -0.5811 -2.3058  1.0100
 4018SOL     OW23686   2.174   3.939   2.177  0.6158  0.2693  0.3399
 4018SOL    HW123687   2.109   3.870   2.187 -0.5911  1.3339 -0.1902
 4018SOL    HW223688   2.113   4.012   2.168 -1.0181 -1.5093 -2.6920
 4019SOL     OW23689   0.931   0.757   4.041  0.3779  0.0471 -0.0616
 4019SOL    HW123690   0.997   0.761   3.972 -0.6717 -0.9432 -1.1242
 4019SOL    HW223691   0.950   0.838   4.089 -1.3498  0.0249  0.6615
 4020SOL     OW23692   0.366   0.694   3.364  0.0476 -0.5282  0.3430
 4020SOL    HW123693   0.384   0.776   3.318 -0.0215 -0.4979  0.3702
 4020SOL    HW223694   0.272   0.686   3.348  0.0218  0.5673 -0.0028
 4021SOL     OW23695   4.316   1.378   3.514  0.6288  0.4012 -0.5516
 4021SOL    HW123696   4.240   1.344   3.560  1.0946 -1.7313 -1.3185
 4021SOL    HW223697   4.353   1.436   3.580 -1.1453  0.1112  0.6739
 4022SOL     OW23698   1.924   0.179   3.917 -0.0439 -0.5882 -0.2056
 4022SOL    HW123699   1.902   0.096   3.875 -2.2390 -0.1221  0.0355
 4022SOL    HW223700   1.839   0.209   3.950 -0.5114  0.2954 -2.2431
 4023SOL     OW23701   1.822   4.438   6.717  0.1598  0.3253  0.7375
 4023SOL    HW123702   1.845   4.520   6.760  0.7284  0.9954 -0.8457
 4023SOL    HW223703   1.747   4.466   6.666  0.0423  3.0436  2.3957
 4024SOL     OW23704   2.683   3.851   6.679 -0.3414  0.0545 -0.3795
 4024SOL    HW123705   2.600   3.895   6.700 -0.3069  0.0305 -0.1979
 4024SOL    HW223706   2.695   3.791   6.752  0.2264 -0.2504 -0.7305
 4025SOL     OW23707   0.543   2.087  11.599 -0.2295 -0.5273  0.5571
 4025SOL    HW123708   0.504   2.105  11.513  0.8944 -3.0183 -0.4691
 4025SOL    HW223709   0.469   2.080  11.660  0.4952 -1.8070  1.3055
 4026SOL     OW23710   2.525   0.920  10.227  1.1983 -0.2442  0.6734
 4026SOL    HW123711   2.500   0.899  10.137 -0.8080  1.2853  0.8690
 4026SOL    HW223712   2.445   0.884  10.264  1.6970  0.9444  2.8960
 4027SOL     OW23713   1.782   1.248   5.061  0.1387 -0.0765  0.6426
 4027SOL    HW123714   1.688   1.264   5.071  0.5398  0.7174  3.3024
 4027SOL    HW223715   1.790   1.177   4.998  0.3270  0.3497  0.1784
 4028SOL     OW23716   2.122   1.948   3.791 -0.0331  0.3030  0.5994
 4028SOL    HW123717   2.045   2.004   3.799 -0.9096 -0.9771  1.1477
 4028SOL    HW223718   2.122   1.940   3.696 -0.5763 -0.5513  0.6739
 4029SOL     OW23719   4.670   0.310   6.736 -0.3800  0.2759  0.6989
 4029SOL    HW123720   4.718   0.392   6.718 -1.2078  0.7838  0.8070
 4029SOL    HW223721   4.669   0.312   6.832 -0.2967 -0.4824  0.7102
 4030SOL     OW23722   3.738   2.452   1.737  0.3263  0.5645 -0.7230
 4030SOL    HW123723   3.735   2.399   1.657 -1.3040 -1.6728  0.8190
 4030SOL    HW223724   3.664   2.413   1.783  1.4109 -1.7566 -0.9202
 4031SOL     OW23725   4.491   1.436   6.009  0.0422 -0.0787 -0.2357
 4031SOL    HW123726   4.556   1.490   6.054  1.2883 -1.8692  0.1100
 4031SOL    HW223727   4.534   1.351   6.013 -0.1891 -0.1785  0.1155
 4032SOL     OW23728   1.343   1.198  11.649  0.2907  0.7455  0.7060
 4032SOL    HW123729   1.280   1.218  11.580  1.4015  1.1194 -0.1975
 4032SOL    HW223730   1.308   1.241  11.728 -1.1001 -0.2126  0.6056
 4033SOL     OW23731   0.879   1.744   7.161  0.1116  0.0100 -0.5168
 4033SOL    HW123732   0.966   1.751   7.121  0.1052 -1.0442 -0.7272
 4033SOL    HW223733   0.831   1.819   7.126 -2.4228 -1.2338  0.2319
 4034SOL     OW23734   0.270   2.149   3.821 -0.4256 -0.2735 -0.3538
 4034SOL    HW123735   0.221   2.161   3.739 -2.6673  1.7806  1.3030
 4034SOL    HW223736   0.358   2.177   3.795 -1.2749  0.8966 -1.9542
 4035SOL     OW23737   0.949   2.112   5.397 -0.0875 -0.1414 -0.6508
 4035SOL    HW123738   0.889   2.041   5.420  0.5049 -0.8927 -1.4537
 4035SOL    HW223739   0.997   2.129   5.478  1.5313 -3.9089 -0.8234
 4036SOL     OW23740   2.048   0.916  10.449 -0.1020  0.3567 -0.2820
 4036SOL    HW123741   1.982   0.855  10.418  0.5934 -0.3441 -0.3879
 4036SOL    HW223742   2.050   0.907  10.544 -0.6659  1.2522 -0.1811
 4037SOL     OW23743   3.647   2.566   3.515  0.1216 -0.0603  0.4499
 4037SOL    HW123744   3.637   2.647   3.565  1.0843  0.8026 -0.7802
 4037SOL    HW223745   3.644   2.502   3.587 -0.9842  1.3527  1.6483
 4038SOL     OW23746   1.647   1.710   6.328  0.4239  0.0392  0.2879
 4038SOL    HW123747   1.677   1.753   6.247  1.8357  0.3599  0.9843
 4038SOL    HW223748   1.559   1.680   6.302  1.0364 -2.1289  0.7691
 4039SOL     OW23749   0.205   2.600  16.989 -0.1600  0.3242 -0.0168
 4039SOL    HW123750   0.254   2.622  16.910  1.3783 -1.4882  0.4374
 4039SOL    HW223751   0.159   2.680  17.013 -1.2201 -0.2487 -0.1411
 4040SOL     OW23752   2.918   4.052  15.922  0.2298 -0.4921  0.0749
 4040SOL    HW123753   2.993   4.014  15.967  0.7237 -2.3960 -2.3260
 4040SOL    HW223754   2.854   3.986  15.950  1.2358 -1.0502  1.0586
 4041SOL     OW23755   2.066   0.936  14.828  0.2150  0.0445  0.6500
 4041SOL    HW123756   2.068   1.028  14.802 -0.3712 -0.1960 -0.2376
 4041SOL    HW223757   1.974   0.925  14.852  0.3789  1.0355  1.7265
 4042SOL     OW23758   1.094   2.089  15.393 -0.7642 -0.2284 -0.0426
 4042SOL    HW123759   1.167   2.128  15.343  0.4698 -0.7739  1.3314
 4042SOL    HW223760   1.053   2.051  15.316 -0.1361  0.6129 -0.7991
 4043SOL     OW23761   3.257   3.246   6.580  1.0020 -0.0085  0.4651
 4043SOL    HW123762   3.244   3.327   6.629 -2.2579 -1.0574  1.3385
 4043SOL    HW223763   3.251   3.276   6.490 -3.7374 -1.6333  0.2639
 4044SOL     OW23764   0.987   1.442   7.225 -0.2294 -0.1863 -0.0786
 4044SOL    HW123765   0.989   1.451   7.130 -0.4174 -3.8029 -0.4166
 4044SOL    HW223766   0.997   1.347   7.229 -0.6202 -0.3104 -2.2325
 4045SOL     OW23767   3.014   3.964   9.244  0.4859  0.5325  0.5159
 4045SOL    HW123768   3.097   3.949   9.290 -0.3455  1.2595  2.2456
 4045SOL    HW223769   2.959   3.911   9.302 -0.2485  0.0196 -0.6514
 4046SOL     OW23770   1.867   3.693  13.325  0.3005 -0.4987  0.4749
 4046SOL    HW123771   1.811   3.616  13.336 -0.7208  0.1562 -0.1390
 4046SOL    HW223772   1.812   3.768  13.300 -0.7219 -1.7455 -0.9660
 4047SOL     OW23773   4.517   0.414   1.559  0.0526  0.5557  0.0918
 4047SOL    HW123774   4.436   0.363   1.571  0.0330  0.4800 -0.3724
 4047SOL    HW223775   4.562   0.340   1.519  0.7743  1.1879 -0.2459
 4048SOL     OW23776   1.043   0.613  11.238 -0.1090  0.0564 -0.0742
 4048SOL    HW123777   1.053   0.587  11.329  0.3685  2.8086  0.6521
 4048SOL    HW223778   0.963   0.665  11.247 -0.2833 -0.2962  0.4179
 4049SOL     OW23779   2.992   1.542   3.187  0.4339  0.0408 -0.2505
 4049SOL    HW123780   3.074   1.555   3.140  0.6888  0.8677  0.4397
 4049SOL    HW223781   3.021   1.534   3.277 -1.1141 -1.5180  0.1102
 4050SOL     OW23782   1.841   0.370   2.300 -0.1327  0.1992 -0.4783
 4050SOL    HW123783   1.908   0.350   2.235 -1.6357 -0.7763 -1.7278
 4050SOL    HW223784   1.793   0.288   2.307  1.5062 -0.9339 -2.8208
 4051SOL     OW23785   2.872   2.534   8.699  0.4078 -0.1085  0.1391
 4051SOL    HW123786   2.894   2.616   8.741  0.6741  0.2417 -0.6728
 4051SOL    HW223787   2.807   2.496   8.758  0.7336  0.2162  0.6978
 4052SOL     OW23788   2.538   1.195  12.301 -0.1332  0.3446  0.7484
 4052SOL    HW123789   2.489   1.126  12.345  1.4777 -2.1039 -1.2752
 4052SOL    HW223790   2.514   1.273  12.352  1.4063  0.7227  0.8921
 4053SOL     OW23791   3.254   0.490   4.469  0.3132  0.2760  0.6219
 4053SOL    HW123792   3.325   0.496   4.405 -0.7665 -0.0149 -0.6162
 4053SOL    HW223793   3.248   0.582   4.492 -0.3890  0.2461  0.5666
 4054SOL     OW23794   3.545   1.826   4.848  0.3556  0.2110  0.0642
 4054SOL    HW123795   3.640   1.839   4.854  0.4841 -0.2667 -0.8455
 4054SOL    HW223796   3.509   1.914   4.836  0.8216  0.3204 -0.5492
 4055SOL     OW23797   1.523   3.774   7.871  0.0814  0.2102  0.4756
 4055SOL    HW123798   1.533   3.797   7.963  0.3205 -0.4802  0.6150
 4055SOL    HW223799   1.552   3.683   7.871  1.1992  0.5671  1.8248
 4056SOL     OW23800   1.487   0.464  15.303  0.6377  0.3851  0.2662
 4056SOL    HW123801   1.567   0.427  15.341 -0.0835  0.1543  1.5396
 4056SOL    HW223802   1.412   0.417  15.339  0.1211 -0.6718 -2.1862
 4057SOL     OW23803   1.576   1.341   7.962 -0.3298  0.5620  0.3392
 4057SOL    HW123804   1.586   1.393   8.042 -0.1190 -0.9396  1.3030
 4057SOL    HW223805   1.504   1.280   7.982 -0.1898 -0.0172 -0.9051
 4058SOL     OW23806   3.199   0.258   7.591 -0.5998 -0.0276  0.0149
 4058SOL    HW123807   3.141   0.308   7.648  0.0333  0.7060  0.0168
 4058SOL    HW223808   3.141   0.207   7.534  0.3870  0.8400 -1.7676
 4059SOL     OW23809   3.179   2.547   9.494 -0.1453  0.1057  0.7922
 4059SOL    HW123810   3.204   2.581   9.408  1.5026 -0.7719  0.9228
 4059SOL    HW223811   3.172   2.631   9.539 -1.2496  1.9008 -2.8237
 4060SOL     OW23812   1.521   1.653   5.403  0.3312 -0.5091 -0.6777
 4060SOL    HW123813   1.526   1.644   5.308  1.5189 -1.5258 -0.5116
 4060SOL    HW223814   1.540   1.563   5.427  1.3298  0.0513  0.6322
 4061SOL     OW23815   3.635   1.313   6.103  0.0047 -0.3182  0.3162
 4061SOL    HW123816   3.688   1.384   6.140 -1.3733  2.0020 -2.2130
 4061SOL    HW223817   3.636   1.329   6.009  2.6411  0.9263  0.5505
 4062SOL     OW23818   2.065   2.735  12.260 -0.2037 -0.5280 -0.3581
 4062SOL    HW123819   1.981   2.775  12.286  0.5509  1.5947 -1.2106
 4062SOL    HW223820   2.021   2.660  12.220 -0.8371 -1.5182  2.1747
 4063SOL     OW23821   3.459   1.063   4.912  1.2054  0.0261  0.0372
 4063SOL    HW123822   3.387   1.003   4.891 -0.9349  1.6815  2.7397
 4063SOL    HW223823   3.535   1.024   4.868 -0.3189 -0.7217 -1.9292
 4064SOL     OW23824   4.612   3.091   5.518 -0.0007 -0.4812  0.6854
 4064SOL    HW123825   4.631   3.047   5.600  0.1312  1.2391  1.5701
 4064SOL    HW223826   4.517   3.098   5.514  0.1117  0.5834 -0.1828
 4065SOL     OW23827   1.598   2.568   7.912 -0.6993 -0.5796 -0.1578
 4065SOL    HW123828   1.669   2.627   7.937  0.1819 -1.5959 -0.2317
 4065SOL    HW223829   1.549   2.567   7.994 -0.6690  0.6951 -0.1254
 4066SOL     OW23830   4.648   1.648   1.177  0.0745 -0.6493  0.5252
 4066SOL    HW123831   4.609   1.704   1.110 -2.1219 -0.2420  2.1509
 4066SOL    HW223832   4.672   1.576   1.119 -0.4610  0.2608 -0.8178
 4067SOL     OW23833   0.359   3.939   8.621 -0.1128  0.1763 -0.1845
 4067SOL    HW123834   0.285   3.942   8.560  0.2083  2.0254 -0.4595
 4067SOL    HW223835   0.338   3.860   8.671 -0.0326  1.5594  2.0124
 4068SOL     OW23836   1.554   4.407   9.077 -0.2128 -0.2087  0.7453
 4068SOL    HW123837   1.551   4.316   9.105  0.8804 -0.4778 -0.0312
 4068SOL    HW223838   1.483   4.414   9.013  1.0702  0.0176 -0.6416
 4069SOL     OW23839   2.241   3.691   4.209  0.0278  0.1977 -0.2839
 4069SOL    HW123840   2.190   3.679   4.129 -0.4299 -0.1446  0.0565
 4069SOL    HW223841   2.268   3.604   4.240  0.1099  0.4095  0.2339
 4070SOL     OW23842   2.907   1.607  11.615  0.2252  0.1956 -0.0010
 4070SOL    HW123843   2.930   1.619  11.707 -0.0557 -0.7196  0.1854
 4070SOL    HW223844   2.978   1.645  11.563 -1.5659  1.3854 -1.5648
 4071SOL     OW23845   0.376   3.823  13.296  0.0212  0.0418 -0.4171
 4071SOL    HW123846   0.310   3.889  13.313 -0.7929 -0.5993 -1.0602
 4071SOL    HW223847   0.387   3.780  13.381  1.3785  2.1597  0.4603
 4072SOL     OW23848   1.387   0.138  12.014  0.2640 -0.0620  0.1085
 4072SOL    HW123849   1.418   0.168  12.099 -0.9434  2.3248 -0.3183
 4072SOL    HW223850   1.473   0.145  11.973  0.6100 -0.9852  0.6514
 4073SOL     OW23851   1.672   2.506  17.564  0.7758 -0.4164  0.3177
 4073SOL    HW123852   1.657   2.572  17.632  1.3271  0.7205 -0.6527
 4073SOL    HW223853   1.764   2.527  17.546  0.5676  0.7469  0.5886
 4074SOL     OW23854   3.661   4.018  17.665  0.2788 -0.1675 -0.4544
 4074SOL    HW123855   3.610   3.940  17.644  0.4581 -0.2044 -0.7471
 4074SOL    HW223856   3.605   4.087  17.629  2.1783  1.1072 -0.9670
 4075SOL     OW23857   2.770   4.239   6.687 -0.0166 -0.2659 -0.1855
 4075SOL    HW123858   2.689   4.290   6.694 -0.2885 -0.5259 -1.3860
 4075SOL    HW223859   2.831   4.310   6.673  0.2189 -0.2333  1.0212
 4076SOL     OW23860   1.504   0.490  17.316 -0.1638  0.2899  0.2721
 4076SOL    HW123861   1.419   0.514  17.278  1.2963  2.4066 -1.6255
 4076SOL    HW223862   1.508   0.558  17.383 -1.6990  0.6501  0.0125
 4077SOL     OW23863   1.561   0.046   2.197  0.0759 -0.0900  0.1650
 4077SOL    HW123864   1.587   0.038   2.104  0.2975  1.4811  0.0904
 4077SOL    HW223865   1.540   4.697   2.217 -1.9048  0.6008  1.1220
 4078SOL     OW23866   3.797   2.489   6.079 -0.3901  0.0279  0.0772
 4078SOL    HW123867   3.740   2.448   6.014  0.5827  0.0939 -0.8025
 4078SOL    HW223868   3.858   2.417   6.091 -0.1636 -0.1469 -2.2903
 4079SOL     OW23869   2.027   4.353   5.186 -0.1369 -0.6645 -0.1186
 4079SOL    HW123870   2.050   4.446   5.178 -1.4618 -0.0620  3.0117
 4079SOL    HW223871   2.043   4.328   5.277  0.4443 -1.4754 -0.4464
 4080SOL     OW23872   3.175   1.571   4.330 -0.5457  0.8300 -0.0444
 4080SOL    HW123873   3.100   1.623   4.302 -2.1660 -1.2604  0.4949
 4080SOL    HW223874   3.166   1.554   4.423  1.0372 -1.1895 -0.2408
 4081SOL     OW23875   1.446   1.461   7.006  0.2962  0.5410  0.0822
 4081SOL    HW123876   1.399   1.530   7.053 -1.8539 -0.4090 -0.6766
 4081SOL    HW223877   1.414   1.381   7.048 -0.5590 -0.3350 -2.2459
 4082SOL     OW23878   3.985   0.614  10.286 -0.1663 -0.8448 -0.0514
 4082SOL    HW123879   3.894   0.617  10.256 -0.9026 -0.1110  2.2709
 4082SOL    HW223880   3.963   0.636  10.376 -1.1024  1.8725 -0.9547
 4083SOL     OW23881   4.608   2.301   6.168  0.2090 -0.2362  0.3106
 4083SOL    HW123882   4.586   2.386   6.205  0.1404  0.5927 -1.6484
 4083SOL    HW223883   4.521   2.261   6.166  0.5415 -0.9432 -0.1535
 4084SOL     OW23884   2.958   3.496  15.793  0.1352 -0.6858  0.5324
 4084SOL    HW123885   2.872   3.534  15.812  0.8127  0.6203  1.0170
 4084SOL    HW223886   2.969   3.486  15.699 -2.1347  2.0002 -0.0290
 4085SOL     OW23887   4.448   1.970   1.751 -0.5523 -0.2427 -0.0292
 4085SOL    HW123888   4.418   1.956   1.841  0.0658  1.2012  0.3997
 4085SOL    HW223889   4.465   1.881   1.720  1.2599  0.5309 -1.2279
 4086SOL     OW23890   1.868   3.532  10.672  0.3247 -0.0247 -0.2999
 4086SOL    HW123891   1.853   3.565  10.761  2.4941  0.7736 -0.2167
 4086SOL    HW223892   1.784   3.553  10.632  0.7817 -1.5738 -2.0759
 4087SOL     OW23893   2.867   3.472   4.725 -0.5288 -0.6680 -0.6124
 4087SOL    HW123894   2.906   3.480   4.812 -0.9028  0.1161 -0.5175
 4087SOL    HW223895   2.945   3.433   4.686  0.1738  0.9432 -0.8416
 4088SOL     OW23896   2.468   3.987   7.387 -0.5047  0.1654  0.4203
 4088SOL    HW123897   2.404   3.918   7.366 -0.5630  0.1815  0.5465
 4088SOL    HW223898   2.468   3.992   7.483 -0.1052  0.3060  0.4133
 4089SOL     OW23899   0.255   1.324   4.272  0.2119  0.0279  0.5434
 4089SOL    HW123900   0.350   1.317   4.265  0.1812  2.5759 -2.6202
 4089SOL    HW223901   0.248   1.417   4.296  2.3535  0.8944 -2.1794
 4090SOL     OW23902   1.883   1.758   6.611  0.1224 -0.0680  0.1058
 4090SOL    HW123903   1.818   1.738   6.678  0.5067  1.0397  0.8092
 4090SOL    HW223904   1.949   1.691   6.629  1.6430  1.0343 -1.4006
 4091SOL     OW23905   2.071   0.037   0.397 -0.4535 -0.2134 -0.2963
 4091SOL    HW123906   2.091   4.692   0.432  1.3896 -0.0396 -0.9152
 4091SOL    HW223907   2.158   0.076   0.386 -0.2234 -0.3994  0.9264
 4092SOL     OW23908   3.973   3.820   7.848 -0.1748  0.1387  0.0193
 4092SOL    HW123909   4.051   3.875   7.848 -0.7503  0.9717 -1.1437
 4092SOL    HW223910   3.945   3.827   7.757 -0.1772  1.1311  0.0919
 4093SOL     OW23911   1.929   2.183  17.238 -0.2302 -0.4863  0.2529
 4093SOL    HW123912   1.915   2.137  17.155 -1.6229  1.1824 -0.4381
 4093SOL    HW223913   1.841   2.180  17.276  0.1213 -0.5194  1.0703
 4094SOL     OW23914   3.805   3.680  16.200 -0.1152 -0.1298  0.2203
 4094SOL    HW123915   3.843   3.727  16.125 -0.2539  0.2347  0.3797
 4094SOL    HW223916   3.774   3.600  16.158  4.3292 -1.7844  0.0490
 4095SOL     OW23917   4.089   1.607  16.607  0.8226 -0.4768  0.4576
 4095SOL    HW123918   4.061   1.693  16.638 -2.2758 -2.1045  2.3345
 4095SOL    HW223919   4.128   1.566  16.685  2.2846  1.9878  1.0315
 4096SOL     OW23920   4.549   3.607   7.846  0.1385  0.0896  0.0919
 4096SOL    HW123921   4.589   3.544   7.787  1.8663  1.3707 -0.1241
 4096SOL    HW223922   4.463   3.570   7.828  0.1653 -0.2295  0.6310
 4097SOL     OW23923   3.165   4.220  16.743  0.3452  0.3649 -0.5412
 4097SOL    HW123924   3.088   4.274  16.725 -0.6477 -1.2199 -1.0085
 4097SOL    HW223925   3.173   4.192  16.652 -0.1311  2.0673 -1.1108
 4098SOL     OW23926   2.474   4.108  13.039 -0.1489  0.2462  0.0805
 4098SOL    HW123927   2.398   4.129  12.985 -0.4355 -2.2373 -0.5058
 4098SOL    HW223928   2.464   4.015  13.063 -0.4349 -0.1741 -1.7097
 4099SOL     OW23929   0.312   3.296   5.664  0.1391  0.1094  0.3455
 4099SOL    HW123930   0.269   3.281   5.579  2.8509  0.1034 -1.0280
 4099SOL    HW223931   0.247   3.253   5.719  1.1973 -0.8385  0.8329
 4100SOL     OW23932   0.243   1.422   8.740 -0.1880 -0.0311  0.1329
 4100SOL    HW123933   0.266   1.454   8.653 -0.3730  2.0804  0.8338
 4100SOL    HW223934   0.292   1.341   8.745  0.1958  0.1293 -1.2766
 4101SOL     OW23935   2.227   2.566  11.829 -0.0863 -0.3784 -0.1006
 4101SOL    HW123936   2.282   2.544  11.903  0.2730  0.1208 -0.2143
 4101SOL    HW223937   2.296   2.608  11.778 -1.5947  0.1364 -1.7213
 4102SOL     OW23938   4.144   2.805   5.757  0.5154 -0.0992 -0.1657
 4102SOL    HW123939   4.142   2.709   5.761 -0.0700 -0.0323  1.0157
 4102SOL    HW223940   4.128   2.826   5.665  0.0224  2.2060  0.4583
 4103SOL     OW23941   0.489   3.249   0.563  0.1128 -0.8335 -0.0227
 4103SOL    HW123942   0.566   3.216   0.517  0.0101  1.5041 -1.9132
 4103SOL    HW223943   0.463   3.314   0.498  1.0972  2.8689  3.2730
 4104SOL     OW23944   2.454   0.833  11.328 -0.0221 -0.1910  0.2774
 4104SOL    HW123945   2.431   0.746  11.294 -2.0146  0.4607  0.0098
 4104SOL    HW223946   2.366   0.856  11.358  0.2090 -0.1302  0.9063
 4105SOL     OW23947   2.165   2.851  15.717  0.5164  0.5370 -0.1435
 4105SOL    HW123948   2.085   2.821  15.760  1.0070 -0.1233  0.3102
 4105SOL    HW223949   2.144   2.930  15.667  2.0963  0.4351 -0.9808
 4106SOL     OW23950   1.546   2.191  12.342 -0.0079 -0.8673 -0.1051
 4106SOL    HW123951   1.496   2.133  12.285  0.6153 -0.1957 -1.3351
 4106SOL    HW223952   1.489   2.268  12.353 -0.2266 -0.8226 -1.5122
 4107SOL     OW23953   0.575   0.335  11.282  0.1414 -0.5554 -0.2783
 4107SOL    HW123954   0.607   0.416  11.320 -2.5388 -0.4336  1.6898
 4107SOL    HW223955   0.501   0.314  11.339 -0.3363 -0.1328 -0.7468
 4108SOL     OW23956   4.006   0.018   4.256  0.0266  0.2807 -0.4470
 4108SOL    HW123957   4.069   0.004   4.327 -0.8401  2.8665  0.8378
 4108SOL    HW223958   4.031   0.094   4.203 -0.5860  0.1180 -0.9643
 4109SOL     OW23959   1.192   3.451   3.343  0.0472 -0.0807 -0.6171
 4109SOL    HW123960   1.187   3.356   3.335 -0.0523 -0.0441 -1.0111
 4109SOL    HW223961   1.201   3.462   3.437  1.5245 -0.7426 -0.6905
 4110SOL     OW23962   3.907   2.587   9.541  0.1893  0.2159  0.1950
 4110SOL    HW123963   3.920   2.623   9.454 -1.9573  2.6987  0.9220
 4110SOL    HW223964   3.811   2.580   9.535  0.3118 -0.5699 -0.7438
 4111SOL     OW23965   3.523   3.077  15.212 -0.8322  0.0334  0.4264
 4111SOL    HW123966   3.536   2.983  15.202  2.8357  0.5125  0.7809
 4111SOL    HW223967   3.523   3.108  15.122 -3.0742  0.1323  0.4664
 4112SOL     OW23968   4.134   1.299   5.632  0.1924 -0.1378 -0.4142
 4112SOL    HW123969   4.072   1.264   5.696  2.1355 -2.1835  0.3423
 4112SOL    HW223970   4.186   1.352   5.693 -3.8877  3.4238 -0.0218
 4113SOL     OW23971   1.360   4.111  10.121 -0.5135  0.6086 -0.1036
 4113SOL    HW123972   1.380   4.031  10.170 -0.1752  1.1040  0.5522
 4113SOL    HW223973   1.283   4.087  10.069  0.5137  0.3141 -1.4968
 4114SOL     OW23974   2.822   2.648  17.501  0.7955 -0.2132  0.1642
 4114SOL    HW123975   2.875   2.657  17.422 -1.3237 -0.9360 -1.3398
 4114SOL    HW223976   2.840   2.554  17.513 -0.7172 -0.7286 -1.5760
 4115SOL     OW23977   1.229   0.949   4.214 -0.9517 -0.3457  0.7371
 4115SOL    HW123978   1.138   0.971   4.195 -0.8581 -0.2523  0.3935
 4115SOL    HW223979   1.261   1.032   4.250 -2.8154  0.8641 -0.3670
 4116SOL     OW23980   0.411   2.284   6.406 -0.3716  0.1783  0.2083
 4116SOL    HW123981   0.476   2.333   6.455 -2.1436  2.3881  0.3127
 4116SOL    HW223982   0.428   2.191   6.420 -1.1486 -0.2488 -1.6313
 4117SOL     OW23983   1.326   1.960   3.947 -0.7218 -0.5523  0.5822
 4117SOL    HW123984   1.264   1.886   3.949 -0.1678 -1.0189  0.5392
 4117SOL    HW223985   1.298   2.008   3.869  3.5958  0.7239 -0.1674
 4118SOL     OW23986   3.879   1.588   4.612 -0.1692  0.1048 -0.1689
 4118SOL    HW123987   3.932   1.581   4.692 -0.9489 -1.4815  0.2046
 4118SOL    HW223988   3.882   1.498   4.582  2.1890  1.3000 -3.4663
 4119SOL     OW23989   2.416   2.255  13.760  0.1210  0.7663  0.0200
 4119SOL    HW123990   2.492   2.218  13.806  0.1314 -0.6489 -1.1547
 4119SOL    HW223991   2.402   2.332  13.816  0.8072 -0.6590  2.1825
 4120SOL     OW23992   2.521   0.109   3.281  0.5026  0.4736  0.4115
 4120SOL    HW123993   2.453   0.176   3.283 -0.4280 -0.3549 -2.9242
 4120SOL    HW223994   2.579   0.135   3.210 -1.6054  0.7511 -1.1890
 4121SOL     OW23995   0.250   4.185   2.253 -0.0149 -0.4516 -0.3076
 4121SOL    HW123996   0.175   4.195   2.194  1.4563  2.6812 -1.6880
 4121SOL    HW223997   0.277   4.094   2.242  0.5644 -0.3616  0.3853
 4122SOL     OW23998   2.287   3.939   7.934 -0.0582  0.4697  0.2783
 4122SOL    HW123999   2.249   3.976   7.855 -1.4617  0.5073  0.9687
 4122SOL    HW224000   2.261   4.013   7.990  0.0892  0.9995 -0.3513
 4123SOL     OW24001   4.157   2.802  11.194  0.3152  0.3248 -0.0493
 4123SOL    HW124002   4.187   2.871  11.252  2.5332  0.0031 -0.8204
 4123SOL    HW224003   4.236   2.748  11.192 -1.0636 -1.6533 -1.2435
 4124SOL     OW24004   3.110   1.205   5.663  0.3079 -0.1777 -0.0335
 4124SOL    HW124005   3.103   1.268   5.591 -0.4589  0.6717  0.7848
 4124SOL    HW224006   3.081   1.256   5.739  1.1361 -0.0304  0.1802
 4125SOL     OW24007   0.429   0.049   3.754  0.4602  0.2467  0.0438
 4125SOL    HW124008   0.373   4.720   3.786 -0.7562  0.3453 -1.8747
 4125SOL    HW224009   0.375   0.102   3.696 -0.5274  1.1231  1.7664
 4126SOL     OW24010   2.198   1.924   0.061 -0.0125  0.1664 -0.0657
 4126SOL    HW124011   2.204   1.829   0.072 -0.6383  0.3816  2.2137
 4126SOL    HW224012   2.237   1.946  17.740  1.0173 -0.7577  0.1596
 4127SOL     OW24013   3.288   2.960   5.787  0.6657  1.0466 -0.3302
 4127SOL    HW124014   3.338   3.040   5.770 -1.0049  1.7137 -2.0491
 4127SOL    HW224015   3.336   2.922   5.860  0.0297  0.7948 -0.0478
 4128SOL     OW24016   1.564   3.258  14.173  0.1601 -0.1148 -0.1380
 4128SOL    HW124017   1.566   3.228  14.082  2.6503  0.2816 -0.2299
 4128SOL    HW224018   1.477   3.235  14.205  0.1090  1.4249  0.8223
 4129SOL     OW24019   1.820   0.538   5.190 -0.6860 -0.0815  0.4559
 4129SOL    HW124020   1.769   0.461   5.215 -1.2661 -0.2048 -1.1004
 4129SOL    HW224021   1.814   0.591   5.269 -3.5676  1.2694 -0.6743
 4130SOL     OW24022   4.284   3.843   6.159  0.5029  0.1815 -0.2803
 4130SOL    HW124023   4.262   3.927   6.119  0.1782  0.8108  1.2251
 4130SOL    HW224024   4.216   3.835   6.226 -0.2728 -2.2007 -1.3441
 4131SOL     OW24025   2.281   0.044   6.486 -0.4978 -0.0330 -0.2239
 4131SOL    HW124026   2.326   0.128   6.479 -1.5958  0.5641 -0.0925
 4131SOL    HW224027   2.319   4.725   6.422  2.5163  3.4040 -1.7214
 4132SOL     OW24028   0.093   3.541   4.140 -0.8873 -0.0530  0.1117
 4132SOL    HW124029   0.035   3.507   4.208 -1.2411 -0.4147 -0.3669
 4132SOL    HW224030   0.163   3.477   4.155 -0.6418 -0.1346 -1.3918
 4133SOL     OW24031   2.562   1.588   9.591 -0.4501 -0.2126 -0.4853
 4133SOL    HW124032   2.529   1.638   9.517  1.2087 -1.2250 -1.9033
 4133SOL    HW224033   2.496   1.624   9.650  1.8463 -2.1891  3.2906
 4134SOL     OW24034   2.822   3.571  12.770 -0.3645 -0.1707 -0.5465
 4134SOL    HW124035   2.905   3.601  12.732  1.7888 -0.1123  4.2402
 4134SOL    HW224036   2.757   3.636  12.742  1.4147  1.6450 -0.4423
 4135SOL     OW24037   0.100   3.218   6.867 -0.1133 -0.0603  0.0316
 4135SOL    HW124038   0.064   3.220   6.778 -1.2408 -0.0269  0.4904
 4135SOL    HW224039   0.168   3.285   6.862  0.4048 -0.5304  0.8398
 4136SOL     OW24040   3.413   1.349   0.165 -0.0508  0.4368 -0.3144
 4136SOL    HW124041   3.424   1.358   0.260 -0.6521  0.1378 -0.2104
 4136SOL    HW224042   3.502   1.317   0.150  0.8754  2.3163  1.1232
 4137SOL     OW24043   1.350   4.657   4.579 -0.2585  0.1807 -0.2214
 4137SOL    HW124044   1.352   4.633   4.486 -1.0496 -1.1428  0.0996
 4137SOL    HW224045   1.259   4.651   4.608  0.5266 -1.8980  1.8027
 4138SOL     OW24046   2.477   3.826   2.913  0.3316 -0.4088 -0.0627
 4138SOL    HW124047   2.482   3.921   2.918  1.4985 -0.4657 -0.2352
 4138SOL    HW224048   2.498   3.807   2.822 -1.9011 -1.4500 -0.3608
 4139SOL     OW24049   3.089   4.313  12.233  0.0115  0.5719 -0.5679
 4139SOL    HW124050   3.018   4.335  12.293  0.5863  0.5263  0.1241
 4139SOL    HW224051   3.152   4.281  12.297  0.9858 -2.5096 -3.0374
 4140SOL     OW24052   3.337   0.550   2.629 -0.0847 -0.2725  0.5607
 4140SOL    HW124053   3.287   0.620   2.671  0.5375 -1.3312  3.0409
 4140SOL    HW224054   3.395   0.527   2.701 -0.6317  0.0919  1.1069
 4141SOL     OW24055   1.221   1.260   5.444 -0.1237 -0.4749  0.0221
 4141SOL    HW124056   1.273   1.262   5.525 -0.1828  2.2711 -0.0104
 4141SOL    HW224057   1.283   1.211   5.390  0.2835 -0.1296  0.1777
 4142SOL     OW24058   3.162   0.818   2.470 -0.5931  0.1952 -0.3182
 4142SOL    HW124059   3.250   0.849   2.448  0.3268 -1.1920  1.4235
 4142SOL    HW224060   3.177   0.742   2.413  0.7264  0.0412  0.2518
 4143SOL     OW24061   3.698   4.697  12.807  0.2105  0.1386  0.5045
 4143SOL    HW124062   3.660   4.640  12.740 -0.8534  1.8221 -0.3144
 4143SOL    HW224063   3.734   4.628  12.863  1.7813  1.0269  0.5928
 4144SOL     OW24064   0.207   4.185   0.957 -0.0853 -1.0538  0.2212
 4144SOL    HW124065   0.257   4.168   1.037  0.6928  0.2875  0.0180
 4144SOL    HW224066   0.123   4.147   0.985 -0.3300  0.7729  1.9835
 4145SOL     OW24067   4.058   2.079   3.067 -0.3711  0.7263 -0.2730
 4145SOL    HW124068   3.997   2.006   3.062 -0.9421  1.3782 -3.2469
 4145SOL    HW224069   4.001   2.150   3.036 -0.7371 -0.0879 -1.4537
 4146SOL     OW24070   3.151   0.853   3.790  0.0024  0.1238 -0.0611
 4146SOL    HW124071   3.165   0.945   3.767 -2.3167  0.4255 -0.1973
 4146SOL    HW224072   3.188   0.843   3.878  1.2881  0.4340 -0.5572
 4147SOL     OW24073   2.226   1.156  16.812  0.3368  0.3386 -0.8351
 4147SOL    HW124074   2.304   1.134  16.761  0.8911  0.1916  0.0819
 4147SOL    HW224075   2.158   1.119  16.756  0.9125  1.2483 -2.1420
 4148SOL     OW24076   3.734   4.355   7.506 -0.2634 -0.1901 -0.2298
 4148SOL    HW124077   3.788   4.321   7.435  0.9762  0.8119  0.2401
 4148SOL    HW224078   3.752   4.290   7.574  1.0127  0.0774 -0.3135
 4149SOL     OW24079   4.675   1.973   3.439 -0.0097  0.1358 -0.0586
 4149SOL    HW124080   4.718   1.945   3.519  2.0921 -0.4260 -1.3800
 4149SOL    HW224081   4.676   2.069   3.446 -2.1955  0.2572 -1.4377
 4150SOL     OW24082   2.428   3.993   4.375 -0.3884  0.6673  0.2063
 4150SOL    HW124083   2.492   4.024   4.439  0.5474  0.0698 -0.4591
 4150SOL    HW224084   2.436   3.898   4.373  0.7267  0.7347  1.2831
 4151SOL     OW24085   3.907   2.227   8.532  0.8555  0.2534 -0.0849
 4151SOL    HW124086   3.966   2.207   8.459  1.5839  0.8173  0.3565
 4151SOL    HW224087   3.962   2.234   8.609 -0.4590  0.9983  0.7934
 4152SOL     OW24088   2.272   0.213   4.733 -0.3545  1.2386 -0.1487
 4152SOL    HW124089   2.318   0.280   4.683  2.2040  0.4192  1.1407
 4152SOL    HW224090   2.196   0.195   4.678  0.4852  1.9275 -1.5249
 4153SOL     OW24091   0.601   3.606   4.178 -0.9427 -0.5562  0.2706
 4153SOL    HW124092   0.558   3.620   4.093 -1.0148 -0.9006  0.2491
 4153SOL    HW224093   0.521   3.614   4.230  0.1154  0.6346  1.7078
 4154SOL     OW24094   2.625   1.232   8.154  0.0151 -0.0251  0.3032
 4154SOL    HW124095   2.531   1.225   8.135 -0.0282 -0.3772  0.6506
 4154SOL    HW224096   2.619   1.212   8.247 -1.5503 -0.7393  0.0554
 4155SOL     OW24097   4.268   3.473  12.692  0.1103  0.4652  0.5068
 4155SOL    HW124098   4.299   3.384  12.705 -0.8109  0.1655  0.6449
 4155SOL    HW224099   4.232   3.485  12.780  1.6933 -1.2121  1.3863
 4156SOL     OW24100   3.782   1.483   2.594 -0.1465 -0.3126 -0.8487
 4156SOL    HW124101   3.740   1.543   2.533 -1.2068 -0.2253 -0.0270
 4156SOL    HW224102   3.850   1.540   2.631 -0.4125 -0.0930 -0.7028
 4157SOL     OW24103   4.342   0.906  11.683 -0.3797  0.0006  0.9072
 4157SOL    HW124104   4.429   0.878  11.712  0.4199  0.0284 -1.5088
 4157SOL    HW224105   4.360   0.968  11.612 -0.5945 -0.9940 -0.0068
 4158SOL     OW24106   3.460   4.385   7.572 -0.2653 -0.5341  0.4454
 4158SOL    HW124107   3.449   4.315   7.508  0.6278 -0.0812 -0.2157
 4158SOL    HW224108   3.551   4.395   7.544 -0.9150  2.4917 -0.6318
 4159SOL     OW24109   1.247   1.892   1.684  0.5921  0.0065  0.5482
 4159SOL    HW124110   1.229   1.983   1.662  0.4212 -0.2356 -0.3566
 4159SOL    HW224111   1.177   1.871   1.746  0.3083 -0.9450 -0.0781
 4160SOL     OW24112   4.513   0.491   5.709  0.1534 -0.0831 -0.0570
 4160SOL    HW124113   4.487   0.478   5.618  0.0016 -0.9519  0.1019
 4160SOL    HW224114   4.432   0.465   5.754  0.3667 -1.5651 -0.5201
 4161SOL     OW24115   1.281   3.492   1.877 -0.0539 -0.4087  0.4037
 4161SOL    HW124116   1.276   3.544   1.957  1.8529  0.4877 -0.0604
 4161SOL    HW224117   1.370   3.499   1.843  1.0308  3.8914  4.1997
 4162SOL     OW24118   3.405   1.234  12.961  0.4176 -0.6032  0.0568
 4162SOL    HW124119   3.453   1.193  13.033 -1.9789 -1.9460  0.8838
 4162SOL    HW224120   3.429   1.326  12.976  0.7680 -0.6575 -0.1502
 4163SOL     OW24121   2.122   4.637  13.002 -0.8941 -0.1747 -0.2565
 4163SOL    HW124122   2.126   4.639  13.098  0.9630  0.6281 -0.3729
 4163SOL    HW224123   2.045   4.583  12.983 -0.2489 -1.1804  0.0043
 4164SOL     OW24124   4.690   3.557   7.626 -0.2108  0.2337 -0.2196
 4164SOL    HW124125   0.027   3.604   7.653 -0.5680  0.4882  0.3783
 4164SOL    HW224126   4.728   3.481   7.580  1.0813  0.8590 -0.1914
 4165SOL     OW24127   2.497   4.498   3.705 -0.6927 -0.1795 -0.2220
 4165SOL    HW124128   2.410   4.495   3.746 -0.3399 -2.8454  0.2852
 4165SOL    HW224129   2.557   4.513   3.778 -1.0164  1.0307 -0.1953
 4166SOL     OW24130   3.688   1.498  15.602  0.2000 -0.3594 -0.2310
 4166SOL    HW124131   3.783   1.490  15.600 -0.1583 -4.7886  1.0788
 4166SOL    HW224132   3.662   1.411  15.571 -2.4081  0.6464 -0.8720
 4167SOL     OW24133   2.077   2.390   8.153 -0.1659 -0.1034  0.0060
 4167SOL    HW124134   2.078   2.352   8.240  0.7411  0.1004  0.0819
 4167SOL    HW224135   2.167   2.384   8.122  0.2026  2.0830  0.6593
 4168SOL     OW24136   1.642   0.043   5.638  0.5427  0.0458 -0.0596
 4168SOL    HW124137   1.604   4.699   5.619 -0.8430  0.9196 -1.2097
 4168SOL    HW224138   1.723   0.008   5.676  0.8993 -1.4896 -2.2389
 4169SOL     OW24139   1.449   0.193   4.891 -0.2380  0.1146  0.2853
 4169SOL    HW124140   1.363   0.152   4.879 -0.1393  0.0607 -0.2652
 4169SOL    HW224141   1.505   0.157   4.822  0.4508 -0.0540  0.9356
 4170SOL     OW24142   2.387   2.377   2.419  0.2220 -0.1265 -0.4775
 4170SOL    HW124143   2.388   2.367   2.324 -0.9286  0.2027 -0.5259
 4170SOL    HW224144   2.335   2.454   2.440  0.2307 -0.3142  0.2487
 4171SOL     OW24145   4.707   4.456   7.789 -0.1114 -0.2506  0.0881
 4171SOL    HW124146   0.033   4.461   7.856  0.1974 -0.2469 -0.2183
 4171SOL    HW224147   4.630   4.438   7.842 -1.1385  1.0214 -0.9847
 4172SOL     OW24148   0.150   4.606  15.346 -0.0282  0.1181 -0.3113
 4172SOL    HW124149   0.065   4.598  15.389 -0.4472  0.6636 -1.0255
 4172SOL    HW224150   0.118   4.645  15.264 -1.0861  0.6626  0.3602
 4173SOL     OW24151   4.360   4.379   4.548 -0.0130 -0.0521  0.1149
 4173SOL    HW124152   4.375   4.304   4.490 -0.3106 -0.1133  0.1174
 4173SOL    HW224153   4.337   4.448   4.485 -0.6516  0.4981  0.9564
 4174SOL     OW24154   1.230   0.037   5.523  0.3036  0.1499  0.5366
 4174SOL    HW124155   1.242   4.698   5.573  0.7849  0.2191  0.5288
 4174SOL    HW224156   1.317   0.036   5.485  0.3016  0.3776  0.5253
 4175SOL     OW24157   1.095   2.151  17.602  0.0694 -0.0667  0.4011
 4175SOL    HW124158   1.098   2.056  17.600  2.4215  0.0687 -1.5071
 4175SOL    HW224159   1.186   2.176  17.617 -0.4168  1.9309  0.1447
 4176SOL     OW24160   0.536   4.232   2.253 -0.3897 -0.0749 -0.0747
 4176SOL    HW124161   0.476   4.162   2.229 -1.5026  1.7250 -2.4389
 4176SOL    HW224162   0.494   4.311   2.221 -1.9098 -0.5902  0.6376
 4177SOL     OW24163   4.237   1.943   8.177  0.2619  0.2458  0.2406
 4177SOL    HW124164   4.297   1.957   8.250  1.4875 -1.2016 -0.4786
 4177SOL    HW224165   4.186   1.866   8.201 -0.7244  0.7037 -0.3975
 4178SOL     OW24166   3.815   1.515   6.172  0.5818  0.4790 -0.0511
 4178SOL    HW124167   3.903   1.498   6.205  0.4319 -0.6014 -0.2238
 4178SOL    HW224168   3.816   1.611   6.170 -0.8200  0.4826 -0.7539
 4179SOL     OW24169   1.148   1.946   8.429  0.2788 -1.1637  0.0885
 4179SOL    HW124170   1.067   1.985   8.397  2.2152  2.5036 -0.3434
 4179SOL    HW224171   1.169   1.875   8.368 -2.0974 -1.5191 -0.3226
 4180SOL     OW24172   3.472   0.159   8.366  0.3592 -0.3503 -0.2574
 4180SOL    HW124173   3.470   0.127   8.276 -0.7768 -2.2173  0.4230
 4180SOL    HW224174   3.432   0.245   8.354 -0.1063 -0.3754  1.1070
 4181SOL     OW24175   3.697   1.094  17.664 -0.1306  0.0095 -0.0749
 4181SOL    HW124176   3.626   1.135  17.615 -1.3841  0.7357  2.3566
 4181SOL    HW224177   3.703   1.012  17.615 -0.5538  0.1493 -0.3564
 4182SOL     OW24178   4.219   2.405   5.087 -0.0799  0.3391 -0.0929
 4182SOL    HW124179   4.260   2.334   5.037 -1.3798 -0.8965  0.5763
 4182SOL    HW224180   4.157   2.452   5.032 -1.0794  0.6773  1.3382
 4183SOL     OW24181   4.115   0.783  14.326  0.6014  0.1821  0.2833
 4183SOL    HW124182   4.192   0.758  14.376  0.3439  2.9280  2.0494
 4183SOL    HW224183   4.129   0.860  14.271  1.8316 -0.8333 -0.8336
 4184SOL     OW24184   2.678   0.710   4.887  0.1593  0.3545  0.3307
 4184SOL    HW124185   2.652   0.762   4.963 -1.0274  0.9484 -0.4817
 4184SOL    HW224186   2.595   0.684   4.846  0.6585  1.2148 -1.1881
 4185SOL     OW24187   0.543   3.131   7.297 -0.2053  0.2792 -0.1640
 4185SOL    HW124188   0.599   3.188   7.244  0.9041 -2.0807 -1.5564
 4185SOL    HW224189   0.515   3.063   7.235  1.9586  0.1992 -1.0778
 4186SOL     OW24190   2.639   1.758   6.705 -0.0073  0.2326  0.5608
 4186SOL    HW124191   2.559   1.715   6.737 -0.0173 -2.0320 -2.5126
 4186SOL    HW224192   2.689   1.764   6.786 -2.2527 -0.6378  2.0281
 4187SOL     OW24193   1.849   1.734   9.954 -0.1821  0.6532  1.4375
 4187SOL    HW124194   1.906   1.764  10.024  0.2035  2.4886  0.3388
 4187SOL    HW224195   1.805   1.657   9.990  0.7873  0.0697  1.3768
 4188SOL     OW24196   1.748   3.595   2.908 -0.1502 -0.6143 -0.0858
 4188SOL    HW124197   1.694   3.646   2.969 -0.2091 -2.5340  1.4527
 4188SOL    HW224198   1.737   3.506   2.940 -0.7466 -0.1338  1.0618
 4189SOL     OW24199   3.197   4.497   6.763 -0.2797  0.5006 -0.0320
 4189SOL    HW124200   3.281   4.464   6.730  0.0357  1.3126 -0.0329
 4189SOL    HW224201   3.208   4.465   6.852 -2.1380  2.3566  0.8575
 4190SOL     OW24202   4.103   1.573  12.380 -0.3473 -0.6038  0.1052
 4190SOL    HW124203   4.109   1.479  12.361  2.9727 -0.3367 -0.2587
 4190SOL    HW224204   4.061   1.573  12.466 -1.2044  1.0704 -0.3178
 4191SOL     OW24205   0.580   1.834   2.826  0.1495  0.3101 -0.0555
 4191SOL    HW124206   0.501   1.823   2.773  0.5777  0.1547 -0.6543
 4191SOL    HW224207   0.572   1.755   2.879 -2.8833 -1.0396 -2.5025
 4192SOL     OW24208   3.430   4.590   5.555  0.3402 -0.1056 -0.1686
 4192SOL    HW124209   3.386   4.619   5.475 -0.2553  1.6604  0.8137
 4192SOL    HW224210   3.420   4.665   5.614 -1.8701  0.1901 -0.9254
 4193SOL     OW24211   0.871   4.005  14.198 -0.3070 -0.4983 -0.3848
 4193SOL    HW124212   0.778   3.983  14.205  0.0639 -2.0463 -0.3386
 4193SOL    HW224213   0.901   3.982  14.286 -0.5300 -0.2181 -0.2334
 4194SOL     OW24214   2.299   3.966   9.223 -0.9782  0.7463  0.3699
 4194SOL    HW124215   2.215   3.958   9.178 -1.8492  0.9744  1.9590
 4194SOL    HW224216   2.278   3.967   9.317  0.1421 -1.6586  0.6581
 4195SOL     OW24217   4.721   2.899   9.951 -0.7934  0.2845  0.5420
 4195SOL    HW124218   4.667   2.822   9.937 -1.2876  0.4055  1.8057
 4195SOL    HW224219   4.704   2.942   9.867  1.4412 -0.1776 -0.1505
 4196SOL     OW24220   4.501   1.324  13.406 -0.4946  0.2017 -0.0181
 4196SOL    HW124221   4.561   1.279  13.465  0.0837  0.0408 -0.7312
 4196SOL    HW224222   4.434   1.260  13.382 -0.6664  0.4655 -0.2315
 4197SOL     OW24223   0.175   0.849   1.947 -0.2313  0.7440  0.6169
 4197SOL    HW124224   0.229   0.928   1.938  0.0838  0.2579 -1.6710
 4197SOL    HW224225   0.237   0.781   1.974  0.2593  0.8630 -0.2286
 4198SOL     OW24226   3.858   1.527  14.753  0.8289  0.4065  0.2490
 4198SOL    HW124227   3.858   1.431  14.747  1.4590  0.4272 -0.1774
 4198SOL    HW224228   3.870   1.539  14.847  2.2500 -1.0088  0.2609
 4199SOL     OW24229   2.002   3.517  11.088 -0.3574 -0.7563 -0.2502
 4199SOL    HW124230   2.066   3.584  11.065  1.2493 -1.7734  1.2632
 4199SOL    HW224231   1.934   3.557  11.033  1.0587  2.1020  0.0754
 4200SOL     OW24232   1.876   3.627   1.852 -0.4811 -0.0206 -0.1514
 4200SOL    HW124233   1.848   3.595   1.766 -0.5863  1.6519 -0.7401
 4200SOL    HW224234   1.925   3.701   1.815 -1.2950 -0.0869 -1.3372
 4201SOL     OW24235   3.894   0.122  14.026  0.0036  0.1742  0.0216
 4201SOL    HW124236   3.860   0.035  14.005  0.9322 -0.3413  0.6198
 4201SOL    HW224237   3.957   0.106  14.097  1.1947 -0.7302 -1.2305
 4202SOL     OW24238   0.772   3.979   4.799 -0.2346  0.4389 -0.2958
 4202SOL    HW124239   0.725   4.042   4.744  0.5992  0.2661 -1.1914
 4202SOL    HW224240   0.743   4.007   4.886  1.3013  0.4453  0.2052
 4203SOL     OW24241   3.839   3.485  13.348  0.6039  0.0544 -0.1903
 4203SOL    HW124242   3.912   3.467  13.288  0.8292  0.3647 -0.0097
 4203SOL    HW224243   3.849   3.578  13.370 -3.9707  0.2139  1.2648
 4204SOL     OW24244   0.356   1.340   9.119  0.3281 -0.1425 -0.4942
 4204SOL    HW124245   0.432   1.392   9.145 -0.0885  0.5698 -0.6898
 4204SOL    HW224246   0.387   1.262   9.074 -0.3633 -0.4458 -0.4460
 4205SOL     OW24247   2.738   2.498   1.679  0.5659  0.1002  0.1761
 4205SOL    HW124248   2.724   2.412   1.638 -1.0577  0.2425  0.4456
 4205SOL    HW224249   2.756   2.471   1.769 -0.9126 -0.0883  0.4199
 4206SOL     OW24250   1.310   3.707  12.159 -0.4927 -0.2870  0.0996
 4206SOL    HW124251   1.355   3.623  12.153  0.7028  0.3300  0.5089
 4206SOL    HW224252   1.307   3.729  12.252 -0.6117 -0.5716  0.1623
 4207SOL     OW24253   4.613   4.066   2.997  0.1642 -0.0691 -0.2090
 4207SOL    HW124254   4.681   4.130   2.974 -0.1164  0.3603  0.1449
 4207SOL    HW224255   4.629   3.996   2.934 -0.1720 -1.1543  0.9145
 4208SOL     OW24256   0.232   4.737  13.768  0.0654  0.5148  0.3382
 4208SOL    HW124257   0.222   4.677  13.694 -0.3961  0.2027  0.6539
 4208SOL    HW224258   0.172   0.065  13.740 -0.8433 -0.8543 -1.1105
 4209SOL     OW24259   3.187   1.950   6.220  0.5478  0.3933 -0.2484
 4209SOL    HW124260   3.205   2.032   6.266  1.5381 -0.3042  0.6099
 4209SOL    HW224261   3.278   1.937   6.194  1.1203  1.6599  1.1755
 4210SOL     OW24262   0.845   2.041  15.475  0.3880  0.8136  0.4670
 4210SOL    HW124263   0.800   2.071  15.396  1.4218  2.0435  0.3555
 4210SOL    HW224264   0.937   2.059  15.457 -0.4228  1.2681 -3.1945
 4211SOL     OW24265   3.971   0.913   2.780  0.0167 -0.3450 -0.0301
 4211SOL    HW124266   3.889   0.959   2.797  0.3050 -0.8551  2.6348
 4211SOL    HW224267   3.947   0.822   2.764 -0.9616 -0.0177 -0.3790
 4212SOL     OW24268   1.890   4.470   2.676 -1.0596  0.2927 -0.8756
 4212SOL    HW124269   1.942   4.540   2.636 -0.8004  0.6297  0.0643
 4212SOL    HW224270   1.921   4.478   2.766 -1.8152 -0.4801 -0.5476
 4213SOL     OW24271   1.023   3.658   3.188  0.1929  0.3550  0.2199
 4213SOL    HW124272   0.989   3.587   3.133 -0.1135 -0.1661  1.0773
 4213SOL    HW224273   1.092   3.614   3.239 -0.2784 -0.8232 -0.1417
 4214SOL     OW24274   4.676   0.348   5.948  0.4137 -0.7111  0.2010
 4214SOL    HW124275   4.634   0.366   5.864  1.6293  1.3024  0.0225
 4214SOL    HW224276   4.611   0.355   6.018  0.9235  1.6841  0.4163
 4215SOL     OW24277   1.150   0.075   2.545 -0.1838  0.5461 -0.1200
 4215SOL    HW124278   1.137   0.161   2.505  0.2454  0.5128 -0.3410
 4215SOL    HW224279   1.106   0.088   2.629  0.4706 -1.0348  0.4738
 4216SOL     OW24280   1.137   3.903   4.834  0.2886  0.4395  0.2035
 4216SOL    HW124281   1.143   3.933   4.924  1.9820  2.2471 -0.4902
 4216SOL    HW224282   1.093   3.980   4.797 -1.7158  0.0046  1.7360
 4217SOL     OW24283   2.814   3.691   4.139  0.1419 -0.6098 -0.3451
 4217SOL    HW124284   2.893   3.731   4.176  0.0700 -0.8414  0.0580
 4217SOL    HW224285   2.830   3.695   4.045 -0.5419  1.4572 -0.3853
 4218SOL     OW24286   1.507   0.665  15.533 -0.3946  0.0048  0.3207
 4218SOL    HW124287   1.526   0.626  15.447 -0.7982  1.5569 -0.4745
 4218SOL    HW224288   1.465   0.748  15.508 -2.4252 -1.5556 -1.4038
 4219SOL     OW24289   2.398   0.637   5.876  0.6185  0.6290  0.0710
 4219SOL    HW124290   2.394   0.636   5.780 -1.5784  0.0828  0.1781
 4219SOL    HW224291   2.396   0.732   5.889 -0.5454  0.6688 -0.3645
 4220SOL     OW24292   1.602   0.682  13.725  0.3430  0.4361 -0.4491
 4220SOL    HW124293   1.692   0.712  13.709  0.2502  1.4183  0.8703
 4220SOL    HW224294   1.588   0.700  13.818  1.5323  1.2116 -0.4172
 4221SOL     OW24295   0.369   3.439   7.583  0.0601  0.2396 -0.1521
 4221SOL    HW124296   0.345   3.358   7.627  4.1651 -0.8620  0.0656
 4221SOL    HW224297   0.333   3.416   7.497  0.4911 -0.4798 -0.1364
 4222SOL     OW24298   2.716   3.604   2.531  0.0101  0.0683  0.0878
 4222SOL    HW124299   2.762   3.629   2.611 -1.2262  1.3204  0.3999
 4222SOL    HW224300   2.776   3.537   2.498  0.0465  0.5159 -0.7539
 4223SOL     OW24301   2.559   3.302   3.232 -0.0751  0.0039 -0.0188
 4223SOL    HW124302   2.542   3.395   3.217 -2.3114 -0.5951 -1.2136
 4223SOL    HW224303   2.509   3.261   3.161  2.7648  0.1838 -2.0987
 4224SOL     OW24304   2.960   2.378   6.639 -0.0736 -0.0690 -0.0156
 4224SOL    HW124305   2.985   2.462   6.600 -1.7392  0.1641 -0.5568
 4224SOL    HW224306   2.866   2.380   6.627  0.1603  2.7384 -1.4716
 4225SOL     OW24307   2.263   3.762   7.368 -0.9356 -0.6737 -0.1927
 4225SOL    HW124308   2.178   3.721   7.352 -2.5508  1.5871  2.6115
 4225SOL    HW224309   2.235   3.830   7.429 -0.0550  0.1333 -0.6660
 4226SOL     OW24310   2.507   4.328   6.736 -0.1624 -0.4797  0.2544
 4226SOL    HW124311   2.491   4.370   6.820 -0.6392 -1.2492  0.5583
 4226SOL    HW224312   2.415   4.322   6.708  0.2406  1.2651 -1.4007
 4227SOL     OW24313   2.590   0.437  15.306 -0.4376  0.2224 -0.3405
 4227SOL    HW124314   2.512   0.394  15.270 -1.0715  1.0981 -0.0276
 4227SOL    HW224315   2.654   0.432  15.236 -0.0926 -1.1943  0.0882
 4228SOL     OW24316   0.280   0.500   5.183 -0.0208  0.3127 -0.2932
 4228SOL    HW124317   0.209   0.486   5.246  2.0318  1.2911  2.1894
 4228SOL    HW224318   0.239   0.565   5.124 -1.0745  1.5359  1.7932
 4229SOL     OW24319   1.909   3.634  11.390  0.2476 -0.7089 -0.6520
 4229SOL    HW124320   1.875   3.673  11.309  2.0574  0.0902 -1.0102
 4229SOL    HW224321   1.867   3.688  11.457  2.1682 -0.2934  0.2095
 4230SOL     OW24322   0.762   1.487   1.921  0.0930 -0.0893  0.3355
 4230SOL    HW124323   0.736   1.395   1.914 -0.5936  0.0779  0.6896
 4230SOL    HW224324   0.680   1.535   1.916  0.1061  0.1540  2.5133
 4231SOL     OW24325   1.447   3.155   6.848  0.7528  0.4933 -0.3581
 4231SOL    HW124326   1.374   3.164   6.787  0.0530 -0.4515  0.3426
 4231SOL    HW224327   1.514   3.158   6.779  0.3996 -0.1064 -0.7289
 4232SOL     OW24328   3.550   4.685  16.829 -0.1683  0.4062  0.4828
 4232SOL    HW124329   3.546   4.592  16.807  1.2922  0.2504  0.9005
 4232SOL    HW224330   3.615   4.680  16.899 -1.1806 -2.2292  1.2424
 4233SOL     OW24331   2.774   3.642   0.506 -0.0354 -0.0364 -0.0909
 4233SOL    HW124332   2.719   3.634   0.584 -0.2661 -0.7644 -0.3329
 4233SOL    HW224333   2.830   3.709   0.547 -0.4585  0.2643 -0.0103
 4234SOL     OW24334   3.520   3.507   4.798 -0.2932  0.4534 -0.0781
 4234SOL    HW124335   3.439   3.522   4.749  0.0180 -0.8349 -0.9863
 4234SOL    HW224336   3.528   3.413   4.816 -0.4398  1.4951  5.3085
 4235SOL     OW24337   4.016   1.102   6.680  0.0135  0.3099 -0.1112
 4235SOL    HW124338   4.012   1.194   6.705  2.8527  0.6178 -0.7159
 4235SOL    HW224339   3.962   1.100   6.601  1.7393 -2.5942 -1.2047
 4236SOL     OW24340   4.670   4.706  13.781  0.0809 -0.0196 -0.4242
 4236SOL    HW124341   4.702   0.043  13.826 -2.5057  0.2931  0.8788
 4236SOL    HW224342   4.629   4.741  13.701 -1.6801  2.3326  1.5129
 4237SOL     OW24343   1.919   3.819   8.415 -0.0886 -0.0972 -0.3316
 4237SOL    HW124344   1.846   3.776   8.459  0.2724 -0.4306 -0.0571
 4237SOL    HW224345   1.909   3.760   8.340  1.9477  1.1187 -1.5710
 4238SOL     OW24346   1.581   1.013   2.276 -0.7293 -0.0787 -0.2652
 4238SOL    HW124347   1.632   0.933   2.263  0.7334  0.6140  1.1371
 4238SOL    HW224348   1.576   1.039   2.184  1.1715 -1.3655 -0.7252
 4239SOL     OW24349   0.291   3.900  11.262 -0.4708  0.4755  0.0332
 4239SOL    HW124350   0.353   3.829  11.276 -0.1185  0.4632 -1.6432
 4239SOL    HW224351   0.319   3.974  11.317  2.4919 -0.3819 -0.3140
 4240SOL     OW24352   3.454   2.928   7.492  0.3720  0.5328 -0.2587
 4240SOL    HW124353   3.363   2.904   7.507  0.3171  0.4922 -0.6509
 4240SOL    HW224354   3.459   2.909   7.398  0.1985  1.2953 -0.4241
 4241SOL     OW24355   4.362   2.750   3.462  0.1782  0.0513 -0.4946
 4241SOL    HW124356   4.324   2.808   3.528 -1.5278 -0.8680 -0.6576
 4241SOL    HW224357   4.306   2.674   3.479  0.5603  0.1143  1.0818
 4242SOL     OW24358   1.775   4.433   7.923 -0.2018 -0.6400  0.2132
 4242SOL    HW124359   1.713   4.439   7.850  1.5444 -0.2555 -1.2341
 4242SOL    HW224360   1.753   4.521   7.951  0.6300 -0.5661  0.6308
 4243SOL     OW24361   4.176   1.724  11.941  0.2395 -0.6177  0.6135
 4243SOL    HW124362   4.230   1.792  11.982  1.4862 -1.0459 -0.3023
 4243SOL    HW224363   4.225   1.644  11.960  1.2374 -0.2055 -0.2094
 4244SOL     OW24364   2.968   1.399   4.524  0.1086  0.5365 -0.1772
 4244SOL    HW124365   2.969   1.321   4.580  0.1531  0.4681 -0.2738
 4244SOL    HW224366   2.960   1.458   4.599 -2.3572 -1.7865  1.4019
 4245SOL     OW24367   0.034   0.968   1.758  0.6155  0.3667  0.3006
 4245SOL    HW124368   0.051   1.053   1.799  0.3340  0.1613  0.8366
 4245SOL    HW224369   0.079   0.904   1.813  0.2440 -0.7904 -0.7290
 4246SOL     OW24370   0.174   4.321   9.702 -0.2771  0.3750 -0.0211
 4246SOL    HW124371   0.237   4.371   9.754 -0.0112  0.8911 -0.8371
 4246SOL    HW224372   0.159   4.252   9.766  1.2914 -0.8698 -1.0181
 4247SOL     OW24373   4.138   4.383   7.576 -0.4508  0.1283 -0.1727
 4247SOL    HW124374   4.079   4.435   7.521 -1.7301  0.7810  1.8117
 4247SOL    HW224375   4.213   4.406   7.522  0.9343 -0.5883  1.4782
 4248SOL     OW24376   2.627   2.884   4.330 -0.3730  0.3419  0.1380
 4248SOL    HW124377   2.547   2.879   4.279  0.4740  2.8753 -1.4477
 4248SOL    HW224378   2.586   2.904   4.414 -0.0094  0.1358  0.3655
 4249SOL     OW24379   1.785   4.668   3.411  0.1540  0.4014  0.7530
 4249SOL    HW124380   1.777   0.022   3.414  1.8906  0.5322  1.5441
 4249SOL    HW224381   1.869   4.652   3.367  0.5178  1.0003  1.2197
 4250SOL     OW24382   0.839   0.967  15.329  0.0396  0.3705  0.5899
 4250SOL    HW124383   0.815   0.968  15.422 -2.6066 -0.1672 -0.1011
 4250SOL    HW224384   0.928   1.001  15.331  0.3692 -0.5673  1.6438
 4251SOL     OW24385   4.151   1.608   7.119  0.2954 -0.2292 -0.5568
 4251SOL    HW124386   4.184   1.528   7.079  0.5706 -0.4959  0.2003
 4251SOL    HW224387   4.062   1.584   7.142  0.8515  0.1563  2.0765
 4252SOL     OW24388   4.586   3.238  14.693 -0.1831  0.4882  0.1449
 4252SOL    HW124389   4.629   3.155  14.672  0.0647  0.4755  0.6992
 4252SOL    HW224390   4.496   3.210  14.709  0.0043  0.7062  1.5574
 4253SOL     OW24391   3.882   2.671  11.176 -0.3811  0.4850  0.2028
 4253SOL    HW124392   3.962   2.701  11.219 -0.8289 -0.9441  2.0484
 4253SOL    HW224393   3.855   2.600  11.234  0.3457 -0.7441 -0.9965
 4254SOL     OW24394   1.743   4.382   4.983  0.0541  0.1671  0.2079
 4254SOL    HW124395   1.735   4.337   5.066  0.9802 -1.2069 -0.4498
 4254SOL    HW224396   1.810   4.445   5.010  0.3177 -0.1077  0.1881
 4255SOL     OW24397   4.427   3.081   7.113 -0.5114  0.3034 -0.2096
 4255SOL    HW124398   4.446   2.987   7.115  0.4884  0.4820 -1.8059
 4255SOL    HW224399   4.443   3.103   7.021  0.9743 -0.4618 -0.1217
 4256SOL     OW24400   1.684   2.803  14.920 -0.1302  0.0756  0.0886
 4256SOL    HW124401   1.712   2.776  15.008  2.6278 -1.1091 -1.1571
 4256SOL    HW224402   1.628   2.879  14.938 -2.0760 -1.0931 -0.9869
 4257SOL     OW24403   2.779   1.922  13.111 -0.0766  0.3960 -0.5340
 4257SOL    HW124404   2.786   1.836  13.153 -0.7697  0.9596  0.7127
 4257SOL    HW224405   2.822   1.976  13.177  1.4791 -0.5798 -0.7664
 4258SOL     OW24406   0.227   2.333   0.448  0.4208 -0.2427 -0.2699
 4258SOL    HW124407   0.240   2.254   0.500 -1.3910 -0.7655 -0.6191
 4258SOL    HW224408   0.316   2.370   0.449  0.2540  0.1911 -1.1230
 4259SOL     OW24409   3.352   0.066   5.269 -0.0092 -0.0970  0.1790
 4259SOL    HW124410   3.320   0.042   5.183  1.9462  0.3590 -0.6736
 4259SOL    HW224411   3.281   0.106   5.318  0.5267 -0.3328  1.1546
 4260SOL     OW24412   2.903   3.685   7.971  0.2175  0.2008  0.5490
 4260SOL    HW124413   2.999   3.684   7.964  0.2650 -1.7469  1.6056
 4260SOL    HW224414   2.897   3.780   7.976  1.3982  0.3639 -0.9344
 4261SOL     OW24415   0.352   2.683   8.908  0.6835 -0.4142 -0.1708
 4261SOL    HW124416   0.330   2.717   8.821  0.5104  1.1545  0.4809
 4261SOL    HW224417   0.319   2.594   8.892 -1.3545  0.2862  0.1422
 4262SOL     OW24418   2.717   4.589   0.566  0.2675  0.3435 -0.7610
 4262SOL    HW124419   2.687   4.507   0.606  1.1669  0.5884  0.4054
 4262SOL    HW224420   2.666   4.597   0.485 -1.7735  1.9540  0.6780
 4263SOL     OW24421   3.571   2.676   0.194 -0.4044  0.5284  0.1284
 4263SOL    HW124422   3.629   2.654   0.122 -0.6076 -2.3515  0.8425
 4263SOL    HW224423   3.504   2.610   0.210 -2.3595  1.9756 -2.1352
 4264SOL     OW24424   0.062   0.251  13.725 -0.9209  0.2145  0.3459
 4264SOL    HW124425   0.114   0.331  13.731  1.1394 -1.0253 -0.7581
 4264SOL    HW224426   4.712   0.268  13.744 -0.7351  1.1757  0.4030
 4265SOL     OW24427   3.374   3.911  16.172 -0.5419  0.0232  0.2457
 4265SOL    HW124428   3.421   3.840  16.217 -2.8344 -1.7254 -0.0794
 4265SOL    HW224429   3.416   3.990  16.205  1.0394 -0.3420 -0.9138
 4266SOL     OW24430   1.548   3.529  15.414  0.6155  0.1450 -0.5819
 4266SOL    HW124431   1.548   3.621  15.442 -0.6461 -0.3053  0.8916
 4266SOL    HW224432   1.504   3.546  15.330  0.3660 -0.8952 -0.6606
 4267SOL     OW24433   2.794   1.060   0.521 -0.1995 -0.7990  0.5192
 4267SOL    HW124434   2.798   0.977   0.473 -2.4073 -1.4940  1.5568
 4267SOL    HW224435   2.743   1.036   0.598 -1.0554  2.2675  0.9065
 4268SOL     OW24436   1.490   3.951  10.323  0.0196  0.1726  0.4981
 4268SOL    HW124437   1.563   3.995  10.366  0.1092 -2.7823  3.3764
 4268SOL    HW224438   1.534   3.882  10.274 -2.0112 -1.5354  1.0552
 4269SOL     OW24439   2.056   1.829   1.197 -0.0302 -0.4525 -0.5171
 4269SOL    HW124440   1.965   1.840   1.171 -0.1819 -2.5202 -0.8701
 4269SOL    HW224441   2.102   1.912   1.182 -0.9743  0.3618  1.0534
 4270SOL     OW24442   4.487   4.431   8.921 -0.1298  0.9659 -0.0714
 4270SOL    HW124443   4.420   4.386   8.870  0.1355  2.1468 -1.4704
 4270SOL    HW224444   4.518   4.355   8.969  0.7735  1.7576  0.6140
 4271SOL     OW24445   0.827   2.001   2.584  0.3697 -0.3645  0.4066
 4271SOL    HW124446   0.756   2.005   2.520  0.5385  2.1130  0.3709
 4271SOL    HW224447   0.790   1.930   2.637 -1.9556  1.3372  1.0834
 4272SOL     OW24448   3.229   1.910  14.561 -0.1395  0.1661 -0.5642
 4272SOL    HW124449   3.234   1.950  14.474  0.1766  1.2083 -0.0770
 4272SOL    HW224450   3.314   1.873  14.583 -0.5749 -0.9520 -0.7993
 4273SOL     OW24451   0.958   0.241   7.796 -0.1985  0.1094  0.1277
 4273SOL    HW124452   1.025   0.173   7.805  0.0913  0.2090 -1.2390
 4273SOL    HW224453   0.997   0.294   7.866 -2.7660  0.4191  1.2985
 4274SOL     OW24454   2.017   1.615   5.660  0.0083  0.3611  0.6928
 4274SOL    HW124455   2.103   1.630   5.620 -0.5931 -1.2760 -1.2384
 4274SOL    HW224456   1.963   1.671   5.605  1.3903 -0.1216 -1.1629
 4275SOL     OW24457   3.381   3.848  10.687  0.1977 -0.0085  0.5178
 4275SOL    HW124458   3.397   3.942  10.677 -0.5252  0.0781  0.2182
 4275SOL    HW224459   3.463   3.828  10.733  0.6805  0.9637  0.0724
 4276SOL     OW24460   4.704   3.664   9.742 -0.9616 -0.0346  0.0991
 4276SOL    HW124461   4.709   3.569   9.736 -1.1021 -0.0698  0.6013
 4276SOL    HW224462   4.610   3.677   9.730 -1.0760 -0.5719  0.4218
 4277SOL     OW24463   3.726   4.558   3.768 -0.1651 -0.0971 -0.0806
 4277SOL    HW124464   3.730   4.635   3.712  1.8248  1.0382  1.6372
 4277SOL    HW224465   3.763   4.496   3.706  0.0175  1.3824 -1.4446
 4278SOL     OW24466   0.879   3.280   8.978 -0.1901  0.5121  0.8397
 4278SOL    HW124467   0.947   3.277   8.910 -0.8105  1.7250  0.1673
 4278SOL    HW224468   0.827   3.204   8.953  1.3400 -0.6622  1.1619
 4279SOL     OW24469   2.774   0.618   2.213 -0.2182 -0.5207 -0.4431
 4279SOL    HW124470   2.782   0.578   2.126  1.0775  2.8438 -1.8534
 4279SOL    HW224471   2.710   0.562   2.258 -0.4087  0.9923  1.1795
 4280SOL     OW24472   3.934   3.689  13.107 -0.4732  0.5877  0.0556
 4280SOL    HW124473   3.880   3.704  13.030 -2.3088 -0.9916  1.0122
 4280SOL    HW224474   3.879   3.723  13.177 -1.5292 -0.0669 -0.4445
 4281SOL     OW24475   3.279   0.045  17.689 -0.4965  0.1231 -0.4225
 4281SOL    HW124476   3.296   0.004  17.604 -0.1495  0.1065 -0.3463
 4281SOL    HW224477   3.330   4.723  17.739 -0.3407 -0.1091 -0.8750
 4282SOL     OW24478   1.697   0.913  11.759  0.2546  0.3579 -0.1441
 4282SOL    HW124479   1.751   0.930  11.682 -0.1071 -0.7484 -0.6416
 4282SOL    HW224480   1.758   0.896  11.831 -1.5704 -1.8069  0.9042
 4283SOL     OW24481   1.905   3.584  14.567  0.0883 -0.2927  0.1042
 4283SOL    HW124482   1.950   3.516  14.517  1.4379  0.7394 -0.0589
 4283SOL    HW224483   1.966   3.606  14.637  1.1569  0.7528 -1.1495
 4284SOL     OW24484   0.131   0.206   4.985 -0.2505  0.7295 -0.2421
 4284SOL    HW124485   0.082   0.232   4.907  1.6922 -0.5189 -1.8462
 4284SOL    HW224486   0.092   0.268   5.047 -1.1085 -1.1282  1.0857
 4285SOL     OW24487   2.580   0.840  15.578 -0.2794  0.1960  0.6510
 4285SOL    HW124488   2.605   0.921  15.534 -2.2877  1.5538  1.9886
 4285SOL    HW224489   2.536   0.789  15.511  2.2283 -0.5205 -0.4543
 4286SOL     OW24490   3.938   0.120   3.787 -0.1552  0.3119 -0.0572
 4286SOL    HW124491   3.931   0.027   3.808  0.1379  0.1132 -0.8664
 4286SOL    HW224492   3.941   0.157   3.875  1.9037  3.2776 -1.3827
 4287SOL     OW24493   4.397   0.279   8.052 -0.5066 -0.8610  0.5764
 4287SOL    HW124494   4.474   0.317   8.009 -0.6177 -0.8699  0.3742
 4287SOL    HW224495   4.352   0.260   7.970 -0.5199 -1.1631  0.6525
 4288SOL     OW24496   4.552   3.599   1.024  0.2447 -0.3920 -0.4362
 4288SOL    HW124497   4.567   3.671   1.086  0.3224  0.2222 -1.1577
 4288SOL    HW224498   4.610   3.639   0.958 -1.1878  1.9064 -0.3097
 4289SOL     OW24499   3.354   2.621   9.285  0.9523 -0.2687 -0.1245
 4289SOL    HW124500   3.435   2.577   9.312  0.7044 -2.0870 -2.3581
 4289SOL    HW224501   3.374   2.714   9.285  0.1034 -0.0939 -1.4273
 4290SOL     OW24502   3.036   2.216  12.824  0.0150 -0.0191 -0.6880
 4290SOL    HW124503   2.961   2.157  12.820  0.6038 -0.9086  1.2528
 4290SOL    HW224504   3.014   2.277  12.754 -0.3730  1.3061  0.5866
 4291SOL     OW24505   4.339   1.501  12.508 -0.3929  0.5746 -0.3382
 4291SOL    HW124506   4.288   1.513  12.428  1.2886 -3.8680 -2.0260
 4291SOL    HW224507   4.272   1.467  12.568  0.0050 -3.2047 -2.0897
 4292SOL     OW24508   1.383   2.746   2.478  0.2831 -0.2810 -0.1128
 4292SOL    HW124509   1.408   2.781   2.564  1.1442 -2.8924  0.7037
 4292SOL    HW224510   1.287   2.750   2.472  0.3498 -0.9804 -1.5644
 4293SOL     OW24511   0.158   3.428   5.926 -0.4523 -0.1163  0.4755
 4293SOL    HW124512   0.147   3.364   5.855 -1.4064  0.2142  0.3262
 4293SOL    HW224513   0.077   3.417   5.975 -0.4512 -1.4197  0.1875
 4294SOL     OW24514   3.886   2.520  10.948 -0.1489 -0.1550  0.0121
 4294SOL    HW124515   3.875   2.429  10.975 -1.4468 -0.8142 -2.6933
 4294SOL    HW224516   3.892   2.570  11.030 -3.3005 -0.3008  0.3476
 4295SOL     OW24517   2.511   3.795   5.378 -0.1311 -0.0250 -0.4252
 4295SOL    HW124518   2.548   3.757   5.299 -0.0202 -0.8809  0.0311
 4295SOL    HW224519   2.575   3.860   5.406  0.1124  0.3185 -1.8268
 4296SOL     OW24520   4.149   0.958   8.411 -0.6070  0.3391  0.3884
 4296SOL    HW124521   4.108   0.872   8.400  1.2475 -0.7945  2.1809
 4296SOL    HW224522   4.202   0.945   8.490  2.4763  2.5682 -1.2868
 4297SOL     OW24523   2.615   4.545   8.050  0.2601 -0.3836  0.6431
 4297SOL    HW124524   2.609   4.452   8.072  1.5626 -0.9252 -1.3915
 4297SOL    HW224525   2.531   4.576   8.084 -0.1262  1.2821 -1.8417
 4298SOL     OW24526   0.761   2.855   4.011 -0.0334  0.7160 -0.2318
 4298SOL    HW124527   0.690   2.913   4.041  0.2189  1.2737 -0.7061
 4298SOL    HW224528   0.815   2.857   4.090 -1.5071  1.6803  0.7582
 4299SOL     OW24529   0.898   1.228   4.768  0.4881 -0.1797 -0.0905
 4299SOL    HW124530   0.917   1.210   4.860 -0.5191 -2.5052 -0.3487
 4299SOL    HW224531   0.927   1.318   4.751 -1.4410  0.7568  1.6271
 4300SOL     OW24532   2.554   3.540   7.653  0.6292 -0.6350 -0.6444
 4300SOL    HW124533   2.596   3.591   7.722 -0.3047  1.6010 -1.7106
 4300SOL    HW224534   2.578   3.454   7.688  0.2504 -0.7059 -0.5604
 4301SOL     OW24535   2.282   2.895   4.986 -0.1301  0.0582 -0.0330
 4301SOL    HW124536   2.268   2.912   4.893  0.3187 -0.3736 -0.1776
 4301SOL    HW224537   2.197   2.852   5.001 -0.4140  0.7438  0.2954
 4302SOL     OW24538   1.923   2.969   0.865  0.4886 -0.5634  0.0517
 4302SOL    HW124539   1.994   2.999   0.922  0.1290 -1.9515  1.2456
 4302SOL    HW224540   1.857   2.953   0.933  0.1728 -1.3078 -0.4349
 4303SOL     OW24541   1.766   0.890   5.584 -0.5026 -0.5440  0.0291
 4303SOL    HW124542   1.674   0.916   5.580  0.4314  2.8211  0.5715
 4303SOL    HW224543   1.804   0.968   5.624 -1.7933  0.4089 -0.5647
 4304SOL     OW24544   3.562   1.338   3.569 -0.0448 -0.1374  0.2383
 4304SOL    HW124545   3.473   1.313   3.593  0.2032 -1.5123 -0.2488
 4304SOL    HW224546   3.615   1.282   3.625 -0.5015  1.6540  2.4494
 4305SOL     OW24547   0.917   1.684   7.883  0.6036  0.2047 -0.2557
 4305SOL    HW124548   0.829   1.699   7.848 -1.3432 -0.6176  4.2207
 4305SOL    HW224549   0.964   1.731   7.814 -0.6167  1.7407 -0.0524
 4306SOL     OW24550   3.903   3.859  11.039  0.3553 -0.3281 -0.4377
 4306SOL    HW124551   3.902   3.841  11.133 -0.7001 -0.6117 -0.5045
 4306SOL    HW224552   3.841   3.931  11.053  1.2019  0.2910  0.1181
 4307SOL     OW24553   2.045   4.000  17.441  0.0603  0.3881  0.3675
 4307SOL    HW124554   2.058   4.085  17.400  0.8651 -1.0032 -2.2499
 4307SOL    HW224555   2.036   3.943  17.365  2.9811  1.9226 -1.1169
 4308SOL     OW24556   2.546   2.308   4.986 -0.0159  0.3246  0.0652
 4308SOL    HW124557   2.603   2.258   5.044  0.6482 -0.5857 -1.3644
 4308SOL    HW224558   2.493   2.375   5.029 -1.2595 -1.2056  0.9229
 4309SOL     OW24559   4.298   4.288   5.604  0.0009  0.7326 -0.3408
 4309SOL    HW124560   4.376   4.239   5.580  0.4205  1.2046  0.0409
 4309SOL    HW224561   4.336   4.375   5.587  0.1501  0.8485  0.5365
 4310SOL     OW24562   2.921   3.435   9.109 -0.2080 -0.6221 -0.0670
 4310SOL    HW124563   2.982   3.425   9.036 -0.4159 -1.8874 -0.0577
 4310SOL    HW224564   2.867   3.356   9.112  2.9013 -2.7039 -0.3586
 4311SOL     OW24565   3.485   2.364  10.991 -0.6064  0.2020  0.1127
 4311SOL    HW124566   3.509   2.432  10.929 -0.1412 -0.7416 -0.7438
 4311SOL    HW224567   3.554   2.365  11.057  1.0654 -1.2428 -1.5915
 4312SOL     OW24568   1.008   2.849   7.157 -0.4312  0.0547 -0.3046
 4312SOL    HW124569   1.095   2.809   7.166 -0.2383  0.7266  0.8306
 4312SOL    HW224570   0.952   2.792   7.210  1.2442  0.5705  2.0659
 4313SOL     OW24571   0.689   3.415   4.508  0.8783  0.5441 -0.7485
 4313SOL    HW124572   0.729   3.453   4.430 -1.1189  0.2829 -1.8917
 4313SOL    HW224573   0.696   3.323   4.483 -0.6735  0.6757 -1.6629
 4314SOL     OW24574   0.671   2.825   5.734 -0.4953  0.3718  0.0057
 4314SOL    HW124575   0.678   2.768   5.810  0.3014  0.6183  0.1203
 4314SOL    HW224576   0.588   2.867   5.756 -2.3084 -4.1551  1.9402
 4315SOL     OW24577   0.657   2.961   6.483  0.2388 -0.2510 -0.0807
 4315SOL    HW124578   0.707   2.952   6.564  2.0110  1.9598 -0.9359
 4315SOL    HW224579   0.572   2.916   6.490 -0.2652  0.7420  0.1999
 4316SOL     OW24580   3.926   0.033   3.465  0.6649  0.1639  0.2141
 4316SOL    HW124581   3.865   0.056   3.534  0.5017  1.0775 -0.2329
 4316SOL    HW224582   3.897   0.102   3.406  2.6428  0.1503 -0.7900
 4317SOL     OW24583   4.353   3.478  14.670 -0.4351 -0.3804 -0.7364
 4317SOL    HW124584   4.342   3.485  14.575  1.8412  0.6968 -0.9060
 4317SOL    HW224585   4.439   3.440  14.684 -0.5174 -0.2020  0.2599
 4318SOL     OW24586   3.576   2.245   0.132  0.0012 -0.6942  0.1654
 4318SOL    HW124587   3.570   2.267   0.039 -1.1985 -2.2759 -0.1243
 4318SOL    HW224588   3.583   2.150   0.138 -0.5624 -0.6069  2.1000
 4319SOL     OW24589   4.611   3.146   4.866  0.0736  0.8014 -0.1273
 4319SOL    HW124590   4.647   3.149   4.777 -2.2919  1.4915 -1.0345
 4319SOL    HW224591   4.685   3.120   4.922 -0.8809 -0.3154  0.6205
 4320SOL     OW24592   3.739   0.028  11.794  0.1470  0.0084 -0.1518
 4320SOL    HW124593   3.656   4.726  11.774  1.0015 -0.9684 -1.6697
 4320SOL    HW224594   3.747   0.091  11.723  0.6589  2.3859  2.0305
 4321SOL     OW24595   4.113   2.706   7.443 -0.1292 -0.7099 -0.5265
 4321SOL    HW124596   4.193   2.681   7.489  0.7806 -0.5018 -2.0247
 4321SOL    HW224597   4.145   2.767   7.377  1.8565 -0.0929  0.9894
 4322SOL     OW24598   0.965   0.183   6.655 -0.1117  0.3726 -0.1388
 4322SOL    HW124599   1.008   0.225   6.729  0.4393 -1.3499  0.5135
 4322SOL    HW224600   0.879   0.184   6.697 -0.6209 -0.0994 -1.1772
 4323SOL     OW24601   2.253   0.871   8.947 -0.3498 -0.0684  0.2929
 4323SOL    HW124602   2.307   0.942   8.912 -1.8851  0.0989 -1.7925
 4323SOL    HW224603   2.315   0.799   8.931  0.8404  1.4546 -2.0241
 4324SOL     OW24604   1.580   1.222   1.754 -0.0372 -0.3011 -0.3078
 4324SOL    HW124605   1.495   1.258   1.780 -0.3588  0.4655 -2.3792
 4324SOL    HW224606   1.550   1.136   1.723  2.2854 -0.7781 -1.2392
 4325SOL     OW24607   3.985   3.667  12.092  0.2563  0.7128 -0.4827
 4325SOL    HW124608   3.914   3.723  12.061 -0.8473 -0.5002 -0.1526
 4325SOL    HW224609   3.980   3.588  12.039  1.6429  0.7430 -0.6565
 4326SOL     OW24610   0.357   4.061   1.718  0.2533  0.2403  0.2000
 4326SOL    HW124611   0.452   4.067   1.722  0.4803 -2.4211 -2.0887
 4326SOL    HW224612   0.334   4.151   1.695  1.6197  0.3586 -0.6946
 4327SOL     OW24613   1.855   3.561   7.993  0.1818 -0.0417 -0.0812
 4327SOL    HW124614   1.866   3.586   7.901  2.0787  0.0186  0.1776
 4327SOL    HW224615   1.923   3.612   8.035 -0.5634  2.0321 -1.4032
 4328SOL     OW24616   1.959   1.071  15.662  0.3027  0.2826  0.2790
 4328SOL    HW124617   2.038   1.070  15.607  1.4301  0.1912  1.9125
 4328SOL    HW224618   1.926   0.982  15.655  1.6083  0.0337 -2.7323
 4329SOL     OW24619   3.878   3.774   7.594 -0.2837 -0.1958 -0.4128
 4329SOL    HW124620   3.875   3.865   7.564  1.0062  0.4201  1.3489
 4329SOL    HW224621   3.785   3.751   7.598 -0.6113  1.3524  0.8325
 4330SOL     OW24622   0.445   3.587   5.640 -0.1466 -0.0470 -0.2109
 4330SOL    HW124623   0.521   3.644   5.629 -1.1913  1.2199 -0.8314
 4330SOL    HW224624   0.411   3.614   5.726  2.8932 -0.5510  1.1368
 4331SOL     OW24625   3.420   3.219   5.672 -0.5519  0.2446 -0.1187
 4331SOL    HW124626   3.446   3.142   5.621  0.6603 -0.6383  1.8160
 4331SOL    HW224627   3.445   3.294   5.618 -3.1075  1.0721 -0.1377
 4332SOL     OW24628   4.683   4.297   4.879 -0.6515  0.0421 -0.0616
 4332SOL    HW124629   4.591   4.290   4.852 -0.1235  0.6806 -2.0252
 4332SOL    HW224630   4.673   4.338   4.965  1.0046  0.0158  0.1415
 4333SOL     OW24631   3.656   3.813   6.750 -0.2705  0.0666  0.2436
 4333SOL    HW124632   3.574   3.847   6.717  1.3831  1.7998 -2.0400
 4333SOL    HW224633   3.674   3.744   6.686 -1.8155 -0.1601  0.0620
 4334SOL     OW24634   1.436   3.478   5.273 -0.4812 -0.1506  0.6129
 4334SOL    HW124635   1.512   3.515   5.228 -0.9189 -0.8330 -0.6982
 4334SOL    HW224636   1.366   3.527   5.231  0.4799  0.8367  0.1692
 4335SOL     OW24637   4.175   3.739   2.862 -0.1274  0.2695  0.3226
 4335SOL    HW124638   4.146   3.825   2.892  1.3082  1.1714 -0.8575
 4335SOL    HW224639   4.172   3.757   2.768 -1.3657  2.7548  0.8200
 4336SOL     OW24640   2.769   0.556  14.694 -0.0390 -0.1024  0.1816
 4336SOL    HW124641   2.841   0.544  14.756 -1.3524 -1.3401  1.4354
 4336SOL    HW224642   2.821   0.587  14.619 -0.7236 -1.1055 -0.7092
 4337SOL     OW24643   0.111   4.569   3.020 -0.1097  0.3746 -0.0962
 4337SOL    HW124644   0.099   4.509   2.946  1.5742 -0.2725  0.1526
 4337SOL    HW224645   0.204   4.562   3.039 -0.0150 -1.5651 -1.2580
 4338SOL     OW24646   1.435   3.727   9.381  0.0025  0.0932 -0.3644
 4338SOL    HW124647   1.417   3.790   9.452 -3.7594 -1.2432 -0.1057
 4338SOL    HW224648   1.508   3.673   9.410 -0.1982 -0.9568 -1.8732
 4339SOL     OW24649   1.673   3.139   6.709 -0.1885  0.2326 -0.5229
 4339SOL    HW124650   1.652   3.175   6.623 -0.2128  1.9734  0.2280
 4339SOL    HW224651   1.768   3.145   6.718 -0.4611  1.6486  1.3643
 4340SOL     OW24652   1.426   4.209   6.420 -0.0042 -0.3442 -0.1296
 4340SOL    HW124653   1.494   4.209   6.488 -0.6166  0.4041  0.4771
 4340SOL    HW224654   1.448   4.290   6.374 -1.2379 -0.1397 -0.3502
 4341SOL     OW24655   0.330   0.875   4.992 -0.6370 -0.1144 -0.1171
 4341SOL    HW124656   0.312   0.896   4.900 -2.0174  1.0961  0.4306
 4341SOL    HW224657   0.424   0.858   4.989 -0.6712  0.0864 -2.4614
 4342SOL     OW24658   3.046   2.981   1.379  0.2388 -0.6098  0.1342
 4342SOL    HW124659   3.087   2.952   1.460  0.9205 -0.4176 -0.1386
 4342SOL    HW224660   3.046   3.076   1.392 -4.2955 -0.5611 -0.1611
 4343SOL     OW24661   3.054   2.315   0.556 -0.4483  0.5632  0.3503
 4343SOL    HW124662   3.011   2.398   0.537  0.1808  0.8399  0.1451
 4343SOL    HW224663   2.980   2.256   0.543  0.5910 -0.5868 -0.3369
 4344SOL     OW24664   3.407   4.356   6.332  0.0037  0.1421  0.5113
 4344SOL    HW124665   3.353   4.434   6.337  0.8721  0.7907 -0.2443
 4344SOL    HW224666   3.453   4.367   6.249  0.0409  2.1259  0.7895
 4345SOL     OW24667   2.893   3.286  10.049 -0.1392 -0.2483  0.1284
 4345SOL    HW124668   2.910   3.194  10.030 -4.3902 -1.0111  0.0382
 4345SOL    HW224669   2.827   3.278  10.118  0.8921 -0.8473  1.0595
 4346SOL     OW24670   3.488   3.378   5.443  0.6967 -0.4490 -0.2502
 4346SOL    HW124671   3.401   3.351   5.412 -0.2138 -2.1168  3.7436
 4346SOL    HW224672   3.510   3.453   5.388  1.5451 -0.8162 -0.4184
 4347SOL     OW24673   3.220   4.602  12.130 -0.2990 -0.5129  0.0685
 4347SOL    HW124674   3.281   4.559  12.190  1.5380  3.3669  0.9829
 4347SOL    HW224675   3.156   4.530  12.132 -0.3516 -0.3788  3.3250
 4348SOL     OW24676   0.267   4.644   8.328  0.4041 -0.5350 -0.1364
 4348SOL    HW124677   0.331   4.713   8.344 -0.7346  0.6175 -0.5421
 4348SOL    HW224678   0.235   4.677   8.244  0.4117  0.0344  0.0859
 4349SOL     OW24679   1.965   1.444   3.506  0.0818 -0.0954 -0.1052
 4349SOL    HW124680   1.989   1.402   3.588 -2.4874 -1.2976  0.0618
 4349SOL    HW224681   2.042   1.417   3.456  1.0944  1.3804  0.6657
 4350SOL     OW24682   2.372   0.913   9.404  0.1396 -0.4991 -0.8315
 4350SOL    HW124683   2.384   0.871   9.489  0.6702 -0.5053 -0.9096
 4350SOL    HW224684   2.453   0.964   9.398  0.5154 -1.0527 -0.5310
 4351SOL     OW24685   1.217   3.390   0.928  0.1994 -1.0262 -0.2515
 4351SOL    HW124686   1.186   3.327   0.863  1.8168  0.2235 -2.2181
 4351SOL    HW224687   1.144   3.452   0.925  1.0509 -0.1460 -2.5984
 4352SOL     OW24688   2.127   2.829   7.595 -0.3114 -0.5348  0.2756
 4352SOL    HW124689   2.128   2.911   7.545 -1.8781 -0.8559 -0.2836
 4352SOL    HW224690   2.047   2.784   7.569  0.0805 -0.5511 -0.9115
 4353SOL     OW24691   1.931   1.026   7.647 -0.4279  0.1910 -0.4177
 4353SOL    HW124692   1.887   1.097   7.601  1.7600  0.4346 -2.1286
 4353SOL    HW224693   1.981   1.075   7.712  1.0071 -1.2483 -0.4257
 4354SOL     OW24694   2.292   2.109   5.919  0.0930 -0.0296  0.2114
 4354SOL    HW124695   2.197   2.117   5.915  0.1002 -1.6597 -3.2201
 4354SOL    HW224696   2.310   2.065   5.836 -0.1210 -0.8509  0.5968
 4355SOL     OW24697   3.390   1.571   5.605 -0.8379 -0.3919  0.2519
 4355SOL    HW124698   3.377   1.615   5.688  1.0555  1.8435 -0.6277
 4355SOL    HW224699   3.415   1.643   5.547  0.4568 -0.7871  0.3105
 4356SOL     OW24700   3.409   3.351  15.695  0.4421  0.8013  0.7556
 4356SOL    HW124701   3.370   3.433  15.666 -0.6108 -0.4367 -1.3365
 4356SOL    HW224702   3.393   3.291  15.621 -0.8063 -1.6412  2.9971
 4357SOL     OW24703   2.366   3.483  12.936  0.1975 -0.2557  0.2688
 4357SOL    HW124704   2.276   3.475  12.904  0.7372 -0.4371 -1.2074
 4357SOL    HW224705   2.359   3.565  12.984  0.9150  0.8126 -1.4565
 4358SOL     OW24706   2.047   4.593   7.350  0.0543  0.1164  0.6325
 4358SOL    HW124707   2.048   4.553   7.263  3.1970  1.9894 -0.1961
 4358SOL    HW224708   2.136   4.629   7.348 -0.1586  0.6649  1.2205
 4359SOL     OW24709   0.034   3.102   3.335  0.1257 -0.1459 -0.0967
 4359SOL    HW124710   4.738   3.121   3.249  1.6312  2.2918 -0.2369
 4359SOL    HW224711   0.063   3.012   3.328  1.2126  0.2529 -0.7449
 4360SOL     OW24712   4.431   1.062   6.759 -0.5797  0.2093  0.6554
 4360SOL    HW124713   4.488   1.138   6.771  2.5058 -1.9742  0.0217
 4360SOL    HW224714   4.493   0.989   6.770 -2.3852 -1.3255  0.7122
 4361SOL     OW24715   4.604   3.157   5.180  0.7053 -0.3484  0.1036
 4361SOL    HW124716   4.668   3.100   5.138 -0.7249 -1.8898  0.0204
 4361SOL    HW224717   4.524   3.127   5.138  0.7755  0.5293 -0.6586
 4362SOL     OW24718   0.741   3.442   2.863 -0.0318 -0.0622  0.3630
 4362SOL    HW124719   0.710   3.353   2.881 -0.6383  0.0588 -0.0759
 4362SOL    HW224720   0.730   3.443   2.768  0.2888 -1.4296  0.3130
 4363SOL     OW24721   3.672   0.660  13.356  0.2795 -0.7748  0.1792
 4363SOL    HW124722   3.621   0.634  13.279 -2.3252 -1.2523  2.0309
 4363SOL    HW224723   3.687   0.575  13.399 -0.3692  0.0914  2.1179
 4364SOL     OW24724   3.004   0.338   2.328  0.6480 -0.6991  0.3068
 4364SOL    HW124725   2.977   0.250   2.354 -1.6063 -1.2907 -4.0100
 4364SOL    HW224726   2.933   0.387   2.369 -0.4598 -2.0774  0.0270
 4365SOL     OW24727   3.990   3.167   9.639 -0.2187 -0.6572  0.1585
 4365SOL    HW124728   3.974   3.143   9.730 -2.4975  0.0502 -0.0527
 4365SOL    HW224729   3.931   3.112   9.587 -2.3742  0.2238  1.7291
 4366SOL     OW24730   1.168   1.208   2.888  0.4703  0.3550 -0.2664
 4366SOL    HW124731   1.259   1.182   2.907  0.2122  1.5122  2.5789
 4366SOL    HW224732   1.176   1.272   2.818  0.1247 -0.4700 -1.0592
 4367SOL     OW24733   4.047   0.500   8.924 -0.2662 -0.4980  0.3426
 4367SOL    HW124734   4.023   0.503   9.017  0.4856 -0.1829  0.5292
 4367SOL    HW224735   4.035   0.406   8.911 -1.8948 -0.3401  0.7012
 4368SOL     OW24736   2.363   1.738   5.273  0.1066 -0.3277 -0.4891
 4368SOL    HW124737   2.362   1.797   5.197 -1.4151 -0.9636 -0.9661
 4368SOL    HW224738   2.347   1.657   5.224 -3.5313  0.0208  0.0681
 4369SOL     OW24739   2.601   1.121   5.655 -0.0441  0.6311  0.0317
 4369SOL    HW124740   2.571   1.053   5.716  3.5143 -0.3874  0.6095
 4369SOL    HW224741   2.575   1.208   5.687  1.3565  1.3496 -0.8070
 4370SOL     OW24742   4.270   3.738   7.450  0.7726  0.0960 -0.4241
 4370SOL    HW124743   4.189   3.698   7.418  0.1862  2.9488 -2.5297
 4370SOL    HW224744   4.337   3.670   7.443  0.6897  0.0218 -0.5124
 4371SOL     OW24745   4.279   3.317   6.604  0.2438  0.2422 -0.3895
 4371SOL    HW124746   4.349   3.380   6.621 -1.2295  1.3656  1.4249
 4371SOL    HW224747   4.321   3.262   6.538 -0.1930  1.9116 -2.0573
 4372SOL     OW24748   2.378   3.745  10.830 -0.3401 -0.0289  0.2393
 4372SOL    HW124749   2.367   3.781  10.742  0.7381  0.7717  0.4370
 4372SOL    HW224750   2.463   3.700  10.834  0.3001  1.1295 -0.5278
 4373SOL     OW24751   1.793   2.275   0.767 -0.0516 -0.6693  0.4543
 4373SOL    HW124752   1.847   2.219   0.822 -0.3906  0.1298  1.6215
 4373SOL    HW224753   1.823   2.363   0.790  2.1315 -0.9788 -1.2240
 4374SOL     OW24754   4.023   4.478   8.728 -0.1538 -0.7012 -0.0191
 4374SOL    HW124755   3.963   4.482   8.654 -1.9265 -0.5386  1.4501
 4374SOL    HW224756   4.003   4.388   8.752 -1.7419  0.1884  2.0149
 4375SOL     OW24757   0.708   2.966   1.317 -0.5066  0.2636 -0.1191
 4375SOL    HW124758   0.774   2.906   1.282  0.4317  2.2304 -1.7180
 4375SOL    HW224759   0.709   3.033   1.248 -0.9205 -1.2302 -1.5673
 4376SOL     OW24760   4.104   1.076   4.186 -0.3061  0.4683 -0.4624
 4376SOL    HW124761   4.175   1.014   4.205  0.8861  3.2797  4.2893
 4376SOL    HW224762   4.127   1.160   4.225 -1.0853 -0.2896  1.5772
 4377SOL     OW24763   1.148   2.522  12.459  0.2476  0.1689  0.1919
 4377SOL    HW124764   1.169   2.614  12.439  0.9832 -0.0594 -0.0902
 4377SOL    HW224765   1.169   2.485  12.373  0.9753  0.3864  0.2771
 4378SOL     OW24766   3.690   1.950  16.854 -0.0296 -0.3718  0.0990
 4378SOL    HW124767   3.708   2.040  16.828 -1.9070 -0.1732 -0.5085
 4378SOL    HW224768   3.605   1.939  16.812  1.1087 -1.6109 -1.8897
 4379SOL     OW24769   2.258   0.472   4.603  0.3799 -1.0516  0.0347
 4379SOL    HW124770   2.241   0.430   4.518  2.2873  0.9740 -1.3322
 4379SOL    HW224771   2.169   0.482   4.637  0.4359 -0.8788  0.1248
 4380SOL     OW24772   0.396   3.067   3.990 -0.4495  0.7686 -0.6289
 4380SOL    HW124773   0.357   2.987   4.025  0.4609  0.7087  0.2429
 4380SOL    HW224774   0.483   3.061   4.028  0.5938 -2.3823 -3.5562
 4381SOL     OW24775   2.800   0.473   4.791  0.2780  0.2644  0.1677
 4381SOL    HW124776   2.769   0.559   4.817 -0.5904  0.0343 -0.1049
 4381SOL    HW224777   2.717   0.425   4.802 -0.0160  0.8332  0.4303
 4382SOL     OW24778   2.118   3.462  12.825  0.3506 -0.1464  0.1855
 4382SOL    HW124779   2.077   3.435  12.743  0.0774  1.6060 -0.2552
 4382SOL    HW224780   2.092   3.554  12.826  1.1068  0.0859 -0.9081
 4383SOL     OW24781   0.547   0.466   7.158 -0.5435 -0.1066  0.2318
 4383SOL    HW124782   0.612   0.532   7.181 -0.3427 -0.3287  0.2997
 4383SOL    HW224783   0.534   0.411   7.235  0.3083  0.5081  0.8141
 4384SOL     OW24784   2.353   4.041   7.154  0.3371  0.4598  0.1015
 4384SOL    HW124785   2.351   4.100   7.230 -0.4823  1.1418 -0.4529
 4384SOL    HW224786   2.441   4.009   7.174  0.6628  0.1569 -1.8477
 4385SOL     OW24787   4.141   2.444   9.859 -0.4090  0.0438 -0.0786
 4385SOL    HW124788   4.099   2.524   9.891 -1.5055 -0.0726 -1.2244
 4385SOL    HW224789   4.149   2.450   9.763  0.0022  0.8497  0.0114
 4386SOL     OW24790   0.907   0.641   7.821  0.0581  0.7744  0.1541
 4386SOL    HW124791   0.840   0.709   7.813 -0.9139 -0.1461  0.3538
 4386SOL    HW224792   0.969   0.672   7.887  1.0965  1.6319 -1.2435
 4387SOL     OW24793   3.654   1.798  17.099  0.1690 -0.5051  0.2362
 4387SOL    HW124794   3.674   1.856  17.025  2.4828  1.5133  2.4588
 4387SOL    HW224795   3.609   1.852  17.164  0.9713  1.2620 -0.6564
 4388SOL     OW24796   4.265   3.330   4.621  0.7014  0.3153  0.4751
 4388SOL    HW124797   4.202   3.285   4.677 -1.3642  1.2663 -1.0925
 4388SOL    HW224798   4.337   3.354   4.679 -0.3507 -0.8629  2.2731
 4389SOL     OW24799   1.699   0.462  11.759  0.0355  0.4200  0.8869
 4389SOL    HW124800   1.631   0.527  11.741  0.5066  0.1106 -2.0167
 4389SOL    HW224801   1.768   0.525  11.781 -1.2672  1.9436  0.5872
 4390SOL     OW24802   4.549   1.887  17.428  0.4933 -0.5272 -0.2646
 4390SOL    HW124803   4.639   1.917  17.433 -0.3014  1.7143  0.3741
 4390SOL    HW224804   4.558   1.800  17.467 -0.2705 -1.3464 -1.9245
 4391SOL     OW24805   1.286   4.566   4.971  0.0037  0.4002 -0.0973
 4391SOL    HW124806   1.335   4.571   4.889  1.7546 -1.4430  0.8248
 4391SOL    HW224807   1.207   4.523   4.939  0.7206 -1.0654  0.0660
 4392SOL     OW24808   0.184   1.403   7.086  0.5666  0.0000  0.2832
 4392SOL    HW124809   0.262   1.348   7.075 -0.2571 -1.2864  0.8878
 4392SOL    HW224810   0.196   1.429   7.178 -1.4380 -1.5523  0.9859
 4393SOL     OW24811   4.209   2.507  15.734 -0.4750 -0.0646 -0.4403
 4393SOL    HW124812   4.127   2.493  15.782 -0.3009  0.6102  0.0474
 4393SOL    HW224813   4.183   2.551  15.653  1.1677  1.2743 -0.2581
 4394SOL     OW24814   3.736   2.367   2.559  0.0075  0.5564  0.1750
 4394SOL    HW124815   3.751   2.412   2.476  1.5671  0.7273  0.5584
 4394SOL    HW224816   3.660   2.310   2.546  2.2077 -2.0632 -1.1132
 4395SOL     OW24817   1.215   3.160   6.646  0.1636  0.3926  0.4464
 4395SOL    HW124818   1.252   3.239   6.606  1.2480 -1.0966 -1.4692
 4395SOL    HW224819   1.134   3.152   6.595 -0.8888  0.3953  2.1206
 4396SOL     OW24820   4.536   0.043  12.337  0.2902  0.2141  0.6316
 4396SOL    HW124821   4.552   0.092  12.418 -0.7553  1.5821  0.0067
 4396SOL    HW224822   4.565   4.696  12.359  0.1086 -0.1201 -0.4697
 4397SOL     OW24823   3.880   2.165   4.017 -0.0669 -0.4093 -0.1470
 4397SOL    HW124824   3.836   2.225   3.956 -0.6954  1.0698  1.7481
 4397SOL    HW224825   3.814   2.099   4.034  0.0956 -0.0088  1.9792
 4398SOL     OW24826   3.904   4.491   8.460 -0.1879 -0.3972  0.0252
 4398SOL    HW124827   3.863   4.521   8.379 -2.3109 -1.0026  0.8880
 4398SOL    HW224828   3.935   4.402   8.443  0.9280  0.6444 -3.3576
 4399SOL     OW24829   4.105   4.555   9.134 -0.5033 -0.4333  0.0163
 4399SOL    HW124830   4.192   4.591   9.116  0.0500 -2.6666 -1.7699
 4399SOL    HW224831   4.055   4.589   9.059  1.0017 -0.9670 -1.2268
 4400SOL     OW24832   2.328   0.114   7.694  0.0089 -0.2986  0.0246
 4400SOL    HW124833   2.408   0.078   7.733  0.0495  1.1368  1.2673
 4400SOL    HW224834   2.352   0.206   7.690  0.4028 -0.4139 -0.2127
 4401SOL     OW24835   3.945   0.689  17.517 -0.1431 -0.1716 -0.1925
 4401SOL    HW124836   4.014   0.751  17.538  1.7538 -2.0085 -1.0520
 4401SOL    HW224837   3.921   0.698  17.425 -2.8441 -1.7328  0.3554
 4402SOL     OW24838   2.148   0.108   4.240  0.1006  0.2373  0.0043
 4402SOL    HW124839   2.238   0.104   4.207  0.2730 -0.0453  0.5002
 4402SOL    HW224840   2.128   0.199   4.220 -0.4788 -0.0972 -0.9485
 4403SOL     OW24841   2.278   0.310  11.322 -0.5792  0.3471  0.4824
 4403SOL    HW124842   2.354   0.253  11.310 -0.4699  0.9240 -1.5943
 4403SOL    HW224843   2.233   0.252  11.384  1.4231 -2.2279 -0.4580
 4404SOL     OW24844   3.706   2.551  10.291 -0.4211  0.1438  0.0286
 4404SOL    HW124845   3.762   2.476  10.269 -1.6211 -0.7173 -0.0749
 4404SOL    HW224846   3.729   2.605  10.215 -2.8758  2.3807  0.8862
 4405SOL     OW24847   2.722   3.527  10.220  0.1457  1.3797 -0.1425
 4405SOL    HW124848   2.805   3.538  10.173 -0.0799 -0.2352 -0.9193
 4405SOL    HW224849   2.671   3.526  10.139 -1.7314 -1.4979  1.0654
 4406SOL     OW24850   1.832   0.381   3.102 -0.4668 -0.1145 -0.1645
 4406SOL    HW124851   1.790   0.431   3.032  2.0010  0.1748 -1.4412
 4406SOL    HW224852   1.855   0.453   3.160  0.6727  0.2456 -1.0746
 4407SOL     OW24853   2.617   0.990   0.731  0.0036 -0.3615 -0.3500
 4407SOL    HW124854   2.657   0.983   0.818 -1.2524  0.0834  0.2705
 4407SOL    HW224855   2.532   1.009   0.770 -0.2201  1.2266 -1.5981
 4408SOL     OW24856   2.399   4.289  17.485 -0.1324 -0.3596 -0.0460
 4408SOL    HW124857   2.369   4.329  17.403 -2.5937 -1.2414  0.4402
 4408SOL    HW224858   2.472   4.350  17.500 -0.3567 -0.3728  1.0707
 4409SOL     OW24859   0.182   2.537   7.890 -0.7069 -0.2391 -0.3407
 4409SOL    HW124860   0.166   2.449   7.923 -0.0489 -0.1664  0.1741
 4409SOL    HW224861   0.203   2.531   7.797 -0.6573 -3.6696 -0.1082
 4410SOL     OW24862   2.081   1.346  10.027  0.0584  0.1742  0.4583
 4410SOL    HW124863   2.164   1.329  10.071  2.1595  2.0566 -2.7693
 4410SOL    HW224864   2.040   1.262  10.006 -0.9720  1.4967 -2.8262
 4411SOL     OW24865   2.029   3.216   1.257 -0.3595  0.3634  0.0376
 4411SOL    HW124866   1.971   3.152   1.298  1.0052 -1.7433 -1.3182
 4411SOL    HW224867   2.107   3.190   1.305  0.1812  1.3348 -0.3217
 4412SOL     OW24868   0.561   2.362   7.373  0.4181 -0.3715 -0.1816
 4412SOL    HW124869   0.608   2.280   7.378  1.5935  0.3246  0.1670
 4412SOL    HW224870   0.515   2.348   7.290  1.1069 -0.5129 -0.5309
 4413SOL     OW24871   0.551   3.534   3.239  0.4630  0.4267 -0.5465
 4413SOL    HW124872   0.469   3.486   3.245  0.4477  0.6300  0.7935
 4413SOL    HW224873   0.613   3.471   3.275 -0.1562 -0.5980 -1.2661
 4414SOL     OW24874   2.564   0.785   5.146 -0.1333 -0.0341  0.1077
 4414SOL    HW124875   2.500   0.714   5.150  0.4329 -0.6467 -1.5946
 4414SOL    HW224876   2.591   0.782   5.238 -0.9646 -1.6657  0.3177
 4415SOL     OW24877   2.750   3.997   7.442  0.6618  0.1051  0.0665
 4415SOL    HW124878   2.657   3.979   7.426  0.7785  0.4285 -0.9938
 4415SOL    HW224879   2.745   4.091   7.424 -0.4124 -0.2659 -1.5740
 4416SOL     OW24880   0.717   0.152   8.538 -0.1147 -0.4508 -0.3287
 4416SOL    HW124881   0.678   0.131   8.453  1.5054  0.1674 -1.2235
 4416SOL    HW224882   0.711   0.070   8.587 -0.7616 -0.9835 -1.2998
 4417SOL     OW24883   1.178   4.557  17.379  0.1182 -0.4961  0.2707
 4417SOL    HW124884   1.138   4.605  17.451  1.7639  1.5239 -0.1671
 4417SOL    HW224885   1.270   4.557  17.403 -0.0231  0.6887  0.8016
 4418SOL     OW24886   2.516   3.478   7.154 -0.0279 -0.0979  0.5511
 4418SOL    HW124887   2.489   3.391   7.183 -1.3166 -0.0428 -0.4766
 4418SOL    HW224888   2.500   3.524   7.236 -0.3196 -1.2113  1.1192
 4419SOL     OW24889   0.422   2.746  12.382 -0.5813 -0.0952 -0.6466
 4419SOL    HW124890   0.407   2.652  12.393  1.7795 -0.4633 -0.7217
 4419SOL    HW224891   0.478   2.748  12.305 -0.1537  1.8790 -0.2968
 4420SOL     OW24892   4.149   1.185   2.773 -0.0126 -0.1758  0.1357
 4420SOL    HW124893   4.244   1.193   2.772 -0.3359  3.4243 -3.0138
 4420SOL    HW224894   4.128   1.197   2.865  2.1675 -0.0551  0.6159
 4421SOL     OW24895   2.673   2.768  13.799  0.3843  0.3436  0.3701
 4421SOL    HW124896   2.589   2.772  13.845  0.5397  1.7589  0.5322
 4421SOL    HW224897   2.688   2.856  13.766 -0.6772  0.6587  0.7425
 4422SOL     OW24898   1.154   4.611   4.280 -0.3917 -0.0648 -0.0974
 4422SOL    HW124899   1.095   4.569   4.217  0.5605  2.5282 -2.7303
 4422SOL    HW224900   1.168   4.538   4.339  0.9833 -0.2677 -0.6820
 4423SOL     OW24901   1.339   0.311  10.795  0.0340  0.7384 -0.0213
 4423SOL    HW124902   1.422   0.359  10.795  1.2360 -1.3993  3.9209
 4423SOL    HW224903   1.335   0.264  10.712  2.1783 -0.5874  0.6220
 4424SOL     OW24904   2.885   0.204   7.324 -0.0203 -0.5835 -0.8233
 4424SOL    HW124905   2.937   0.225   7.246 -0.6867 -0.5408 -1.2532
 4424SOL    HW224906   2.940   0.144   7.375  2.6380  2.0603 -0.5322
 4425SOL     OW24907   3.360   1.015  14.961  0.4005  0.0050 -0.0639
 4425SOL    HW124908   3.414   1.003  14.882 -0.0990  2.4922 -0.7644
 4425SOL    HW224909   3.274   1.022  14.919 -0.1987  0.2738  1.2363
 4426SOL     OW24910   0.735   1.548   7.314 -0.2239 -0.1999  0.8669
 4426SOL    HW124911   0.790   1.617   7.278  2.6226 -1.5807  2.5446
 4426SOL    HW224912   0.801   1.479   7.306  0.0942 -0.0046  1.7810
 4427SOL     OW24913   1.327   2.384   5.471  0.1056  0.2605 -0.5248
 4427SOL    HW124914   1.260   2.434   5.425  0.5305  1.0206 -0.3254
 4427SOL    HW224915   1.391   2.452   5.492 -0.4563  0.8388 -0.6846
 4428SOL     OW24916   4.671   4.412   9.234 -0.7470  0.1632  0.2620
 4428SOL    HW124917   4.645   4.323   9.256  0.3231 -0.3690 -0.6546
 4428SOL    HW224918   4.728   4.430   9.310 -1.4311  0.4007  0.7183
 4429SOL     OW24919   2.220   4.481  15.576 -0.8004  0.2510  0.2383
 4429SOL    HW124920   2.261   4.453  15.494  1.9931  0.1239  1.6903
 4429SOL    HW224921   2.292   4.516  15.628  0.0738 -0.0087 -0.8040
 4430SOL     OW24922   4.663   2.341   1.817  0.7335 -0.6971 -0.3886
 4430SOL    HW124923   4.682   2.257   1.860  2.5328 -0.5443 -0.8968
 4430SOL    HW224924   0.013   2.367   1.804  0.5957 -0.0273 -0.0169
 4431SOL     OW24925   2.444   4.577   3.316  0.0589  0.0912 -0.3555
 4431SOL    HW124926   2.486   4.658   3.345 -0.3047 -0.2555  1.1510
 4431SOL    HW224927   2.392   4.605   3.241  0.2266 -2.6340 -1.4709
 4432SOL     OW24928   1.693   1.626  11.060  0.2548 -0.3203 -0.7118
 4432SOL    HW124929   1.612   1.576  11.052  1.0889 -1.4398 -2.1426
 4432SOL    HW224930   1.756   1.555  11.049  1.1003  0.2342  0.5396
 4433SOL     OW24931   0.929   2.801   4.230 -0.2476  0.2960  0.7119
 4433SOL    HW124932   0.901   2.711   4.249  0.0452  0.2718  1.0389
 4433SOL    HW224933   0.917   2.841   4.315 -4.0493 -1.0298  0.7720
 4434SOL     OW24934   3.412   0.950   2.360  0.0883 -0.0396  0.0926
 4434SOL    HW124935   3.499   0.910   2.362 -0.4840 -1.4951 -4.3500
 4434SOL    HW224936   3.424   1.025   2.418  0.1220  0.8715 -1.0980
 4435SOL     OW24937   2.035   4.265  12.291  0.0735  0.5190 -0.7662
 4435SOL    HW124938   2.012   4.173  12.278 -1.2878  0.6792  0.4550
 4435SOL    HW224939   1.954   4.312  12.311 -1.1300 -1.1372 -1.7257
 4436SOL     OW24940   2.481   1.466   4.531 -0.2224 -0.3495  0.0002
 4436SOL    HW124941   2.576   1.462   4.521 -0.2978 -1.0300 -0.4616
 4436SOL    HW224942   2.456   1.386   4.483  1.3727 -0.2171 -1.0562
 4437SOL     OW24943   0.979   3.739   1.095  0.0829  0.3314 -0.8490
 4437SOL    HW124944   1.037   3.677   1.138  1.5526  2.0104 -0.4395
 4437SOL    HW224945   0.906   3.726   1.155 -0.0604 -2.0901 -1.5445
 4438SOL     OW24946   2.215   2.966  10.518  0.1072 -0.1686  0.5756
 4438SOL    HW124947   2.167   2.947  10.598  0.5254  1.8078  1.2971
 4438SOL    HW224948   2.178   3.053  10.501 -0.2514 -0.1268  1.6239
 4439SOL     OW24949   0.968   3.985   0.651 -0.0774  0.1560  0.1148
 4439SOL    HW124950   0.986   3.906   0.600 -0.8645 -0.5193  0.8819
 4439SOL    HW224951   0.873   3.977   0.644  0.1492 -2.6844  0.1507
 4440SOL     OW24952   4.462   1.362   4.808 -0.3431  0.6520 -0.6901
 4440SOL    HW124953   4.380   1.331   4.845  0.1303 -0.0308 -0.1944
 4440SOL    HW224954   4.462   1.456   4.824  3.4166  0.5552 -0.0357
 4441SOL     OW24955   4.590   4.345  11.727  0.3198  0.2107  0.1349
 4441SOL    HW124956   4.675   4.382  11.750  0.8640 -0.5596 -0.6223
 4441SOL    HW224957   4.607   4.258  11.764 -0.1582  0.6476  1.4020
 4442SOL     OW24958   0.858   2.513   1.578  0.0130  0.2580 -0.6602
 4442SOL    HW124959   0.853   2.420   1.601 -0.8527  0.3349 -0.5723
 4442SOL    HW224960   0.837   2.504   1.485  1.2300 -0.9532 -0.8215
 4443SOL     OW24961   1.380   3.050   8.967  0.4829  0.0165  0.1029
 4443SOL    HW124962   1.362   3.132   9.012 -0.9411 -0.3451  0.1734
 4443SOL    HW224963   1.437   3.071   8.893 -0.6115  1.2245 -0.3742
 4444SOL     OW24964   2.806   3.651   6.162 -0.3521 -0.3967  0.0903
 4444SOL    HW124965   2.819   3.557   6.174  1.7588 -0.1081  0.1590
 4444SOL    HW224966   2.784   3.678   6.251 -3.1908  0.2107 -0.8086
 4445SOL     OW24967   3.439   1.744  12.266  0.2941 -0.2155  0.3761
 4445SOL    HW124968   3.404   1.737  12.354 -1.3921 -2.3837 -0.4758
 4445SOL    HW224969   3.371   1.702  12.214  1.1319 -1.0855 -0.0212
 4446SOL     OW24970   3.590   2.029   7.170  0.0393  0.2355  0.2880
 4446SOL    HW124971   3.583   2.115   7.129 -4.5114 -0.4186 -0.3512
 4446SOL    HW224972   3.539   2.043   7.250 -1.6500  3.7585 -1.4058
 4447SOL     OW24973   3.594   3.871  13.889 -0.2089  0.1793 -0.3302
 4447SOL    HW124974   3.670   3.872  13.948  0.3321  1.7021 -1.0438
 4447SOL    HW224975   3.621   3.947  13.837  0.9831  0.2732  0.4136
 4448SOL     OW24976   3.842   4.560  10.223  0.3589 -0.0048 -0.0652
 4448SOL    HW124977   3.883   4.520  10.300  1.8140  0.9349 -0.3563
 4448SOL    HW224978   3.897   4.637  10.210  1.2555 -0.4358  1.2251
 4449SOL     OW24979   2.123   2.343   2.188  0.2018  0.1214 -0.0603
 4449SOL    HW124980   2.165   2.277   2.132  3.2005  0.8714  1.3163
 4449SOL    HW224981   2.171   2.422   2.167  2.0677 -0.8410  0.6084
 4450SOL     OW24982   1.287   1.853   2.386 -0.2176 -0.2386 -0.5903
 4450SOL    HW124983   1.215   1.843   2.323 -0.5696 -2.4579  0.1784
 4450SOL    HW224984   1.233   1.879   2.461  0.0611 -2.2171  0.3026
 4451SOL     OW24985   4.378   1.000  13.595 -0.5561 -0.4466 -0.3285
 4451SOL    HW124986   4.466   1.035  13.576 -0.1197 -0.6567  1.3660
 4451SOL    HW224987   4.398   0.908  13.578  2.6544  0.3308 -0.8247
 4452SOL     OW24988   2.318   2.042   9.035  0.1586 -0.0448 -0.3787
 4452SOL    HW124989   2.298   2.135   9.033  1.8188  0.2945 -1.2666
 4452SOL    HW224990   2.411   2.046   9.012  0.5964 -0.1328  1.3876
 4453SOL     OW24991   0.999   4.525   5.681  0.1807 -0.0797 -0.2236
 4453SOL    HW124992   0.976   4.607   5.724 -1.9628 -1.0409  0.4425
 4453SOL    HW224993   1.081   4.505   5.726 -0.3640 -1.3765  0.1869
 4454SOL     OW24994   2.674   4.642   2.984 -0.2158 -0.4957 -0.2562
 4454SOL    HW124995   2.741   4.628   3.051  0.1997  0.6403 -0.4214
 4454SOL    HW224996   2.715   4.697   2.917 -1.0118  0.0379 -0.3094
 4455SOL     OW24997   4.389   2.096   5.321 -0.3512  0.3948 -0.0679
 4455SOL    HW124998   4.477   2.132   5.320 -0.5505  0.8665 -0.6195
 4455SOL    HW224999   4.411   2.003   5.316 -3.5727 -0.2389 -2.4162
 4456SOL     OW25000   2.130   0.782   4.491  0.5539  0.6664  0.1319
 4456SOL    HW125001   2.092   0.716   4.433  1.4139  0.7474 -0.5068
 4456SOL    HW225002   2.189   0.722   4.538  1.7033 -0.1102 -2.3216
 4457SOL     OW25003   3.447   4.398   4.898  0.3259  0.4777  0.1719
 4457SOL    HW125004   3.513   4.329   4.895 -0.2434 -0.0563 -0.0339
 4457SOL    HW225005   3.487   4.481   4.871  0.0429 -0.1670 -2.2109
 4458SOL     OW25006   1.017   2.291  13.768 -0.2220  0.2070  0.0902
 4458SOL    HW125007   0.935   2.320  13.728  1.4717  3.7978 -0.7313
 4458SOL    HW225008   1.084   2.345  13.725 -0.6053 -0.2551 -1.0839
 4459SOL     OW25009   3.646   4.041   7.560 -0.2430 -0.2572  0.4144
 4459SOL    HW125010   3.651   4.004   7.471  0.1761 -0.4408  0.5116
 4459SOL    HW225011   3.582   3.983   7.601 -0.7040 -0.0804 -0.0659
 4460SOL     OW25012   1.391   0.138   4.251 -0.3705 -0.2415 -0.2774
 4460SOL    HW125013   1.394   0.215   4.193  1.8425 -0.4083 -0.3628
 4460SOL    HW225014   1.317   0.083   4.227  0.3159 -1.2534 -0.0474
 4461SOL     OW25015   3.702   4.400   9.116  0.0425 -0.1010 -0.1733
 4461SOL    HW125016   3.651   4.415   9.196 -0.5391  1.6231 -0.8545
 4461SOL    HW225017   3.700   4.487   9.076  0.2986 -0.4928 -1.0287
 4462SOL     OW25018   3.368   3.333  14.057  0.8024 -0.0803 -0.0203
 4462SOL    HW125019   3.407   3.410  14.099  1.6324  0.4855 -1.7894
 4462SOL    HW225020   3.449   3.287  14.035  1.2726  0.8531 -0.2397
 4463SOL     OW25021   1.602   2.187   6.367 -0.4824 -0.8914 -0.4086
 4463SOL    HW125022   1.624   2.100   6.400  0.6455 -0.1483  0.8203
 4463SOL    HW225023   1.622   2.250   6.437  0.5258  1.9291 -3.1972
 4464SOL     OW25024   3.337   4.100   9.225  0.2506 -0.0163 -0.1950
 4464SOL    HW125025   3.294   4.164   9.283 -0.4328 -1.7535  1.2190
 4464SOL    HW225026   3.301   4.019   9.262 -0.6821  0.4288 -0.1095
 4465SOL     OW25027   1.585   2.608  12.395  0.2817 -0.3605  0.1179
 4465SOL    HW125028   1.538   2.628  12.476  0.0854 -0.0985 -0.0578
 4465SOL    HW225029   1.541   2.535  12.352  0.8800 -0.6512  0.0082
 4466SOL     OW25030   1.340   3.851   9.617 -0.2658  0.3157  0.4049
 4466SOL    HW125031   1.255   3.807   9.617  0.6170 -1.3844  0.2401
 4466SOL    HW225032   1.310   3.930   9.661 -0.7648  0.3627 -0.0243
 4467SOL     OW25033   2.284   2.465   1.793 -0.3961  0.4491 -0.1481
 4467SOL    HW125034   2.333   2.419   1.725 -0.1720  1.3114 -0.5755
 4467SOL    HW225035   2.214   2.504   1.741 -0.9853  0.9826  1.0466
 4468SOL     OW25036   4.732   1.182  11.301 -0.2514  0.1297  0.1070
 4468SOL    HW125037   4.694   1.210  11.217 -1.8803  1.3532  1.2608
 4468SOL    HW225038   0.081   1.208  11.286 -0.4411  1.1499  0.7311
 4469SOL     OW25039   1.808   3.290   3.850  0.1177 -0.2326  0.0470
 4469SOL    HW125040   1.865   3.238   3.906  0.4905  0.6714  0.5101
 4469SOL    HW225041   1.766   3.228   3.790 -0.2946  0.7970 -0.7260
 4470SOL     OW25042   3.623   3.550  10.092 -0.0964  0.0883  0.3105
 4470SOL    HW125043   3.706   3.532  10.137 -0.2735 -1.2352  0.1134
 4470SOL    HW225044   3.586   3.463  10.111 -1.5033  0.2722 -1.7183
 4471SOL     OW25045   3.130   2.036   3.513  0.6722 -0.0380  0.7078
 4471SOL    HW125046   3.118   2.127   3.539  0.2203 -0.3379  1.5722
 4471SOL    HW225047   3.069   2.023   3.441  0.1455  0.0971  1.1281
 4472SOL     OW25048   1.527   1.989   1.758  0.2106  0.0839  0.7266
 4472SOL    HW125049   1.617   2.016   1.738  0.0982  0.3167  0.5451
 4472SOL    HW225050   1.533   2.008   1.852 -0.3290 -1.5095  1.0739
 4473SOL     OW25051   2.770   2.592   3.232 -0.5706  0.2219  0.3926
 4473SOL    HW125052   2.787   2.573   3.140 -1.7609  1.4514 -0.0690
 4473SOL    HW225053   2.798   2.684   3.232  1.1894 -0.3241 -0.0079
 4474SOL     OW25054   4.175   1.670   5.959 -0.5112 -0.4863 -0.6113
 4474SOL    HW125055   4.206   1.704   5.875  0.8735  0.0897  0.1414
 4474SOL    HW225056   4.134   1.588   5.931 -0.3985 -0.6771 -0.2170
 4475SOL     OW25057   1.749   1.836   4.208 -0.0987 -0.2151  0.0941
 4475SOL    HW125058   1.831   1.876   4.236 -0.6869  0.6512  0.5600
 4475SOL    HW225059   1.755   1.868   4.118  0.3822 -0.3533  0.0744
 4476SOL     OW25060   0.231   3.565   5.472 -0.3154  0.4903  0.2437
 4476SOL    HW125061   0.300   3.549   5.536  0.7343  0.2451 -0.9430
 4476SOL    HW225062   0.169   3.499   5.504  1.8433 -0.5321  2.3115
 4477SOL     OW25063   4.307   3.368   7.847 -0.0781 -0.1111 -0.5353
 4477SOL    HW125064   4.350   3.338   7.927  1.9158  0.0889 -1.5279
 4477SOL    HW225065   4.242   3.435   7.869  0.7600 -0.1357  1.9886
 4478SOL     OW25066   4.038   3.135   3.702  0.8268 -0.2529 -0.4316
 4478SOL    HW125067   3.947   3.110   3.685  0.7815  0.3890 -1.1161
 4478SOL    HW225068   4.035   3.229   3.717 -1.6541 -0.1572 -1.5424
 4479SOL     OW25069   4.418   3.306   9.426 -0.1719  0.1642  0.6576
 4479SOL    HW125070   4.384   3.353   9.349  2.5861 -0.7122 -1.1018
 4479SOL    HW225071   4.344   3.323   9.484 -1.1519  1.2710 -0.9177
 4480SOL     OW25072   0.066   0.821   8.740 -0.1880  0.3794  0.0423
 4480SOL    HW125073   0.146   0.840   8.788  0.1083 -0.4662 -0.1196
 4480SOL    HW225074   0.048   0.733   8.772  2.5659 -0.2887 -0.2795
 4481SOL     OW25075   2.793   1.471   2.391 -0.2899  0.4286 -0.2927
 4481SOL    HW125076   2.701   1.454   2.371 -0.7936  0.1636  2.3375
 4481SOL    HW225077   2.841   1.399   2.351 -2.0137  0.2807 -2.1032
 4482SOL     OW25078   4.040   2.975   6.481 -0.3103  0.3381 -0.9953
 4482SOL    HW125079   3.950   2.996   6.460 -0.4907  0.4194 -0.1633
 4482SOL    HW225080   4.085   3.009   6.404  0.2801  0.3683 -0.6397
 4483SOL     OW25081   1.848   2.166   1.774 -0.1749 -0.0706  0.0638
 4483SOL    HW125082   1.942   2.174   1.759 -0.1924  1.0792  0.5438
 4483SOL    HW225083   1.839   2.099   1.842 -0.2837 -0.7869 -0.6642
 4484SOL     OW25084   1.834   1.638   3.615 -0.1801  0.1366  0.3182
 4484SOL    HW125085   1.903   1.578   3.585 -0.9732 -1.1015  0.9709
 4484SOL    HW225086   1.850   1.698   3.542  1.0121 -0.2717  0.2304
 4485SOL     OW25087   2.967   2.783   5.346  0.5877  0.0597 -0.2636
 4485SOL    HW125088   2.995   2.769   5.256 -2.5244 -1.1841 -1.0253
 4485SOL    HW225089   2.879   2.748   5.333  0.2955 -0.4229  2.9124
 4486SOL     OW25090   0.515   3.409   8.999  0.5829 -0.3797  0.0645
 4486SOL    HW125091   0.596   3.432   9.044 -0.2763  0.8921  0.9770
 4486SOL    HW225092   0.541   3.340   8.939  0.4861  0.2416 -0.6992
 4487SOL     OW25093   1.906   2.409  10.795 -0.1342 -0.5477  0.2989
 4487SOL    HW125094   1.961   2.334  10.820  0.4585 -0.6274 -1.2707
 4487SOL    HW225095   1.839   2.395  10.862 -0.4947  2.4998  0.5718
 4488SOL     OW25096   3.670   0.973   5.122  0.5421 -0.1378 -0.8662
 4488SOL    HW125097   3.596   0.994   5.066 -0.0405 -0.0540 -0.0533
 4488SOL    HW225098   3.650   1.017   5.204 -0.8707 -2.4455  0.0239
 4489SOL     OW25099   0.206   2.548   3.917  0.1267 -0.1275  0.1929
 4489SOL    HW125100   0.156   2.542   3.835  0.3900  1.2556 -0.0739
 4489SOL    HW225101   0.140   2.545   3.986 -0.3091  1.7861 -0.1332
 4490SOL     OW25102   1.023   2.385   1.130 -0.3550 -1.1057 -0.0975
 4490SOL    HW125103   1.079   2.458   1.155 -3.3031  0.8562  0.6949
 4490SOL    HW225104   1.065   2.370   1.046  1.8773 -2.1197  1.1753
 4491SOL     OW25105   1.879   1.992   8.538 -0.2503 -0.1913  0.1935
 4491SOL    HW125106   1.904   2.014   8.448 -1.2314 -0.1141 -0.0689
 4491SOL    HW225107   1.873   1.898   8.526  1.5199 -0.3371  0.4941
 4492SOL     OW25108   3.592   4.605   8.894 -0.1050  0.0723  0.2108
 4492SOL    HW125109   3.555   4.608   8.982  0.7789 -0.5227  0.6059
 4492SOL    HW225110   3.550   4.684   8.860  1.5427  0.8481 -0.0301
 4493SOL     OW25111   2.088   0.108   4.548 -0.3030 -0.0913  0.0507
 4493SOL    HW125112   2.061   0.026   4.590 -1.1666  0.1996  0.0649
 4493SOL    HW225113   2.119   0.085   4.461  0.3297  1.1775 -0.0576
 4494SOL     OW25114   2.260   0.213  13.272  0.1608 -0.3059  0.2472
 4494SOL    HW125115   2.340   0.265  13.276  0.6627 -1.0005 -0.9922
 4494SOL    HW225116   2.208   0.260  13.208  1.2412  3.1933  1.9355
 4495SOL     OW25117   4.511   2.478   9.323 -0.1080 -0.2419  0.0105
 4495SOL    HW125118   4.459   2.532   9.383 -1.6448  1.5093 -2.9136
 4495SOL    HW225119   4.595   2.491   9.366 -0.0180  0.0019 -0.2390
 4496SOL     OW25120   2.284   1.397   3.826 -0.1127  0.7430 -0.1135
 4496SOL    HW125121   2.214   1.463   3.817 -1.3658 -0.4745  0.7308
 4496SOL    HW225122   2.315   1.429   3.911  0.4499  0.5374 -0.2438
 4497SOL     OW25123   0.661   0.239   2.941  0.8115  0.8493 -0.2986
 4497SOL    HW125124   0.633   0.157   2.902  0.6304  0.7128  0.1213
 4497SOL    HW225125   0.623   0.234   3.029 -1.1206 -0.6660 -1.2273
 4498SOL     OW25126   2.829   2.609   2.464  0.4472 -0.0701 -0.0352
 4498SOL    HW125127   2.871   2.694   2.461 -2.3546  1.3172 -0.0980
 4498SOL    HW225128   2.874   2.587   2.545  1.8229 -0.9770 -1.0388
 4499SOL     OW25129   0.855   1.408   5.544  0.2257  0.1790  0.2185
 4499SOL    HW125130   0.811   1.385   5.462  1.7637 -0.9063 -0.2999
 4499SOL    HW225131   0.906   1.331   5.568  0.5577  0.1801 -0.4905
 4500SOL     OW25132   2.019   1.646  10.141  0.4971  0.1492  0.1348
 4500SOL    HW125133   2.007   1.551  10.131 -0.0286 -0.0497  2.7982
 4500SOL    HW225134   2.020   1.660  10.235  0.4413 -3.7780  0.7324
 4501SOL     OW25135   4.533   1.222   7.201 -0.3521 -0.3144 -0.6392
 4501SOL    HW125136   4.568   1.276   7.130 -0.3002 -0.0289 -0.3982
 4501SOL    HW225137   4.469   1.283   7.238  0.0088 -0.5086  0.3075
 4502SOL     OW25138   4.068   1.249   3.574 -0.2344  0.3445 -0.4287
 4502SOL    HW125139   4.061   1.247   3.670  0.6178 -1.7799 -0.4286
 4502SOL    HW225140   4.124   1.174   3.554 -0.3410 -0.3014  1.6569
 4503SOL     OW25141   3.031   3.939   2.670  0.4502  0.0945  0.0927
 4503SOL    HW125142   3.001   3.895   2.591  2.2541 -0.5728 -0.2265
 4503SOL    HW225143   2.959   3.927   2.733 -0.8561  0.6955 -1.2906
 4504SOL     OW25144   3.779   0.196   7.849 -0.3273 -0.1804 -0.1196
 4504SOL    HW125145   3.732   0.145   7.784 -1.0324  1.0919 -0.5978
 4504SOL    HW225146   3.770   0.141   7.927 -1.1000  0.8335  0.5045
 4505SOL     OW25147   0.612   0.828  10.524 -0.3269  0.5646  0.1223
 4505SOL    HW125148   0.695   0.872  10.540 -0.7409  0.6027  2.2154
 4505SOL    HW225149   0.601   0.845  10.431  0.0349 -0.4978 -0.1122
 4506SOL     OW25150   2.495   4.137   4.083 -0.3854  0.3942  0.7359
 4506SOL    HW125151   2.503   4.113   4.175 -0.4898 -0.8066  0.4427
 4506SOL    HW225152   2.420   4.083   4.058  0.3066  0.7615 -2.1556
 4507SOL     OW25153   4.410   4.595   9.231  0.4441  0.3048  0.3703
 4507SOL    HW125154   4.455   4.557   9.155 -0.7448 -1.1019  0.3791
 4507SOL    HW225155   4.485   4.584   9.289  0.8416 -0.2729 -0.2526
 4508SOL     OW25156   1.650   1.484   6.089  0.2403 -0.5065  0.4237
 4508SOL    HW125157   1.618   1.458   6.003 -1.3835 -0.3873  0.9983
 4508SOL    HW225158   1.567   1.510   6.128  0.0975  1.0069 -0.9135
 4509SOL     OW25159   4.432   0.671   9.229  0.0527  0.4007 -0.8209
 4509SOL    HW125160   4.436   0.576   9.220 -0.9633  0.2886 -0.1350
 4509SOL    HW225161   4.458   0.716   9.148  1.3350 -1.5235 -1.4803
 4510SOL     OW25162   2.483   2.741   8.327 -0.3411  0.0677  0.2534
 4510SOL    HW125163   2.509   2.650   8.341  1.0206  0.1381 -1.8667
 4510SOL    HW225164   2.534   2.778   8.255 -1.0215 -0.5022 -0.5190
 4511SOL     OW25165   0.214   2.760   8.231 -1.1333  0.3913 -0.1693
 4511SOL    HW125166   0.188   2.814   8.307  0.5070  1.4170 -0.3414
 4511SOL    HW225167   0.142   2.785   8.173 -0.2314  0.9129 -1.0506
 4512SOL     OW25168   0.972   4.240   5.509 -0.0644  0.4426  0.3060
 4512SOL    HW125169   0.997   4.328   5.483  0.4877 -0.1738 -1.2399
 4512SOL    HW225170   0.898   4.267   5.563 -1.2970  0.5983 -1.4521
 4513SOL     OW25171   0.134   1.174  10.154  0.4143 -0.1595  0.5094
 4513SOL    HW125172   0.171   1.205  10.237 -2.2481 -0.0491  1.6678
 4513SOL    HW225173   0.041   1.195  10.161  0.7392  1.5116 -0.2140
 4514SOL     OW25174   3.710   3.744  13.297 -0.3811 -0.1139 -0.2766
 4514SOL    HW125175   3.645   3.808  13.325  0.8463  0.0866  2.0807
 4514SOL    HW225176   3.661   3.698  13.229 -1.9518  0.8551  0.2206
 4515SOL     OW25177   0.413   4.611   7.683 -0.4761  0.1098  0.3360
 4515SOL    HW125178   0.499   4.629   7.645  0.0007 -1.4860  0.6588
 4515SOL    HW225179   0.404   4.519   7.659  2.8498  0.6595 -2.9726
 4516SOL     OW25180   0.276   3.250   9.030 -0.2110  0.0327 -0.0456
 4516SOL    HW125181   0.346   3.296   9.077 -1.2052 -0.0308  1.5114
 4516SOL    HW225182   0.253   3.318   8.967  1.1562  1.8102  1.3647
 4517SOL     OW25183   2.818   2.790   5.092  0.3878 -0.1337 -0.1704
 4517SOL    HW125184   2.833   2.881   5.065  0.6253  0.2876  1.3604
 4517SOL    HW225185   2.730   2.805   5.126  0.2607  0.4723 -0.7677
 4518SOL     OW25186   1.700   3.735  16.358 -0.0558  0.5806 -0.0507
 4518SOL    HW125187   1.684   3.685  16.278 -1.0392 -1.0402  1.1636
 4518SOL    HW225188   1.792   3.759  16.350 -0.0012  0.5675  0.6022
 4519SOL     OW25189   1.889   3.990   4.346 -0.0996 -0.3317  0.7279
 4519SOL    HW125190   1.837   3.966   4.269 -0.2008  2.2423 -0.0019
 4519SOL    HW225191   1.949   3.916   4.348 -0.0208 -0.3487 -1.5573
 4520SOL     OW25192   2.869   3.861  11.169 -0.0058 -0.0563 -0.2193
 4520SOL    HW125193   2.947   3.812  11.195 -0.2987 -1.3736 -1.8076
 4520SOL    HW225194   2.805   3.825  11.231  0.8177 -1.8587 -0.4204
 4521SOL     OW25195   3.466   3.090   6.728 -0.2922  0.0253  0.1495
 4521SOL    HW125196   3.478   3.024   6.660  0.1249  0.6006 -0.3329
 4521SOL    HW225197   3.392   3.137   6.688 -0.5796  0.4323  1.1537
 4522SOL     OW25198   0.290   0.470  13.752  0.2574  0.4944 -0.2352
 4522SOL    HW125199   0.374   0.474  13.797  0.0621 -2.4468  0.3839
 4522SOL    HW225200   0.226   0.488  13.822  1.8018  1.6925  0.8544
 4523SOL     OW25201   4.001   4.303   6.447 -0.0916  0.0253  0.0178
 4523SOL    HW125202   4.069   4.235   6.449 -1.2274 -1.1432 -0.9102
 4523SOL    HW225203   4.023   4.366   6.515  2.0287  1.2586 -1.8493
 4524SOL     OW25204   2.585   0.604  13.985 -0.2091 -0.0124  0.6380
 4524SOL    HW125205   2.540   0.534  14.033  1.0478 -1.5891 -0.4794
 4524SOL    HW225206   2.671   0.562  13.984 -1.5336 -2.6457 -1.3629
 4525SOL     OW25207   4.611   2.926   2.929  0.0676  0.9646 -0.2586
 4525SOL    HW125208   4.532   2.966   2.891  0.7030  2.4864  0.0385
 4525SOL    HW225209   4.659   3.005   2.952  1.0142 -0.3388  2.1549
 4526SOL     OW25210   0.418   3.146   3.705  0.5843 -0.2535 -0.2966
 4526SOL    HW125211   0.478   3.073   3.718 -0.7596 -1.2687  0.2058
 4526SOL    HW225212   0.414   3.180   3.794 -3.2642 -1.3443 -0.0331
 4527SOL     OW25213   3.080   4.590   4.515 -0.0773  0.1403 -0.1320
 4527SOL    HW125214   3.031   4.554   4.441 -0.3511  0.8313 -0.2871
 4527SOL    HW225215   3.013   4.626   4.572  2.1525  2.4903  0.9977
 4528SOL     OW25216   3.404   0.231   4.549  0.6050  1.1837  0.0250
 4528SOL    HW125217   3.331   0.240   4.487 -0.4335 -0.8206  0.9677
 4528SOL    HW225218   3.357   0.215   4.631  1.7190 -0.1963  0.3971
 4529SOL     OW25219   4.085   3.378  12.200 -0.2268  0.7839 -0.1506
 4529SOL    HW125220   4.167   3.340  12.232 -1.2186 -1.5473 -0.3989
 4529SOL    HW225221   4.026   3.339  12.264  0.5868  1.0486  0.7692
 4530SOL     OW25222   2.504   1.701   6.474 -0.4809  0.2459  0.4506
 4530SOL    HW125223   2.562   1.746   6.536  0.7991 -1.8927  0.7879
 4530SOL    HW225224   2.501   1.611   6.508  1.1222  0.3951  0.9819
 4531SOL     OW25225   0.617   1.709  16.836 -0.2426 -0.2331  0.2952
 4531SOL    HW125226   0.686   1.644  16.839 -0.6872 -0.6805  0.7524
 4531SOL    HW225227   0.588   1.695  16.746 -2.8188 -0.6925  1.1970
 4532SOL     OW25228   0.760   1.279   4.153  0.4977 -0.2639  0.5632
 4532SOL    HW125229   0.812   1.259   4.076  1.5442  0.7334  1.0021
 4532SOL    HW225230   0.808   1.235   4.223 -1.5279 -0.2225  1.9889
 4533SOL     OW25231   3.626   4.044   7.122 -0.3214  0.4926 -0.7652
 4533SOL    HW125232   3.553   4.102   7.101 -1.4527 -1.2314 -1.6082
 4533SOL    HW225233   3.677   4.040   7.042 -2.7418  0.6324 -2.3325
 4534SOL     OW25234   0.149   2.616   6.397  0.0379  0.0285 -0.2706
 4534SOL    HW125235   0.180   2.692   6.348  1.2574 -0.4924 -0.3208
 4534SOL    HW225236   0.058   2.630   6.424 -0.2281 -0.2627 -1.0320
 4535SOL     OW25237   1.788   0.555  10.370 -0.4458  0.6791  0.1782
 4535SOL    HW125238   1.804   0.646  10.395 -1.3621  0.9627 -0.2648
 4535SOL    HW225239   1.738   0.564  10.288 -2.0961  0.3247  1.1518
 4536SOL     OW25240   1.396   3.048  13.658  0.5619 -0.0578 -0.0117
 4536SOL    HW125241   1.358   2.967  13.692  1.0546 -0.5748 -0.6867
 4536SOL    HW225242   1.347   3.058  13.576 -0.8026  0.6747  0.8890
 4537SOL     OW25243   2.879   2.251   2.831  0.6533  0.3322  0.2436
 4537SOL    HW125244   2.798   2.212   2.801  1.3218 -0.8384 -0.0517
 4537SOL    HW225245   2.932   2.182   2.870  2.5040  1.0811 -0.9307
 4538SOL     OW25246   0.589   2.586   5.319  1.2516 -0.1204 -0.1189
 4538SOL    HW125247   0.537   2.511   5.289  0.8416  0.1448 -0.0770
 4538SOL    HW225248   0.588   2.581   5.415  0.5192  1.4221 -0.0475
 4539SOL     OW25249   2.407   3.442   8.991 -0.6130 -0.0387 -0.5234
 4539SOL    HW125250   2.443   3.401   8.912 -2.0770 -1.2423 -0.5470
 4539SOL    HW225251   2.477   3.502   9.018 -1.4334  1.3568 -1.4918
 4540SOL     OW25252   3.626   2.794   9.449 -0.2308 -0.0639  0.0671
 4540SOL    HW125253   3.607   2.703   9.427 -0.3273 -0.1628  0.5539
 4540SOL    HW225254   3.568   2.827   9.381  0.4412  1.5539  0.2810
 4541SOL     OW25255   0.714   4.319   7.168 -0.2845 -0.4274  0.4399
 4541SOL    HW125256   0.674   4.264   7.101  0.3724 -1.6115  1.0259
 4541SOL    HW225257   0.627   4.339   7.201  0.6116  0.5213  2.2326
 4542SOL     OW25258   2.904   3.675   3.874 -0.2243  0.0862  0.0983
 4542SOL    HW125259   2.918   3.683   3.780  1.2344  2.1813  0.4866
 4542SOL    HW225260   2.957   3.596   3.889  1.6184  1.6525  1.8002
 4543SOL     OW25261   0.920   3.306  10.071  0.1454 -0.2298 -0.3049
 4543SOL    HW125262   0.895   3.224  10.030 -0.4989 -0.2265  0.0752
 4543SOL    HW225263   0.891   3.368  10.004 -1.4008 -2.0340 -1.2961
 4544SOL     OW25264   2.763   3.367   5.529  0.1358  0.0932 -0.5020
 4544SOL    HW125265   2.710   3.392   5.453  2.5129  1.0221 -1.8350
 4544SOL    HW225266   2.763   3.448   5.579 -1.4783 -1.2310  1.6349
 4545SOL     OW25267   1.164   2.473   0.268  0.3762 -0.1660  0.0184
 4545SOL    HW125268   1.125   2.421   0.198  1.8053  0.6725 -1.4069
 4545SOL    HW225269   1.246   2.508   0.233  0.4935  0.0100  0.4637
 4546SOL     OW25270   0.072   2.834   3.832  0.0756 -0.0774 -0.0869
 4546SOL    HW125271   4.726   2.806   3.857  0.7647 -0.2951  2.1288
 4546SOL    HW225272   0.120   2.828   3.915  0.2215 -2.3079 -0.3329
 4547SOL     OW25273   1.212   3.689   4.503 -0.2073  0.4045  0.4525
 4547SOL    HW125274   1.272   3.626   4.543 -0.1988 -0.7457 -1.4036
 4547SOL    HW225275   1.244   3.711   4.416 -1.0222 -1.6894 -0.3754
 4548SOL     OW25276   1.697   1.115   1.071 -0.8042  0.2305 -0.5510
 4548SOL    HW125277   1.634   1.127   1.142  0.7372 -0.6538  0.9564
 4548SOL    HW225278   1.703   1.202   1.031 -0.1740 -0.0450 -1.0562
 4549SOL     OW25279   2.508   2.881  13.497 -0.1346  0.0574  0.1889
 4549SOL    HW125280   2.435   2.872  13.436  0.4971 -3.6124 -0.0088
 4549SOL    HW225281   2.587   2.883  13.443 -0.2736 -1.1311 -0.0544
 4550SOL     OW25282   2.248   2.274   6.292  0.0912 -0.4989 -0.2508
 4550SOL    HW125283   2.231   2.343   6.356 -1.8537 -0.7879 -0.4633
 4550SOL    HW225284   2.183   2.207   6.309 -0.7028  0.3176 -0.0640
 4551SOL     OW25285   3.296   3.077   4.682 -0.1976 -0.0068  0.1457
 4551SOL    HW125286   3.215   3.086   4.632  0.4875  2.8653 -0.4270
 4551SOL    HW225287   3.286   2.996   4.732  4.3729 -0.5328  0.2253
 4552SOL     OW25288   0.185   0.775  11.019 -0.2561  0.0308 -0.0013
 4552SOL    HW125289   0.210   0.728  11.098 -0.2736  1.4984  0.8631
 4552SOL    HW225290   0.184   0.862  11.057 -3.5853  0.0360 -0.1089
 4553SOL     OW25291   1.375   1.917   5.077  0.3281  0.0485  0.6204
 4553SOL    HW125292   1.468   1.892   5.078  0.2587 -0.4155 -3.8043
 4553SOL    HW225293   1.346   1.874   5.157  1.4609 -1.5241  0.1772
 4554SOL     OW25294   3.540   2.744   4.250  0.0799  0.1655  0.0582
 4554SOL    HW125295   3.496   2.660   4.234 -0.4012  0.4898 -0.3294
 4554SOL    HW225296   3.495   2.805   4.192 -0.6067 -1.3667 -1.0130
 4555SOL     OW25297   1.600   4.302   7.344 -0.4304 -0.1217 -0.6396
 4555SOL    HW125298   1.557   4.235   7.398  0.0062  1.1963  1.3301
 4555SOL    HW225299   1.596   4.261   7.257  2.5873  0.5157 -1.0723
 4556SOL     OW25300   1.559   2.930   6.424  0.2279  0.4064  0.3199
 4556SOL    HW125301   1.648   2.962   6.437  1.1597 -1.6584 -0.7656
 4556SOL    HW225302   1.515   3.011   6.398 -0.2965  0.1107  0.2760
 4557SOL     OW25303   4.035   2.098  16.524  0.5442  0.1337  0.3221
 4557SOL    HW125304   3.965   2.093  16.460  0.2594 -3.0153  0.9020
 4557SOL    HW225305   4.096   2.038  16.482  0.1895 -0.8582  1.2081
 4558SOL     OW25306   2.664   3.965   6.158  0.3640  0.1119  0.5904
 4558SOL    HW125307   2.662   3.929   6.069 -0.0502  1.7323 -0.0730
 4558SOL    HW225308   2.617   3.900   6.210  1.4742 -1.5267 -0.4530
 4559SOL     OW25309   1.596   1.146   8.705  0.8192  0.4330  0.0435
 4559SOL    HW125310   1.513   1.155   8.658 -0.3276 -1.6843  1.6623
 4559SOL    HW225311   1.608   1.238   8.728 -0.3817 -0.0263  2.4727
 4560SOL     OW25312   1.245   1.279  14.595 -0.2334  0.5699  0.3150
 4560SOL    HW125313   1.260   1.282  14.500 -2.9622 -1.6645 -0.1882
 4560SOL    HW225314   1.314   1.222  14.631 -0.0306 -0.0152 -0.9921
 4561SOL     OW25315   0.494   1.186   4.089  0.7078  0.3570  0.1207
 4561SOL    HW125316   0.578   1.175   4.134  0.4684 -1.4418  0.1214
 4561SOL    HW225317   0.439   1.111   4.112  0.6088  1.2126  2.6714
 4562SOL     OW25318   0.631   0.376   9.541 -0.2208  0.6921 -0.3469
 4562SOL    HW125319   0.584   0.344   9.464 -1.3097 -0.3433  0.7502
 4562SOL    HW225320   0.609   0.468   9.553 -1.1665  0.4236 -0.0193
 4563SOL     OW25321   3.266   3.477   2.131 -0.0570  0.2773 -0.1281
 4563SOL    HW125322   3.346   3.425   2.133  1.0939  1.9655 -1.5206
 4563SOL    HW225323   3.214   3.404   2.166  0.3543 -0.3179 -0.7596
 4564SOL     OW25324   1.873   0.225   7.109  0.0042 -0.4237 -0.1819
 4564SOL    HW125325   1.828   0.142   7.122 -1.2346  0.3872  0.7223
 4564SOL    HW225326   1.967   0.205   7.105  0.4947  1.9053 -0.5911
 4565SOL     OW25327   4.076   0.306   5.651  0.1418  0.0663 -0.3035
 4565SOL    HW125328   4.067   0.250   5.574 -2.0083 -0.6838  0.5106
 4565SOL    HW225329   3.984   0.329   5.664  0.1881  0.6259 -0.9330
 4566SOL     OW25330   3.287   3.408   2.675  0.6437 -0.2201  0.4118
 4566SOL    HW125331   3.255   3.323   2.705  0.1423  0.6541  2.3849
 4566SOL    HW225332   3.298   3.453   2.759 -0.9921  1.4059 -0.2404
 4567SOL     OW25333   1.647   1.823   9.545  0.0104  0.1732 -0.8817
 4567SOL    HW125334   1.678   1.774   9.469 -0.1275 -0.8594 -0.2660
 4567SOL    HW225335   1.638   1.914   9.517  0.1278  0.2018 -0.8277
 4568SOL     OW25336   1.290   2.800   3.301 -0.2385 -0.4417  0.0771
 4568SOL    HW125337   1.210   2.832   3.259 -0.0758  2.8076  2.2794
 4568SOL    HW225338   1.258   2.727   3.354 -3.1594 -1.0549 -2.4869
 4569SOL     OW25339   1.079   1.989   5.189 -0.0310 -0.4007  0.2546
 4569SOL    HW125340   1.031   2.043   5.251  0.6452  1.1019 -0.5221
 4569SOL    HW225341   1.045   1.901   5.203 -2.0291  0.3974  0.4574
 4570SOL     OW25342   3.734   2.925   0.477 -0.0760 -0.2829 -0.7576
 4570SOL    HW125343   3.779   2.852   0.518 -0.9905 -0.5229 -0.1967
 4570SOL    HW225344   3.777   2.998   0.522  0.4833 -0.5051 -0.9355
 4571SOL     OW25345   4.157   1.286   5.187 -0.1533  0.5263  0.1239
 4571SOL    HW125346   4.172   1.252   5.275 -0.1798  1.3466  0.4450
 4571SOL    HW225347   4.064   1.271   5.172 -0.3905  0.0209  2.2460
 4572SOL     OW25348   3.608   4.605   4.714 -0.1817  0.4558  0.0081
 4572SOL    HW125349   3.577   4.599   4.624  1.7172 -2.8214 -0.4261
 4572SOL    HW225350   3.668   4.532   4.728  0.4632  0.5956 -2.0283
 4573SOL     OW25351   0.958   0.473   2.910 -0.5900  0.0000 -0.1626
 4573SOL    HW125352   0.964   0.542   2.843 -0.0497 -0.1138 -0.2275
 4573SOL    HW225353   0.968   0.400   2.849 -0.2829 -0.1964  0.1201
 4574SOL     OW25354   4.694   3.387   5.311  0.2399  0.5018 -0.3299
 4574SOL    HW125355   4.699   3.457   5.246 -1.2491  1.6483  0.7871
 4574SOL    HW225356   4.672   3.315   5.251  0.3879 -0.0335  0.2572
 4575SOL     OW25357   2.786   2.576   4.421  0.3471  0.4332 -0.1605
 4575SOL    HW125358   2.713   2.579   4.483 -0.2343 -0.6961 -0.7951
 4575SOL    HW225359   2.740   2.618   4.348 -2.1043 -1.0867  0.4883
 4576SOL     OW25360   0.126   0.231   6.419 -0.1951 -0.1667  0.1187
 4576SOL    HW125361   0.138   0.241   6.324  1.3337  1.6909  0.5076
 4576SOL    HW225362   0.031   0.236   6.429 -0.2516  0.0658 -0.5498
 4577SOL     OW25363   2.827   2.862  15.425 -0.1265 -0.2226 -0.3060
 4577SOL    HW125364   2.862   2.801  15.489 -0.2013 -0.9372 -0.9463
 4577SOL    HW225365   2.759   2.905  15.476  0.5499  0.2768  0.1745
 4578SOL     OW25366   2.968   4.580   0.686  0.0402 -0.3169  0.3290
 4578SOL    HW125367   2.887   4.566   0.637  0.8113  0.8642 -1.2916
 4578SOL    HW225368   2.967   4.670   0.716  3.3622  0.2317 -1.1623
 4579SOL     OW25369   3.516   1.479   7.698  0.0361  0.2059 -0.4101
 4579SOL    HW125370   3.555   1.403   7.741 -0.5661  0.9669  1.4939
 4579SOL    HW225371   3.421   1.468   7.705  0.1455  0.8133  1.8513
 4580SOL     OW25372   0.754   0.223   6.803  0.5429  0.2894  0.3055
 4580SOL    HW125373   0.697   0.300   6.811  1.1054  0.5912  1.2743
 4580SOL    HW225374   0.688   0.165   6.764  1.3550  0.7249 -1.7101
 4581SOL     OW25375   2.176   0.472   2.595 -0.1634 -0.2572  0.1945
 4581SOL    HW125376   2.207   0.493   2.507  0.2977  1.3423  0.7469
 4581SOL    HW225377   2.080   0.469   2.595 -0.1823  0.5784  3.3982
 4582SOL     OW25378   0.827   1.870  11.565 -0.3951  0.0746 -0.3455
 4582SOL    HW125379   0.774   1.945  11.590  1.0889  0.5028  1.5643
 4582SOL    HW225380   0.776   1.846  11.488 -0.8513  1.2421 -0.4064
 4583SOL     OW25381   2.661   0.313  15.024 -0.3913 -0.3198  0.4249
 4583SOL    HW125382   2.717   0.287  14.951 -1.7496  2.1471 -1.4885
 4583SOL    HW225383   2.587   0.328  14.965  0.1352 -0.1317 -0.1875
 4584SOL     OW25384   2.746   2.181  11.301  0.3148  0.3775  0.1091
 4584SOL    HW125385   2.791   2.262  11.328  0.9937  0.1860 -0.4673
 4584SOL    HW225386   2.652   2.200  11.305  0.3068  0.6677 -1.6410
 4585SOL     OW25387   3.737   4.396   6.305 -0.4455  0.3203 -0.1518
 4585SOL    HW125388   3.663   4.390   6.365  0.2126 -0.7451  0.5469
 4585SOL    HW225389   3.805   4.336   6.336  0.4418  1.0157 -0.7407
 4586SOL     OW25390   2.757   0.535   7.757 -0.1735 -0.3119  0.6016
 4586SOL    HW125391   2.682   0.593   7.773 -1.5949 -1.2745 -2.6432
 4586SOL    HW225392   2.724   0.451   7.789  0.0078 -1.2374 -1.6482
 4587SOL     OW25393   4.532   1.774   9.118 -0.1924  0.2886 -0.0235
 4587SOL    HW125394   4.585   1.694   9.122  1.5013  1.3929 -0.6266
 4587SOL    HW225395   4.469   1.755   9.048 -0.4610  1.8021 -0.1742
 4588SOL     OW25396   3.150   4.678   9.307  0.2985  0.0191  0.2735
 4588SOL    HW125397   3.094   4.608   9.274  1.6640 -0.5001 -0.9197
 4588SOL    HW225398   3.140   0.005   9.241 -0.9292 -0.1314  0.3102
 4589SOL     OW25399   2.927   3.963   6.270 -0.2045 -0.4214 -0.5288
 4589SOL    HW125400   2.858   3.953   6.205 -1.3746  1.0426  0.4970
 4589SOL    HW225401   2.886   4.021   6.335  0.9335 -1.2454  0.9235
 4590SOL     OW25402   1.852   1.007  12.462 -0.3239 -0.4615 -0.4668
 4590SOL    HW125403   1.804   0.931  12.429  0.5267 -0.2400 -2.2457
 4590SOL    HW225404   1.785   1.049  12.516  0.4602 -3.3091  2.7084
 4591SOL     OW25405   2.376   1.766   1.520 -0.3778 -0.2920 -0.1423
 4591SOL    HW125406   2.417   1.811   1.593  1.1004  1.7130 -2.2456
 4591SOL    HW225407   2.323   1.840   1.490  2.1758  0.9864 -1.4964
 4592SOL     OW25408   3.728   0.072   3.638  0.0988  0.4081 -0.3398
 4592SOL    HW125409   3.789   0.110   3.701 -0.5817  2.4399 -0.8836
 4592SOL    HW225410   3.656   0.136   3.631  0.3091  0.6273 -0.5170
 4593SOL     OW25411   2.867   0.122  15.638  0.5422 -0.0086 -0.3129
 4593SOL    HW125412   2.962   0.121  15.627  0.6283  0.6466  0.3144
 4593SOL    HW225413   2.845   0.177  15.563  1.1154  1.4440  0.5700
 4594SOL     OW25414   0.870   4.534  12.237 -0.4306  0.2199 -0.5288
 4594SOL    HW125415   0.789   4.483  12.243 -1.1589  1.2648 -1.6274
 4594SOL    HW225416   0.850   4.606  12.178  2.5014  0.2334 -1.5147
 4595SOL     OW25417   1.116   4.191   3.768  0.1543  0.2597  0.5660
 4595SOL    HW125418   1.102   4.283   3.744 -2.7334 -0.5668 -0.9367
 4595SOL    HW225419   1.026   4.160   3.760  0.8726 -1.3330 -1.2504
 4596SOL     OW25420   1.962   0.290   1.533 -0.5221  0.2061  0.0638
 4596SOL    HW125421   2.042   0.284   1.584 -0.7841  2.4299  0.7412
 4596SOL    HW225422   1.952   0.195   1.526 -0.1104  0.2136 -0.6399
 4597SOL     OW25423   2.218   1.983   4.035  0.3866  0.0595  0.4773
 4597SOL    HW125424   2.193   1.968   3.943  0.3904 -1.0227  0.6601
 4597SOL    HW225425   2.268   2.064   4.027 -0.2611  0.4154 -0.0318
 4598SOL     OW25426   1.100   0.059  10.683 -0.0070 -0.0799  0.4208
 4598SOL    HW125427   1.068   0.146  10.705 -1.7182  0.1454 -2.7994
 4598SOL    HW225428   1.048   0.001  10.740 -0.3062 -0.7058 -0.4782
 4599SOL     OW25429   4.185   0.648   4.573  0.2244 -0.2071 -0.0537
 4599SOL    HW125430   4.106   0.594   4.578 -0.3506  0.6285 -0.1822
 4599SOL    HW225431   4.173   0.690   4.488 -1.1035  1.5168  0.9768
 4600SOL     OW25432   3.645   2.488  11.414 -0.1373  0.5159  0.3718
 4600SOL    HW125433   3.661   2.576  11.450  0.1050  0.6689 -0.1217
 4600SOL    HW225434   3.628   2.457  11.503 -0.1222  1.0722  0.5732
 4601SOL     OW25435   2.683   0.763   2.693 -0.2170 -0.4415  0.0707
 4601SOL    HW125436   2.635   0.803   2.621 -0.0755 -2.4542 -1.1427
 4601SOL    HW225437   2.775   0.780   2.673 -0.0010  0.4837  1.8130
 4602SOL     OW25438   2.366   3.693   7.071 -0.3514 -0.6301 -0.1162
 4602SOL    HW125439   2.384   3.703   7.164  0.0626  0.9422 -0.3651
 4602SOL    HW225440   2.436   3.627   7.065  0.8717  0.6330  0.1225
 4603SOL     OW25441   4.448   3.462   8.365  0.5041 -0.0068 -0.2407
 4603SOL    HW125442   4.376   3.403   8.344  0.8838 -0.3985 -0.4455
 4603SOL    HW225443   4.402   3.540   8.336  0.3412  0.0119  0.0709
 4604SOL     OW25444   4.176   3.566   1.627 -0.0840 -0.2641 -0.1122
 4604SOL    HW125445   4.198   3.575   1.534 -1.2158 -0.2177 -0.3707
 4604SOL    HW225446   4.170   3.660   1.646 -0.3677 -0.5615  1.2246
 4605SOL     OW25447   4.715   4.081   1.104 -0.2007  0.1809  0.2480
 4605SOL    HW125448   4.671   3.999   1.126 -1.3744  0.5782 -0.6505
 4605SOL    HW225449   4.671   4.142   1.163 -0.1604  1.1673 -0.7496
 4606SOL     OW25450   3.358   4.208   5.912 -0.4123 -0.2163 -0.1885
 4606SOL    HW125451   3.417   4.254   5.971 -0.2435 -0.5238 -0.1191
 4606SOL    HW225452   3.424   4.161   5.861  0.4010 -1.5460  2.0871
 4607SOL     OW25453   2.576   4.393   5.246 -0.2917 -0.0891 -0.4413
 4607SOL    HW125454   2.562   4.307   5.207  0.9702 -0.2748 -0.4626
 4607SOL    HW225455   2.553   4.454   5.176 -2.0553  1.2449  1.2780
 4608SOL     OW25456   2.968   0.342  10.455  0.5280  0.3625 -0.3027
 4608SOL    HW125457   2.886   0.372  10.493  0.7537 -0.9395  1.2151
 4608SOL    HW225458   3.020   0.367  10.531  0.8344 -0.6525 -0.1739
 4609SOL     OW25459   3.685   0.241  13.928 -0.1040  0.9502  0.2589
 4609SOL    HW125460   3.773   0.221  13.960 -0.1772 -0.9034 -0.6626
 4609SOL    HW225461   3.633   0.224  14.007  1.2845 -2.2608  0.4749
 4610SOL     OW25462   2.384   3.043   7.598  0.0719 -0.6945 -0.0548
 4610SOL    HW125463   2.291   3.067   7.595 -0.0307 -1.1430 -0.5414
 4610SOL    HW225464   2.400   3.041   7.692 -0.2670  2.1203  0.0725
 4611SOL     OW25465   3.140   1.336  12.305 -0.1615 -0.6248  0.0481
 4611SOL    HW125466   3.131   1.411  12.247 -1.5418 -0.5775  0.3312
 4611SOL    HW225467   3.141   1.370  12.394  0.2491 -1.6270  0.4323
 4612SOL     OW25468   0.979   1.805   4.692 -0.0244 -0.3162  0.2684
 4612SOL    HW125469   0.902   1.844   4.733 -0.3303 -0.9551  0.2892
 4612SOL    HW225470   1.039   1.799   4.766 -0.0065  0.6848  0.3367
 4613SOL     OW25471   0.625   3.743   8.924 -0.3899  0.0359  0.0719
 4613SOL    HW125472   0.633   3.738   8.829 -2.5408 -2.2204  0.0328
 4613SOL    HW225473   0.678   3.671   8.957 -1.3180 -0.1485  1.1303
 4614SOL     OW25474   3.421   3.690  14.036 -0.0723  0.1115  0.3110
 4614SOL    HW125475   3.463   3.755  13.980  0.9054 -1.9478 -1.3145
 4614SOL    HW225476   3.384   3.632  13.970  1.0896 -0.3229  0.0356
 4615SOL     OW25477   0.699   4.117   5.710  0.0832 -0.2879  0.4871
 4615SOL    HW125478   0.751   4.197   5.712  0.1043 -0.2835 -0.4707
 4615SOL    HW225479   0.611   4.141   5.680  0.4894 -0.5160 -0.8955
 4616SOL     OW25480   4.678   4.362   5.136  0.1337  0.6428  0.0177
 4616SOL    HW125481   4.616   4.356   5.209 -2.9103  1.6859 -2.5051
 4616SOL    HW225482   4.716   4.448   5.156 -0.5769  0.4365  2.2622
 4617SOL     OW25483   0.649   3.374   1.799 -0.2782  0.6325  0.4139
 4617SOL    HW125484   0.646   3.396   1.892  1.0224 -0.1715  0.6414
 4617SOL    HW225485   0.733   3.329   1.797 -0.1143  0.9461  0.2186
 4618SOL     OW25486   0.272   0.056  11.560 -0.7984  0.6262  0.8495
 4618SOL    HW125487   0.322   0.137  11.552 -1.2542  0.7865 -0.4668
 4618SOL    HW225488   0.182   0.086  11.552 -1.1425 -1.3742 -2.9393
 4619SOL     OW25489   3.222   0.609   8.548  0.6027 -0.5687 -0.0103
 4619SOL    HW125490   3.194   0.609   8.456  1.1508  1.7772 -0.1782
 4619SOL    HW225491   3.199   0.701   8.560 -0.3301 -0.8439  0.3691
 4620SOL     OW25492   3.753   0.552   6.447 -0.0044 -0.3710 -0.7840
 4620SOL    HW125493   3.745   0.629   6.503 -4.5441 -0.8884 -0.7719
 4620SOL    HW225494   3.785   0.489   6.511 -0.5410  0.9054  0.7439
 4621SOL     OW25495   4.322   0.178  12.227  0.1527 -0.4778 -0.3792
 4621SOL    HW125496   4.255   0.114  12.204  1.7897 -2.0382 -0.8380
 4621SOL    HW225497   4.397   0.121  12.246  0.8960  0.5202 -0.2757
 4622SOL     OW25498   1.517   2.448   9.191  0.1961 -0.3430 -0.1535
 4622SOL    HW125499   1.604   2.424   9.159  0.7710  1.2384  0.2722
 4622SOL    HW225500   1.468   2.421   9.113 -1.7143  0.9076  0.6354
 4623SOL     OW25501   3.179   4.651   9.589  0.2458 -0.1650 -0.2618
 4623SOL    HW125502   3.108   4.590   9.569 -0.7142  0.1213  2.2590
 4623SOL    HW225503   3.170   4.688   9.501  3.2820  1.0408 -0.0548
 4624SOL     OW25504   4.560   3.718   0.443 -0.3006 -0.2247  0.3887
 4624SOL    HW125505   4.545   3.654   0.373  0.6510 -2.6740  2.4196
 4624SOL    HW225506   4.470   3.749   0.454 -0.7649 -0.8381 -1.5912
 4625SOL     OW25507   1.837   3.716  14.826  0.2513 -0.3219  0.3358
 4625SOL    HW125508   1.910   3.656  14.813  0.4107  0.1602 -0.9651
 4625SOL    HW225509   1.768   3.658  14.793 -1.5364  1.8014  0.2855
 4626SOL     OW25510   2.823   1.410   8.978 -0.0921  0.4030  0.5707
 4626SOL    HW125511   2.827   1.420   9.073 -0.0600  0.3301  0.5774
 4626SOL    HW225512   2.910   1.432   8.944  0.3794 -2.1805  0.1054
 4627SOL     OW25513   1.717   4.043  17.188 -0.7061  0.6638  0.1762
 4627SOL    HW125514   1.805   4.034  17.153 -0.4993 -0.9755  1.1298
 4627SOL    HW225515   1.678   3.979  17.129  1.3275  0.9937 -1.5161
 4628SOL     OW25516   0.957   3.665   8.806 -0.3074 -0.2471  0.7039
 4628SOL    HW125517   0.902   3.699   8.736  1.3358 -2.9645 -1.9223
 4628SOL    HW225518   0.941   3.736   8.868  1.4706  1.4126 -0.7282
 4629SOL     OW25519   2.999   2.427  17.076 -0.3912  0.1579  0.9289
 4629SOL    HW125520   3.082   2.468  17.053 -0.7604  0.7118  0.5925
 4629SOL    HW225521   3.022   2.334  17.071  0.7798  0.5516 -0.8695
 4630SOL     OW25522   0.838   0.493  11.606 -0.0128 -0.0496  0.3342
 4630SOL    HW125523   0.920   0.506  11.559  0.9531  0.7491  2.2075
 4630SOL    HW225524   0.806   0.415  11.560 -1.6830 -0.3472  1.9810
 4631SOL     OW25525   0.553   2.392   8.388 -0.1015  0.0904 -0.6818
 4631SOL    HW125526   0.504   2.311   8.402 -0.1707  0.2144 -0.1879
 4631SOL    HW225527   0.495   2.447   8.440  0.5903  0.4960 -0.3435
 4632SOL     OW25528   0.608   2.671   9.054 -0.4233 -0.5048  0.4074
 4632SOL    HW125529   0.534   2.689   8.995  0.7703  0.0189 -0.9348
 4632SOL    HW225530   0.663   2.602   9.018 -1.0691 -0.9191  0.2006
 4633SOL     OW25531   2.007   0.429  16.285  0.7556 -0.0763 -0.0651
 4633SOL    HW125532   1.980   0.339  16.305  1.2073 -0.1779  0.0730
 4633SOL    HW225533   1.970   0.432  16.197  1.2061 -2.4567 -0.3282
 4634SOL     OW25534   3.510   2.083   4.196  0.2048  0.7984 -0.9794
 4634SOL    HW125535   3.590   2.071   4.247 -1.6901 -0.5136  1.7010
 4634SOL    HW225536   3.464   2.004   4.225 -0.8444  0.6864 -2.9711
 4635SOL     OW25537   0.612   3.204   5.071  0.0509 -0.8795  0.3983
 4635SOL    HW125538   0.660   3.242   4.998 -0.9329 -0.0238  0.1998
 4635SOL    HW225539   0.570   3.278   5.116 -1.0194 -1.0915 -0.2559
 4636SOL     OW25540   1.211   0.163  16.423  0.0082 -0.2103 -0.0113
 4636SOL    HW125541   1.233   0.254  16.405 -0.2671  0.3272  2.3254
 4636SOL    HW225542   1.159   0.175  16.502 -0.3077  1.0495 -0.4071
 4637SOL     OW25543   3.782   3.408   3.443  0.1204 -0.3716  0.3220
 4637SOL    HW125544   3.826   3.377   3.363  1.0067 -2.0986  1.4762
 4637SOL    HW225545   3.862   3.436   3.488 -1.2518  1.5767  1.5321
 4638SOL     OW25546   4.538   3.220  16.558  0.2929 -0.0898  0.2057
 4638SOL    HW125547   4.532   3.246  16.650 -1.0030  1.6690 -0.3644
 4638SOL    HW225548   4.447   3.195  16.544  0.3626  1.9127 -3.8046
 4639SOL     OW25549   3.731   1.457   3.838 -0.6475  0.2480  0.4266
 4639SOL    HW125550   3.711   1.531   3.780 -0.8500 -0.3123 -0.2078
 4639SOL    HW225551   3.726   1.384   3.777  0.0705 -0.1909  0.8934
 4640SOL     OW25552   0.729   3.034   8.915  0.6532  0.6876 -0.4229
 4640SOL    HW125553   0.798   2.967   8.914 -0.4122 -0.4113  0.0701
 4640SOL    HW225554   0.678   3.008   8.991 -0.7177 -0.8244 -1.8647
 4641SOL     OW25555   3.371   4.566   3.151 -0.0747  0.3631  0.0199
 4641SOL    HW125556   3.358   4.632   3.220 -0.2624  0.1010  0.2367
 4641SOL    HW225557   3.463   4.545   3.163  0.0758  1.8780  1.5445
 4642SOL     OW25558   4.335   1.571  10.025 -0.0947  0.4255 -0.8050
 4642SOL    HW125559   4.295   1.648  10.064 -0.1769  0.5783 -1.1929
 4642SOL    HW225560   4.400   1.617   9.971 -0.1514  1.3262 -0.0881
 4643SOL     OW25561   2.465   3.750   8.058  0.0790  0.2275 -0.5674
 4643SOL    HW125562   2.410   3.705   8.122  2.4961 -0.4331  1.0253
 4643SOL    HW225563   2.410   3.812   8.009  0.8044 -0.7286 -2.6086
 4644SOL     OW25564   2.642   1.867   2.159  0.3794 -0.7862 -0.7823
 4644SOL    HW125565   2.570   1.817   2.120  1.0955 -1.9537 -0.6045
 4644SOL    HW225566   2.635   1.838   2.250 -4.0404  0.9069 -0.6116
 4645SOL     OW25567   3.658   1.131   5.350 -0.1698  0.1675  0.0366
 4645SOL    HW125568   3.664   1.065   5.419 -0.8375 -0.5680 -0.6068
 4645SOL    HW225569   3.612   1.196   5.404 -2.8795 -1.6975 -0.0115
 4646SOL     OW25570   2.797   0.822   1.273  1.2662 -0.5048 -0.3851
 4646SOL    HW125571   2.892   0.831   1.276  1.2465 -0.1018 -1.1849
 4646SOL    HW225572   2.774   0.914   1.281  0.6150 -0.9862  3.1859
 4647SOL     OW25573   0.094   0.290   2.021 -0.5826  0.2761 -0.3075
 4647SOL    HW125574   0.073   0.329   2.106 -0.5221 -2.9511  1.2223
 4647SOL    HW225575   0.041   0.210   2.019 -1.0586  0.6009 -0.4279
 4648SOL     OW25576   2.727   3.295   8.545  1.0124  0.0541  0.3706
 4648SOL    HW125577   2.808   3.261   8.506 -0.1172 -0.2271 -1.7677
 4648SOL    HW225578   2.679   3.215   8.566 -1.8722  2.1420  1.7033
 4649SOL     OW25579   4.327   4.297   9.490  0.0295  0.1661  0.1257
 4649SOL    HW125580   4.419   4.313   9.510 -0.1779  0.5600  0.7752
 4649SOL    HW225581   4.345   4.236   9.419  2.6112  0.4937  0.4928
 4650SOL     OW25582   4.388   2.520   2.843  0.0792  0.6028 -0.1418
 4650SOL    HW125583   4.294   2.539   2.847  0.1629  0.6697  1.3015
 4650SOL    HW225584   4.405   2.530   2.936  1.6190  1.5730 -0.5399
 4651SOL     OW25585   1.186   2.485   0.926 -0.5876  0.2306 -0.4208
 4651SOL    HW125586   1.267   2.529   0.950 -0.6312  0.9144 -1.5222
 4651SOL    HW225587   1.149   2.545   0.860  2.0188  2.7341  0.4076
 4652SOL     OW25588   0.962   1.076   2.986  0.2527 -0.4916 -0.1291
 4652SOL    HW125589   1.039   1.122   2.952 -0.0921 -0.8900 -1.4219
 4652SOL    HW225590   0.898   1.073   2.915  1.8431 -0.4500 -1.5524
 4653SOL     OW25591   4.060   3.247   4.780 -0.0520  0.0347  0.2263
 4653SOL    HW125592   3.999   3.177   4.758  1.5470 -2.1094  2.5772
 4653SOL    HW225593   4.007   3.325   4.797 -0.0708  0.5006 -1.9519
 4654SOL     OW25594   2.566   3.380  13.231  0.3273  0.2093 -0.0304
 4654SOL    HW125595   2.480   3.352  13.265 -0.0190  0.3655 -0.7798
 4654SOL    HW225596   2.588   3.309  13.171 -1.2596 -2.2620  2.3149
 4655SOL     OW25597   3.658   4.055   9.901  0.1629  0.5715  0.3749
 4655SOL    HW125598   3.729   4.119   9.899 -0.6091  1.5924  4.8218
 4655SOL    HW225599   3.700   3.970   9.891  1.1268  1.3071 -1.6980
 4656SOL     OW25600   2.686   0.168   7.092  0.2556  0.2991 -0.1974
 4656SOL    HW125601   2.738   0.187   7.170  0.1039 -0.6257  0.1276
 4656SOL    HW225602   2.621   0.107   7.128 -0.6554  1.3546 -0.0285
 4657SOL     OW25603   2.991   3.495   3.250 -0.0415  0.1274 -0.3245
 4657SOL    HW125604   3.081   3.462   3.257  0.2522  0.9720 -0.0355
 4657SOL    HW225605   2.937   3.419   3.231 -1.4973  1.0553  0.1093
 4658SOL     OW25606   4.738   2.659  11.443  0.3740 -0.9903 -0.0627
 4658SOL    HW125607   0.070   2.694  11.393 -0.0932 -0.2457 -0.2315
 4658SOL    HW225608   0.010   2.692  11.532 -2.8305  0.1284 -0.0041
 4659SOL     OW25609   3.298   1.430   5.285 -0.1894  0.7846  0.1359
 4659SOL    HW125610   3.257   1.397   5.205 -1.8542 -1.6213  1.9474
 4659SOL    HW225611   3.245   1.509   5.296 -0.0706  1.1977 -2.2690
 4660SOL     OW25612   3.193   1.815   6.584  0.3047  0.0253  0.6542
 4660SOL    HW125613   3.176   1.802   6.490 -0.1391 -2.0885  1.0226
 4660SOL    HW225614   3.104   1.811   6.618  0.0195  0.5759 -0.0505
 4661SOL     OW25615   1.244   3.900   0.242 -0.0118  1.0087  0.5816
 4661SOL    HW125616   1.195   3.872   0.165  0.3600 -2.0271  1.4461
 4661SOL    HW225617   1.330   3.918   0.204  0.1043  0.5270  0.6229
 4662SOL     OW25618   1.547   3.834   8.154 -0.0626  0.2891  0.1170
 4662SOL    HW125619   1.459   3.872   8.155 -0.7295 -1.2484  1.9529
 4662SOL    HW225620   1.549   3.763   8.219 -0.6857  2.2030  2.2232
 4663SOL     OW25621   0.373   3.601  13.840  0.3067  0.1832  0.1545
 4663SOL    HW125622   0.450   3.657  13.832 -0.4356  0.7423 -3.1491
 4663SOL    HW225623   0.402   3.524  13.792  2.0252  0.4644  0.7165
 4664SOL     OW25624   4.324   3.254   8.734  0.2518  0.2436 -0.2345
 4664SOL    HW125625   4.303   3.176   8.785  0.8882  0.4583  0.3505
 4664SOL    HW225626   4.402   3.273   8.786 -0.4338 -2.5461  1.7598
 4665SOL     OW25627   1.328   1.150   8.668 -0.0547  0.2641 -0.4341
 4665SOL    HW125628   1.310   1.075   8.611  2.2569 -2.0318  1.8372
 4665SOL    HW225629   1.257   1.206   8.639 -0.4053  0.4313  0.7290
 4666SOL     OW25630   2.945   1.218   4.931  0.5530  0.9117  0.0280
 4666SOL    HW125631   2.861   1.175   4.911  0.7839  0.2155  0.5624
 4666SOL    HW225632   2.919   1.301   4.971 -0.2644 -0.0757  1.5303
 4667SOL     OW25633   0.814   2.538  16.917 -0.5175 -0.0889 -0.1982
 4667SOL    HW125634   0.735   2.578  16.882  0.2198  0.6701 -0.9958
 4667SOL    HW225635   0.876   2.607  16.941 -0.0020  0.2556 -2.5088
 4668SOL     OW25636   0.200   4.023   1.409  0.0129  0.0479  0.1048
 4668SOL    HW125637   0.233   4.085   1.344 -1.3449  0.9466  0.2662
 4668SOL    HW225638   0.260   3.950   1.391 -0.4047 -0.4192  0.6060
 4669SOL     OW25639   1.052   4.269   1.261 -0.0885 -0.4395 -0.2827
 4669SOL    HW125640   1.009   4.184   1.274 -1.4586  0.4945  1.3175
 4669SOL    HW225641   0.969   4.316   1.262 -0.3012 -0.8193  0.1020
 4670SOL     OW25642   2.480   1.415   6.127  0.5942  0.0974  0.1208
 4670SOL    HW125643   2.403   1.468   6.108 -0.5846 -1.0986  1.5511
 4670SOL    HW225644   2.551   1.477   6.142  0.9709 -0.1570 -0.6085
 4671SOL     OW25645   2.154   3.724  10.988 -0.8110  0.4848  0.6019
 4671SOL    HW125646   2.241   3.708  10.952 -1.0326  0.8068 -0.0627
 4671SOL    HW225647   2.182   3.796  11.045  1.3795 -0.8069  1.2155
 4672SOL     OW25648   2.665   0.388  16.802 -0.2687 -0.2838 -0.8002
 4672SOL    HW125649   2.576   0.377  16.771  0.0224 -1.4692 -1.2506
 4672SOL    HW225650   2.704   0.300  16.800  0.7743  0.1589 -0.0340
 4673SOL     OW25651   0.538   0.737   4.272  0.1526  0.2564 -0.5137
 4673SOL    HW125652   0.633   0.731   4.283 -0.2392  0.1925  2.6641
 4673SOL    HW225653   0.508   0.697   4.353 -1.0810  0.9733 -0.6243
 4674SOL     OW25654   0.411   3.555  15.330 -0.1170  0.0461 -0.1414
 4674SOL    HW125655   0.507   3.554  15.324 -0.1164 -1.7853 -0.0477
 4674SOL    HW225656   0.392   3.640  15.369  1.5094  0.5961 -0.5325
 4675SOL     OW25657   2.741   3.797  11.407 -0.2636  0.0555 -0.2339
 4675SOL    HW125658   2.819   3.806  11.460  0.8402  1.3918 -2.0955
 4675SOL    HW225659   2.689   3.737  11.461 -1.0439  0.9033 -0.0300
 4676SOL     OW25660   4.295   0.901  13.909 -0.2091  0.0716 -0.1334
 4676SOL    HW125661   4.227   0.914  13.975 -0.1194  0.2484 -0.0774
 4676SOL    HW225662   4.259   0.950  13.835  1.4229 -0.3685 -1.2299
 4677SOL     OW25663   1.670   0.450   3.456 -0.5351  0.0547 -0.4260
 4677SOL    HW125664   1.761   0.468   3.480  0.1154 -2.2613 -1.1861
 4677SOL    HW225665   1.663   0.355   3.457  1.6176 -0.1071 -1.2358
 4678SOL     OW25666   3.332   3.789   5.009  0.5285 -0.2513  0.1843
 4678SOL    HW125667   3.335   3.884   5.000 -0.4270 -0.4079 -1.7410
 4678SOL    HW225668   3.423   3.770   4.988 -0.5846 -3.0395 -2.1205
 4679SOL     OW25669   2.070   3.420  11.360 -0.3019 -0.1939  0.8258
 4679SOL    HW125670   2.040   3.436  11.270  1.4285 -0.5756  0.1891
 4679SOL    HW225671   2.014   3.488  11.397 -2.1074  0.6198 -3.4336
 4680SOL     OW25672   0.044   2.970   6.923  0.4023  0.5271  0.4814
 4680SOL    HW125673   0.078   3.049   6.880 -0.7236  0.0792 -1.2597
 4680SOL    HW225674   0.083   2.982   7.009  1.8092  0.8954 -0.1977
 4681SOL     OW25675   3.367   3.961   7.510  0.4499 -0.4688  0.2071
 4681SOL    HW125676   3.438   3.948   7.448  0.8878  1.6392  0.2676
 4681SOL    HW225677   3.391   3.901   7.581 -0.3074  0.1598  0.9890
 4682SOL     OW25678   0.630   3.378   8.357 -0.2695 -0.3942  0.2494
 4682SOL    HW125679   0.688   3.377   8.433  0.0149 -0.9676  0.0287
 4682SOL    HW225680   0.633   3.287   8.328  2.6463 -0.7858  1.7985
 4683SOL     OW25681   4.476   4.244   3.647  0.0515  0.8505 -0.6400
 4683SOL    HW125682   4.500   4.178   3.712 -0.6139  2.1088  0.8937
 4683SOL    HW225683   4.477   4.322   3.703 -0.2783  1.8666 -2.0465
 4684SOL     OW25684   1.211   1.065   3.652  0.1658  0.2272  0.6060
 4684SOL    HW125685   1.217   1.079   3.557  0.1239 -1.5288  0.3456
 4684SOL    HW225686   1.191   0.971   3.651  0.8773  0.0762  0.4314
 4685SOL     OW25687   3.002   2.365   9.960 -0.2084 -0.0663  0.2551
 4685SOL    HW125688   3.009   2.420   9.882  0.5964  0.1251  0.4538
 4685SOL    HW225689   3.096   2.354   9.974 -0.4019  2.4293  3.5196
 4686SOL     OW25690   4.714   0.360   5.234 -0.5767  0.1062 -0.2611
 4686SOL    HW125691   4.693   0.453   5.236 -1.6491 -0.1037 -1.6596
 4686SOL    HW225692   4.664   0.329   5.158  1.1700  1.2065 -1.8740
 4687SOL     OW25693   0.344   2.241  12.521 -0.2924 -0.7576 -0.0128
 4687SOL    HW125694   0.355   2.324  12.474  0.3669 -0.3024  0.9418
 4687SOL    HW225695   0.425   2.232  12.571 -1.2687 -0.6179  1.5812
 4688SOL     OW25696   0.254   2.692   8.658  0.5574  0.4784 -0.1927
 4688SOL    HW125697   0.191   2.620   8.665  2.1504 -0.7311  1.7203
 4688SOL    HW225698   0.205   2.766   8.622  1.5501  1.1679 -0.1097
 4689SOL     OW25699   0.514   1.005  11.014  0.0292 -0.0911 -0.0887
 4689SOL    HW125700   0.532   1.097  10.994  2.0220 -0.8100 -1.6484
 4689SOL    HW225701   0.552   0.960  10.938 -0.5433 -1.6126  0.5292
 4690SOL     OW25702   0.349   1.905  10.478  0.0044 -0.1159  0.0814
 4690SOL    HW125703   0.280   1.971  10.487  1.1069  0.4884  3.8410
 4690SOL    HW225704   0.323   1.859  10.558 -1.6574 -0.4989 -0.6573
 4691SOL     OW25705   0.894   2.584   5.824  0.0245  0.0285 -0.4569
 4691SOL    HW125706   0.928   2.599   5.912  2.9969  0.1697 -1.6498
 4691SOL    HW225707   0.803   2.574   5.853  0.2068  1.0065  0.4624
 4692SOL     OW25708   1.733   3.848   5.480  0.2230  0.1730  0.7502
 4692SOL    HW125709   1.654   3.880   5.524 -0.6814  0.0320 -0.7856
 4692SOL    HW225710   1.773   3.931   5.454 -0.4162 -0.8717 -3.5186
 4693SOL     OW25711   0.601   3.620   1.667  0.5477  0.2328  0.1321
 4693SOL    HW125712   0.599   3.543   1.725 -0.3292  1.0043  1.1079
 4693SOL    HW225713   0.530   3.673   1.703 -1.6816 -1.1736 -2.2029
 4694SOL     OW25714   2.464   2.769  12.221  0.4416 -0.4018 -0.0234
 4694SOL    HW125715   2.520   2.833  12.266 -0.7732 -0.4884  1.6147
 4694SOL    HW225716   2.383   2.796  12.265  0.2784  0.5887 -0.9404
 4695SOL     OW25717   2.265   2.586   7.605  0.1132  0.4267  0.1223
 4695SOL    HW125718   2.196   2.551   7.661  1.4277  1.8213  2.6307
 4695SOL    HW225719   2.221   2.664   7.572  0.4165  0.8152  0.6283
 4696SOL     OW25720   3.178   3.707  10.974  0.8031  0.2045  0.3521
 4696SOL    HW125721   3.245   3.644  11.001  0.0250 -0.7783  0.0098
 4696SOL    HW225722   3.137   3.707  11.060  1.6006  2.6720  0.7183
 4697SOL     OW25723   4.112   3.987   7.292  0.0372 -0.1585  0.2088
 4697SOL    HW125724   4.099   4.023   7.380 -1.3264 -0.0523 -0.0368
 4697SOL    HW225725   4.077   3.898   7.300 -1.0628  0.2666  0.1610
 4698SOL     OW25726   0.171   0.638  12.237 -0.0612 -0.2111 -0.1303
 4698SOL    HW125727   0.078   0.624  12.257  0.6427 -1.3866  2.3385
 4698SOL    HW225728   0.207   0.558  12.199  1.5993  0.4196  0.0886
 4699SOL     OW25729   3.578   1.651  12.942  0.5084  0.3330  0.7928
 4699SOL    HW125730   3.624   1.568  12.950  2.4296  1.3835  0.6110
 4699SOL    HW225731   3.652   1.706  12.917 -0.3758  1.8132  1.3861
 4700SOL     OW25732   3.164   3.918   6.396  0.0765 -0.0938  0.1509
 4700SOL    HW125733   3.127   3.887   6.478 -1.2913  2.1088  0.3953
 4700SOL    HW225734   3.082   3.926   6.346 -0.4891 -3.3540  0.5885
 4701SOL     OW25735   1.490   1.132   6.141  0.4474  0.6315 -0.0895
 4701SOL    HW125736   1.467   1.209   6.192  0.8550  0.0879  0.9049
 4701SOL    HW225737   1.526   1.081   6.213  1.4430 -1.2523 -1.9026
 4702SOL     OW25738   2.445   1.639   6.830 -0.2100  0.3829 -0.4030
 4702SOL    HW125739   2.433   1.544   6.835 -1.3251  0.4928 -1.1019
 4702SOL    HW225740   2.396   1.666   6.907 -0.0606 -1.3922  0.3082
 4703SOL     OW25741   0.243   3.847   2.599 -0.3923  0.2927  0.1428
 4703SOL    HW125742   0.150   3.862   2.617 -0.8485  0.4564 -2.3406
 4703SOL    HW225743   0.269   3.830   2.690 -1.7906 -2.7014 -0.0040
 4704SOL     OW25744   3.771   1.886   9.547 -0.0399  0.0188  0.3091
 4704SOL    HW125745   3.788   1.974   9.581 -1.2656  1.1376 -1.9644
 4704SOL    HW225746   3.817   1.902   9.464  0.1749  4.5125  1.3077
 4705SOL     OW25747   0.960   1.586  12.188  1.1297 -0.1594  0.0714
 4705SOL    HW125748   1.035   1.543  12.145 -0.0957 -0.2584 -1.9712
 4705SOL    HW225749   0.990   1.673  12.212  1.8872 -0.6766  0.9954
 4706SOL     OW25750   4.738   2.555   4.089 -0.9136 -0.4842  0.0678
 4706SOL    HW125751   0.004   2.496   4.164  1.3845  0.3975  0.5188
 4706SOL    HW225752   4.673   2.615   4.127 -0.6969 -0.0802 -0.2020
 4707SOL     OW25753   0.165   3.622   2.062  0.7383 -0.3732  0.2886
 4707SOL    HW125754   0.227   3.598   2.131  1.3067 -0.1575 -0.1451
 4707SOL    HW225755   0.214   3.596   1.984 -0.8156 -0.5593 -0.6189
 4708SOL     OW25756   2.817   1.363   5.515  0.2201 -0.4651  0.5323
 4708SOL    HW125757   2.842   1.361   5.607  0.9516  0.5662  0.3556
 4708SOL    HW225758   2.861   1.444   5.491 -1.6441  1.3037  3.1884
 4709SOL     OW25759   2.720   3.977   5.748  0.3936 -0.3528  0.4191
 4709SOL    HW125760   2.721   3.897   5.801  0.4917  0.6375  1.9254
 4709SOL    HW225761   2.812   4.002   5.753  0.7532 -1.7019  0.3215
 4710SOL     OW25762   1.331   2.512  17.297 -0.5457 -0.0630 -0.1423
 4710SOL    HW125763   1.322   2.544  17.387 -0.2792 -2.0807  0.6013
 4710SOL    HW225764   1.423   2.486  17.298 -0.9475 -1.4584 -0.2117
 4711SOL     OW25765   3.910   2.498  10.016  0.5057  0.2624  0.3506
 4711SOL    HW125766   3.947   2.576  10.058  0.3511  1.2195 -1.2578
 4711SOL    HW225767   3.911   2.431  10.083  0.4361  1.9057  2.0006
 4712SOL     OW25768   1.464   4.014   1.408  0.4777  0.0796  0.0490
 4712SOL    HW125769   1.477   4.008   1.314 -2.8018 -1.2120 -0.3284
 4712SOL    HW225770   1.374   4.046   1.411  1.3954  2.8853 -1.6351
 4713SOL     OW25771   0.347   3.512   6.868  0.1762 -0.4483 -0.3535
 4713SOL    HW125772   0.417   3.576   6.883  1.2123 -1.9544  1.2190
 4713SOL    HW225773   0.347   3.455   6.945  2.2374 -0.5539 -0.4319
 4714SOL     OW25774   1.317   3.389   8.272 -0.7550  0.0332  0.4828
 4714SOL    HW125775   1.264   3.421   8.200 -1.8180 -1.0448  0.7897
 4714SOL    HW225776   1.253   3.381   8.343  0.0329 -0.1525  1.1815
 4715SOL     OW25777   1.842   0.883   9.237 -1.2378  1.1332  0.2465
 4715SOL    HW125778   1.873   0.905   9.324 -1.3603  1.4441  0.2092
 4715SOL    HW225779   1.763   0.831   9.246 -0.3441 -0.1904  0.5092
 4716SOL     OW25780   1.289   3.128   4.924  0.3767 -0.3925  0.3805
 4716SOL    HW125781   1.310   3.087   4.840  0.1891  0.8629 -0.2781
 4716SOL    HW225782   1.345   3.079   4.985 -0.4718 -2.3501 -0.4209
 4717SOL     OW25783   1.656   0.176   9.477  0.4167 -0.2596 -0.1884
 4717SOL    HW125784   1.665   0.133   9.562  0.8261  1.0944  0.4566
 4717SOL    HW225785   1.561   0.163   9.466  0.4339 -0.7618  0.2464
 4718SOL     OW25786   1.306   1.282  12.877  0.0761  0.1610 -0.1185
 4718SOL    HW125787   1.268   1.199  12.904 -2.5224  1.4504  0.2256
 4718SOL    HW225788   1.277   1.338  12.948  2.6821  0.0048  1.0522
 4719SOL     OW25789   1.295   1.165   5.944 -0.0984 -0.6036  0.4390
 4719SOL    HW125790   1.361   1.152   6.012  1.2700 -0.0291 -0.7844
 4719SOL    HW225791   1.254   1.080   5.928 -0.3688 -0.6610  1.4494
 4720SOL     OW25792   4.155   4.390   1.882  0.5172 -0.1958  0.5128
 4720SOL    HW125793   4.113   4.469   1.849  2.5792  1.7962  2.6868
 4720SOL    HW225794   4.248   4.410   1.887  0.5207 -0.4371  1.4532
 4721SOL     OW25795   2.558   0.268   2.770  0.0949  0.4290  0.1420
 4721SOL    HW125796   2.563   0.218   2.689 -0.9947 -2.9866  2.2157
 4721SOL    HW225797   2.553   0.357   2.733 -1.1939  0.2527 -0.1152
 4722SOL     OW25798   0.051   3.452  10.741  0.3545 -0.3077  1.3883
 4722SOL    HW125799   0.022   3.526  10.689 -1.2000 -0.8959  1.4300
 4722SOL    HW225800   0.085   3.505  10.814  3.0401 -0.2363  0.0738
 4723SOL     OW25801   0.664   3.100   4.086 -0.3019  0.4427 -0.1369
 4723SOL    HW125802   0.652   3.079   4.179  0.9347  3.6953  0.7477
 4723SOL    HW225803   0.709   3.184   4.092 -1.3040  0.9284  0.4212
 4724SOL     OW25804   2.294   3.217   6.562  0.1828  0.2769 -0.1009
 4724SOL    HW125805   2.246   3.154   6.507  0.4139 -1.8270  2.1221
 4724SOL    HW225806   2.319   3.288   6.503 -0.0142  0.9858  0.6667
 4725SOL     OW25807   0.067   0.808   3.271 -0.2274  0.1479 -0.3073
 4725SOL    HW125808   0.158   0.816   3.241  0.3229 -2.1882  0.7259
 4725SOL    HW225809   0.059   0.718   3.304 -0.3242  0.7083  1.2210
 4726SOL     OW25810   2.951   2.674   1.597 -0.0361  0.5736 -0.2904
 4726SOL    HW125811   2.939   2.684   1.502  0.4667 -1.4667 -0.5695
 4726SOL    HW225812   2.883   2.611   1.621 -0.3758  1.2015  0.3901
 4727SOL     OW25813   1.728   4.730   7.981 -0.3804 -0.2329 -0.0876
 4727SOL    HW125814   1.636   0.003   7.959 -0.3417  1.3031  0.7591
 4727SOL    HW225815   1.773   0.028   7.906  1.9476 -2.0268  0.3686
 4728SOL     OW25816   1.808   1.999  11.002  0.5331  0.3644  0.6031
 4728SOL    HW125817   1.895   1.960  11.001 -1.7712 -4.7996  0.0372
 4728SOL    HW225818   1.808   2.025  10.910  0.6438 -1.2157  0.1618
 4729SOL     OW25819   0.828   2.626  16.604 -0.1994  0.1887 -0.2401
 4729SOL    HW125820   0.898   2.566  16.628 -1.1933 -1.3803 -1.2868
 4729SOL    HW225821   0.762   2.599  16.668  0.1476  1.3953  0.6365
 4730SOL     OW25822   2.981   3.577   5.882  0.1566  0.4743  0.1200
 4730SOL    HW125823   2.988   3.654   5.939  0.6564  1.3656 -1.1458
 4730SOL    HW225824   2.890   3.549   5.875  0.3955 -0.8677  2.4908
 4731SOL     OW25825   2.027   2.802   4.949  0.3409 -0.2886 -0.1152
 4731SOL    HW125826   1.987   2.761   4.872 -1.7749 -1.6965  1.7548
 4731SOL    HW225827   1.952   2.837   4.997 -1.1510 -3.3464 -0.2171
 4732SOL     OW25828   0.572   1.570   3.701  0.6686 -0.1660  0.4559
 4732SOL    HW125829   0.643   1.607   3.648  0.2721  0.9849  0.7392
 4732SOL    HW225830   0.567   1.483   3.660 -2.5409  0.0226  0.4944
 4733SOL     OW25831   2.234   4.657   4.889 -0.0606  0.2548 -0.7909
 4733SOL    HW125832   2.148   4.650   4.848 -0.3771 -0.9108  0.0903
 4733SOL    HW225833   2.281   4.709   4.823 -1.2812 -0.1270 -1.9426
 4734SOL     OW25834   3.264   1.624   8.880 -0.0106  0.2054  0.5779
 4734SOL    HW125835   3.285   1.690   8.947 -0.1235 -0.3382  1.1452
 4734SOL    HW225836   3.318   1.655   8.807  0.5241  1.7327  1.6206
 4735SOL     OW25837   2.743   0.911   3.445 -0.7433  0.7803 -0.6774
 4735SOL    HW125838   2.723   0.831   3.493  1.0416  0.5538 -0.3153
 4735SOL    HW225839   2.740   0.981   3.510 -2.5581  1.6543 -1.6935
 4736SOL     OW25840   3.502   2.825   7.240  0.0100  0.0982  0.5268
 4736SOL    HW125841   3.429   2.870   7.196  1.1834 -1.1993 -2.7736
 4736SOL    HW225842   3.562   2.799   7.170 -1.1086 -0.8407 -0.0874
 4737SOL     OW25843   4.504   1.626  13.773  0.4374 -0.0864  0.0323
 4737SOL    HW125844   4.461   1.566  13.713 -1.2138 -0.1909  1.3114
 4737SOL    HW225845   4.441   1.617  13.845  0.3430  1.4967  0.1524
 4738SOL     OW25846   3.268   2.282   8.180 -0.2240  0.4442 -0.2026
 4738SOL    HW125847   3.273   2.190   8.205  0.6108  0.7636  0.7774
 4738SOL    HW225848   3.296   2.324   8.261  0.7671 -1.1055  0.2445
 4739SOL     OW25849   0.813   0.668   2.382  0.5568 -0.2555  0.2440
 4739SOL    HW125850   0.818   0.704   2.470  0.4261 -0.9605  0.5362
 4739SOL    HW225851   0.811   0.573   2.389 -0.7862 -0.2003  0.6939
 4740SOL     OW25852   1.575   0.703   1.823  0.1539 -0.6418  0.2307
 4740SOL    HW125853   1.616   0.698   1.736  0.7253 -1.4451  0.5528
 4740SOL    HW225854   1.519   0.626   1.832 -2.0347  0.4930 -3.6664
 4741SOL     OW25855   1.762   0.703   4.139 -0.3238  0.2374 -0.2118
 4741SOL    HW125856   1.756   0.759   4.217  1.1569 -0.6062  0.4953
 4741SOL    HW225857   1.831   0.647   4.174 -0.0058  0.4107 -0.5663
 4742SOL     OW25858   4.624   3.838   9.347 -0.1590 -0.3607 -0.0931
 4742SOL    HW125859   4.630   3.803   9.258 -0.2672  1.1208 -0.6848
 4742SOL    HW225860   4.532   3.863   9.345  0.6467  2.6125 -0.0984
 4743SOL     OW25861   2.836   3.839   3.309  0.1611  0.3824 -0.2992
 4743SOL    HW125862   2.779   3.783   3.256 -1.1338 -0.4615  1.9381
 4743SOL    HW225863   2.768   3.893   3.351 -0.6650 -0.3411 -0.6903
 4744SOL     OW25864   1.209   1.003  17.381 -0.2035  0.1437 -0.0397
 4744SOL    HW125865   1.190   0.945  17.307 -1.8708 -0.3401  0.7562
 4744SOL    HW225866   1.178   0.944  17.450 -1.2274  1.1670  0.3814
 4745SOL     OW25867   1.608   3.519   4.759 -0.6138  0.1500  0.5490
 4745SOL    HW125868   1.630   3.584   4.826 -1.6289  1.4863 -0.4255
 4745SOL    HW225869   1.661   3.444   4.786 -0.1830  0.6498  1.1076
 4746SOL     OW25870   0.614   3.701   0.494  0.1916  0.2122 -0.2840
 4746SOL    HW125871   0.635   3.770   0.557 -2.1586  2.0786 -1.5388
 4746SOL    HW225872   0.642   3.746   0.414  2.5733  1.2132  1.1303
 4747SOL     OW25873   0.945   3.795  15.323 -0.4004 -0.3632 -0.2206
 4747SOL    HW125874   0.924   3.847  15.245 -2.8782 -0.2293  0.5266
 4747SOL    HW225875   0.917   3.852  15.394 -2.2886  1.9509 -2.8056
 4748SOL     OW25876   0.740   3.973   8.238  0.1731  0.4273  0.9440
 4748SOL    HW125877   0.737   3.892   8.188 -0.7309  0.4194  1.0262
 4748SOL    HW225878   0.746   3.941   8.328  1.2582 -0.6517  0.4874
 4749SOL     OW25879   2.249   4.381  15.307 -0.1272 -0.3448 -0.1971
 4749SOL    HW125880   2.309   4.342  15.243 -1.3244 -0.3578 -1.2858
 4749SOL    HW225881   2.290   4.466  15.321  0.8771 -0.6506 -1.3186
 4750SOL     OW25882   2.968   1.730   4.235  0.3856  0.5111  0.2321
 4750SOL    HW125883   2.982   1.765   4.147 -0.0238  1.1483  0.4293
 4750SOL    HW225884   2.907   1.657   4.225  0.7084  0.4993 -1.5876
 4751SOL     OW25885   3.404   4.106   4.764 -0.4544 -0.4435  0.1747
 4751SOL    HW125886   3.435   4.166   4.696  0.5852 -0.5668  0.5382
 4751SOL    HW225887   3.312   4.132   4.775 -0.0692  1.4161 -0.9560
 4752SOL     OW25888   4.449   4.711  10.984  0.0910 -0.3092  0.1232
 4752SOL    HW125889   4.366   0.012  11.007 -1.7212 -3.5381 -0.3115
 4752SOL    HW225890   4.491   4.699  11.069 -0.6762  2.5139  0.9069
 4753SOL     OW25891   2.644   4.231   7.606 -0.5290 -0.7386 -0.4454
 4753SOL    HW125892   2.671   4.304   7.662 -1.3018 -0.2134 -0.7612
 4753SOL    HW225893   2.689   4.258   7.526 -0.3487 -0.1379 -0.1443
 4754SOL     OW25894   3.214   1.385   1.433  0.4011  0.6683  0.1243
 4754SOL    HW125895   3.130   1.364   1.474 -0.9636  1.1126 -2.5030
 4754SOL    HW225896   3.216   1.480   1.445 -0.6538  0.5511  1.2360
 4755SOL     OW25897   1.534   0.693  11.779  0.1554 -0.1248 -0.2916
 4755SOL    HW125898   1.459   0.739  11.743 -1.1677  0.5886  3.3668
 4755SOL    HW225899   1.600   0.762  11.773  0.3068 -0.4098 -1.8923
 4756SOL     OW25900   0.774   2.277   3.569 -0.8238 -0.0175 -0.1378
 4756SOL    HW125901   0.701   2.263   3.508  0.6491  1.3622 -2.1922
 4756SOL    HW225902   0.759   2.371   3.572 -0.5799  0.0418 -0.6983
 4757SOL     OW25903   1.458   0.746   3.041 -0.0418  0.2564 -0.0905
 4757SOL    HW125904   1.535   0.741   3.097 -0.9701 -0.4248  1.1229
 4757SOL    HW225905   1.393   0.762   3.109 -0.2953 -2.3240  0.2711
 4758SOL     OW25906   0.516   1.177  13.176 -0.1618 -0.1001  0.6498
 4758SOL    HW125907   0.482   1.111  13.237 -1.1760 -0.9838 -0.8852
 4758SOL    HW225908   0.560   1.121  13.112 -0.8634 -1.2579  1.1835
 4759SOL     OW25909   2.999   0.951   7.371 -0.5716  0.1685  0.0445
 4759SOL    HW125910   3.019   0.933   7.279 -1.0186  0.6449 -0.1482
 4759SOL    HW225911   3.026   0.873   7.419 -1.0306  0.2215  0.3923
 4760SOL     OW25912   2.210   4.564   5.441 -0.0360 -0.1739  0.0737
 4760SOL    HW125913   2.256   4.480   5.448 -1.5290 -0.9379  0.7623
 4760SOL    HW225914   2.215   4.587   5.348 -0.0289  0.1125  0.1466
 4761SOL     OW25915   2.681   2.019   3.393  0.0496  0.1643 -0.6691
 4761SOL    HW125916   2.686   1.991   3.484  1.6685  1.5505 -0.3459
 4761SOL    HW225917   2.652   2.109   3.406 -0.2560  0.3204 -2.4154
 4762SOL     OW25918   3.537   4.510  15.648 -0.3674  0.4258  0.4421
 4762SOL    HW125919   3.556   4.486  15.739 -2.5672  0.1619  0.8346
 4762SOL    HW225920   3.629   4.515  15.620 -0.4726 -0.9895 -0.1499
 4763SOL     OW25921   1.936   0.648   9.076 -0.7678  0.4614 -0.5425
 4763SOL    HW125922   1.886   0.589   9.019  0.1793 -0.5289 -0.3491
 4763SOL    HW225923   1.929   0.599   9.157  2.1785  2.5057  0.9368
 4764SOL     OW25924   3.966   3.112   6.042  0.0373 -0.5352 -0.3813
 4764SOL    HW125925   3.879   3.112   6.083  0.9133 -2.9601  1.5353
 4764SOL    HW225926   3.977   3.017   6.032 -4.4191 -0.9670 -1.2336
 4765SOL     OW25927   1.573   4.537   1.504  0.1504 -0.4614  0.6567
 4765SOL    HW125928   1.530   4.574   1.427 -0.4533 -1.9413  0.2829
 4765SOL    HW225929   1.547   4.445   1.499  0.9600 -0.5496 -1.8473
 4766SOL     OW25930   4.467   1.623   4.928 -0.2253 -0.3542 -0.0655
 4766SOL    HW125931   4.523   1.636   5.005 -0.7758 -1.0428  0.4461
 4766SOL    HW225932   4.513   1.678   4.864  3.0771 -2.1400  0.7262
 4767SOL     OW25933   0.228   1.757   1.383  0.1458  0.0906  0.1089
 4767SOL    HW125934   0.319   1.748   1.412  0.3929  1.7569 -0.1513
 4767SOL    HW225935   0.174   1.693   1.430  0.1153  0.0031 -0.0451
 4768SOL     OW25936   1.501   0.976   1.652  0.3075 -0.2571 -0.0805
 4768SOL    HW125937   1.539   0.892   1.625  0.4476 -0.5540  1.0281
 4768SOL    HW225938   1.411   0.957   1.678  0.0594  1.3824  0.2493
 4769SOL     OW25939   0.499   1.779   1.315 -0.0657  0.1798  0.3738
 4769SOL    HW125940   0.495   1.798   1.222  1.8616  1.0305  0.4551
 4769SOL    HW225941   0.589   1.749   1.327 -0.1853 -0.3835 -0.1895
 4770SOL     OW25942   0.939   2.013   6.403  0.6348 -0.5918 -0.1326
 4770SOL    HW125943   0.938   2.105   6.429  0.4298 -1.3561  2.4949
 4770SOL    HW225944   0.853   1.996   6.364  0.5883  1.1726 -0.8065
 4771SOL     OW25945   3.183   0.560   1.984 -0.8557  0.2260 -0.1417
 4771SOL    HW125946   3.145   0.636   1.940  0.9556  1.9592  1.3156
 4771SOL    HW225947   3.222   0.613   2.053 -1.0776  0.6557 -0.3469
 4772SOL     OW25948   0.828   2.257   2.886  0.3154  0.2292  0.5219
 4772SOL    HW125949   0.778   2.183   2.851  0.2585  0.7325 -0.4402
 4772SOL    HW225950   0.909   2.212   2.911 -0.3298 -0.1455  1.9832
 4773SOL     OW25951   4.645   4.459   7.402  0.0423 -0.5012 -0.0598
 4773SOL    HW125952   4.642   4.463   7.306 -0.5023 -1.3858 -0.0869
 4773SOL    HW225953   4.728   4.413   7.414  0.1273 -0.4610 -0.4938
 4774SOL     OW25954   4.575   4.097   5.989  0.3051  0.3003 -0.2501
 4774SOL    HW125955   4.585   4.006   6.016  0.5105 -0.1508 -1.8849
 4774SOL    HW225956   4.667   4.105   5.964  0.3966 -0.0319 -0.0192
 4775SOL     OW25957   2.016   3.094  10.103 -0.2582  0.1530  0.1421
 4775SOL    HW125958   2.031   3.168  10.043 -0.3996  0.1501  0.1031
 4775SOL    HW225959   2.100   3.050  10.094  0.0548  0.5772  0.9636
 4776SOL     OW25960   0.779   0.595   0.592  0.1776  0.0362  0.2197
 4776SOL    HW125961   0.867   0.611   0.626 -0.1630 -0.0001  1.1180
 4776SOL    HW225962   0.734   0.673   0.626 -0.3501 -1.5695  3.2491
 4777SOL     OW25963   4.154   3.037   2.510 -0.0215 -0.0087  0.0019
 4777SOL    HW125964   4.170   2.985   2.431  0.2050  1.7446 -1.1093
 4777SOL    HW225965   4.242   3.069   2.530 -0.8448  0.9571  1.9616
 4778SOL     OW25966   4.004   1.112   7.856 -0.6563 -0.1275  0.2414
 4778SOL    HW125967   3.986   1.204   7.873 -2.5385 -0.2995 -0.7780
 4778SOL    HW225968   3.996   1.104   7.760  3.3499 -0.2901 -0.0819
 4779SOL     OW25969   4.576   2.578   6.758  0.4472  0.0920 -0.0822
 4779SOL    HW125970   4.492   2.590   6.802  1.1226  0.6518  1.0496
 4779SOL    HW225971   4.587   2.483   6.761 -2.6063 -0.3023 -1.7264
 4780SOL     OW25972   2.142   1.255   4.939 -0.2168  0.8075 -0.6350
 4780SOL    HW125973   2.219   1.218   4.895 -0.7026 -1.3879  0.3687
 4780SOL    HW225974   2.164   1.348   4.940 -0.6629  0.8920  1.1002
 4781SOL     OW25975   2.431   1.501   8.433 -0.1560 -0.2285  0.0025
 4781SOL    HW125976   2.495   1.477   8.500 -0.2044  0.2690  0.2300
 4781SOL    HW225977   2.428   1.595   8.450 -1.7736 -0.6461  2.0730
 4782SOL     OW25978   1.906   2.754   8.828  0.0394 -0.0546 -0.1891
 4782SOL    HW125979   1.952   2.725   8.907 -0.5140 -0.9152 -0.1724
 4782SOL    HW225980   1.813   2.739   8.846 -0.1515  0.5950 -0.6325
 4783SOL     OW25981   0.221   2.522  10.728 -0.5091  0.6026  0.0229
 4783SOL    HW125982   0.177   2.499  10.810  0.5697  0.6214  0.6131
 4783SOL    HW225983   0.213   2.438  10.682  1.1433  0.4665 -0.0238
 4784SOL     OW25984   4.219   1.633   9.332  0.1901 -0.2320  0.6991
 4784SOL    HW125985   4.253   1.677   9.255  1.3200 -3.4793 -0.6515
 4784SOL    HW225986   4.246   1.543   9.312 -0.0705  0.4248 -2.5049
 4785SOL     OW25987   2.316   0.632   3.804 -0.0404 -1.1194  0.3608
 4785SOL    HW125988   2.375   0.686   3.856  0.9912 -2.1794  0.2936
 4785SOL    HW225989   2.382   0.571   3.772 -0.0762 -1.1540  0.3534
 4786SOL     OW25990   2.246   2.326   9.028  0.7965  0.2082 -0.0721
 4786SOL    HW125991   2.209   2.358   9.110 -2.9808 -0.1416 -1.6501
 4786SOL    HW225992   2.264   2.408   8.983  0.1876  0.9995  1.1421
 4787SOL     OW25993   3.206   3.299   5.846  0.0487  0.4357  0.3382
 4787SOL    HW125994   3.274   3.284   5.780 -1.4416  0.8341 -1.2911
 4787SOL    HW225995   3.208   3.394   5.856 -1.5236  0.3779  1.2165
 4788SOL     OW25996   0.248   0.191   8.572 -0.6119  0.7300  0.4873
 4788SOL    HW125997   0.177   0.209   8.634 -0.5593  1.4543  0.3392
 4788SOL    HW225998   0.261   0.099   8.595  1.1392  1.1663  1.2492
 4789SOL     OW25999   3.477   2.440   4.236  0.2189  0.3192 -0.0877
 4789SOL    HW126000   3.521   2.381   4.297  1.3386  0.6030 -0.6173
 4789SOL    HW226001   3.387   2.409   4.246  0.4969  0.5191  2.9381
 4790SOL     OW26002   3.488   3.923  14.191 -0.0862  0.1036  0.1219
 4790SOL    HW126003   3.581   3.904  14.203 -0.4830 -0.8301  1.7901
 4790SOL    HW226004   3.461   3.835  14.165  2.2188 -0.0708 -1.6612
 4791SOL     OW26005   1.751   3.841  11.519  0.2254 -0.5126  0.0741
 4791SOL    HW126006   1.714   3.880  11.440  0.1557 -1.9263 -0.5817
 4791SOL    HW226007   1.687   3.772  11.532  1.8747 -1.3681  3.9551
 4792SOL     OW26008   1.645   4.288  10.211  0.2579 -0.0270  0.8067
 4792SOL    HW126009   1.633   4.232  10.287 -2.7706 -0.0300  0.3310
 4792SOL    HW226010   1.629   4.229  10.137  0.1748  1.3734 -0.2973
 4793SOL     OW26011   1.885   4.101   4.611  0.2817 -0.0786 -0.2910
 4793SOL    HW126012   1.912   4.069   4.524  1.0513 -0.8533  0.2323
 4793SOL    HW226013   1.794   4.124   4.595 -0.4674 -2.5472  0.4986
 4794SOL     OW26014   3.793   2.727   2.776 -0.2437 -0.4020  0.4734
 4794SOL    HW126015   3.725   2.784   2.739 -0.2665  0.0427  1.1954
 4794SOL    HW226016   3.865   2.787   2.758 -0.6379 -1.2731 -4.0555
 4795SOL     OW26017   2.854   3.617  11.635 -0.0012  0.2768 -0.1044
 4795SOL    HW126018   2.759   3.605  11.635 -0.2157  2.1744  3.2069
 4795SOL    HW226019   2.879   3.570  11.715 -1.0391 -0.7732 -0.3963
 4796SOL     OW26020   0.130   3.520   7.144  0.2710 -0.8338 -0.2483
 4796SOL    HW126021   0.102   3.546   7.056 -1.9879  2.2945  1.3959
 4796SOL    HW226022   0.079   3.440   7.159 -1.3489  0.5798  1.7120
 4797SOL     OW26023   0.965   2.820   6.891  0.1755 -0.6053 -0.5725
 4797SOL    HW126024   0.978   2.877   6.967  2.0291 -2.2388  0.3032
 4797SOL    HW226025   0.999   2.744   6.937 -2.4649 -0.2925  1.8882
 4798SOL     OW26026   3.164   2.301   3.353 -0.1970  0.6908 -0.3156
 4798SOL    HW126027   3.245   2.250   3.354 -1.0484 -0.6519  4.2960
 4798SOL    HW226028   3.123   2.277   3.270 -2.6432 -0.0224  1.1069
 4799SOL     OW26029   0.839   3.658   7.137 -0.3123 -0.2790 -0.8233
 4799SOL    HW126030   0.888   3.575   7.136 -2.4380 -1.5557 -0.3323
 4799SOL    HW226031   0.750   3.632   7.114 -0.1935  0.2345 -1.8524
 4800SOL     OW26032   0.645   1.396   6.995 -0.2278 -0.0753  0.0630
 4800SOL    HW126033   0.682   1.316   6.960 -0.1924 -0.5469  1.1735
 4800SOL    HW226034   0.685   1.392   7.082 -1.9459 -2.5168  0.7209
 4801SOL     OW26035   4.216   1.322   9.336 -0.6220 -0.0168 -0.5469
 4801SOL    HW126036   4.210   1.227   9.338 -0.2144  0.0034  1.6550
 4801SOL    HW226037   4.248   1.343   9.424  1.3332  0.4158 -1.3493
 4802SOL     OW26038   3.706   1.279  15.236 -0.2755  0.4533  0.4552
 4802SOL    HW126039   3.771   1.248  15.173  0.1621  2.2688  0.0217
 4802SOL    HW226040   3.640   1.209  15.236 -0.5393  0.7033  0.1441
 4803SOL     OW26041   3.796   3.005   2.972  0.1200 -0.2030 -0.4100
 4803SOL    HW126042   3.733   2.960   2.917  2.5524 -3.2108 -0.7625
 4803SOL    HW226043   3.746   2.995   3.053 -0.8955  0.9868 -0.8878
 4804SOL     OW26044   4.116   0.812   7.289 -0.2862  0.6224 -0.1743
 4804SOL    HW126045   4.050   0.799   7.357 -0.3893  0.1142 -0.3687
 4804SOL    HW226046   4.196   0.836   7.335 -0.6298 -1.4777  1.4983
 4805SOL     OW26047   1.256   4.338   8.351 -0.1338  0.0762 -0.0002
 4805SOL    HW126048   1.280   4.265   8.295 -0.6165  0.0084 -0.1193
 4805SOL    HW226049   1.171   4.372   8.322  0.1927 -0.9835 -2.1271
 4806SOL     OW26050   3.416   1.776   8.171  0.2240  0.2191  0.1081
 4806SOL    HW126051   3.461   1.749   8.251 -1.3216  1.7148  1.4971
 4806SOL    HW226052   3.424   1.698   8.117  0.7597  1.4781 -1.6270
 4807SOL     OW26053   4.644   1.678   7.807  0.0321  0.2732  0.1065
 4807SOL    HW126054   4.563   1.636   7.834 -0.2206  1.1200  0.6730
 4807SOL    HW226055   4.616   1.768   7.792  0.7791  0.5366  0.2726
 4808SOL     OW26056   2.026   0.434  16.595  0.0770  0.1907 -0.5478
 4808SOL    HW126057   2.022   0.483  16.513  1.5551 -0.1686 -0.8385
 4808SOL    HW226058   2.115   0.461  16.621 -1.1940  1.6758  2.2891
 4809SOL     OW26059   3.412   4.250   3.638 -0.9181 -0.2657 -0.6901
 4809SOL    HW126060   3.473   4.291   3.577  0.6127  0.8618  1.6015
 4809SOL    HW226061   3.423   4.301   3.718 -1.6376  0.1579 -0.8719
 4810SOL     OW26062   0.711   3.051   0.777  0.0097 -0.1819 -0.0907
 4810SOL    HW126063   0.619   3.072   0.765 -0.0490 -0.9542 -0.9813
 4810SOL    HW226064   0.746   3.139   0.788 -1.8291  0.5929 -0.6265
 4811SOL     OW26065   0.977   2.454  10.424 -0.3096  0.0897  0.0921
 4811SOL    HW126066   0.977   2.518  10.353 -0.1422 -1.0007 -0.8890
 4811SOL    HW226067   1.053   2.471  10.479  0.5287 -0.5699 -0.8647
 4812SOL     OW26068   1.154   3.497   9.223 -0.1169  0.4525 -1.0694
 4812SOL    HW126069   1.060   3.486   9.239 -0.5633  1.3781 -3.0316
 4812SOL    HW226070   1.193   3.500   9.311 -1.3310 -0.1916 -0.5064
 4813SOL     OW26071   0.216   2.594   2.290  0.5002  0.3793 -0.2834
 4813SOL    HW126072   0.195   2.543   2.212 -0.1323 -0.9734  0.7682
 4813SOL    HW226073   0.134   2.633   2.321 -0.1115 -0.0959 -1.3095
 4814SOL     OW26074   3.669   2.071   6.405  0.3409  0.5926  0.2829
 4814SOL    HW126075   3.737   2.035   6.462  1.0736  0.8561 -0.4343
 4814SOL    HW226076   3.598   2.009   6.422  1.6505 -1.9506 -3.5029
 4815SOL     OW26077   3.834   2.930  10.296  0.8459  0.4960  0.5221
 4815SOL    HW126078   3.822   3.014  10.251 -1.6885 -1.2272 -1.9404
 4815SOL    HW226079   3.784   2.951  10.375  0.4234  1.8493 -0.1000
 4816SOL     OW26080   1.502   4.584   3.267 -0.0207 -0.5171 -0.6839
 4816SOL    HW126081   1.458   4.585   3.352  2.6489 -1.4686  0.7353
 4816SOL    HW226082   1.585   4.626   3.290 -0.5696 -0.4512  1.1788
 4817SOL     OW26083   4.664   0.310   2.287 -0.4062 -0.3105  0.5707
 4817SOL    HW126084   4.623   0.340   2.368 -0.8555  0.1482  0.1732
 4817SOL    HW226085   0.011   0.345   2.294 -0.5279  0.1412 -0.1451
 4818SOL     OW26086   4.594   2.085   6.996  0.0315 -0.2548 -0.0740
 4818SOL    HW126087   4.586   2.178   6.976 -2.7093 -0.7676 -1.3694
 4818SOL    HW226088   4.684   2.087   7.030 -0.3961 -1.3238  1.1155
 4819SOL     OW26089   0.819   2.551   0.012  0.4690  0.0367  0.4356
 4819SOL    HW126090   0.768   2.475  17.746 -1.4370  1.1268  0.8977
 4819SOL    HW226091   0.887   2.550  17.709 -0.3484 -0.3489 -0.4020
 4820SOL     OW26092   3.639   0.065   5.293  0.1672  0.2776 -1.0019
 4820SOL    HW126093   3.682   0.135   5.341  0.9761 -0.0879 -1.1972
 4820SOL    HW226094   3.546   0.090   5.296 -0.3811 -1.9054  0.3120
 4821SOL     OW26095   1.238   0.034  15.207  0.1169 -0.5380 -0.1960
 4821SOL    HW126096   1.149   0.033  15.172  1.0004 -0.0442 -2.4770
 4821SOL    HW226097   1.283   0.107  15.163 -0.2233 -2.6682 -4.0214
 4822SOL     OW26098   0.709   1.381   4.490  0.0341 -0.4616 -0.8581
 4822SOL    HW126099   0.709   1.376   4.585 -2.3118 -0.2365 -0.8511
 4822SOL    HW226100   0.788   1.336   4.460  1.4798  1.3211  0.3506
 4823SOL     OW26101   0.149   1.536   9.161  0.0141 -0.1309  1.0142
 4823SOL    HW126102   0.236   1.497   9.157  0.8020  1.6827  0.3159
 4823SOL    HW226103   0.156   1.594   9.236  1.2941 -1.1227  1.6675
 4824SOL     OW26104   3.497   3.811  17.542 -0.4644  0.1383  0.3742
 4824SOL    HW126105   3.542   3.845  17.465 -0.8765 -2.0314 -0.8155
 4824SOL    HW226106   3.427   3.759  17.502 -0.3601 -0.3292  0.8023
 4825SOL     OW26107   4.190   2.997   8.539 -0.3778 -0.0947  0.1249
 4825SOL    HW126108   4.177   2.928   8.473  0.5311 -0.8295  0.7066
 4825SOL    HW226109   4.224   2.950   8.615  0.7924 -1.4643 -1.2341
 4826SOL     OW26110   2.970   4.163   5.351 -0.0864 -0.4908 -0.0320
 4826SOL    HW126111   2.983   4.076   5.390  2.3887 -0.1042  0.0408
 4826SOL    HW226112   2.979   4.219   5.427  0.4276 -0.8061  0.1379
 4827SOL     OW26113   0.476   4.571   2.595  0.0548 -0.1289  0.1809
 4827SOL    HW126114   0.464   4.626   2.673  2.2667 -1.1194  1.2001
 4827SOL    HW226115   0.383   4.549   2.593  0.0053  0.2786 -1.6742
 4828SOL     OW26116   0.025   0.995   5.596 -0.3366  0.0019 -0.0205
 4828SOL    HW126117   0.068   1.078   5.576 -1.8484  0.8645  0.2505
 4828SOL    HW226118   4.713   1.011   5.674 -0.2855 -0.2068  0.0577
 4829SOL     OW26119   2.478   3.764   3.912  0.3023  0.1389 -0.6143
 4829SOL    HW126120   2.382   3.762   3.916  0.3040 -0.3284 -0.7526
 4829SOL    HW226121   2.510   3.791   3.998 -1.4355  0.4373 -0.0488
 4830SOL     OW26122   0.871   1.860   2.004 -0.4691  0.4570  0.3839
 4830SOL    HW126123   0.782   1.893   2.004 -0.3892  0.6470  1.7485
 4830SOL    HW226124   0.876   1.823   1.916  0.9268  1.0040  0.2279
 4831SOL     OW26125   2.116   2.697   3.207 -0.1817 -0.7126  0.2011
 4831SOL    HW126126   2.081   2.608   3.194  0.6758 -1.2280  1.4474
 4831SOL    HW226127   2.194   2.681   3.260 -1.8971  0.6169  3.1186
 4832SOL     OW26128   3.347   3.348   4.380 -0.0848 -0.0984 -0.0266
 4832SOL    HW126129   3.317   3.433   4.413 -0.7131  0.3948 -1.8949
 4832SOL    HW226130   3.349   3.314   4.470  1.4984  1.3025  0.4457
 4833SOL     OW26131   2.539   4.087  12.394  0.3117 -0.3792 -0.7672
 4833SOL    HW126132   2.605   4.155  12.378 -0.2359  0.6133  1.1650
 4833SOL    HW226133   2.461   4.130  12.358  0.9689  1.5725  0.1117
 4834SOL     OW26134   1.255   0.060   3.004 -0.3879 -0.4376 -0.5764
 4834SOL    HW126135   1.259   0.010   2.922  0.0551  0.9191 -1.3680
 4834SOL    HW226136   1.189   0.008   3.051 -1.5963  0.6429 -1.0947
 4835SOL     OW26137   4.040   2.824   4.900 -0.4065  0.1510  0.8589
 4835SOL    HW126138   4.025   2.875   4.820 -0.9270  1.2465  1.6618
 4835SOL    HW226139   3.990   2.876   4.963  0.1853  2.2083 -0.3516
 4836SOL     OW26140   1.759   0.925   0.849  0.0554  0.4657  0.0043
 4836SOL    HW126141   1.759   0.992   0.918 -3.2816  0.0200  0.4283
 4836SOL    HW226142   1.707   0.855   0.887 -0.2242  2.0299  2.5197
 4837SOL     OW26143   3.049   1.924   5.745 -0.2485 -0.2469  0.4357
 4837SOL    HW126144   3.019   1.946   5.833 -1.0543 -0.6104  0.2560
 4837SOL    HW226145   3.032   1.830   5.748 -0.3329 -0.3279 -2.1336
 4838SOL     OW26146   2.590   1.454   3.766 -0.0813 -0.0363 -0.0687
 4838SOL    HW126147   2.497   1.442   3.781 -0.1155  1.6370  1.0866
 4838SOL    HW226148   2.630   1.393   3.827  2.7172 -0.9781 -2.8364
 4839SOL     OW26149   0.537   2.224   7.944 -0.5971 -0.1497  0.4594
 4839SOL    HW126150   0.561   2.174   8.023  0.2849  1.8451  1.4420
 4839SOL    HW226151   0.609   2.195   7.888 -0.4448 -1.2621  1.2149
 4840SOL     OW26152   4.367   3.075   4.602 -0.1303  0.0219 -0.0601
 4840SOL    HW126153   4.343   3.168   4.596 -1.9401 -0.7032 -3.5717
 4840SOL    HW226154   4.331   3.044   4.519 -0.8697  1.4244 -0.2679
 4841SOL     OW26155   4.290   1.777  17.395  0.2099  0.4576 -0.1005
 4841SOL    HW126156   4.245   1.860  17.378  0.5055  0.8235  0.9432
 4841SOL    HW226157   4.368   1.820  17.430  1.3469 -2.0439  0.4470
 4842SOL     OW26158   2.042   3.792   4.353 -0.1643 -0.1902 -0.3394
 4842SOL    HW126159   1.986   3.722   4.389 -1.5408  0.7682 -0.6211
 4842SOL    HW226160   2.106   3.744   4.301 -0.1042 -1.4444  0.8952
 4843SOL     OW26161   4.155   2.771   8.381  0.1986  0.2110  0.5540
 4843SOL    HW126162   4.078   2.757   8.326  2.1443 -0.3042 -1.9916
 4843SOL    HW226163   4.213   2.778   8.306  1.9473  2.6487  2.1178
 4844SOL     OW26164   4.570   1.885   5.279 -0.8060  0.3772  0.2179
 4844SOL    HW126165   4.625   1.826   5.332  0.9432 -1.5438 -3.6713
 4844SOL    HW226166   4.517   1.819   5.234 -0.2845  2.0188 -2.8342
 4845SOL     OW26167   4.355   0.929   4.956  0.6669  0.0063 -0.0748
 4845SOL    HW126168   4.409   0.994   5.001  2.1015 -0.5369 -1.0004
 4845SOL    HW226169   4.339   0.862   5.021 -0.1818 -0.7301 -1.0610
 4846SOL     OW26170   0.986   2.146  11.510 -0.3693 -0.2615  0.1336
 4846SOL    HW126171   1.051   2.080  11.484 -0.9831 -1.4127  1.5013
 4846SOL    HW226172   0.939   2.096  11.577 -3.4078 -0.6781 -2.2695
 4847SOL     OW26173   1.031   4.497   5.386 -0.0679 -0.0434 -0.4553
 4847SOL    HW126174   1.117   4.521   5.352  0.5846 -0.5876  0.8311
 4847SOL    HW226175   1.019   4.539   5.471 -0.8126  0.3187 -0.7389
 4848SOL     OW26176   1.923   4.242   2.956  0.7097 -0.1686  0.5180
 4848SOL    HW126177   1.949   4.326   2.919 -2.4587  0.1604 -0.9980
 4848SOL    HW226178   1.898   4.272   3.043  1.6452 -0.2116  0.7929
 4849SOL     OW26179   0.828   1.824   7.499  0.2040  0.5127 -0.0080
 4849SOL    HW126180   0.862   1.891   7.440  1.7708  2.7808  3.4915
 4849SOL    HW226181   0.899   1.759   7.494 -0.8813 -0.6046 -1.0466
 4850SOL     OW26182   4.325   1.161  12.198 -0.1752  0.3771 -0.3853
 4850SOL    HW126183   4.414   1.161  12.162  0.3493 -1.4894  0.8938
 4850SOL    HW226184   4.298   1.070  12.191  1.5801 -0.1896  0.1581
 4851SOL     OW26185   3.976   0.861  16.014 -0.3707 -0.7764  0.8480
 4851SOL    HW126186   3.928   0.913  16.078 -2.0449  1.6389 -2.4115
 4851SOL    HW226187   4.012   0.788  16.065  0.4658 -0.0712  1.2529
 4852SOL     OW26188   3.876   0.618  17.212  0.3492  0.0502  0.1835
 4852SOL    HW126189   3.788   0.618  17.174  1.3905 -0.2316 -2.2757
 4852SOL    HW226190   3.912   0.680  17.148  0.1782 -2.2264 -2.1494
 4853SOL     OW26191   2.852   0.112   5.789 -0.2368  0.2263 -0.2740
 4853SOL    HW126192   2.759   0.133   5.793  0.3739  2.6878  1.4004
 4853SOL    HW226193   2.849   0.033   5.843 -0.6377 -0.7241 -1.6861
 4854SOL     OW26194   4.113   4.245   9.044  0.3204 -0.2179  0.5786
 4854SOL    HW126195   4.096   4.312   9.110  2.3903  0.3462  0.5080
 4854SOL    HW226196   4.183   4.204   9.094 -0.4557  1.6636  3.2091
 4855SOL     OW26197   1.954   2.640   4.390 -0.1423  0.6116 -0.0643
 4855SOL    HW126198   1.963   2.545   4.399 -2.4471  0.3906  0.0566
 4855SOL    HW226199   1.876   2.643   4.334 -1.0635  1.0640  1.2569
 4856SOL     OW26200   4.599   4.648   0.483  0.2022 -0.1400  0.3768
 4856SOL    HW126201   4.634   4.663   0.571  0.7017  1.1070 -0.0384
 4856SOL    HW226202   4.513   4.689   0.482  0.0850 -0.4330 -1.4397
 4857SOL     OW26203   2.775   1.912  16.466  0.2030  0.7963  0.4338
 4857SOL    HW126204   2.735   1.935  16.383 -0.7526  0.3906  0.7876
 4857SOL    HW226205   2.808   1.823  16.451  2.1391  1.5697  0.0932
 4858SOL     OW26206   1.193   2.791   1.064 -0.1585 -0.2718  0.0173
 4858SOL    HW126207   1.233   2.748   1.140  0.7209  2.8643  1.3008
 4858SOL    HW226208   1.189   2.714   1.007  0.6551 -0.0562 -0.3317
 4859SOL     OW26209   4.153   2.849   7.190 -0.1952 -0.1711  0.0330
 4859SOL    HW126210   4.238   2.840   7.148  1.4333  1.0561  3.0859
 4859SOL    HW226211   4.114   2.918   7.136  1.9575 -0.4060 -1.8382
 4860SOL     OW26212   3.313   4.448   7.027  0.2185  0.3002 -0.6382
 4860SOL    HW126213   3.274   4.483   7.107  1.2058 -1.6176  0.6791
 4860SOL    HW226214   3.382   4.514   7.021 -0.4518  1.1084  0.5399
 4861SOL     OW26215   4.580   3.716   3.621 -0.1995 -0.6157 -0.1369
 4861SOL    HW126216   4.498   3.687   3.582 -1.2712  1.1045  0.8411
 4861SOL    HW226217   4.633   3.647   3.582 -3.1229 -2.5188 -0.6428
 4862SOL     OW26218   0.755   2.130   7.816  0.2944 -0.3947  0.3068
 4862SOL    HW126219   0.835   2.081   7.833 -0.9204 -2.0325  1.3732
 4862SOL    HW226220   0.787   2.185   7.746 -3.4200 -0.8385 -1.7813
 4863SOL     OW26221   1.708   3.275   8.676  0.2303  0.3162 -0.4651
 4863SOL    HW126222   1.663   3.305   8.598 -0.5379  0.0949 -0.1063
 4863SOL    HW226223   1.758   3.353   8.699  1.3639 -0.5111 -0.0900
 4864SOL     OW26224   1.364   2.963   9.713  0.3355  0.6950  0.0582
 4864SOL    HW126225   1.387   3.052   9.687  0.5216  1.3664  2.4961
 4864SOL    HW226226   1.337   2.926   9.629 -0.0267 -0.8168  0.8364
 4865SOL     OW26227   2.909   4.265   7.053  0.2099 -0.0006 -0.3445
 4865SOL    HW126228   2.817   4.270   7.080 -0.1759 -0.3924 -1.5479
 4865SOL    HW226229   2.938   4.220   7.132 -1.3866  0.9904  0.7946
 4866SOL     OW26230   2.218   1.339   7.145  0.0061 -0.0933 -0.6240
 4866SOL    HW126231   2.314   1.343   7.153  0.0848 -1.8275 -0.7431
 4866SOL    HW226232   2.184   1.406   7.204  2.2495  0.0462  0.5338
 4867SOL     OW26233   3.908   3.380   9.490  0.0625  0.0207 -0.3017
 4867SOL    HW126234   3.936   3.315   9.554  0.7923 -1.4783 -2.1562
 4867SOL    HW226235   3.908   3.456   9.549 -0.0481  0.0461 -0.3347
 4868SOL     OW26236   1.880   2.124   7.772  0.1696 -0.1962 -0.9000
 4868SOL    HW126237   1.952   2.064   7.795 -1.1532 -2.2605 -2.2212
 4868SOL    HW226238   1.879   2.181   7.849 -2.8641 -1.4316 -0.0261
 4869SOL     OW26239   3.262   0.099   5.900 -0.2749 -0.1808  0.1635
 4869SOL    HW126240   3.333   0.035   5.905  0.9823  1.2836  1.0643
 4869SOL    HW226241   3.295   0.121   5.813  1.3490 -0.2163  0.7756
 4870SOL     OW26242   0.436   1.865   5.997 -0.3792  0.4098 -0.1421
 4870SOL    HW126243   0.434   1.960   5.984  1.0810  0.2664 -1.3770
 4870SOL    HW226244   0.531   1.854   6.003 -0.2532  1.3353 -0.4253
 4871SOL     OW26245   2.660   2.432  15.177  1.0118 -0.3112  0.0510
 4871SOL    HW126246   2.600   2.390  15.116  0.4891 -0.5808  0.7464
 4871SOL    HW226247   2.685   2.518  15.143  0.5447 -0.6409 -1.1019
 4872SOL     OW26248   1.076   2.341   6.122  0.4658  0.1786 -0.0693
 4872SOL    HW126249   1.067   2.395   6.201  1.8989  0.5486 -0.1570
 4872SOL    HW226250   1.041   2.405   6.061  1.7958  1.1130  0.1379
 4873SOL     OW26251   2.046   1.051   2.159  0.2334  0.0863 -0.1221
 4873SOL    HW126252   2.034   1.140   2.126 -2.5503  0.3354  1.5677
 4873SOL    HW226253   2.087   1.066   2.244 -1.7333 -1.0682  1.0269
 4874SOL     OW26254   4.305   4.254  13.127  0.0332  0.2096 -0.8325
 4874SOL    HW126255   4.321   4.167  13.163  2.2762  0.3627 -1.4586
 4874SOL    HW226256   4.211   4.242  13.113 -0.2312 -1.2134  2.0442
 4875SOL     OW26257   0.486   1.547  15.320  0.3142  0.1448 -0.9173
 4875SOL    HW126258   0.499   1.453  15.311  1.3888  0.1150  1.0136
 4875SOL    HW226259   0.429   1.569  15.246  0.8688  0.7347 -1.1707
 4876SOL     OW26260   1.379   3.856   0.482 -0.1578  0.2637  0.4918
 4876SOL    HW126261   1.325   3.866   0.403 -0.1249  0.0330  0.4401
 4876SOL    HW226262   1.447   3.799   0.449  1.2622  0.9312  2.2695
 4877SOL     OW26263   4.707   1.131   5.350  0.0602 -0.2518  0.4180
 4877SOL    HW126264   4.613   1.150   5.359  0.5277  1.2818  2.0047
 4877SOL    HW226265   4.709   1.036   5.341  0.3357 -0.1780 -0.3119
 4878SOL     OW26266   1.603   1.603   2.390  1.3059  0.8423  0.5460
 4878SOL    HW126267   1.654   1.542   2.442  0.3749 -0.3328  0.0953
 4878SOL    HW226268   1.674   1.662   2.364  1.3381  0.8830  0.7300
 4879SOL     OW26269   4.678   1.404   7.039 -0.0802  0.0740 -0.4273
 4879SOL    HW126270   0.032   1.405   7.047 -0.0522 -3.8847 -0.1617
 4879SOL    HW226271   4.666   1.489   6.997 -1.3123  0.6829  1.1376
 4880SOL     OW26272   3.035   4.706   3.987 -0.2770  0.4379 -0.1991
 4880SOL    HW126273   2.947   4.703   4.026  0.2961 -0.8106  0.9992
 4880SOL    HW226274   3.089   4.727   4.063  0.7943 -0.3409 -0.7417
 4881SOL     OW26275   0.628   4.735   7.189 -0.6545 -0.0484  0.3835
 4881SOL    HW126276   0.667   0.054   7.126 -2.1724 -0.0677 -0.5614
 4881SOL    HW226277   0.679   4.655   7.174 -0.8583 -0.1542  0.2635
 4882SOL     OW26278   2.853   2.597  15.523 -0.2983 -0.1231  0.1387
 4882SOL    HW126279   2.838   2.536  15.596  2.1575  0.3133  1.0090
 4882SOL    HW226280   2.931   2.554  15.488  0.0153  2.0414 -1.8212
 4883SOL     OW26281   1.032   0.465   8.763 -0.0587  0.4859 -0.4463
 4883SOL    HW126282   0.943   0.454   8.728 -0.2662 -2.0430  0.8503
 4883SOL    HW226283   1.084   0.405   8.710  1.1370  1.4371 -0.3470
 4884SOL     OW26284   1.914   3.111  17.265  1.0261  0.2784  0.4447
 4884SOL    HW126285   1.925   3.170  17.190  1.1694  1.1059  1.1067
 4884SOL    HW226286   1.886   3.027  17.230  3.6802 -0.5740  0.3874
 4885SOL     OW26287   2.999   1.756  16.737  0.1216 -0.5957  0.1584
 4885SOL    HW126288   3.004   1.770  16.642  0.6078  0.9136  0.3943
 4885SOL    HW226289   2.917   1.800  16.760  1.2275  2.4535 -1.6880
 4886SOL     OW26290   3.774   3.786   3.941 -0.1138 -0.0119 -0.1642
 4886SOL    HW126291   3.717   3.727   3.893  0.7908 -1.7751  0.9378
 4886SOL    HW226292   3.846   3.806   3.880 -0.7579 -1.2353 -1.3129
 4887SOL     OW26293   3.110   2.741  10.586 -0.6583  0.4512 -0.4204
 4887SOL    HW126294   3.172   2.695  10.528  1.1982  1.4223  0.7903
 4887SOL    HW226295   3.045   2.671  10.595 -0.1947  0.0558 -0.0780
 4888SOL     OW26296   0.174   4.187  15.907  0.3501  0.7563  0.0483
 4888SOL    HW126297   0.134   4.253  15.851 -2.5377 -0.4301  0.7209
 4888SOL    HW226298   0.107   4.119  15.919  0.6218  0.3708 -0.6374
 4889SOL     OW26299   3.838   1.589  16.172 -0.0840  0.0634 -0.7238
 4889SOL    HW126300   3.833   1.643  16.252 -2.1681 -1.0973 -0.0669
 4889SOL    HW226301   3.771   1.522  16.188  0.6622 -0.7510 -1.0266
 4890SOL     OW26302   0.415   4.116  13.576 -0.1985 -0.4674 -0.6350
 4890SOL    HW126303   0.329   4.073  13.573  0.7964 -2.4542 -1.0414
 4890SOL    HW226304   0.443   4.121  13.484  2.3551  1.8348  0.2964
 4891SOL     OW26305   2.028   3.639   7.290 -0.4842  0.2824  0.5213
 4891SOL    HW126306   2.022   3.582   7.214  2.0428 -1.1248  1.3845
 4891SOL    HW226307   1.985   3.581   7.354 -0.9604 -1.3288 -1.2542
 4892SOL     OW26308   0.556   4.248  13.794 -0.1704 -0.7700 -0.3346
 4892SOL    HW126309   0.506   4.182  13.747 -1.2001 -0.7608  0.7463
 4892SOL    HW226310   0.587   4.301  13.720  0.9579  0.1536  0.7889
 4893SOL     OW26311   3.909   1.335   5.490  0.2641 -0.1336  0.0787
 4893SOL    HW126312   3.880   1.316   5.579 -0.3916  1.3482  0.1737
 4893SOL    HW226313   4.000   1.361   5.507 -0.2184  0.0193  2.4790
 4894SOL     OW26314   3.173   0.005   1.160 -0.1288 -0.2264 -0.6053
 4894SOL    HW126315   3.264   4.734   1.187  0.3513 -0.6849 -2.4326
 4894SOL    HW226316   3.181   4.728   1.067 -0.4778 -1.5722 -0.3612
 4895SOL     OW26317   2.895   0.691  14.485 -0.0435 -0.0845  0.4207
 4895SOL    HW126318   2.987   0.664  14.488 -0.0115  0.3375  4.0917
 4895SOL    HW226319   2.894   0.779  14.446  1.9411 -0.6808 -0.9600
 4896SOL     OW26320   3.288   3.989  17.632  0.1854 -0.3915  0.1165
 4896SOL    HW126321   3.307   3.897  17.617  1.3003 -0.6400  3.0714
 4896SOL    HW226322   3.350   4.030  17.573 -1.0821  1.8013  0.3134
 4897SOL     OW26323   4.134   3.507   6.912 -0.0397  0.6088 -0.3483
 4897SOL    HW126324   4.045   3.477   6.893 -0.2615  1.9201 -1.4227
 4897SOL    HW226325   4.168   3.439   6.970 -0.3449  1.3298  0.6797
 4898SOL     OW26326   3.695   1.099  12.986 -0.3043 -0.4495  0.3063
 4898SOL    HW126327   3.787   1.119  13.004  0.0388 -1.7746  0.0089
 4898SOL    HW226328   3.692   1.004  12.986 -0.7696 -0.4490 -2.4976
 4899SOL     OW26329   1.434   1.516   5.794 -0.2813  0.4328  0.0626
 4899SOL    HW126330   1.388   1.481   5.871  1.8638 -1.0365  0.6682
 4899SOL    HW226331   1.418   1.607   5.817  0.1876  0.2911  0.9402
 4900SOL     OW26332   4.132   2.041   5.248  0.0090  0.4837  0.1042
 4900SOL    HW126333   4.209   2.092   5.273  0.5446 -0.5016  0.4545
 4900SOL    HW226334   4.165   1.989   5.175  0.9623 -0.0924  0.9351
 4901SOL     OW26335   2.945   4.330  16.728 -0.3736 -0.4981  0.1665
 4901SOL    HW126336   2.937   4.414  16.774 -0.6505  0.9012 -2.3824
 4901SOL    HW226337   2.900   4.351  16.646 -1.0758 -0.7692  0.4841
 4902SOL     OW26338   0.643   4.220   8.574 -0.2258  0.0128 -0.1079
 4902SOL    HW126339   0.737   4.205   8.582 -0.5887 -0.3228  3.3373
 4902SOL    HW226340   0.626   4.132   8.542 -0.0763  0.4159 -1.2862
 4903SOL     OW26341   1.489   3.040  15.577 -0.1940  0.2351  0.0739
 4903SOL    HW126342   1.580   3.048  15.605  0.2106  0.1917 -1.1992
 4903SOL    HW226343   1.497   2.952  15.538  0.0521 -0.1149  0.9141
 4904SOL     OW26344   0.960   0.689  16.685  0.0008  0.1818 -0.0064
 4904SOL    HW126345   0.991   0.649  16.603 -0.3843  1.0060 -0.5505
 4904SOL    HW226346   0.958   0.783  16.666  4.0806  0.2001 -0.4481
 4905SOL     OW26347   3.699   2.084   2.861  0.0710  0.2772 -0.1999
 4905SOL    HW126348   3.755   2.145   2.909 -0.7450  1.2124 -0.4373
 4905SOL    HW226349   3.739   1.999   2.877 -3.1952 -1.3341 -0.5775
 4906SOL     OW26350   3.556   3.308  10.192 -0.2900  0.1030 -0.2039
 4906SOL    HW126351   3.484   3.271  10.141  0.2249  1.6080 -2.0157
 4906SOL    HW226352   3.529   3.263  10.272  2.0534  0.2785  0.6811
 4907SOL     OW26353   0.190   2.737   3.566  0.6088  0.2717 -0.4728
 4907SOL    HW126354   0.177   2.643   3.576 -0.6817  0.6962  2.0073
 4907SOL    HW226355   0.158   2.769   3.651 -0.5923  0.4050 -0.9707
 4908SOL     OW26356   0.714   2.972  12.704 -0.0982  0.0649 -0.6468
 4908SOL    HW126357   0.772   3.017  12.766  0.6936 -1.0525 -0.5848
 4908SOL    HW226358   0.626   3.001  12.727  0.2390  1.4510 -1.0688
 4909SOL     OW26359   3.314   4.373  17.057  0.1357 -0.3146  0.8092
 4909SOL    HW126360   3.345   4.459  17.085 -2.8265  0.6203  1.2501
 4909SOL    HW226361   3.220   4.393  17.059 -0.2006 -1.7810 -0.2059
 4910SOL     OW26362   4.400   3.242   3.109  0.1632 -0.6275 -0.5283
 4910SOL    HW126363   4.340   3.296   3.161 -1.2702 -2.3747 -0.3545
 4910SOL    HW226364   4.476   3.299   3.100  0.3097 -0.4955  1.5981
 4911SOL     OW26365   1.392   1.848   6.468  0.7185 -0.8019  0.0044
 4911SOL    HW126366   1.359   1.867   6.381  0.0239 -0.6647  0.3027
 4911SOL    HW226367   1.406   1.754   6.456 -1.8365 -1.2689  0.6628
 4912SOL     OW26368   3.028   2.201   4.555  0.2248 -0.2438  0.0218
 4912SOL    HW126369   3.035   2.122   4.502  0.8405  0.4984 -1.0113
 4912SOL    HW226370   3.010   2.266   4.487 -1.4202  0.1544  0.8397
 4913SOL     OW26371   0.196   4.647   5.561  0.0105  0.1974 -0.3546
 4913SOL    HW126372   0.286   4.658   5.590 -0.0689  0.8029 -0.3391
 4913SOL    HW226373   0.181   4.721   5.503 -0.5741  0.5884  0.2945
 4914SOL     OW26374   2.594   1.317   9.642 -0.2684  0.5181  0.5523
 4914SOL    HW126375   2.545   1.329   9.560  1.6525  1.7117 -0.4120
 4914SOL    HW226376   2.606   1.412   9.653 -1.9945  0.6539  1.2540
 4915SOL     OW26377   4.168   2.161   4.907 -0.0783 -0.1832 -0.5779
 4915SOL    HW126378   4.074   2.169   4.892 -0.1761 -1.8236 -0.8722
 4915SOL    HW226379   4.206   2.188   4.824 -1.1882 -0.8777 -1.3105
 4916SOL     OW26380   3.739   4.089   4.617 -0.2280  0.4515 -0.3257
 4916SOL    HW126381   3.795   4.057   4.546 -0.5282 -0.0943 -0.3161
 4916SOL    HW226382   3.718   4.170   4.571 -0.2536  0.5428 -0.1532
 4917SOL     OW26383   2.343   1.191   3.656  0.8247  0.5168 -0.1756
 4917SOL    HW126384   2.323   1.116   3.712  1.4385  1.9467  1.9374
 4917SOL    HW226385   2.310   1.267   3.704  1.1743 -1.3676  3.0600
 4918SOL     OW26386   0.940   3.582   3.698  0.2308 -0.4024  0.8585
 4918SOL    HW126387   0.904   3.495   3.683  0.9800 -0.5320 -0.2019
 4918SOL    HW226388   0.888   3.620   3.627  0.7767  0.4516  0.9162
 4919SOL     OW26389   3.603   3.673   5.993 -0.1658 -0.0249 -0.2867
 4919SOL    HW126390   3.552   3.685   5.913  0.9886 -0.3943 -1.0711
 4919SOL    HW226391   3.675   3.735   5.982  0.7877 -1.0882  0.0460
 4920SOL     OW26392   2.943   3.134   9.728  0.2756 -0.2307 -0.2386
 4920SOL    HW126393   2.976   3.222   9.747  2.7241 -0.9071 -1.3181
 4920SOL    HW226394   3.004   3.108   9.659  1.2547  1.4734 -0.0203
 4921SOL     OW26395   0.042   0.701   5.961  0.1191 -0.3678 -0.1567
 4921SOL    HW126396   4.702   0.680   6.007 -0.2633  2.3964  0.4476
 4921SOL    HW226397   0.035   0.664   5.873 -2.3491  0.7707 -0.4504
 4922SOL     OW26398   2.965   2.866   7.910 -0.0068  0.4215 -0.1442
 4922SOL    HW126399   3.016   2.811   7.970 -1.3190  0.1778  0.7485
 4922SOL    HW226400   2.958   2.798   7.843  2.8021  0.4217 -0.4104
 4923SOL     OW26401   2.115   4.139   5.424 -0.0810 -0.1646 -0.0411
 4923SOL    HW126402   2.174   4.193   5.372  0.1450  1.8989  2.3422
 4923SOL    HW226403   2.159   4.057   5.401 -1.2182 -1.0073  0.7909
 4924SOL     OW26404   4.541   2.891   2.610 -0.2582  0.2333 -0.1029
 4924SOL    HW126405   4.593   2.813   2.629  0.9915  1.1842  0.2896
 4924SOL    HW226406   4.501   2.877   2.524  0.4012  0.4356 -0.4386
 4925SOL     OW26407   0.597   2.703   6.388  0.0800  0.2625 -0.1343
 4925SOL    HW126408   0.521   2.680   6.442  0.7660 -2.0665 -0.1827
 4925SOL    HW226409   0.663   2.658   6.440  0.4156  1.9244  0.8646
 4926SOL     OW26410   3.140   3.526   7.070 -0.3466  0.0645 -0.3029
 4926SOL    HW126411   3.090   3.473   7.132  0.1297  0.1157  0.1228
 4926SOL    HW226412   3.153   3.605   7.122  3.3272 -2.9906  3.3437
 4927SOL     OW26413   4.464   2.929  14.860 -0.1704 -0.3509 -0.6106
 4927SOL    HW126414   4.423   2.988  14.798  0.8727  1.1887  0.1638
 4927SOL    HW226415   4.495   2.859  14.802 -1.3733 -0.1792 -1.4508
 4928SOL     OW26416   0.504   4.721   8.868 -0.0699  0.2124 -0.2346
 4928SOL    HW126417   0.575   4.681   8.917 -1.1415  1.3493  2.2253
 4928SOL    HW226418   0.436   4.660   8.897  1.5068 -1.2784  0.2624
 4929SOL     OW26419   0.436   0.190   4.116 -0.0701  0.1374 -0.0532
 4929SOL    HW126420   0.357   0.231   4.152  0.0923  0.5567 -0.1742
 4929SOL    HW226421   0.501   0.245   4.159  0.8519 -2.2206  1.4840
 4930SOL     OW26422   2.294   0.730   8.481  0.1575  0.0871 -0.4111
 4930SOL    HW126423   2.291   0.706   8.574  0.6044  1.0361 -0.1463
 4930SOL    HW226424   2.360   0.672   8.444 -1.2298 -1.8772  0.2056
 4931SOL     OW26425   3.577   3.785  15.370 -0.0996 -0.5663 -0.1925
 4931SOL    HW126426   3.663   3.823  15.389 -0.2433 -1.2455  1.8952
 4931SOL    HW226427   3.593   3.691  15.368  1.0027 -0.3940  0.1763
 4932SOL     OW26428   4.141   0.353  12.432  0.5938  0.6177 -0.4201
 4932SOL    HW126429   4.131   0.423  12.368  0.8597  2.3983  1.4725
 4932SOL    HW226430   4.052   0.321  12.444  1.0807  0.2023  2.0656
 4933SOL     OW26431   4.653   4.622   8.745 -0.5416  0.8207 -0.0553
 4933SOL    HW126432   4.697   4.700   8.781 -0.9717  1.2459 -0.4418
 4933SOL    HW226433   4.586   4.607   8.811 -1.4860 -0.2912 -1.2747
 4934SOL     OW26434   4.484   1.182   0.787 -0.3650 -0.4183 -0.1004
 4934SOL    HW126435   4.451   1.205   0.700  2.0610  0.9108 -0.6513
 4934SOL    HW226436   4.569   1.225   0.782 -1.0094  0.9333  0.4711
 4935SOL     OW26437   3.708   3.377   3.737  0.1789  0.0381 -0.3146
 4935SOL    HW126438   3.798   3.371   3.706  0.3895  1.5290 -0.0339
 4935SOL    HW226439   3.650   3.347   3.668  2.0867 -0.2965 -1.7922
 4936SOL     OW26440   0.030   2.004   3.711 -0.3110 -0.4265 -0.4414
 4936SOL    HW126441   4.687   1.959   3.709 -0.2565 -0.5408 -0.1357
 4936SOL    HW226442   0.037   2.038   3.800 -1.4846  0.6540 -0.7658
 4937SOL     OW26443   4.038   3.021   3.225 -0.0778  0.3463 -0.0864
 4937SOL    HW126444   4.121   2.974   3.220 -0.4862 -0.5296  1.2583
 4937SOL    HW226445   3.996   2.963   3.289  0.3137  0.2807  0.1096
 4938SOL     OW26446   3.491   0.942  14.721 -0.3695 -0.8234  0.2162
 4938SOL    HW126447   3.571   0.895  14.700 -0.6343 -1.3230  0.3003
 4938SOL    HW226448   3.503   1.027  14.679  0.3117 -0.9289  0.1965
 4939SOL     OW26449   4.028   4.144   7.510 -0.3491 -0.5309 -0.0101
 4939SOL    HW126450   3.957   4.137   7.574 -0.8947  2.1106 -0.3285
 4939SOL    HW226451   4.082   4.216   7.542 -0.5252  0.3271 -1.6828
 4940SOL     OW26452   3.426   1.243   3.154 -0.3572 -0.0840  0.8121
 4940SOL    HW126453   3.361   1.263   3.221  0.0629  0.3961  1.0809
 4940SOL    HW226454   3.499   1.227   3.214 -0.8125 -0.0076  1.3875
 4941SOL     OW26455   3.511   4.172   2.205  0.2886 -0.6273  0.0531
 4941SOL    HW126456   3.465   4.097   2.242 -0.6873 -1.0439 -1.9954
 4941SOL    HW226457   3.544   4.129   2.126 -1.1413 -1.1138 -0.2684
 4942SOL     OW26458   4.090   1.133   5.921  0.0472 -0.2460 -0.0659
 4942SOL    HW126459   4.071   1.123   6.014 -0.9899  3.3122  0.1045
 4942SOL    HW226460   4.061   1.049   5.884  1.1653  0.1551 -1.8597
 4943SOL     OW26461   4.245   3.801  11.336  0.0453 -0.6285  0.0073
 4943SOL    HW126462   4.306   3.787  11.264  0.5831  2.7640 -0.2322
 4943SOL    HW226463   4.161   3.779  11.294  0.2019  0.3066 -0.8139
 4944SOL     OW26464   2.480   4.403  15.730 -0.3001  0.2942  0.1339
 4944SOL    HW126465   2.500   4.375  15.641 -0.7604 -4.5131  1.5529
 4944SOL    HW226466   2.551   4.461  15.758 -0.1209  1.1643 -2.1318
 4945SOL     OW26467   1.834   3.802  11.184 -0.1735  0.0580 -0.1802
 4945SOL    HW126468   1.903   3.868  11.176 -0.2052  0.3101  1.5392
 4945SOL    HW226469   1.756   3.849  11.214  1.0080  1.7320  0.3001
 4946SOL     OW26470   3.646   2.956   2.724 -0.4233 -0.4379  0.3713
 4946SOL    HW126471   3.631   2.930   2.633 -1.0885  0.0735  0.3321
 4946SOL    HW226472   3.651   3.051   2.719 -1.4448 -0.4221 -0.4799
 4947SOL     OW26473   2.713   1.923   3.120 -0.1175 -0.1041  0.2035
 4947SOL    HW126474   2.697   1.943   3.213 -2.2531 -1.5670  0.1529
 4947SOL    HW226475   2.748   2.009   3.096 -3.0342  1.3903  1.2939
 4948SOL     OW26476   4.442   2.567  15.595 -0.1837 -0.2897  0.5210
 4948SOL    HW126477   4.473   2.646  15.640 -3.2658  0.9345  0.4702
 4948SOL    HW226478   4.364   2.561  15.650 -0.4431 -0.3944  0.1320
 4949SOL     OW26479   1.436   3.594   5.521 -0.2594  0.4741  0.1545
 4949SOL    HW126480   1.446   3.542   5.442 -0.3949 -0.2353  0.6097
 4949SOL    HW226481   1.347   3.628   5.518 -0.5710 -0.2391  1.2729
 4950SOL     OW26482   0.357   1.632  13.238  0.3655  0.0262 -0.2176
 4950SOL    HW126483   0.331   1.599  13.324 -0.3768  2.1183  0.3491
 4950SOL    HW226484   0.444   1.592  13.234  0.2388 -0.1343 -1.2458
 4951SOL     OW26485   1.403   1.814   7.672  0.1743 -0.1057 -0.2110
 4951SOL    HW126486   1.414   1.746   7.737 -1.7299  0.1996  0.4188
 4951SOL    HW226487   1.465   1.784   7.605  0.5576 -3.3751  1.6013
 4952SOL     OW26488   0.604   1.363   1.206  0.0257 -0.1299  0.4720
 4952SOL    HW126489   0.636   1.451   1.183  0.2145 -0.1053  0.8319
 4952SOL    HW226490   0.636   1.353   1.296  3.6132  0.9760 -0.6809
 4953SOL     OW26491   2.539   4.718   7.252  0.0445  0.3306  0.6776
 4953SOL    HW126492   2.466   4.680   7.204 -0.0352  0.1610  0.9335
 4953SOL    HW226493   2.487   0.018   7.321 -1.4245  2.5205 -1.7448
 4954SOL     OW26494   1.304   4.122   7.175  0.6774  0.1640  0.1941
 4954SOL    HW126495   1.296   4.210   7.138 -0.2609 -0.7099 -1.6918
 4954SOL    HW226496   1.399   4.116   7.173  0.8215  1.9963  1.0343
 4955SOL     OW26497   2.558   2.502   8.461  0.0830  0.0063  0.9870
 4955SOL    HW126498   2.614   2.505   8.538 -0.3225  0.2605  1.2700
 4955SOL    HW226499   2.540   2.408   8.452 -1.8384  0.3126  1.6342
 4956SOL     OW26500   3.177   1.347   2.920 -1.1718 -0.4969 -0.6609
 4956SOL    HW126501   3.218   1.390   2.845  1.0521 -1.6357 -0.0915
 4956SOL    HW226502   3.244   1.367   2.986  0.1000  0.5355 -2.2750
 4957SOL     OW26503   0.675   0.102  13.189  1.1757  0.1007  0.2357
 4957SOL    HW126504   0.694   0.137  13.103 -2.5071 -2.4945 -1.6242
 4957SOL    HW226505   0.658   0.183  13.237  2.3254 -0.6239  1.8907
 4958SOL     OW26506   1.969   1.791  14.002  0.0831 -0.0249  0.2468
 4958SOL    HW126507   1.999   1.858  14.063 -1.0324 -0.2697  1.0807
 4958SOL    HW226508   1.955   1.718  14.062  1.1696  0.0756  0.6159
 4959SOL     OW26509   0.407   4.537   1.792 -0.1303 -0.0877 -0.3773
 4959SOL    HW126510   0.380   4.575   1.876 -0.6945 -1.3835  0.0384
 4959SOL    HW226511   0.381   4.614   1.742  1.2204 -0.2156 -1.2490
 4960SOL     OW26512   3.028   0.537   4.192 -0.8541 -0.1828  0.1717
 4960SOL    HW126513   3.045   0.449   4.224  1.0820 -0.4321 -1.4959
 4960SOL    HW226514   2.937   0.526   4.164 -1.1664 -1.0322  1.5533
 4961SOL     OW26515   2.978   0.853  14.783 -0.7445 -0.5436  0.4400
 4961SOL    HW126516   2.901   0.868  14.729 -1.6608  0.4055  2.0371
 4961SOL    HW226517   2.971   0.759  14.800 -2.3001 -0.9935 -2.6477
 4962SOL     OW26518   3.650   2.639   7.935 -0.1482  0.0323  0.0484
 4962SOL    HW126519   3.684   2.728   7.927 -0.0677  0.1841  1.9973
 4962SOL    HW226520   3.677   2.581   7.864  1.8354 -0.2103  0.9941
 4963SOL     OW26521   0.900   1.806   5.327 -0.1644 -0.8222  0.3720
 4963SOL    HW126522   0.843   1.732   5.310 -0.2113 -0.9344  1.0213
 4963SOL    HW226523   0.971   1.752   5.361 -0.8631 -0.4442  2.4374
 4964SOL     OW26524   0.903   3.439   5.142  0.1366 -0.2352 -0.3619
 4964SOL    HW126525   0.876   3.388   5.219 -0.8671  1.9498  0.7166
 4964SOL    HW226526   0.901   3.531   5.167  1.5483 -0.3073 -0.0118
 4965SOL     OW26527   1.003   4.575   6.093  1.1045 -0.1297  0.3872
 4965SOL    HW126528   0.949   4.526   6.031 -0.7556  1.5966  0.6211
 4965SOL    HW226529   0.956   4.558   6.175 -0.8468  0.1032 -0.6719
 4966SOL     OW26530   3.860   3.857  13.968  1.1709  0.3809  0.3203
 4966SOL    HW126531   3.906   3.783  13.929  0.6124 -0.0819  0.5435
 4966SOL    HW226532   3.936   3.905  14.002  0.4261  0.0705  2.4212
 4967SOL     OW26533   2.364   3.396  11.516  0.0502  0.2253 -0.0700
 4967SOL    HW126534   2.440   3.360  11.563  0.1614 -0.0560 -0.4712
 4967SOL    HW226535   2.358   3.325  11.453  0.9914  0.7976 -0.8190
 4968SOL     OW26536   1.856   2.614   9.201 -0.4624 -0.5222  0.4851
 4968SOL    HW126537   1.931   2.629   9.144 -0.6438 -2.3313 -0.2607
 4968SOL    HW226538   1.828   2.527   9.170  2.5302 -1.9877  1.8437
 4969SOL     OW26539   3.123   1.416   5.478  0.2632  0.0525  0.0194
 4969SOL    HW126540   3.208   1.456   5.497 -0.5130  1.8617 -0.2814
 4969SOL    HW226541   3.130   1.407   5.383 -0.3352  1.7650 -0.1942
 4970SOL     OW26542   3.906   3.294   2.735  0.2647  0.6153 -0.7211
 4970SOL    HW126543   3.948   3.379   2.746  2.6560 -0.3579 -2.2828
 4970SOL    HW226544   3.915   3.289   2.640 -0.4847 -2.5041 -0.6297
 4971SOL     OW26545   1.737   2.785   2.724 -0.2685 -1.0017 -0.5349
 4971SOL    HW126546   1.796   2.822   2.791 -0.3389 -1.7391 -0.0679
 4971SOL    HW226547   1.754   2.693   2.742  2.2913 -0.8818 -2.3299
 4972SOL     OW26548   0.777   3.807   0.277  0.7184 -0.1295 -0.1810
 4972SOL    HW126549   0.782   3.897   0.245  0.4530  0.1934  0.6894
 4972SOL    HW226550   0.778   3.756   0.196 -1.9175  2.5401 -1.8813
 4973SOL     OW26551   1.712   3.672  12.759 -0.5233 -0.2791 -1.0084
 4973SOL    HW126552   1.778   3.687  12.692  0.8034  1.7573  0.7345
 4973SOL    HW226553   1.672   3.598  12.712 -1.1811 -0.1935 -0.5832
 4974SOL     OW26554   2.597   2.413  13.390 -0.1605 -0.1444 -0.0416
 4974SOL    HW126555   2.605   2.460  13.473 -2.5448  0.7406 -0.3258
 4974SOL    HW226556   2.674   2.451  13.347  1.4353 -1.0949  1.9575
 4975SOL     OW26557   0.911   3.453   3.066  0.6272 -0.7212 -0.0482
 4975SOL    HW126558   0.932   3.360   3.064  0.9092 -0.6495 -0.5229
 4975SOL    HW226559   0.834   3.458   3.010  0.9178  0.1241 -0.3796
 4976SOL     OW26560   2.843   2.012   2.027 -0.3745  0.1536  0.8955
 4976SOL    HW126561   2.805   1.939   2.075 -3.0172  2.0947  1.7658
 4976SOL    HW226562   2.784   2.087   2.033  0.0931  0.4928  1.2530
 4977SOL     OW26563   1.109   1.216   1.707 -0.1092  0.9028  0.2898
 4977SOL    HW126564   1.039   1.275   1.682 -0.5865 -0.6160 -1.8971
 4977SOL    HW226565   1.167   1.275   1.756  0.9748 -0.4782  0.6703
 4978SOL     OW26566   2.428   1.868   4.605  0.0490  0.0245  0.0708
 4978SOL    HW126567   2.522   1.852   4.605  0.1848  0.8081 -0.8215
 4978SOL    HW226568   2.429   1.958   4.637  0.5900 -0.0411  0.2284
 4979SOL     OW26569   0.951   1.406   9.017 -0.9337 -0.3037  0.1304
 4979SOL    HW126570   0.936   1.444   9.104  0.8763 -1.2928  0.8786
 4979SOL    HW226571   1.008   1.334   9.043 -1.8450 -1.4878 -1.1633
 4980SOL     OW26572   3.119   3.762   9.633 -0.0839 -0.7970 -0.1877
 4980SOL    HW126573   3.121   3.824   9.706  1.9061 -0.6606 -0.3796
 4980SOL    HW226574   3.031   3.774   9.598  0.5684  3.1686 -0.4319
 4981SOL     OW26575   3.081   2.926   6.119 -0.2116  0.4002  0.4126
 4981SOL    HW126576   3.036   2.954   6.038 -0.6214 -0.4048  0.3589
 4981SOL    HW226577   3.172   2.919   6.093 -0.1708 -0.9936  0.9518
 4982SOL     OW26578   1.382   0.671  10.153 -0.2563 -0.4743 -0.6730
 4982SOL    HW126579   1.450   0.608  10.177 -0.0555 -1.1245 -3.0116
 4982SOL    HW226580   1.313   0.605  10.159  0.4554 -1.0031  1.9116
 4983SOL     OW26581   1.268   1.572   1.919  0.2311  0.1297  0.2484
 4983SOL    HW126582   1.180   1.541   1.940  0.9138 -2.6789 -0.9674
 4983SOL    HW226583   1.265   1.665   1.942  0.9844  0.2398 -0.0741
 4984SOL     OW26584   4.576   0.660   6.139 -0.0276  0.0715  0.5667
 4984SOL    HW126585   4.562   0.626   6.227 -0.0193  0.4789  0.7238
 4984SOL    HW226586   4.488   0.656   6.102  0.5778  0.3455 -0.9178
 4985SOL     OW26587   3.551   2.981   2.226  0.4600  0.1660  0.9276
 4985SOL    HW126588   3.599   2.980   2.144  0.6034 -4.5391  1.0505
 4985SOL    HW226589   3.582   3.051   2.284  0.3993  1.2600 -0.3656
 4986SOL     OW26590   1.528   2.348   6.161 -0.6953 -0.3675 -0.1345
 4986SOL    HW126591   1.538   2.288   6.235  0.8568 -1.7134 -1.4353
 4986SOL    HW226592   1.617   2.384   6.151 -0.8859  0.0193 -0.4405
 4987SOL     OW26593   2.304   3.176  13.004 -0.1918  0.3067 -0.2341
 4987SOL    HW126594   2.323   3.262  12.969 -1.0757  0.0545 -1.3339
 4987SOL    HW226595   2.209   3.170  13.000 -0.2854  0.2672  1.8663
 4988SOL     OW26596   2.087   4.518   1.466 -0.2168 -0.3064  0.1743
 4988SOL    HW126597   2.112   4.426   1.456  0.5938 -0.1283  0.5431
 4988SOL    HW226598   2.120   4.529   1.555 -0.4990  0.2447  0.2087
 4989SOL     OW26599   0.003   1.451   4.477 -0.3496 -0.1551 -0.1119
 4989SOL    HW126600   0.016   1.357   4.461 -0.7633 -0.5652  2.0162
 4989SOL    HW226601   4.650   1.449   4.492 -0.4976 -1.0603 -1.1686
 4990SOL     OW26602   4.514   4.556   6.888  0.4244  0.0072 -0.0696
 4990SOL    HW126603   4.550   4.635   6.929  1.7823 -1.7031  2.0237
 4990SOL    HW226604   4.457   4.592   6.820 -2.0153 -0.3384  1.7628
 4991SOL     OW26605   1.713   4.461  15.334  0.3276 -0.3011 -0.0627
 4991SOL    HW126606   1.676   4.388  15.383  1.6388 -0.3018  0.9277
 4991SOL    HW226607   1.797   4.429  15.301  0.8115  0.8890  0.0120
 4992SOL     OW26608   3.902   2.803   2.398  0.3589  0.5691  0.5950
 4992SOL    HW126609   3.907   2.726   2.454 -0.9435 -0.4460 -0.6777
 4992SOL    HW226610   3.883   2.762   2.313  1.8325 -0.0447  0.5525
 4993SOL     OW26611   4.170   1.557  17.311 -0.2714  0.3018  0.8778
 4993SOL    HW126612   4.084   1.600  17.310 -0.2897  0.2222 -1.0540
 4993SOL    HW226613   4.231   1.629  17.329  0.2871  0.7536 -2.6462
 4994SOL     OW26614   0.598   0.416   6.877  0.1623 -0.0471 -0.1134
 4994SOL    HW126615   0.508   0.402   6.848 -0.0468  1.3046 -0.1180
 4994SOL    HW226616   0.593   0.440   6.969 -0.8194 -1.3876  0.1828
 4995SOL     OW26617   3.702   1.774  15.557  0.0288 -0.2450 -0.1890
 4995SOL    HW126618   3.690   1.680  15.569 -3.2039  0.4855  2.3446
 4995SOL    HW226619   3.788   1.787  15.597  1.2636 -0.8238 -2.6187
 4996SOL     OW26620   1.714   0.139   3.184 -0.0482  0.4328 -0.9829
 4996SOL    HW126621   1.762   0.206   3.134  2.8883 -0.5229  0.5302
 4996SOL    HW226622   1.648   0.106   3.123 -0.3398 -1.6381  0.5022
 4997SOL     OW26623   1.112   0.938  10.225  0.0316 -0.4931  0.0177
 4997SOL    HW126624   1.047   0.979  10.281 -0.3902  1.2930 -1.7740
 4997SOL    HW226625   1.126   0.850  10.262 -1.4389  0.1363  2.0224
 4998SOL     OW26626   3.076   0.692   0.925  0.0816  0.0464  0.0301
 4998SOL    HW126627   3.129   0.735   0.991 -0.2595 -0.1377  0.4284
 4998SOL    HW226628   3.005   0.664   0.984 -0.0252  1.8053  0.7279
 4999SOL     OW26629   2.127   3.665   0.691  0.6947 -0.1993 -0.4857
 4999SOL    HW126630   2.167   3.580   0.672  1.9677  0.0892  0.9388
 4999SOL    HW226631   2.198   3.707   0.739 -0.2476  0.9030 -0.0385
 5000SOL     OW26632   0.114   3.013  10.573  0.2767 -0.2182 -0.1025
 5000SOL    HW126633   0.156   2.934  10.605  1.0548  0.5419  0.7545
 5000SOL    HW226634   0.136   3.012  10.480 -0.2371  1.3535 -0.2449
 5001SOL     OW26635   2.833   0.658   8.210 -0.5325 -0.6355 -0.3151
 5001SOL    HW126636   2.866   0.634   8.296  2.4321 -2.1630 -1.8569
 5001SOL    HW226637   2.805   0.749   8.222 -0.1600 -0.8422  1.9917
 5002SOL     OW26638   4.384   3.932   1.056 -0.5442  0.5225  0.1917
 5002SOL    HW126639   4.456   3.952   0.998 -2.2801  1.1671 -1.7335
 5002SOL    HW226640   4.320   3.892   0.998  0.9726 -3.2501  1.1146
 5003SOL     OW26641   0.335   4.362  10.049  0.4376 -0.3458 -0.0415
 5003SOL    HW126642   0.240   4.361  10.061  0.5024 -2.0738  0.4302
 5003SOL    HW226643   0.341   4.443   9.998 -0.6155  1.5017  2.8296
 5004SOL     OW26644   2.300   1.995   3.267  0.2390 -0.2293  0.5735
 5004SOL    HW126645   2.323   2.001   3.360  2.1857 -0.7866  0.1357
 5004SOL    HW226646   2.321   1.901   3.262 -0.9924 -0.4222 -1.1461
 5005SOL     OW26647   1.484   3.934  10.691 -0.3904  0.5729 -0.2174
 5005SOL    HW126648   1.397   3.900  10.672 -0.4208  1.3081 -1.4391
 5005SOL    HW226649   1.481   4.012  10.635  1.0981  1.4909  0.9582
 5006SOL     OW26650   1.506   3.847   5.648  0.4115  0.4948  0.0900
 5006SOL    HW126651   1.431   3.843   5.706 -1.2001  0.0133 -2.0241
 5006SOL    HW226652   1.493   3.761   5.609  0.8312  0.3805  0.1984
 5007SOL     OW26653   0.841   0.456   7.012  0.0765 -0.1837  0.0262
 5007SOL    HW126654   0.771   0.491   6.958 -1.5287 -1.5724  1.2425
 5007SOL    HW226655   0.840   0.363   6.989  2.2612  0.1796 -1.6022
 5008SOL     OW26656   0.277   4.071  13.109 -0.9848 -0.8099 -0.0858
 5008SOL    HW126657   0.197   4.020  13.097 -2.7853  2.3007 -1.1549
 5008SOL    HW226658   0.311   4.085  13.021 -0.5756  0.3376  0.2683
 5009SOL     OW26659   0.453   4.569   1.435  0.0305 -0.2542 -1.0491
 5009SOL    HW126660   0.452   4.645   1.494 -0.1491 -0.1966 -1.1266
 5009SOL    HW226661   0.396   4.601   1.366 -0.8172  0.0213 -0.2292
 5010SOL     OW26662   1.849   2.068  17.006 -0.6515 -0.2549  0.5950
 5010SOL    HW126663   1.839   2.126  16.931 -0.0646 -2.8170 -1.4708
 5010SOL    HW226664   1.770   2.017  16.989 -1.2675  0.3426  1.6502
 5011SOL     OW26665   0.583   1.466   3.345  0.2486  0.5953  0.1929
 5011SOL    HW126666   0.605   1.384   3.389  0.7791 -1.7198 -4.4369
 5011SOL    HW226667   0.669   1.497   3.317 -1.0566  0.5332 -3.8734
 5012SOL     OW26668   1.555   3.195  13.324  0.2951  0.5500  0.3410
 5012SOL    HW126669   1.527   3.233  13.407 -1.0352 -0.2333  0.2498
 5012SOL    HW226670   1.648   3.190  13.347  0.6947  1.6352 -1.0198
 5013SOL     OW26671   0.503   2.053   7.603 -0.1258  0.5359  0.2133
 5013SOL    HW126672   0.592   2.089   7.600 -0.4126  0.9506 -2.4650
 5013SOL    HW226673   0.459   2.124   7.650  2.7333  3.1918 -1.1383
 5014SOL     OW26674   1.188   4.044   7.473  0.9494 -0.1114 -0.0452
 5014SOL    HW126675   1.174   4.011   7.384 -0.6253 -0.0479  0.1784
 5014SOL    HW226676   1.282   4.025   7.483  0.6089 -2.4315 -1.1718
 5015SOL     OW26677   1.032   0.701   0.703 -0.4080 -0.1204 -0.6685
 5015SOL    HW126678   1.105   0.689   0.643 -0.2670 -2.0039 -0.1118
 5015SOL    HW226679   1.011   0.791   0.680  1.1747  0.1116 -1.1835
 5016SOL     OW26680   1.500   1.580   7.795 -0.0891 -0.6227 -0.0290
 5016SOL    HW126681   1.588   1.615   7.786 -1.0260  1.7786  0.3267
 5016SOL    HW226682   1.513   1.500   7.846  2.3432  0.0442  0.3698
 5017SOL     OW26683   3.241   1.897   4.503  0.0080  0.1720  0.8377
 5017SOL    HW126684   3.228   1.915   4.596 -1.3505  2.3922  0.2214
 5017SOL    HW226685   3.150   1.886   4.476  0.5894  0.3056 -1.1791
 5018SOL     OW26686   0.417   2.793   0.020 -0.1331  0.1081  0.2732
 5018SOL    HW126687   0.422   2.702  17.756  2.8117  0.2176  0.4615
 5018SOL    HW226688   0.506   2.807   0.054 -0.3270 -1.3849  1.3959
 5019SOL     OW26689   1.833   2.958   7.745 -0.4706 -0.9736 -0.6614
 5019SOL    HW126690   1.846   2.910   7.827  0.6849 -0.6319 -0.6402
 5019SOL    HW226691   1.798   3.042   7.776 -0.2950 -0.3275 -2.1942
 5020SOL     OW26692   3.043   2.089   5.537 -0.3462 -0.5218 -0.1960
 5020SOL    HW126693   3.044   2.034   5.615  0.4916 -1.5616 -0.9513
 5020SOL    HW226694   2.951   2.090   5.513 -0.2553 -1.6318 -0.5601
 5021SOL     OW26695   2.540   0.100  10.025  0.2275  0.0292 -0.3766
 5021SOL    HW126696   2.471   0.165  10.042  0.0444  0.2279 -1.8573
 5021SOL    HW226697   2.558   0.066  10.112 -3.2922 -1.5681 -0.2659
 5022SOL     OW26698   3.052   2.762  14.954 -0.3066  0.1811  1.0091
 5022SOL    HW126699   3.080   2.724  15.037 -0.6239  0.5385  1.2779
 5022SOL    HW226700   2.965   2.726  14.939 -0.5520  0.6311  1.3531
 5023SOL     OW26701   3.923   1.729  15.955  0.4256 -0.2147  0.2180
 5023SOL    HW126702   3.875   1.661  16.002 -1.7949  1.1421 -0.0480
 5023SOL    HW226703   3.915   1.803  16.015 -2.3248 -1.3166  1.2164
 5024SOL     OW26704   1.009   2.902  17.680 -0.1148 -0.0583 -0.4884
 5024SOL    HW126705   0.954   2.846  17.626 -2.3078  0.9139  0.7419
 5024SOL    HW226706   0.968   2.985  17.658  0.3999  0.0067 -1.1923
 5025SOL     OW26707   2.726   3.779   0.255 -0.2459  0.2074  0.3685
 5025SOL    HW126708   2.809   3.779   0.304  0.4519  0.2377 -0.8024
 5025SOL    HW226709   2.665   3.720   0.298 -0.6750  1.3700  1.3485
 5026SOL     OW26710   0.329   3.978   5.039  0.4260  0.4421  0.7148
 5026SOL    HW126711   0.356   3.886   5.045 -1.5852 -0.1501  0.7291
 5026SOL    HW226712   0.301   3.987   4.948 -1.1127 -2.5632  0.8969
 5027SOL     OW26713   4.684   0.122  16.559 -0.7590 -0.5626 -0.1349
 5027SOL    HW126714   4.692   0.046  16.618  0.6756 -0.1514  0.2108
 5027SOL    HW226715   0.022   0.168  16.584 -2.0916  1.7091 -0.1110
 5028SOL     OW26716   1.524   1.607   8.303  0.1492 -0.3183  0.0993
 5028SOL    HW126717   1.452   1.663   8.275  0.7601  0.8950  0.9346
 5028SOL    HW226718   1.570   1.607   8.219 -1.7789  0.5837 -0.9398
 5029SOL     OW26719   3.122   2.671   5.829 -0.0715  0.7599 -0.1414
 5029SOL    HW126720   3.155   2.702   5.745  2.1068 -0.2952  0.3176
 5029SOL    HW226721   3.163   2.585   5.844  0.2553  1.1713  1.2869
 5030SOL     OW26722   0.997   0.717   1.521 -0.4909  0.4358 -0.2064
 5030SOL    HW126723   0.958   0.803   1.540  0.0452  0.6933 -0.2714
 5030SOL    HW226724   1.082   0.746   1.489  0.0235 -0.6675  0.1741
 5031SOL     OW26725   0.209   1.334  13.391  0.1506  1.0178 -0.0265
 5031SOL    HW126726   0.263   1.257  13.369 -0.2118  0.5739  0.6688
 5031SOL    HW226727   0.175   1.356  13.304  0.3134 -0.7613 -0.5504
 5032SOL     OW26728   0.471   3.739   2.275  0.3906 -0.2245 -0.5695
 5032SOL    HW126729   0.460   3.709   2.365  2.4761  1.4244  0.2322
 5032SOL    HW226730   0.534   3.674   2.244 -0.5558 -0.6193 -1.6974
 5033SOL     OW26731   4.619   1.943   7.832  0.6173 -0.4638  1.0123
 5033SOL    HW126732   4.642   2.025   7.788 -1.3776 -0.2435  0.3879
 5033SOL    HW226733   4.604   1.965   7.924  0.3536 -1.2867  1.1611
 5034SOL     OW26734   1.600   1.046   7.735  0.4901 -0.4992  0.3092
 5034SOL    HW126735   1.515   1.052   7.779  0.4389  0.6089  0.0516
 5034SOL    HW226736   1.658   1.043   7.811  1.9525 -1.1581 -0.8331
 5035SOL     OW26737   3.868   0.611   2.386 -0.1616  0.2851  0.0654
 5035SOL    HW126738   3.901   0.618   2.296  0.9604  2.1933  0.6247
 5035SOL    HW226739   3.868   0.516   2.395 -0.8988  0.1333 -1.4601
 5036SOL     OW26740   1.969   4.083   0.588 -0.0059  0.4348  0.1209
 5036SOL    HW126741   2.038   4.018   0.574  0.0407  0.5992 -0.4223
 5036SOL    HW226742   1.957   4.070   0.682  0.4070 -0.5029  0.0491
 5037SOL     OW26743   0.691   2.120  12.963  0.3495 -0.6526  0.3616
 5037SOL    HW126744   0.696   2.172  13.043 -0.9209  1.7509 -1.0727
 5037SOL    HW226745   0.747   2.166  12.900 -0.3534  0.2382  0.3796
 5038SOL     OW26746   0.989   0.733   5.679 -0.7757  0.1726  0.1894
 5038SOL    HW126747   0.990   0.759   5.771 -0.0227 -0.2458  0.2977
 5038SOL    HW226748   0.995   0.639   5.694  3.1201  0.7734  2.3140
 5039SOL     OW26749   2.431   2.301   1.595  1.0174 -0.0137 -0.0483
 5039SOL    HW126750   2.503   2.255   1.639 -0.7130 -2.7073 -0.0257
 5039SOL    HW226751   2.485   2.319   1.518  2.9044  0.7045  1.4258
 5040SOL     OW26752   1.363   0.415   3.458 -0.5274 -0.0884 -0.1589
 5040SOL    HW126753   1.430   0.480   3.437  0.1262 -0.9385 -0.7035
 5040SOL    HW226754   1.354   0.434   3.551 -1.4955 -0.1376 -0.2357
 5041SOL     OW26755   2.892   2.630   5.994  0.2008 -0.6859  0.0324
 5041SOL    HW126756   2.828   2.627   5.922  0.2401  1.1741 -0.0818
 5041SOL    HW226757   2.967   2.657   5.942  0.5276  0.8212  1.2914
 5042SOL     OW26758   3.184   2.580  10.208 -0.1962  0.0035 -0.6862
 5042SOL    HW126759   3.153   2.539  10.289 -0.4762  2.8569  0.6255
 5042SOL    HW226760   3.277   2.558  10.198 -0.2563 -1.0837  1.1733
 5043SOL     OW26761   1.767   0.818  10.434  0.1610 -0.0595  0.2160
 5043SOL    HW126762   1.762   0.820  10.530  1.8786 -0.3903  0.3265
 5043SOL    HW226763   1.682   0.854  10.411 -0.2374 -0.4782  1.0469
 5044SOL     OW26764   2.911   0.750   6.383  0.3214 -0.2211  0.0472
 5044SOL    HW126765   2.909   0.839   6.420 -0.1107  0.1704 -0.8982
 5044SOL    HW226766   2.859   0.707   6.451 -0.1273  0.1135 -0.0843
 5045SOL     OW26767   1.219   3.091  10.845  0.1064 -0.4423 -0.5926
 5045SOL    HW126768   1.185   3.001  10.846 -0.5333 -0.2166 -1.4376
 5045SOL    HW226769   1.311   3.074  10.825 -0.2618 -1.4836 -1.4036
 5046SOL     OW26770   4.189   3.347   9.587  0.0645 -0.1438  0.8147
 5046SOL    HW126771   4.148   3.431   9.606  1.3428  0.4958  0.7525
 5046SOL    HW226772   4.130   3.283   9.627 -1.8977  0.5253 -1.0506
 5047SOL     OW26773   4.057   3.218  12.782  0.4204 -0.2409  0.1152
 5047SOL    HW126774   4.045   3.258  12.868  0.2713 -1.1941  0.5366
 5047SOL    HW226775   3.966   3.232  12.755  1.4398  1.1858 -2.6179
 5048SOL     OW26776   0.081   4.319   7.571  0.6852 -0.4557 -0.0252
 5048SOL    HW126777   0.040   4.356   7.649  1.8536  1.1998 -0.2124
 5048SOL    HW226778   0.048   4.229   7.580  3.1962 -1.4279 -0.5384
 5049SOL     OW26779   0.207   2.285   1.864 -0.0420  0.4503 -0.4240
 5049SOL    HW126780   0.248   2.349   1.807  3.0236  1.5881  3.0305
 5049SOL    HW226781   0.164   2.236   1.794 -0.7742 -2.2524  1.8978
 5050SOL     OW26782   4.050   4.189  13.055 -0.0615  0.2052 -0.2635
 5050SOL    HW126783   3.960   4.195  13.020  0.8331  0.1294 -2.6045
 5050SOL    HW226784   4.086   4.112  13.011  1.3237  2.1084 -2.4216
 5051SOL     OW26785   1.183   3.903  10.859  0.2230  0.4011  0.5204
 5051SOL    HW126786   1.095   3.939  10.856  0.4647  0.6734 -3.3630
 5051SOL    HW226787   1.226   3.950  10.931  0.7290 -0.8647  1.0295
 5052SOL     OW26788   1.560   4.165   4.920  0.1942 -0.0407 -0.0511
 5052SOL    HW126789   1.630   4.229   4.914 -1.0962  1.4926  1.1450
 5052SOL    HW226790   1.611   4.086   4.902  1.0762 -0.0848  2.6509
 5053SOL     OW26791   2.941   2.025   8.822  0.0403  0.0366 -0.4546
 5053SOL    HW126792   2.965   2.115   8.844  0.3323 -0.3668  0.8954
 5053SOL    HW226793   3.026   1.980   8.824  0.5198  1.0260  2.8502
 5054SOL     OW26794   1.824   2.217  12.700  0.2158 -0.4188 -0.4309
 5054SOL    HW126795   1.846   2.145  12.758 -1.1418 -0.5939 -0.1209
 5054SOL    HW226796   1.803   2.178  12.615  0.2214 -2.9076  0.7186
 5055SOL     OW26797   1.196   3.932   9.144  0.5549  1.0419  0.3876
 5055SOL    HW126798   1.196   4.018   9.101  0.4912 -1.9672 -5.6643
 5055SOL    HW226799   1.285   3.925   9.179  1.5890 -1.6491 -2.7963
 5056SOL     OW26800   3.816   2.284   9.370 -0.6904 -0.1427 -0.4228
 5056SOL    HW126801   3.729   2.253   9.345  0.7076 -1.6486 -3.4189
 5056SOL    HW226802   3.833   2.228   9.446  0.2404 -0.3817 -0.8039
 5057SOL     OW26803   1.256   0.865  16.110  0.1931 -0.1674 -0.3118
 5057SOL    HW126804   1.326   0.929  16.097  0.2041 -0.1988 -0.4052
 5057SOL    HW226805   1.299   0.780  16.110  1.7162  0.6061 -0.4572
 5058SOL     OW26806   2.965   1.574  12.140  0.2600  0.0964  0.2228
 5058SOL    HW126807   2.915   1.515  12.196 -0.6563  1.8415  1.2559
 5058SOL    HW226808   2.971   1.643  12.207  2.6705  0.7618 -0.6797
 5059SOL     OW26809   2.621   3.041   8.558 -0.4874  0.1009  0.3350
 5059SOL    HW126810   2.557   2.970   8.566  0.2389 -0.6095 -0.0180
 5059SOL    HW226811   2.693   2.979   8.571 -0.5757 -0.0901 -0.0628
 5060SOL     OW26812   2.040   1.681   8.041  0.0414  0.1226  0.1030
 5060SOL    HW126813   2.044   1.624   7.964  1.2718  0.7074 -0.2776
 5060SOL    HW226814   2.133   1.683   8.062  1.1242  2.2751 -4.6180
 5061SOL     OW26815   1.716   3.092   4.342 -0.5422  0.1879  0.6855
 5061SOL    HW126816   1.661   3.027   4.298  0.1482  0.1783 -0.1688
 5061SOL    HW226817   1.665   3.173   4.332  3.5718  2.6977  0.1073
 5062SOL     OW26818   2.633   2.667   2.734 -0.1519  0.5208  0.4790
 5062SOL    HW126819   2.624   2.617   2.653  0.6940  3.0336 -1.1534
 5062SOL    HW226820   2.545   2.645   2.767  0.1387 -1.5955 -0.1584
 5063SOL     OW26821   0.140   0.995   4.303  0.5247 -0.0260 -0.1848
 5063SOL    HW126822   0.219   0.954   4.265  0.1022 -3.5008  2.6583
 5063SOL    HW226823   0.110   1.047   4.229 -1.1281  1.0021  1.2234
 5064SOL     OW26824   3.964   4.111   7.036 -0.7544  0.4429  0.7549
 5064SOL    HW126825   3.976   4.018   7.059  2.8801  0.7892  0.3409
 5064SOL    HW226826   4.053   4.146   7.044 -0.4085 -0.4354  0.8637
 5065SOL     OW26827   3.834   4.509   8.136 -0.0621  0.5454  0.3754
 5065SOL    HW126828   3.738   4.515   8.138 -0.0489  0.7923  0.3158
 5065SOL    HW226829   3.847   4.486   8.044  0.4226  0.9168  0.3464
 5066SOL     OW26830   3.456   1.962  16.726  0.1935  0.1097 -0.2645
 5066SOL    HW126831   3.373   1.917  16.708  0.0725 -0.5564  1.9536
 5066SOL    HW226832   3.423   2.037  16.776 -0.0770 -1.5246  1.9860
 5067SOL     OW26833   0.773   3.304  11.482 -0.6212 -0.2216  0.0201
 5067SOL    HW126834   0.740   3.297  11.571 -0.3759  1.4179  0.2338
 5067SOL    HW226835   0.866   3.282  11.488 -0.5788 -0.2660 -0.7438
 5068SOL     OW26836   1.375   3.632   9.038 -0.2916  0.7373 -0.8054
 5068SOL    HW126837   1.431   3.592   9.103 -0.3666  1.7500 -0.1165
 5068SOL    HW226838   1.300   3.650   9.094 -0.6252  0.3389 -1.1247
 5069SOL     OW26839   1.964   4.381  15.297 -0.0481 -0.1227  0.2916
 5069SOL    HW126840   2.042   4.388  15.353  0.7128  1.9618 -1.0240
 5069SOL    HW226841   2.005   4.385  15.211  0.5903 -0.7811  0.5675
 5070SOL     OW26842   3.623   1.255   8.241 -0.2305 -0.6858  0.0994
 5070SOL    HW126843   3.610   1.239   8.335 -3.2093 -0.5775 -0.2852
 5070SOL    HW226844   3.667   1.176   8.211 -0.6882 -1.5301  1.6800
 5071SOL     OW26845   3.160   4.120  16.483 -0.0624  0.2843 -0.3820
 5071SOL    HW126846   3.186   4.158  16.399 -0.0464 -2.2530 -1.5126
 5071SOL    HW226847   3.188   4.029  16.472 -0.7499 -0.3550  3.1072
 5072SOL     OW26848   3.096   2.830   3.230 -0.6130 -0.2113  0.1396
 5072SOL    HW126849   3.050   2.914   3.229 -0.0399  0.0923 -0.6789
 5072SOL    HW226850   3.102   2.815   3.136 -1.5571 -0.1524  0.0699
 5073SOL     OW26851   3.660   4.611   6.513 -0.2540  0.1458  0.6061
 5073SOL    HW126852   3.664   4.531   6.566  0.8515  0.0116  0.3119
 5073SOL    HW226853   3.692   4.675   6.577  2.2101 -3.9062  3.4143
 5074SOL     OW26854   2.613   0.534   1.163 -0.1579  0.6669  0.2478
 5074SOL    HW126855   2.559   0.552   1.240 -0.9404  0.2068 -0.2000
 5074SOL    HW226856   2.571   0.587   1.095  0.6763  0.9867 -0.0297
 5075SOL     OW26857   0.417   3.269   4.705 -0.0152  0.1279  0.2172
 5075SOL    HW126858   0.387   3.276   4.614  1.9967  1.4874 -0.3402
 5075SOL    HW226859   0.492   3.328   4.709  1.4763 -1.8391  1.1744
 5076SOL     OW26860   3.600   0.960   4.123 -0.1868  0.6934 -0.5374
 5076SOL    HW126861   3.674   0.974   4.182  2.3211  0.4286 -3.5717
 5076SOL    HW226862   3.598   0.865   4.117 -1.4224  0.7174 -0.2898
 5077SOL     OW26863   2.494   3.801   6.288  0.3946  0.0153  0.4541
 5077SOL    HW126864   2.462   3.747   6.361 -2.1459 -0.0944 -0.7689
 5077SOL    HW226865   2.433   3.773   6.221  1.9878 -1.0276 -0.5580
 5078SOL     OW26866   0.327   1.056   1.873 -0.2006 -0.6985  0.1729
 5078SOL    HW126867   0.351   1.075   1.782 -2.2960 -3.2350 -0.9032
 5078SOL    HW226868   0.412   1.040   1.915  0.0441  0.7286  0.2336
 5079SOL     OW26869   4.545   2.748   7.650  0.1580  0.1493 -0.1909
 5079SOL    HW126870   4.614   2.720   7.710  0.7787  2.4615  0.1870
 5079SOL    HW226871   4.590   2.805   7.588  1.5555 -0.5783  0.1631
 5080SOL     OW26872   3.569   2.252   6.954  0.6298  0.1766  0.4651
 5080SOL    HW126873   3.635   2.301   6.905  1.1608  1.6151  2.5858
 5080SOL    HW226874   3.569   2.305   7.035  3.7944 -1.7691  1.7362
 5081SOL     OW26875   3.549   4.099   6.251 -0.1135  0.2735 -0.1223
 5081SOL    HW126876   3.478   4.137   6.302 -0.2971 -1.6960  1.0603
 5081SOL    HW226877   3.529   4.006   6.261  1.2308 -0.0360 -0.3347
 5082SOL     OW26878   3.218   4.260   9.400 -0.6494  0.5554 -0.1188
 5082SOL    HW126879   3.189   4.180   9.444  1.8088  0.3106  1.0526
 5082SOL    HW226880   3.141   4.313   9.422  0.0915  1.0134  1.3763
 5083SOL     OW26881   3.216   3.858  16.474  0.4803  0.1350  0.2245
 5083SOL    HW126882   3.263   3.848  16.391  1.5676  1.1914  0.7078
 5083SOL    HW226883   3.146   3.793  16.463  1.9499 -1.1686 -1.2912
 5084SOL     OW26884   3.479   1.154  13.230  0.0123  0.5977 -0.0515
 5084SOL    HW126885   3.406   1.200  13.272 -2.0830 -1.0922 -1.8073
 5084SOL    HW226886   3.550   1.212  13.256  0.8741 -0.8371  0.7286
 5085SOL     OW26887   0.877   2.835  16.424  0.5648  0.4780 -0.4172
 5085SOL    HW126888   0.873   2.776  16.498  0.6622  1.8727  0.7007
 5085SOL    HW226889   0.844   2.914  16.466  1.9224  0.9142 -0.1821
 5086SOL     OW26890   2.432   2.719   6.192 -0.0247 -0.1042 -0.8541
 5086SOL    HW126891   2.468   2.656   6.254  0.1528 -0.0792 -0.9333
 5086SOL    HW226892   2.428   2.669   6.110  0.4650 -1.4107 -0.0632
 5087SOL     OW26893   2.480   0.318   7.409 -0.3301  0.0462  0.1879
 5087SOL    HW126894   2.530   0.277   7.480 -0.6726 -0.1964  0.2921
 5087SOL    HW226895   2.537   0.386   7.373 -1.2317  1.1359  0.8195
 5088SOL     OW26896   3.891   2.990   4.704  0.2840  0.4250  0.5479
 5088SOL    HW126897   3.817   3.041   4.737  0.5857  2.0909 -1.3499
 5088SOL    HW226898   3.869   2.984   4.611  0.7137  0.8810  0.4231
 5089SOL     OW26899   1.174   0.653  14.486 -0.8401  0.0952  0.5874
 5089SOL    HW126900   1.198   0.737  14.524  1.2085  0.7672 -2.1943
 5089SOL    HW226901   1.079   0.657  14.472 -0.6202 -1.0348 -1.2504
 5090SOL     OW26902   1.799   1.739   8.465 -0.1069  0.1886  0.0146
 5090SOL    HW126903   1.721   1.707   8.510 -0.5973  2.3406  0.7321
 5090SOL    HW226904   1.758   1.807   8.412 -0.8977  0.7810  1.3852
 5091SOL     OW26905   0.082   0.321   1.027  0.3816 -0.1807  0.0893
 5091SOL    HW126906   0.052   0.397   1.078 -0.3092 -0.4507  0.0943
 5091SOL    HW226907   0.040   0.341   0.944 -1.2073 -0.8558  0.7145
 5092SOL     OW26908   3.728   0.012   1.551  0.4694 -0.0131 -0.3455
 5092SOL    HW126909   3.700   0.102   1.536  0.8086  0.2010  0.3179
 5092SOL    HW226910   3.683   4.728   1.632  1.6202 -0.0894  0.2688
 5093SOL     OW26911   1.631   0.556   2.254  0.7480 -0.3131  0.4788
 5093SOL    HW126912   1.698   0.488   2.250  1.4806  0.4565 -0.3084
 5093SOL    HW226913   1.672   0.641   2.273  1.7602 -0.5790 -0.5486
 5094SOL     OW26914   3.502   2.166   2.488 -0.3322 -0.3624 -0.3399
 5094SOL    HW126915   3.408   2.156   2.501 -0.2850 -0.7664 -0.2902
 5094SOL    HW226916   3.499   2.196   2.397  1.1508  0.2547 -0.1811
 5095SOL     OW26917   2.815   4.576   5.130  0.0555 -0.3701  0.3002
 5095SOL    HW126918   2.721   4.565   5.118  0.2900 -1.6195 -0.4185
 5095SOL    HW226919   2.831   4.485   5.156  1.3468 -0.0228  0.7592
 5096SOL     OW26920   2.927   1.073  13.670  0.5425 -0.3813 -0.0431
 5096SOL    HW126921   2.918   0.982  13.640 -1.0476 -0.2010 -0.0741
 5096SOL    HW226922   2.838   1.084  13.702  0.9056 -1.7230  1.4325
 5097SOL     OW26923   2.099   0.076   3.052 -0.0173  0.3195  0.6929
 5097SOL    HW126924   2.164   0.126   3.003  1.8494 -0.5575  2.2813
 5097SOL    HW226925   2.049   0.144   3.097  1.3640  0.7534  1.5645
 5098SOL     OW26926   2.402   0.108   4.163 -0.3347 -0.0348  0.5581
 5098SOL    HW126927   2.452   0.142   4.089  0.0744 -0.8528  0.4676
 5098SOL    HW226928   2.469   0.122   4.229  1.0836  0.7246 -1.0341
 5099SOL     OW26929   0.880   0.951  10.611  0.4387 -0.1927  0.2516
 5099SOL    HW126930   0.898   0.896  10.535 -1.5728 -0.8024  0.2357
 5099SOL    HW226931   0.934   1.030  10.604 -0.5604  0.4660  0.0038
 5100SOL     OW26932   0.440   3.825   6.654  0.4888 -1.1240 -0.3966
 5100SOL    HW126933   0.487   3.878   6.590  0.4180 -0.2081  0.3171
 5100SOL    HW226934   0.351   3.834   6.619  0.9329  2.0725 -0.6922
 5101SOL     OW26935   1.257   2.906   8.414  0.4253  0.6029 -0.0110
 5101SOL    HW126936   1.242   2.872   8.325 -0.2265  1.8444 -0.3750
 5101SOL    HW226937   1.320   2.977   8.403  0.4186  0.4385 -1.0934
 5102SOL     OW26938   3.575   2.574   6.214 -0.1174 -0.2029  0.3638
 5102SOL    HW126939   3.656   2.551   6.168 -0.3303 -0.3106  0.0436
 5102SOL    HW226940   3.558   2.500   6.271 -1.2949  0.3014  0.6728
 5103SOL     OW26941   4.040   2.232   7.582 -0.0750 -0.3610  0.3537
 5103SOL    HW126942   4.119   2.207   7.534 -0.4894 -0.3885 -0.3180
 5103SOL    HW226943   4.017   2.316   7.543 -1.5580 -0.3837  1.1610
 5104SOL     OW26944   2.592   2.608   4.205 -0.2929 -0.3880 -0.8062
 5104SOL    HW126945   2.580   2.518   4.236 -3.3918  0.7895  1.4497
 5104SOL    HW226946   2.534   2.654   4.265 -0.5369  0.5825 -1.7898
 5105SOL     OW26947   4.331   1.960  11.770  0.0801 -0.1835  0.0320
 5105SOL    HW126948   4.295   1.914  11.694 -0.6230 -0.8100  0.7336
 5105SOL    HW226949   4.388   2.033  11.748  0.4043  0.0627  1.6705
 5106SOL     OW26950   3.627   3.585  11.786  0.4431 -0.1997  0.0229
 5106SOL    HW126951   3.581   3.509  11.821 -0.6796 -0.3286 -1.7518
 5106SOL    HW226952   3.559   3.616  11.727 -0.9290 -2.1247  0.5730
 5107SOL     OW26953   2.240   1.687   8.643  0.4014  0.5075  0.1355
 5107SOL    HW126954   2.166   1.653   8.592  1.8254  0.3853 -1.8390
 5107SOL    HW226955   2.259   1.614   8.701 -3.5790 -2.2169 -1.9846
 5108SOL     OW26956   0.970   0.852  14.969  0.3999  0.3509 -0.2447
 5108SOL    HW126957   1.014   0.793  15.030 -0.3491 -1.1138 -1.1358
 5108SOL    HW226958   0.894   0.865  15.026 -1.5055 -2.2065 -2.2525
 5109SOL     OW26959   4.214   1.772  10.140  0.0817 -0.0017  0.1030
 5109SOL    HW126960   4.182   1.859  10.166  0.5680 -0.2401  1.5460
 5109SOL    HW226961   4.132   1.727  10.123  0.0556  1.1491 -2.7424
 5110SOL     OW26962   0.460   2.587   8.547 -1.1644 -0.2804 -0.3951
 5110SOL    HW126963   0.498   2.657   8.494  0.5271 -1.4697 -0.7663
 5110SOL    HW226964   0.390   2.631   8.594 -1.9959 -0.2889 -1.6117
 5111SOL     OW26965   2.421   3.888   3.316  0.2865  0.0871  0.2754
 5111SOL    HW126966   2.400   3.842   3.398 -4.0627  0.4137 -0.6619
 5111SOL    HW226967   2.495   3.940   3.348  0.7699 -1.0251  1.0183
 5112SOL     OW26968   4.185   3.324   2.870 -0.9896 -0.0090 -0.4656
 5112SOL    HW126969   4.115   3.260   2.871  0.0829 -1.1623  0.7545
 5112SOL    HW226970   4.263   3.274   2.846 -0.8238  0.0347 -0.0249
 5113SOL     OW26971   4.497   2.346   8.295  0.4391 -0.0832 -0.0109
 5113SOL    HW126972   4.489   2.352   8.390 -2.4388  2.8407 -0.4400
 5113SOL    HW226973   4.420   2.401   8.276 -1.0114 -2.8437 -2.1753
 5114SOL     OW26974   0.503   2.322   0.492  0.1766  0.0457 -0.0319
 5114SOL    HW126975   0.537   2.296   0.578 -2.8325 -0.5094  0.9830
 5114SOL    HW226976   0.571   2.385   0.468 -1.1217  1.1924 -0.7545
 5115SOL     OW26977   4.408   4.142  12.308  0.3207  0.1331  0.3549
 5115SOL    HW126978   4.366   4.219  12.348 -1.7420 -1.4127  1.1929
 5115SOL    HW226979   4.396   4.069  12.369 -1.4177 -0.0892 -0.2302
 5116SOL     OW26980   0.346   4.440   4.497  0.2373  0.2074 -0.5968
 5116SOL    HW126981   0.386   4.415   4.580 -1.9757  1.5807  0.8847
 5116SOL    HW226982   0.352   4.534   4.512  0.0037  0.2746 -0.9169
 5117SOL     OW26983   0.988   2.674   3.010 -0.2825  0.0340 -0.4842
 5117SOL    HW126984   0.931   2.702   2.939 -2.2907 -1.7109  0.4567
 5117SOL    HW226985   0.925   2.637   3.072 -0.4725 -0.7544 -1.1573
 5118SOL     OW26986   0.190   4.292   5.282 -0.2851 -0.1762 -0.0973
 5118SOL    HW126987   0.117   4.315   5.224 -0.6491  0.2510  0.5265
 5118SOL    HW226988   0.237   4.375   5.278  0.2179 -0.5361 -1.6465
 5119SOL     OW26989   1.518   4.661   4.008  0.2733 -0.8489 -0.8017
 5119SOL    HW126990   1.462   4.618   4.072  1.1693 -1.1606 -0.2170
 5119SOL    HW226991   1.531   4.594   3.941 -0.5051 -0.9428 -0.8553
 5120SOL     OW26992   3.342   0.089   5.628  0.2050 -0.1197  0.6868
 5120SOL    HW126993   3.391   0.170   5.616  1.4461 -0.6683  2.0730
 5120SOL    HW226994   3.272   0.097   5.563  2.0793 -1.3368 -1.4942
 5121SOL     OW26995   1.428   1.382   3.639 -0.2583  0.1660 -0.5592
 5121SOL    HW126996   1.471   1.406   3.721  0.9798 -2.5252 -0.4251
 5121SOL    HW226997   1.494   1.323   3.602  0.2301  0.6797 -0.5134
 5122SOL     OW26998   1.860   0.892   8.871 -0.4249 -0.2701 -0.2400
 5122SOL    HW126999   1.783   0.884   8.927  0.1457  1.5380  0.8082
 5122SOL    HW227000   1.859   0.988   8.864 -0.3627 -0.3001 -0.6490
 5123SOL     OW27001   4.556   3.267   2.486 -0.4843  0.1228  0.2501
 5123SOL    HW127002   4.509   3.251   2.568  1.0473  0.7963  1.2509
 5123SOL    HW227003   4.504   3.344   2.461  0.7391  1.1546  0.9110
 5124SOL     OW27004   0.740   0.802  15.133  0.3306 -0.2122 -0.0059
 5124SOL    HW127005   0.774   0.843  15.213  0.0981  0.0456 -0.0393
 5124SOL    HW227006   0.646   0.808  15.149  0.1163  2.9942 -2.4696
 5125SOL     OW27007   4.337   0.109   7.399 -0.2715  0.3494 -0.1588
 5125SOL    HW127008   4.283   0.184   7.373 -0.6264 -0.1578 -0.8911
 5125SOL    HW227009   4.313   0.076   7.486 -1.3557  0.9677 -0.2188
 5126SOL     OW27010   0.175   0.835  15.667  0.4252 -0.0979  0.8343
 5126SOL    HW127011   0.235   0.761  15.660 -0.2161 -0.5076 -0.3995
 5126SOL    HW227012   0.235   0.902  15.633  0.2316 -0.6151 -0.5439
 5127SOL     OW27013   2.592   4.276   9.140  0.0229 -0.8112  0.0990
 5127SOL    HW127014   2.595   4.186   9.174 -1.3054 -0.2309  1.7315
 5127SOL    HW227015   2.640   4.314   9.214 -0.1553  0.1776 -0.2927
 5128SOL     OW27016   0.189   3.602  14.032 -0.4387  0.5063  0.5062
 5128SOL    HW127017   0.155   3.514  14.018  0.1515  0.1017  1.5734
 5128SOL    HW227018   0.271   3.596  13.983 -0.3500 -0.4223  0.7702
 5129SOL     OW27019   2.841   1.706   2.582 -0.1840 -0.6602 -0.4228
 5129SOL    HW127020   2.853   1.635   2.519 -2.3342 -0.5896 -0.9112
 5129SOL    HW227021   2.752   1.680   2.606 -0.6468  1.2492 -0.1079
 5130SOL     OW27022   4.632   1.969   1.541 -0.2064  0.2534 -0.1137
 5130SOL    HW127023   4.596   1.890   1.499 -0.3768  1.2876 -1.8971
 5130SOL    HW227024   4.557   1.996   1.595 -0.2472 -0.9221  0.4356
 5131SOL     OW27025   0.194   1.058   6.703  0.2143 -0.3647 -0.2118
 5131SOL    HW127026   0.240   1.058   6.787  0.8587  0.4470 -0.5664
 5131SOL    HW227027   0.105   1.071   6.735  0.0689 -1.0837 -0.3049
 5132SOL     OW27028   1.768   2.402   9.065 -0.3643  0.7654 -0.5101
 5132SOL    HW127029   1.782   2.310   9.089 -1.4384  0.1322 -2.3258
 5132SOL    HW227030   1.806   2.408   8.978  0.6090  2.5737  0.0361
 5133SOL     OW27031   0.120   0.714   3.560  0.4119  0.2663  0.3429
 5133SOL    HW127032   0.103   0.795   3.512 -2.1240 -1.2732 -1.3449
 5133SOL    HW227033   0.126   0.649   3.491 -1.4005  1.1266 -0.6367
 5134SOL     OW27034   3.767   2.950   9.766 -0.3017  0.1730  0.0981
 5134SOL    HW127035   3.753   2.869   9.814 -0.2880  0.2396  0.2155
 5134SOL    HW227036   3.814   3.003   9.830 -1.2244  0.9647  0.1253
 5135SOL     OW27037   3.601   2.010   3.393 -0.0048  0.0692  0.0278
 5135SOL    HW127038   3.524   2.044   3.438  0.6761  2.8255 -0.8383
 5135SOL    HW227039   3.571   2.032   3.305  1.1305 -1.7989 -0.8138
 5136SOL     OW27040   0.139   1.159   9.043  0.1017 -0.1632  0.4229
 5136SOL    HW127041   0.155   1.088   9.105  1.8550  0.1336  0.3221
 5136SOL    HW227042   0.207   1.218   9.075  0.0574  0.6061 -0.8902
 5137SOL     OW27043   0.087   0.084   3.719  0.0127  0.2878 -0.3956
 5137SOL    HW127044   0.017   0.026   3.689  1.4056 -2.4199  1.6211
 5137SOL    HW227045   0.130   0.027   3.782 -1.8119 -1.3795 -0.6868
 5138SOL     OW27046   3.479   4.249   0.032  0.3985  0.2998  0.1005
 5138SOL    HW127047   3.457   4.342   0.027  0.5661  0.4201  1.5448
 5138SOL    HW227048   3.479   4.226  17.703 -0.4133  3.3175 -0.6572
 5139SOL     OW27049   3.290   0.513   4.024 -0.6772  0.0241  0.5024
 5139SOL    HW127050   3.209   0.498   4.074 -1.0544  0.1545 -0.0609
 5139SOL    HW227051   3.273   0.591   3.972  0.9634  0.3189  0.4247
 5140SOL     OW27052   0.996   3.784   2.553  0.1555  0.7242 -0.4613
 5140SOL    HW127053   1.031   3.873   2.557  0.5953  0.4912  0.9069
 5140SOL    HW227054   0.944   3.771   2.633  1.1300  0.6191  0.1537
 5141SOL     OW27055   4.104   2.986   1.976  0.2850 -0.1749  0.1114
 5141SOL    HW127056   4.061   2.964   1.894  0.4605  2.0337 -0.5807
 5141SOL    HW227057   4.174   3.046   1.948 -0.4231  0.1657 -0.9230
 5142SOL     OW27058   2.209   3.914   4.571 -0.5021  0.5456 -0.0827
 5142SOL    HW127059   2.139   3.890   4.510 -0.6986  0.5552  0.1390
 5142SOL    HW227060   2.251   3.982   4.519 -3.1513  0.5530 -2.2577
 5143SOL     OW27061   1.994   1.380   1.566 -0.0920 -0.4340  0.4439
 5143SOL    HW127062   2.071   1.427   1.533  0.7067 -1.7634  0.4330
 5143SOL    HW227063   1.942   1.347   1.493  0.4717 -0.8225  0.2157
 5144SOL     OW27064   4.644   0.056  15.834  0.3564  0.4158 -0.4088
 5144SOL    HW127065   4.572   0.043  15.774 -1.6112  2.5958  1.4942
 5144SOL    HW227066   4.602   0.075  15.918  0.6635 -0.0176 -0.1490
 5145SOL     OW27067   4.592   4.577   2.216  0.1278  0.4203  0.3620
 5145SOL    HW127068   4.540   4.633   2.158 -2.1318  1.4244  3.3368
 5145SOL    HW227069   4.677   4.596   2.177  0.0130 -2.1519 -1.1160
 5146SOL     OW27070   1.297   3.119   6.278  0.3083 -0.1000 -0.3065
 5146SOL    HW127071   1.261   3.187   6.336 -0.4961  0.4091 -1.3953
 5146SOL    HW227072   1.254   3.142   6.195  0.0313 -0.3631 -0.2330
 5147SOL     OW27073   3.735   0.868  17.535 -0.2601  0.7517 -0.3571
 5147SOL    HW127074   3.653   0.819  17.533 -0.5627  1.2031  0.7330
 5147SOL    HW227075   3.801   0.800  17.548 -1.0985  0.0161  0.1086
 5148SOL     OW27076   0.990   1.599   7.458  0.4057  0.2711  0.0082
 5148SOL    HW127077   0.941   1.544   7.520  0.8276 -0.4103 -0.2587
 5148SOL    HW227078   0.975   1.556   7.374 -1.2505  0.8497  0.0003
 5149SOL     OW27079   2.743   3.812  10.319 -0.7527  0.1245 -0.0617
 5149SOL    HW127080   2.765   3.838  10.408  1.2488 -1.2093 -0.1588
 5149SOL    HW227081   2.742   3.716  10.330  0.9952  0.1095 -0.1076
 5150SOL     OW27082   2.882   2.785   6.221  0.1862 -0.0345 -0.1072
 5150SOL    HW127083   2.892   2.709   6.164 -0.7365  0.0013 -0.3189
 5150SOL    HW227084   2.958   2.833   6.187  0.5023 -0.2615  0.2727
 5151SOL     OW27085   1.752   3.098   1.911 -0.0286  0.3006  0.5915
 5151SOL    HW127086   1.818   3.047   1.959  1.3906 -2.0078 -3.8616
 5151SOL    HW227087   1.783   3.104   1.821  0.0365  1.9832  0.7241
 5152SOL     OW27088   2.139   2.956  16.006  0.1560  0.0861  0.2313
 5152SOL    HW127089   2.114   3.039  16.045  0.8012  0.4458 -0.1246
 5152SOL    HW227090   2.208   2.988  15.948 -2.2893  1.0689 -2.1163
 5153SOL     OW27091   4.156   4.424  17.498 -0.0079 -0.1181 -0.3543
 5153SOL    HW127092   4.096   4.368  17.447 -0.2392  0.5710 -0.8419
 5153SOL    HW227093   4.086   4.474  17.541 -0.4842 -0.2237 -1.0054
 5154SOL     OW27094   2.291   0.524   3.422  0.2236 -0.2304 -0.2061
 5154SOL    HW127095   2.247   0.446   3.388  3.6595 -2.3785  0.2660
 5154SOL    HW227096   2.378   0.500   3.389  0.5954  0.2093  0.4591
 5155SOL     OW27097   3.076   3.277   8.161  0.0830 -0.4710 -0.5816
 5155SOL    HW127098   2.987   3.310   8.174  1.4394  2.8668  0.2611
 5155SOL    HW227099   3.062   3.243   8.073  0.8242  0.6814 -1.1463
 5156SOL     OW27100   3.169   1.317   5.082 -0.3548 -0.1318  0.3089
 5156SOL    HW127101   3.179   1.312   4.987 -2.0707  0.6143  0.0904
 5156SOL    HW227102   3.080   1.288   5.103 -0.3515 -0.1284  0.3277
 5157SOL     OW27103   1.285   2.269  15.236  0.3361  0.2388 -0.1816
 5157SOL    HW127104   1.246   2.344  15.280  0.9199  1.0928 -1.1279
 5157SOL    HW227105   1.378   2.279  15.253  0.2827  0.8546 -0.2452
 5158SOL     OW27106   1.276   1.167   6.754  0.1035 -0.2284  0.1722
 5158SOL    HW127107   1.280   1.083   6.800 -0.6875 -0.5009 -0.2680
 5158SOL    HW227108   1.239   1.144   6.669  0.2765 -0.7768  0.2413
 5159SOL     OW27109   4.466   0.860   2.591 -0.4139 -0.2894  0.0521
 5159SOL    HW127110   4.386   0.835   2.638 -0.9395  1.1371 -0.0660
 5159SOL    HW227111   4.424   0.893   2.512  1.9766  0.3172 -0.9320
 5160SOL     OW27112   2.107   1.976   6.900 -0.1926 -0.1762  0.2291
 5160SOL    HW127113   2.133   2.010   6.985  0.3656 -0.9070  0.3575
 5160SOL    HW227114   2.180   2.003   6.843 -0.7121  1.5934  0.4085
 5161SOL     OW27115   2.463   1.688   2.049 -0.4184 -0.8240  0.3656
 5161SOL    HW127116   2.395   1.621   2.060 -1.5376  0.4771  1.5362
 5161SOL    HW227117   2.545   1.640   2.039  0.6139  0.7217  1.4736
 5162SOL     OW27118   1.395   4.540   6.956 -0.0958  0.7495 -0.2497
 5162SOL    HW127119   1.346   4.486   7.018 -0.0542 -0.4051 -1.2382
 5162SOL    HW227120   1.325   4.593   6.917 -0.8716 -0.1097 -0.0135
 5163SOL     OW27121   2.436   3.831   2.391 -0.4016  0.5676 -0.4221
 5163SOL    HW127122   2.377   3.906   2.382  0.6433  1.6174  1.5424
 5163SOL    HW227123   2.503   3.855   2.326 -1.1361 -0.0610 -1.4116
 5164SOL     OW27124   1.493   0.053   3.631  0.1314  0.1255 -0.0207
 5164SOL    HW127125   1.586   0.077   3.628  0.1483 -0.0895 -1.1876
 5164SOL    HW227126   1.491   4.704   3.600 -0.0802  0.5347 -1.2112
 5165SOL     OW27127   2.642   3.384   9.486 -0.3193  0.6269 -0.0246
 5165SOL    HW127128   2.588   3.309   9.462 -1.1724  2.1657 -2.8713
 5165SOL    HW227129   2.606   3.411   9.571  2.1067 -0.9395  1.5011
 5166SOL     OW27130   2.030   1.854   6.365  0.7602  0.3706  0.4084
 5166SOL    HW127131   1.974   1.799   6.420 -0.2047  0.8090 -0.1351
 5166SOL    HW227132   2.111   1.802   6.363  0.9022  0.6083 -0.1529
 5167SOL     OW27133   3.085   3.894   8.827 -0.0529 -0.3228 -0.5943
 5167SOL    HW127134   3.121   3.819   8.874 -1.0613 -0.0260  0.6705
 5167SOL    HW227135   3.049   3.939   8.903  2.7042 -0.1455  0.6058
 5168SOL     OW27136   4.436   3.794   2.069 -0.1060  0.1771 -0.4470
 5168SOL    HW127137   4.446   3.722   2.006  1.5368  1.2297 -1.3804
 5168SOL    HW227138   4.352   3.769   2.108  1.1819 -0.1349  2.1581
 5169SOL     OW27139   3.711   1.956   4.046 -0.0438 -0.4917 -0.0825
 5169SOL    HW127140   3.738   1.864   4.049  2.5797  0.2649 -0.4974
 5169SOL    HW227141   3.616   1.956   4.034  0.0148  0.1142 -0.5022
 5170SOL     OW27142   1.507   0.534  15.777  0.2519 -0.6703 -0.7907
 5170SOL    HW127143   1.516   0.441  15.756 -0.7480 -0.4207 -2.3602
 5170SOL    HW227144   1.535   0.571  15.693  2.1994  0.1313  0.2005
 5171SOL     OW27145   3.001   0.093   3.250 -0.2715 -0.0010 -0.4059
 5171SOL    HW127146   2.986   0.013   3.199  3.9658  0.1506 -1.8342
 5171SOL    HW227147   3.032   0.163   3.192  0.0465  0.6668  0.5646
 5172SOL     OW27148   2.720   2.161   5.140  0.5988  0.4436 -0.6617
 5172SOL    HW127149   2.811   2.189   5.143  0.6308  0.0230  1.7763
 5172SOL    HW227150   2.696   2.173   5.231  1.9243 -1.1356 -0.0983
 5173SOL     OW27151   3.116   3.855   7.406  0.2112 -0.3939  0.0795
 5173SOL    HW127152   3.209   3.875   7.415 -0.1872  1.3102  0.3877
 5173SOL    HW227153   3.087   3.863   7.497 -1.1257 -0.2074 -0.3748
 5174SOL     OW27154   3.517   2.758   5.590  0.7295  0.4671  0.2734
 5174SOL    HW127155   3.579   2.807   5.644 -0.4321  1.3044  0.8285
 5174SOL    HW227156   3.447   2.816   5.559  0.8429  1.4469  1.8612
 5175SOL     OW27157   1.655   2.969   3.941  0.2125 -0.3195  0.2976
 5175SOL    HW127158   1.612   2.922   3.870  1.7119 -1.6457  0.2602
 5175SOL    HW227159   1.727   3.000   3.886  2.0338 -1.1150  2.1911
 5176SOL     OW27160   0.213   4.361   4.873 -1.1349  0.3769  0.0803
 5176SOL    HW127161   0.214   4.435   4.812 -0.6941  1.6850  1.6817
 5176SOL    HW227162   0.119   4.345   4.882 -0.7582 -0.5685  2.2478
 5177SOL     OW27163   2.856   0.046   4.929 -0.0700  0.0154 -0.2726
 5177SOL    HW127164   2.881   0.125   4.976 -0.3241 -0.1737  0.1774
 5177SOL    HW227165   2.836   4.727   5.000 -1.5742 -0.0556 -0.7599
 5178SOL     OW27166   1.044   1.366   3.108 -0.1415  0.5061 -0.0953
 5178SOL    HW127167   1.137   1.379   3.127 -0.4429  1.9358  0.3831
 5178SOL    HW227168   1.054   1.310   3.031  0.7080 -0.3090  0.6093
 5179SOL     OW27169   3.967   1.754   5.430  0.3333 -0.3350 -0.1741
 5179SOL    HW127170   3.907   1.827   5.420 -0.2634 -0.6921  0.8288
 5179SOL    HW227171   3.948   1.736   5.521  1.8138  3.0898  0.8191
 5180SOL     OW27172   4.421   3.885   8.968  0.0766 -0.4077  0.2418
 5180SOL    HW127173   4.465   3.906   8.885 -0.2618  1.0903  0.4486
 5180SOL    HW227174   4.401   3.974   8.995  0.7449 -0.0534 -0.4182
 5181SOL     OW27175   1.723   1.858   5.262  0.3130  0.7425  0.1382
 5181SOL    HW127176   1.705   1.861   5.168 -0.4047 -1.9203  0.2056
 5181SOL    HW227177   1.643   1.812   5.286  0.1325  1.0649  0.1533
 5182SOL     OW27178   1.262   3.849   8.136 -0.3392 -0.9610  0.3591
 5182SOL    HW127179   1.171   3.874   8.148 -0.5894 -0.6413 -2.1001
 5182SOL    HW227180   1.270   3.825   8.043  2.5681  0.1852  0.3040
 5183SOL     OW27181   3.366   2.820   2.094  0.5021 -0.1156  0.6065
 5183SOL    HW127182   3.434   2.877   2.129 -0.3876  0.2255  1.7732
 5183SOL    HW227183   3.293   2.838   2.153 -0.2010 -2.8246  0.5619
 5184SOL     OW27184   0.056   0.602   5.706  0.1313  0.4061 -0.2703
 5184SOL    HW127185   4.712   0.561   5.698  0.1913  0.6049 -1.9055
 5184SOL    HW227186   0.046   0.653   5.626  4.1249 -0.6607 -1.4456
 5185SOL     OW27187   3.577   0.083   3.294 -0.0038  0.0356  0.8557
 5185SOL    HW127188   3.601   4.731   3.294 -0.6016 -0.1412 -2.3357
 5185SOL    HW227189   3.483   0.083   3.310 -0.3706  0.5723 -1.2417
 5186SOL     OW27190   1.862   3.768  12.553 -0.1008 -0.0010 -0.3424
 5186SOL    HW127191   1.949   3.803  12.572  0.0399 -0.3204 -0.3885
 5186SOL    HW227192   1.806   3.844  12.567 -0.9175  0.0672 -3.8885
 5187SOL     OW27193   3.590   2.332  14.507  0.1923  0.1407  0.2617
 5187SOL    HW127194   3.595   2.264  14.440  0.5323  0.8877 -0.4682
 5187SOL    HW227195   3.606   2.411  14.455  0.5131 -1.6085 -2.2966
 5188SOL     OW27196   3.280   2.975  10.478  0.8365  0.4341 -0.2789
 5188SOL    HW127197   3.231   2.893  10.484  0.6151  0.4834 -1.4023
 5188SOL    HW227198   3.231   3.039  10.528  0.1153 -0.9896  0.8133
 5189SOL     OW27199   3.594   3.979  16.653 -0.4695  0.1856  0.2134
 5189SOL    HW127200   3.566   3.957  16.564  0.5293 -0.0048 -0.0628
 5189SOL    HW227201   3.632   3.896  16.682 -2.5846 -1.2438 -1.1205
 5190SOL     OW27202   3.306   2.273   4.615 -0.0723 -0.5156  0.1457
 5190SOL    HW127203   3.335   2.249   4.527  2.1091  2.7277 -0.0168
 5190SOL    HW227204   3.218   2.235   4.611  0.3391 -1.5066  0.3618
 5191SOL     OW27205   0.601   3.700  15.031  0.7274 -0.1275  0.3472
 5191SOL    HW127206   0.634   3.672  15.117 -1.4290  0.5535  1.3892
 5191SOL    HW227207   0.666   3.646  14.985 -0.0073 -0.5760 -0.1541
 5192SOL     OW27208   3.527   3.573   5.260 -0.7878  0.5765  0.2497
 5192SOL    HW127209   3.445   3.616   5.236 -0.4021  0.7104 -0.8177
 5192SOL    HW227210   3.572   3.582   5.176  2.3183  3.7125  2.2836
 5193SOL     OW27211   2.496   2.754   2.053 -0.6583  0.0699 -0.1809
 5193SOL    HW127212   2.451   2.834   2.027  0.6657  0.8172 -0.1792
 5193SOL    HW227213   2.539   2.731   1.971  2.7312  2.7000  0.8716
 5194SOL     OW27214   1.725   0.442   8.529  0.2617  0.1461 -0.4383
 5194SOL    HW127215   1.649   0.406   8.575  0.4282  2.3426  1.5642
 5194SOL    HW227216   1.755   0.361   8.490  1.9535 -1.1485  3.5194
 5195SOL     OW27217   0.867   0.153   2.355  0.0610  0.1366  0.2894
 5195SOL    HW127218   0.773   0.169   2.362  0.1691 -0.2219  2.4589
 5195SOL    HW227219   0.900   0.242   2.364  0.2159  0.0528  0.5390
 5196SOL     OW27220   4.186   1.248   3.048  0.6284  0.0562  0.2122
 5196SOL    HW127221   4.254   1.249   3.115 -1.6897  0.9636  2.5704
 5196SOL    HW227222   4.100   1.262   3.088  0.4753 -1.4511  0.3955
 5197SOL     OW27223   0.414   2.740  15.232  0.0833 -0.2712  0.9309
 5197SOL    HW127224   0.384   2.740  15.323 -1.4181  0.3028  0.4414
 5197SOL    HW227225   0.463   2.658  15.235  2.2312  0.9912  0.2062
 5198SOL     OW27226   4.451   2.607  16.245 -0.3958  0.2740 -0.3987
 5198SOL    HW127227   4.380   2.583  16.305 -0.4692  0.2965 -0.4756
 5198SOL    HW227228   4.429   2.547  16.174 -0.2425 -0.5101  0.2251
 5199SOL     OW27229   2.896   4.718   4.668 -0.3402 -1.0247  0.0198
 5199SOL    HW127230   2.894   0.034   4.745  2.5977  1.2816 -1.6450
 5199SOL    HW227231   2.803   4.701   4.650 -0.5904 -0.9690  1.2311
 5200SOL     OW27232   2.638   0.703   3.616 -0.3040 -0.4273  0.1045
 5200SOL    HW127233   2.699   0.641   3.656  2.1686  0.8948 -1.6870
 5200SOL    HW227234   2.592   0.649   3.552 -0.0354 -0.4263 -0.0886
 5201SOL     OW27235   2.828   0.977   8.246 -0.4086 -0.4597  0.4011
 5201SOL    HW127236   2.901   0.939   8.296  0.8390 -0.1638 -1.1883
 5201SOL    HW227237   2.772   1.013   8.314  1.4025 -1.4387  2.3870
 5202SOL     OW27238   4.483   1.411  12.220 -0.4846 -0.2562 -0.4107
 5202SOL    HW127239   4.444   1.348  12.280  1.4129 -0.9289  0.1214
 5202SOL    HW227240   4.569   1.403  12.261  0.3343  3.5918 -1.4035
 5203SOL     OW27241   1.742   1.824   6.101 -0.2231 -0.3671 -0.7338
 5203SOL    HW127242   1.820   1.879   6.106 -0.5356  0.0673 -0.6430
 5203SOL    HW227243   1.765   1.776   6.021 -0.2501 -0.1522 -0.8700
 5204SOL     OW27244   0.631   4.410   5.000 -0.0826  0.3537 -0.0537
 5204SOL    HW127245   0.681   4.421   5.081 -0.2914 -0.5160  0.1892
 5204SOL    HW227246   0.551   4.376   5.040  0.0448  0.3539  0.2011
 5205SOL     OW27247   4.535   3.928   6.947  0.2213 -0.3783  0.5849
 5205SOL    HW127248   4.497   3.951   6.863 -0.9840  0.7709  1.4491
 5205SOL    HW227249   4.460   3.921   7.006  0.8950 -0.9277  1.3882
 5206SOL     OW27250   1.228   3.277   7.520 -0.4861 -0.3699  0.9704
 5206SOL    HW127251   1.188   3.349   7.568  0.4679  0.1473  0.9763
 5206SOL    HW227252   1.172   3.280   7.442  2.0668 -0.7849 -0.8570
 5207SOL     OW27253   1.121   3.186   0.772 -0.3285  0.2001 -0.0133
 5207SOL    HW127254   1.190   3.142   0.722  0.2460  0.2919  0.6886
 5207SOL    HW227255   1.055   3.185   0.703  0.7182  1.5595 -1.0345
 5208SOL     OW27256   2.679   4.364  11.628  0.5509  0.0675  0.3215
 5208SOL    HW127257   2.605   4.406  11.583  0.9139 -0.6861 -1.0030
 5208SOL    HW227258   2.692   4.286  11.574 -1.3418 -0.3983  0.5570
 5209SOL     OW27259   3.224   2.204  16.175 -0.1799  0.0573  0.2579
 5209SOL    HW127260   3.235   2.161  16.091 -0.3165  0.5651 -0.0175
 5209SOL    HW227261   3.293   2.161  16.225  0.0804 -0.0198 -0.1717
 5210SOL     OW27262   4.446   1.228   8.128 -0.4681  0.4174 -0.2944
 5210SOL    HW127263   4.460   1.317   8.160  0.9402  0.7583 -1.9096
 5210SOL    HW227264   4.369   1.237   8.071 -0.2059 -1.7190 -0.9950
 5211SOL     OW27265   4.369   0.655   9.769  0.2230  0.0476 -0.4007
 5211SOL    HW127266   4.293   0.602   9.745  0.5878 -1.1132  0.9888
 5211SOL    HW227267   4.442   0.593   9.777  1.9083  2.3309  1.6508
 5212SOL     OW27268   0.321   1.971   4.060 -0.0242  0.3356 -0.0823
 5212SOL    HW127269   0.305   2.061   4.030 -1.7420  0.1177  0.2228
 5212SOL    HW227270   0.360   1.935   3.981 -2.3818 -2.5694  0.0953
 5213SOL     OW27271   3.181   1.478   2.678 -0.2673  0.5810  0.1082
 5213SOL    HW127272   3.108   1.530   2.711 -1.4622 -1.1170  0.1209
 5213SOL    HW227273   3.151   1.452   2.591 -1.7751  1.3620  0.3854
 5214SOL     OW27274   3.950   3.688   4.648 -0.6280 -0.2597  0.7127
 5214SOL    HW127275   4.028   3.668   4.596 -1.0598 -2.0572  0.7467
 5214SOL    HW227276   3.976   3.766   4.696 -1.0671  1.2748 -1.5366
 5215SOL     OW27277   0.159   1.693  13.480  0.3932 -0.8040  0.2911
 5215SOL    HW127278   0.177   1.602  13.503  1.6009  0.1164  2.9716
 5215SOL    HW227279   0.129   1.733  13.562  4.2209  1.1400  0.7459
 5216SOL     OW27280   0.812   4.243   2.345 -0.1617  0.1123  0.0127
 5216SOL    HW127281   0.719   4.251   2.323  0.2031  4.1575 -0.0655
 5216SOL    HW227282   0.824   4.324   2.395  1.1895 -0.4262  0.5581
 5217SOL     OW27283   0.723   4.432   2.550  0.1299 -0.0835 -0.1237
 5217SOL    HW127284   0.633   4.466   2.546  0.7395  1.3547 -1.7047
 5217SOL    HW227285   0.770   4.486   2.612  0.0421  1.2615 -1.2297
 5218SOL     OW27286   0.958   4.715  16.348  0.2831 -0.0150  0.2859
 5218SOL    HW127287   0.922   4.699  16.261  1.4928  0.2998 -0.2585
 5218SOL    HW227288   1.025   0.040  16.336  0.3769 -0.2147 -0.2838
 5219SOL     OW27289   3.586   4.704  10.837 -0.3110  0.0707 -0.3508
 5219SOL    HW127290   3.599   4.716  10.743  2.3268 -0.6204 -0.0813
 5219SOL    HW227291   3.494   4.678  10.838 -0.7994  1.8277  1.3116
 5220SOL     OW27292   1.869   2.541   1.865  0.1811 -0.1328  0.1714
 5220SOL    HW127293   1.938   2.508   1.922  0.0469 -0.2577  0.2627
 5220SOL    HW227294   1.814   2.587   1.929 -1.6915 -2.3441  0.1720
 5221SOL     OW27295   0.114   3.363   0.210 -0.3058  0.1613  0.7210
 5221SOL    HW127296   0.172   3.287   0.213 -0.1999  0.1936 -0.3595
 5221SOL    HW227297   0.164   3.418   0.270  0.9719 -0.5909  0.3397
 5222SOL     OW27298   3.296   2.157   4.373  0.7242 -0.0332 -0.1635
 5222SOL    HW127299   3.262   2.071   4.397  0.7473  0.1952  0.6608
 5222SOL    HW227300   3.335   2.124   4.292 -0.1568 -1.7248  0.1007
 5223SOL     OW27301   2.885   0.831   3.001 -0.3098  0.6456  0.2749
 5223SOL    HW127302   2.908   0.871   3.084  1.9109 -1.7195  0.7961
 5223SOL    HW227303   2.850   0.907   2.955  0.4555  1.0416  0.3558
 5224SOL     OW27304   1.303   2.035   4.414  0.4831 -0.1109  0.4369
 5224SOL    HW127305   1.268   1.953   4.378 -2.3877  0.6027  1.5771
 5224SOL    HW227306   1.229   2.093   4.433  1.7981  2.0118 -0.8847
 5225SOL     OW27307   3.531   0.672   6.319  0.5377  0.0199 -0.3445
 5225SOL    HW127308   3.588   0.598   6.336  0.0372 -0.4846 -0.8747
 5225SOL    HW227309   3.471   0.676   6.394 -1.7255 -2.5161 -2.0394
 5226SOL     OW27310   2.801   2.722  15.125  0.3183 -0.0437  0.3833
 5226SOL    HW127311   2.792   2.744  15.217 -1.3256 -0.4891  0.3342
 5226SOL    HW227312   2.890   2.687  15.124  0.0461 -0.7339 -0.1902
 5227SOL     OW27313   0.009   2.256   3.563 -0.1775 -0.2115 -0.0393
 5227SOL    HW127314   0.096   2.271   3.525  0.1906 -1.2584  0.4032
 5227SOL    HW227315   0.022   2.178   3.617 -1.8927 -1.2301 -1.1239
 5228SOL     OW27316   4.103   4.513   8.252 -0.1369  0.2992 -0.0505
 5228SOL    HW127317   4.077   4.425   8.224 -1.3342  1.1936 -1.7574
 5228SOL    HW227318   4.028   4.551   8.205  1.1073  0.0298 -2.2563
 5229SOL     OW27319   2.729   1.976  11.972  0.4369 -0.1748  0.3339
 5229SOL    HW127320   2.662   2.015  11.916  0.3251 -0.9028 -0.0401
 5229SOL    HW227321   2.806   1.989  11.918  0.1344 -2.4867 -0.6548
 5230SOL     OW27322   0.087   1.553   1.515  0.6168 -0.4252  0.1350
 5230SOL    HW127323   0.101   1.459   1.525 -1.8302 -0.8384 -0.2888
 5230SOL    HW227324   0.043   1.563   1.600  0.9912  1.8097  0.0692
 5231SOL     OW27325   1.589   2.793   2.238 -0.0682  0.0866  0.0011
 5231SOL    HW127326   1.573   2.880   2.202  0.0200  0.4969  0.9540
 5231SOL    HW227327   1.535   2.804   2.315 -0.2763 -1.6759  0.1086
 5232SOL     OW27328   3.244   3.203  10.891  0.2263 -0.0000 -0.6426
 5232SOL    HW127329   3.213   3.292  10.905  1.7220  0.3479  0.5188
 5232SOL    HW227330   3.251   3.173  10.982  0.6479  1.9502 -0.0184
 5233SOL     OW27331   3.654   4.317   3.530 -0.0761  0.0078 -0.1519
 5233SOL    HW127332   3.673   4.300   3.438 -0.7999 -1.3952 -0.0418
 5233SOL    HW227333   3.723   4.381   3.548  1.1818 -1.6076  0.7449
 5234SOL     OW27334   3.499   3.006   3.728  0.4420 -0.6831  0.0891
 5234SOL    HW127335   3.408   3.003   3.757 -0.0305 -0.2316 -1.3271
 5234SOL    HW227336   3.534   3.071   3.789  4.0449 -1.1032 -1.4970
 5235SOL     OW27337   1.736   3.463   1.248  0.2331  0.3064  0.2824
 5235SOL    HW127338   1.724   3.426   1.335  2.1615  0.0775  0.4308
 5235SOL    HW227339   1.663   3.525   1.253  0.5335  0.6318  0.5920
 5236SOL     OW27340   2.014   0.249   3.258  0.2948  0.0461 -0.4662
 5236SOL    HW127341   1.994   0.251   3.352 -0.5999 -1.5243 -0.6248
 5236SOL    HW227342   1.936   0.297   3.228  1.8011  2.6692 -0.1386
 5237SOL     OW27343   0.138   2.562   9.896 -0.7868 -0.1072 -0.1574
 5237SOL    HW127344   0.159   2.555   9.989 -0.4609 -1.4397 -0.3212
 5237SOL    HW227345   0.042   2.564   9.902 -0.8154  1.8994 -1.3369
 5238SOL     OW27346   2.128   1.940   1.663  0.0184  0.4287 -0.2874
 5238SOL    HW127347   2.160   2.014   1.715 -1.6307  1.9764 -1.4745
 5238SOL    HW227348   2.168   1.866   1.708  0.9243  1.4760  0.6198
 5239SOL     OW27349   0.330   1.829   6.716  0.0798 -0.2224  0.7802
 5239SOL    HW127350   0.258   1.889   6.738  1.0601  1.1959  0.1422
 5239SOL    HW227351   0.314   1.756   6.775 -1.0040  0.4510  1.3212
 5240SOL     OW27352   0.637   2.120   1.509 -0.2049 -0.3950 -0.4714
 5240SOL    HW127353   0.616   2.179   1.437 -2.3825 -0.4005  0.1670
 5240SOL    HW227354   0.552   2.093   1.542 -0.8342  1.3297 -0.7183
 5241SOL     OW27355   2.861   3.703   3.596  0.0609  0.2431  0.3143
 5241SOL    HW127356   2.849   3.724   3.503  0.7316 -1.3528 -0.1420
 5241SOL    HW227357   2.864   3.607   3.585 -0.4507  0.3209 -0.5302
 5242SOL     OW27358   1.547   2.211   5.933 -0.0032 -0.0493  0.0099
 5242SOL    HW127359   1.540   2.259   6.016 -1.5199 -0.3392  0.0493
 5242SOL    HW227360   1.460   2.232   5.900 -0.2435  0.3554  0.9038
 5243SOL     OW27361   1.034   3.875   6.267  0.4561 -0.1279  0.4008
 5243SOL    HW127362   0.996   3.830   6.343  2.6526 -0.7966  1.1148
 5243SOL    HW227363   0.981   3.857   6.189  1.8880 -0.0039 -0.6015
 5244SOL     OW27364   4.132   4.572  14.901 -0.0478 -0.4140  0.1194
 5244SOL    HW127365   4.180   4.491  14.916  0.6387 -0.2589 -1.1757
 5244SOL    HW227366   4.128   4.577  14.805 -1.3999 -0.8072  0.1567
 5245SOL     OW27367   2.878   0.525   3.669  0.2508 -0.4241  0.0483
 5245SOL    HW127368   2.947   0.581   3.635  2.2547 -0.2396  4.4500
 5245SOL    HW227369   2.873   0.456   3.602  1.1949  1.3005 -1.7879
 5246SOL     OW27370   1.569   4.461   7.758 -0.2097 -0.4263 -0.2802
 5246SOL    HW127371   1.513   4.511   7.817  0.5377 -1.7091  1.5067
 5246SOL    HW227372   1.506   4.402   7.718 -0.3828  0.6075 -1.5483
 5247SOL     OW27373   1.521   1.981   0.037 -0.1451  0.0673 -0.4001
 5247SOL    HW127374   1.542   2.063  17.756  0.0598  0.1575 -0.1431
 5247SOL    HW227375   1.468   1.946  17.730 -0.6887 -0.8804  0.4849
 5248SOL     OW27376   0.577   2.953   3.746  0.2742 -0.0558 -0.0181
 5248SOL    HW127377   0.498   2.898   3.741 -0.8028  1.3167  1.8448
 5248SOL    HW227378   0.638   2.892   3.787  0.4402 -0.0220 -0.2175
 5249SOL     OW27379   2.290   2.954   2.840 -0.3775  0.0399  0.0906
 5249SOL    HW127380   2.334   2.870   2.853  0.6708  0.5232 -0.3527
 5249SOL    HW227381   2.222   2.956   2.908  0.4263 -2.7199  0.9471
 5250SOL     OW27382   1.932   2.078  13.276  0.2403  0.6974  0.8409
 5250SOL    HW127383   1.997   2.020  13.314  1.5129  1.8469  0.4535
 5250SOL    HW227384   1.967   2.161  13.310 -1.7859  1.4750  0.9978
 5251SOL     OW27385   0.431   1.219   6.862  0.2037 -0.2077  0.3269
 5251SOL    HW127386   0.525   1.204   6.858  0.4278  0.8120  2.1480
 5251SOL    HW227387   0.430   1.308   6.827  0.8559 -0.5604 -0.5802
 5252SOL     OW27388   2.719   0.103  10.579  0.0296 -0.0542  0.5528
 5252SOL    HW127389   2.639   0.069  10.620 -1.7017  1.4232 -1.6428
 5252SOL    HW227390   2.782   0.055  10.633 -1.0134  1.2702  2.9528
 5253SOL     OW27391   2.000   3.694   2.588  0.2520  0.2521 -0.7599
 5253SOL    HW127392   2.015   3.788   2.585 -0.7392  0.4290 -0.0921
 5253SOL    HW227393   2.041   3.675   2.673 -2.5217  1.5531  0.8430
 5254SOL     OW27394   0.448   4.669   4.034  0.0992  0.2629  0.2954
 5254SOL    HW127395   0.454   0.022   4.044 -2.5135  0.4570  0.0452
 5254SOL    HW227396   0.435   4.632   4.122  2.0501 -1.6688 -0.2393
 5255SOL     OW27397   3.614   0.995   7.941 -0.4427 -0.1779  0.1975
 5255SOL    HW127398   3.610   1.001   8.037  0.3864  0.9191  0.1603
 5255SOL    HW227399   3.644   0.906   7.925 -0.4586 -0.1187 -0.1648
 5256SOL     OW27400   0.898   3.261   1.738  0.0588  0.2028  0.5112
 5256SOL    HW127401   0.848   3.255   1.656 -0.8760 -0.7661  1.1369
 5256SOL    HW227402   0.986   3.285   1.709 -0.0860  0.9427  0.7034
 5257SOL     OW27403   1.880   4.462  14.078 -0.2598  0.3863 -0.4733
 5257SOL    HW127404   1.878   4.512  13.997  0.9129 -0.9585 -1.3222
 5257SOL    HW227405   1.786   4.452  14.097  0.3416 -1.5683  1.5428
 5258SOL     OW27406   4.414   1.522   3.237 -0.3513 -0.2301 -0.7345
 5258SOL    HW127407   4.391   1.449   3.294 -1.1907 -0.3172 -1.1705
 5258SOL    HW227408   4.378   1.588   3.295  1.5484 -0.6498  0.9159
 5259SOL     OW27409   0.498   3.732   4.962  0.9260 -1.0803 -0.0441
 5259SOL    HW127410   0.528   3.732   5.053 -0.0317 -0.7055  0.2720
 5259SOL    HW227411   0.579   3.700   4.921  1.1039 -0.9757  0.2235
 5260SOL     OW27412   3.607   1.416   4.893 -0.4132  0.0008  0.3861
 5260SOL    HW127413   3.562   1.479   4.949 -0.5380  0.1437  0.1258
 5260SOL    HW227414   3.652   1.358   4.954 -2.1598 -0.5185  1.1757
 5261SOL     OW27415   2.380   2.524  12.097 -0.2132  0.0963 -0.0387
 5261SOL    HW127416   2.472   2.507  12.079 -0.6029 -1.4951 -0.5127
 5261SOL    HW227417   2.394   2.610  12.137 -0.0101 -0.4942  1.1885
 5262SOL     OW27418   4.538   4.347  12.618 -0.0697  0.4024 -0.4457
 5262SOL    HW127419   4.582   4.362  12.534 -0.1135  0.2779 -0.4911
 5262SOL    HW227420   4.593   4.280  12.659  0.3299 -0.1092 -1.8310
 5263SOL     OW27421   1.691   1.216   5.349  0.4519  0.6887  0.4921
 5263SOL    HW127422   1.757   1.202   5.282 -0.3880  3.9680 -1.0199
 5263SOL    HW227423   1.752   1.238   5.419 -0.4292  0.7052  1.2618
 5264SOL     OW27424   4.034   4.442   0.753  0.3053 -0.4658 -0.2937
 5264SOL    HW127425   4.089   4.424   0.677 -2.3514 -2.8036 -1.6491
 5264SOL    HW227426   3.981   4.363   0.766 -0.9102  0.7929  2.3380
 5265SOL     OW27427   3.406   4.061   2.925  0.0245 -0.3572 -0.1055
 5265SOL    HW127428   3.329   4.090   2.876 -0.7319  0.4170  1.5397
 5265SOL    HW227429   3.368   3.976   2.946 -1.0334 -0.0680 -0.8582
 5266SOL     OW27430   2.428   3.513   0.425 -0.7744 -0.1002 -0.8278
 5266SOL    HW127431   2.508   3.466   0.449 -0.4346  0.0498 -1.6786
 5266SOL    HW227432   2.381   3.520   0.508  0.9975  0.6272  0.1189
 5267SOL     OW27433   0.845   0.371   4.998 -0.3010 -0.1821 -0.2566
 5267SOL    HW127434   0.880   0.409   5.078  0.5010 -0.9593 -0.2393
 5267SOL    HW227435   0.842   0.448   4.941  0.0761 -0.7076 -0.9829
 5268SOL     OW27436   4.655   4.007   6.698  0.3131 -0.4018 -0.3840
 5268SOL    HW127437   4.691   4.092   6.672  0.7763 -0.6456 -0.5336
 5268SOL    HW227438   4.707   3.987   6.776  1.0925  1.4169 -0.4343
 5269SOL     OW27439   1.788   3.191  12.665  0.4516 -0.6561 -0.4470
 5269SOL    HW127440   1.760   3.102  12.689 -0.6670 -0.0570  0.5077
 5269SOL    HW227441   1.783   3.240  12.747 -0.8357  0.8618 -1.4209
 5270SOL     OW27442   1.524   1.951   7.866  0.5650 -0.0162  0.0891
 5270SOL    HW127443   1.564   2.037   7.853 -0.4672  0.8757  2.8584
 5270SOL    HW227444   1.465   1.935   7.793  1.4639  1.4071 -0.9344
 5271SOL     OW27445   1.079   1.099   4.538  0.0503 -0.0051 -0.0406
 5271SOL    HW127446   1.157   1.044   4.538  2.2600  3.1744  0.3171
 5271SOL    HW227447   1.097   1.154   4.614  1.7589 -0.8770  0.1852
 5272SOL     OW27448   2.979   0.517   6.551 -0.1056 -0.3208  0.4171
 5272SOL    HW127449   3.030   0.455   6.499  0.4754 -0.0206  0.6340
 5272SOL    HW227450   2.969   0.585   6.484 -0.4415 -0.9377 -0.1592
 5273SOL     OW27451   1.518   1.514  16.599  0.0039 -0.3351  0.6801
 5273SOL    HW127452   1.457   1.538  16.530  0.3742  0.7226  0.7288
 5273SOL    HW227453   1.507   1.419  16.598 -1.6165 -0.1285  0.0487
 5274SOL     OW27454   0.333   0.110  15.430  0.0347 -0.1758 -0.0966
 5274SOL    HW127455   0.258   0.092  15.486 -2.2539  0.5864 -2.9407
 5274SOL    HW227456   0.357   0.025  15.393 -0.7469  0.0629 -1.1496
 5275SOL     OW27457   1.255   0.117   3.471  0.0345  0.3500  0.0753
 5275SOL    HW127458   1.322   0.133   3.404 -1.5111  2.5117 -0.9382
 5275SOL    HW227459   1.312   0.100   3.547  0.4797 -0.4952 -0.4403
 5276SOL     OW27460   0.703   2.600   4.789  0.3394  0.7908 -0.0126
 5276SOL    HW127461   0.641   2.655   4.837 -0.3853  0.0092 -0.0609
 5276SOL    HW227462   0.771   2.596   4.857  0.8387  0.0715 -0.5503
 5277SOL     OW27463   4.342   3.112   1.911  0.4108  0.0932  0.2023
 5277SOL    HW127464   4.374   3.202   1.906  0.8691 -0.0209  1.0474
 5277SOL    HW227465   4.424   3.064   1.923 -0.7374 -1.8949  0.1470
 5278SOL     OW27466   1.034   4.300  14.774 -0.1100 -0.6916  0.1812
 5278SOL    HW127467   1.012   4.316  14.866 -0.9503 -1.1435  0.0620
 5278SOL    HW227468   1.083   4.382  14.770  0.9106 -1.1587  2.8599
 5279SOL     OW27469   1.135   0.708  10.346 -0.3338  0.2410 -0.3241
 5279SOL    HW127470   1.192   0.683  10.418  0.2539 -1.2137 -1.3100
 5279SOL    HW227471   1.150   0.638  10.282  2.8246  1.0208 -0.4240
 5280SOL     OW27472   2.135   2.190   4.692  0.2563 -0.9239  0.2260
 5280SOL    HW127473   2.209   2.145   4.735  0.7566  0.2905  0.6405
 5280SOL    HW227474   2.099   2.241   4.765 -0.3693  0.7186 -1.2579
 5281SOL     OW27475   4.298   1.109  13.357  0.7194  0.4608  0.1184
 5281SOL    HW127476   4.292   1.092  13.451  0.8423  2.7053  0.5211
 5281SOL    HW227477   4.267   1.028  13.317  1.4492  0.6096 -0.7653
 5282SOL     OW27478   3.584   3.354   9.101  0.3944 -0.5123 -0.0206
 5282SOL    HW127479   3.661   3.319   9.055  1.7926  2.7400 -0.1673
 5282SOL    HW227480   3.604   3.335   9.193  0.1343 -2.1066 -0.2949
 5283SOL     OW27481   4.340   2.612   7.546 -0.0881  0.3757  0.4392
 5283SOL    HW127482   4.303   2.570   7.624  0.9707 -1.1921  0.0824
 5283SOL    HW227483   4.411   2.662   7.586  0.9693  1.8112 -3.2304
 5284SOL     OW27484   0.922   3.541   6.398  0.0965 -0.7263 -0.2936
 5284SOL    HW127485   1.005   3.565   6.437 -1.4587  0.4404  2.2867
 5284SOL    HW227486   0.882   3.626   6.416  0.8435 -0.0204 -1.9231
 5285SOL     OW27487   0.609   0.319   9.250 -0.7124  0.2841 -0.1771
 5285SOL    HW127488   0.690   0.269   9.254 -0.2965  0.8359 -1.6560
 5285SOL    HW227489   0.551   0.263   9.198  1.3866 -2.3604  0.3343
 5286SOL     OW27490   4.528   4.221   8.685 -0.4656 -0.1071  0.0181
 5286SOL    HW127491   4.439   4.256   8.690 -0.5413 -0.2242 -0.5142
 5286SOL    HW227492   4.567   4.294   8.637  0.9363 -1.0323 -0.2453
 5287SOL     OW27493   4.287   0.371  17.077 -0.1041 -0.2450  0.0161
 5287SOL    HW127494   4.278   0.443  17.014 -0.0597 -0.7013 -0.5091
 5287SOL    HW227495   4.305   0.421  17.157  0.8414 -0.5734  0.0039
 5288SOL     OW27496   0.508   1.489  13.418  0.1818 -0.0388 -0.2252
 5288SOL    HW127497   0.543   1.436  13.489 -0.3403  0.8635  0.6943
 5288SOL    HW227498   0.562   1.452  13.347  0.2650  0.0478 -0.2064
 5289SOL     OW27499   1.438   0.546   4.256  0.1033 -0.2081  0.6311
 5289SOL    HW127500   1.500   0.594   4.310 -1.4964  1.2796  1.1277
 5289SOL    HW227501   1.412   0.616   4.196 -1.1328 -1.8147 -0.6980
 5290SOL     OW27502   3.222   0.790   7.303 -0.1449  0.0848 -0.2963
 5290SOL    HW127503   3.310   0.819   7.327  0.6446 -0.5893 -2.3858
 5290SOL    HW227504   3.231   0.789   7.207  0.6967 -2.2254 -0.1937
 5291SOL     OW27505   0.075   0.996  13.952 -0.0422 -0.1723 -0.1739
 5291SOL    HW127506   4.724   0.989  13.929 -0.7537  2.1327  1.9666
 5291SOL    HW227507   0.120   0.942  13.887 -1.5699  1.1652 -2.3122
 5292SOL     OW27508   0.211   2.033  14.131  0.1323  0.4710 -0.1253
 5292SOL    HW127509   0.147   2.041  14.201 -0.2031 -1.7667 -0.1821
 5292SOL    HW227510   0.289   2.075  14.167  0.1288  0.6307 -0.3037
 5293SOL     OW27511   0.039   3.785   5.420  0.2186 -0.1607 -0.5994
 5293SOL    HW127512   0.104   3.719   5.446 -1.0175  0.0623  3.1634
 5293SOL    HW227513   0.057   3.799   5.327  0.1329  1.5924 -0.3500
 5294SOL     OW27514   0.276   3.674   5.846 -0.1943 -0.2833 -0.1986
 5294SOL    HW127515   0.184   3.694   5.830 -0.0712  1.0106  0.6966
 5294SOL    HW227516   0.265   3.583   5.874  1.6086  0.0657  1.7019
 5295SOL     OW27517   1.922   3.746   5.647 -0.3389 -0.5344  0.3061
 5295SOL    HW127518   1.857   3.785   5.590  0.6547 -0.9032 -1.0699
 5295SOL    HW227519   1.976   3.823   5.665 -1.4174  1.0225 -3.1840
 5296SOL     OW27520   1.704   2.604   2.052  0.1317  0.6553  0.2003
 5296SOL    HW127521   1.678   2.521   2.092  1.2576 -0.4385 -1.3507
 5296SOL    HW227522   1.664   2.670   2.109 -2.3242 -2.0268  1.5646
 5297SOL     OW27523   1.748   0.120  14.827 -0.1581  0.1257 -0.2957
 5297SOL    HW127524   1.722   0.044  14.878  0.7165 -0.6259 -0.9868
 5297SOL    HW227525   1.841   0.102  14.818 -1.0366 -4.7672  0.6596
 5298SOL     OW27526   1.756   2.065  14.074 -0.0492 -0.2447  0.2461
 5298SOL    HW127527   1.796   2.069  13.987 -0.4149 -0.6316  0.0597
 5298SOL    HW227528   1.711   1.981  14.065  1.4251 -1.0218  0.0492
 5299SOL     OW27529   1.824   0.555   4.397  0.3151  0.6605 -0.1492
 5299SOL    HW127530   1.752   0.497   4.371  1.0415 -0.9631  1.4985
 5299SOL    HW227531   1.765   0.626   4.425 -2.8228 -0.7891 -3.1401
 5300SOL     OW27532   2.607   2.771  12.820  0.3813  0.2412  0.2904
 5300SOL    HW127533   2.536   2.834  12.838  0.5429  0.8216 -1.1328
 5300SOL    HW227534   2.660   2.822  12.760 -0.8285 -1.3290 -2.0852
 5301SOL     OW27535   4.734   4.060   5.396 -0.1955 -0.2636 -0.5693
 5301SOL    HW127536   4.705   4.049   5.306 -1.1099 -1.1646 -0.1670
 5301SOL    HW227537   0.032   3.976   5.419 -2.8158 -1.2960  0.2067
 5302SOL     OW27538   1.248   0.876   8.836  0.0698  0.9454 -0.5317
 5302SOL    HW127539   1.305   0.808   8.802  0.3712 -0.2563  2.3500
 5302SOL    HW227540   1.164   0.839   8.809  1.0491 -1.8283  0.2979
 5303SOL     OW27541   4.292   2.514   8.282 -0.1173 -0.1511 -0.9347
 5303SOL    HW127542   4.200   2.524   8.306  0.4392 -1.1036  1.6391
 5303SOL    HW227543   4.325   2.601   8.302 -2.3093  0.5991 -0.5853
 5304SOL     OW27544   1.920   2.758   1.699  0.2509  0.3353  0.5583
 5304SOL    HW127545   1.842   2.784   1.650 -0.1571 -3.0272 -0.5782
 5304SOL    HW227546   1.893   2.681   1.748  0.3764 -0.1445 -0.1280
 5305SOL     OW27547   2.719   4.533   3.850 -0.6266  0.2011 -0.2934
 5305SOL    HW127548   2.712   4.447   3.892 -1.7207  0.5385  0.2109
 5305SOL    HW227549   2.793   4.511   3.794 -1.3163  0.2470 -1.2117
 5306SOL     OW27550   0.878   1.506   3.267  0.6774 -0.5928  0.0741
 5306SOL    HW127551   0.892   1.460   3.350  0.0321  0.4994  0.7842
 5306SOL    HW227552   0.937   1.457   3.209  0.7989  1.0257 -1.1545
 5307SOL     OW27553   3.734   2.318  16.649 -0.2273 -0.1628 -0.1108
 5307SOL    HW127554   3.657   2.371  16.668 -0.3546  0.2147 -1.7436
 5307SOL    HW227555   3.740   2.270  16.732 -1.6487  0.3298  0.2708
 5308SOL     OW27556   1.938   1.256   5.464 -0.4024 -0.2743  0.1969
 5308SOL    HW127557   2.021   1.283   5.423  0.1770 -0.3841  1.3121
 5308SOL    HW227558   1.951   1.301   5.547 -0.0269  0.8715 -0.4695
 5309SOL     OW27559   2.431   0.505  11.680 -0.1441  0.3044  0.2400
 5309SOL    HW127560   2.480   0.586  11.695  0.2176 -0.3411  2.4157
 5309SOL    HW227561   2.408   0.524  11.589  0.6168 -0.5092 -0.1279
 5310SOL     OW27562   0.538   2.933   7.875  0.6170  0.2422  0.4214
 5310SOL    HW127563   0.543   2.911   7.968  0.2072 -0.7426  0.2137
 5310SOL    HW227564   0.444   2.936   7.859  0.6025 -0.1142  0.4350
 5311SOL     OW27565   0.534   1.224   2.353  0.2655 -0.2881  0.4208
 5311SOL    HW127566   0.499   1.204   2.440  2.4351  0.8469  1.5872
 5311SOL    HW227567   0.565   1.313   2.372 -2.9166  1.2597 -1.6383
 5312SOL     OW27568   0.602   3.936   2.684  0.2334  0.2921 -0.2389
 5312SOL    HW127569   0.641   3.944   2.597  0.3217  1.4375 -0.0922
 5312SOL    HW227570   0.581   3.844   2.665  0.6751  0.4245 -1.3647
 5313SOL     OW27571   0.873   1.645   3.556  0.3269 -0.5558  0.3130
 5313SOL    HW127572   0.963   1.668   3.530  0.3390  0.9132  1.7284
 5313SOL    HW227573   0.876   1.551   3.536 -0.5017 -0.1712 -1.6342
 5314SOL     OW27574   3.526   0.364   3.383 -0.7155  0.3704  0.1057
 5314SOL    HW127575   3.568   0.299   3.327 -1.1261  0.8642 -0.7653
 5314SOL    HW227576   3.533   0.311   3.463  0.3940  1.6199  0.8498
 5315SOL     OW27577   1.422   1.686   3.511  0.2992  0.0207  0.3408
 5315SOL    HW127578   1.484   1.654   3.445 -2.8631 -1.6733 -1.7843
 5315SOL    HW227579   1.407   1.598   3.546 -0.2851  0.1466  0.3970
 5316SOL     OW27580   3.416   2.614   8.082  0.0314 -0.2992 -0.4247
 5316SOL    HW127581   3.491   2.618   8.023  0.9366 -1.6179  0.6173
 5316SOL    HW227582   3.391   2.522   8.079 -0.2263 -0.0513 -4.9781
 5317SOL     OW27583   2.547   2.450  13.874 -0.2187  0.2536  0.1331
 5317SOL    HW127584   2.641   2.459  13.892  0.2379 -0.7041 -1.7975
 5317SOL    HW227585   2.512   2.512  13.938 -0.5080 -0.9756  1.1497
 5318SOL     OW27586   4.216   2.056   8.952  0.0107  0.5148  0.4790
 5318SOL    HW127587   4.311   2.055   8.959 -0.0551  1.2041  1.5469
 5318SOL    HW227588   4.199   1.993   8.882 -0.0179  0.4773  0.5193
 5319SOL     OW27589   3.538   4.427  16.828 -0.6088  0.4387  0.5154
 5319SOL    HW127590   3.550   4.359  16.894  1.0821  0.1864 -0.0557
 5319SOL    HW227591   3.521   4.366  16.756 -1.5151  0.7960  0.4234
 5320SOL     OW27592   1.399   2.275   1.084 -0.6996  0.2742  0.2643
 5320SOL    HW127593   1.404   2.359   1.040 -2.3259 -0.0738 -0.5901
 5320SOL    HW227594   1.487   2.263   1.120 -0.1384 -1.8081 -1.8208
 5321SOL     OW27595   0.176   4.603   3.417 -0.2758  0.1240 -0.3729
 5321SOL    HW127596   0.266   4.602   3.386 -0.2346 -1.1912 -0.1931
 5321SOL    HW227597   0.118   4.602   3.341  1.9303 -1.2548 -2.0043
 5322SOL     OW27598   4.596   4.206   0.410  0.0151  0.3581 -1.1725
 5322SOL    HW127599   4.512   4.251   0.404 -0.1882  0.1012 -0.2179
 5322SOL    HW227600   4.655   4.262   0.460  1.8385 -1.4045 -1.3633
 5323SOL     OW27601   0.274   0.444   8.443  0.0858  0.3492  0.4695
 5323SOL    HW127602   0.194   0.480   8.483 -0.2137 -1.3867  1.4268
 5323SOL    HW227603   0.267   0.356   8.480  2.0791  0.1686  0.4164
 5324SOL     OW27604   0.175   1.968   2.759  0.2965  0.0384 -0.0177
 5324SOL    HW127605   0.134   1.926   2.683 -0.6575 -0.2649  0.6569
 5324SOL    HW227606   0.251   2.013   2.722 -0.9102 -1.0052 -3.8183
 5325SOL     OW27607   4.380   0.246   3.499  0.3926  0.2396  0.2190
 5325SOL    HW127608   4.307   0.193   3.531  0.6093 -0.4166 -0.3599
 5325SOL    HW227609   4.422   0.205   3.423 -1.5234 -1.3392 -0.0089
 5326SOL     OW27610   2.750   2.998  15.197  0.2677 -0.1038  0.1157
 5326SOL    HW127611   2.782   2.942  15.268 -0.5044  0.8352  1.1943
 5326SOL    HW227612   2.752   2.937  15.123  2.6154  1.4446 -1.1189
 5327SOL     OW27613   1.213   2.162   2.403 -0.2133  0.0040 -0.1839
 5327SOL    HW127614   1.307   2.165   2.420 -0.2221  2.9156 -0.7314
 5327SOL    HW227615   1.205   2.066   2.399 -1.5096  0.0768  0.7461
 5328SOL     OW27616   0.834   4.314   9.675 -0.2301  0.1348  0.3083
 5328SOL    HW127617   0.883   4.276   9.602  0.1782  1.8102 -0.2894
 5328SOL    HW227618   0.901   4.365   9.721 -0.8318  0.1397  1.1777
 5329SOL     OW27619   4.417   3.640   8.624  0.0193  1.1208 -0.2064
 5329SOL    HW127620   4.376   3.584   8.558  2.9787  0.6917 -1.6450
 5329SOL    HW227621   4.507   3.643   8.594 -0.3833 -2.1205 -1.7319
 5330SOL     OW27622   1.474   2.200   4.012 -0.0487  0.1019 -0.4208
 5330SOL    HW127623   1.447   2.209   4.103 -1.6629  0.2989 -0.9022
 5330SOL    HW227624   1.423   2.122   3.987  0.1784 -1.2247  3.3300
 5331SOL     OW27625   1.189   4.362   2.122 -0.0631 -0.1189  0.0693
 5331SOL    HW127626   1.258   4.427   2.109  0.9316 -1.3109 -0.5518
 5331SOL    HW227627   1.112   4.417   2.139  1.0189  1.3666  0.1676
 5332SOL     OW27628   2.355   1.473   4.097  0.0638 -0.2719 -0.0734
 5332SOL    HW127629   2.299   1.440   4.168 -1.2239  1.6234 -0.2043
 5332SOL    HW227630   2.435   1.421   4.092 -0.1952 -0.7073  0.2811
 5333SOL     OW27631   0.053   1.456   5.057  0.2634  0.1667 -0.5303
 5333SOL    HW127632   0.136   1.492   5.088 -0.4818  1.1604  0.3258
 5333SOL    HW227633   4.738   1.519   5.103  0.2567  1.3470 -2.1433
 5334SOL     OW27634   4.622   3.283   3.823  0.1103 -0.0976 -0.2973
 5334SOL    HW127635   4.644   3.228   3.747 -0.6427  0.3816 -0.8694
 5334SOL    HW227636   4.695   3.345   3.818 -0.1944  0.1949 -1.2805
 5335SOL     OW27637   1.585   1.631   4.279  0.6793 -0.3815 -0.6947
 5335SOL    HW127638   1.579   1.709   4.334 -1.7088 -0.6499 -0.5895
 5335SOL    HW227639   1.624   1.661   4.196  0.0567 -1.5588 -1.4117
 5336SOL     OW27640   2.510   1.830   5.767 -0.7860 -0.0920  0.3871
 5336SOL    HW127641   2.465   1.831   5.682  0.7544  1.4029 -0.4233
 5336SOL    HW227642   2.600   1.863   5.758  0.9683 -4.1427  3.3936
 5337SOL     OW27643   0.772   3.693   2.428 -0.2481  0.2025  0.3606
 5337SOL    HW127644   0.733   3.780   2.419  2.2981  1.4492  1.4055
 5337SOL    HW227645   0.850   3.728   2.472 -0.9573  1.0297  0.9651
 5338SOL     OW27646   1.559   3.318   1.752 -0.1938  0.3865 -0.0685
 5338SOL    HW127647   1.504   3.244   1.778 -1.0806  1.1587  0.2661
 5338SOL    HW227648   1.647   3.286   1.769 -0.3865 -0.3286 -0.3850
 5339SOL     OW27649   3.162   3.422  10.203 -0.2503 -0.1722 -0.5871
 5339SOL    HW127650   3.110   3.342  10.208 -1.1932  0.4163 -0.9636
 5339SOL    HW227651   3.248   3.392  10.172 -0.0878 -0.7584  0.4126
 5340SOL     OW27652   4.430   4.532  15.195 -0.0475 -0.5489  0.0070
 5340SOL    HW127653   4.437   4.455  15.139 -0.5479 -0.4764 -0.1510
 5340SOL    HW227654   4.344   4.517  15.232 -0.2021 -0.6908 -0.4052
 5341SOL     OW27655   2.332   1.031   4.800 -0.0110  0.2362  0.0440
 5341SOL    HW127656   2.425   1.054   4.805  0.7769 -2.4300 -2.5777
 5341SOL    HW227657   2.323   0.962   4.864  0.7734 -1.4874 -1.6951
 5342SOL     OW27658   2.798   1.408   7.959 -0.0643  0.1281  0.2832
 5342SOL    HW127659   2.782   1.319   7.926  1.3910  1.5483 -4.3203
 5342SOL    HW227660   2.766   1.405   8.049  1.0596  2.9950  0.7642
 5343SOL     OW27661   2.291   0.388   7.978 -0.0886 -0.2346 -0.2301
 5343SOL    HW127662   2.256   0.423   8.059 -0.3312  1.6673 -1.1643
 5343SOL    HW227663   2.218   0.329   7.961 -1.1554 -0.1402  4.0646
 5344SOL     OW27664   1.897   1.974   8.844  0.3610  0.0870  0.1530
 5344SOL    HW127665   1.935   1.974   8.756 -1.9981  2.4381 -0.8855
 5344SOL    HW227666   1.890   1.879   8.852  1.5224 -0.0094 -0.1010
 5345SOL     OW27667   0.125   1.782   4.011  0.0028 -0.2421  0.3468
 5345SOL    HW127668   0.179   1.854   4.043  0.7920  0.0475 -1.5854
 5345SOL    HW227669   0.101   1.729   4.086  1.1073 -1.5387 -0.2133
 5346SOL     OW27670   2.884   4.711  14.979 -0.5457  0.2064  0.0986
 5346SOL    HW127671   2.841   4.728  14.895 -0.2399  0.3187 -0.0365
 5346SOL    HW227672   2.947   4.645  14.952 -1.3811 -1.0321  1.1656
 5347SOL     OW27673   3.807   1.447   8.202 -0.8596 -0.4866  0.0622
 5347SOL    HW127674   3.757   1.491   8.133 -0.5198  0.2838  0.3072
 5347SOL    HW227675   3.759   1.364   8.205 -0.2021 -0.7633  3.0055
 5348SOL     OW27676   4.181   3.517  10.106 -0.0612 -0.0121  0.3025
 5348SOL    HW127677   4.222   3.432  10.124  0.3323 -0.0570 -0.8539
 5348SOL    HW227678   4.216   3.539  10.020 -2.8658  3.8733  0.1392
 5349SOL     OW27679   0.529   2.018  15.627  0.6640 -0.4376  0.2437
 5349SOL    HW127680   0.461   1.951  15.628 -0.0640  0.2971  0.7445
 5349SOL    HW227681   0.493   2.074  15.559  2.1086  0.0415 -0.1275
 5350SOL     OW27682   4.014   2.253   2.621  0.0731  0.0768  0.1508
 5350SOL    HW127683   3.984   2.339   2.592  0.5398  0.6374  1.3396
 5350SOL    HW227684   4.097   2.270   2.666 -0.3403  0.0854  0.9047
 5351SOL     OW27685   4.172   2.063   6.056 -0.1192  0.3279  0.4416
 5351SOL    HW127686   4.119   1.991   6.089  1.0170 -0.3490  0.8185
 5351SOL    HW227687   4.154   2.050   5.963  0.1574 -1.2299  0.6094
 5352SOL     OW27688   0.607   0.400   9.855 -0.5149 -0.2188  0.2626
 5352SOL    HW127689   0.608   0.305   9.862  2.4503 -0.3194 -1.1111
 5352SOL    HW227690   0.588   0.407   9.761  1.4483 -0.8754 -0.1914
 5353SOL     OW27691   3.237   3.201   8.379 -0.1874  0.0543 -0.3459
 5353SOL    HW127692   3.232   3.240   8.292 -0.8083 -1.2478 -0.8928
 5353SOL    HW227693   3.148   3.218   8.409  0.2123  2.7276 -0.6528
 5354SOL     OW27694   3.569   4.316   5.192  0.2614  0.2767 -0.1341
 5354SOL    HW127695   3.498   4.374   5.220 -0.1200 -1.6708  2.8945
 5354SOL    HW227696   3.642   4.375   5.175 -0.4680  1.9585  2.4969
 5355SOL     OW27697   3.573   2.340   7.716 -0.0616 -0.2541 -0.4266
 5355SOL    HW127698   3.551   2.374   7.803  0.9899 -1.2056  0.2258
 5355SOL    HW227699   3.605   2.256   7.748 -0.6302  0.7865  2.8886
 5356SOL     OW27700   4.467   3.666   1.348 -0.3684  0.3018  0.3973
 5356SOL    HW127701   4.499   3.579   1.322  1.8352  1.3340 -0.3984
 5356SOL    HW227702   4.374   3.645   1.353  0.4716 -3.6450 -0.1825
 5357SOL     OW27703   0.839   1.780  11.068 -0.0558  0.2062  0.3746
 5357SOL    HW127704   0.830   1.860  11.120 -0.3917  0.7583 -0.5423
 5357SOL    HW227705   0.804   1.804  10.983 -3.4185 -0.1545  1.6220
 5358SOL     OW27706   0.224   1.190   6.063  0.0013 -0.3098  0.0903
 5358SOL    HW127707   0.204   1.139   5.984  0.7642  0.5407 -0.6571
 5358SOL    HW227708   0.145   1.172   6.113  0.0597 -1.5379 -0.2485
 5359SOL     OW27709   0.762   3.769   8.643  0.3578  0.2560  0.1596
 5359SOL    HW127710   0.694   3.790   8.579  0.6720 -1.3665 -0.6947
 5359SOL    HW227711   0.829   3.834   8.619 -0.0180  0.4047 -0.4961
 5360SOL     OW27712   3.400   4.697   3.862 -0.0478 -0.5339 -0.3724
 5360SOL    HW127713   3.436   0.010   3.792  1.2531 -2.4747 -1.1958
 5360SOL    HW227714   3.415   0.012   3.938  2.9639 -3.2475  1.0304
 5361SOL     OW27715   3.150   3.899   7.007  0.0435 -0.0267  0.1716
 5361SOL    HW127716   3.068   3.871   7.049 -0.2549  0.1014 -0.3260
 5361SOL    HW227717   3.214   3.917   7.076 -1.0903  0.7677  1.0187
 5362SOL     OW27718   3.865   2.547  16.790  0.1486  0.2762  0.0735
 5362SOL    HW127719   3.871   2.484  16.862 -0.6263  0.5000  0.3409
 5362SOL    HW227720   3.774   2.529  16.764  0.3505 -0.3759 -0.1624
 5363SOL     OW27721   4.115   2.262   7.101 -0.2982  0.1381  0.1346
 5363SOL    HW127722   4.152   2.349   7.115  1.2142 -0.4434 -0.2208
 5363SOL    HW227723   4.140   2.255   7.009  0.8138  1.5994  0.3208
 5364SOL     OW27724   2.066   0.373   8.436  0.1215 -0.0828  0.1305
 5364SOL    HW127725   2.011   0.298   8.415 -0.9530  1.0575 -1.1275
 5364SOL    HW227726   2.083   0.375   8.530  1.2434 -0.6627 -0.0551
 5365SOL     OW27727   2.912   2.330   8.501 -0.0131 -0.1006 -0.0513
 5365SOL    HW127728   2.917   2.405   8.560 -0.8547 -0.5366  0.5681
 5365SOL    HW227729   3.002   2.299   8.498 -0.1874 -0.7078  1.0271
 5366SOL     OW27730   2.691   2.082   3.968 -0.1181  0.5674  0.3109
 5366SOL    HW127731   2.609   2.116   4.003  0.9280  3.8854 -0.4265
 5366SOL    HW227732   2.671   1.989   3.978  0.5414  0.3477 -0.4388
 5367SOL     OW27733   0.753   3.415   8.617 -0.0779 -0.4945  0.5765
 5367SOL    HW127734   0.723   3.367   8.694  0.7887 -1.1328  0.5213
 5367SOL    HW227735   0.839   3.453   8.638  0.0025 -0.9083  1.0065
 5368SOL     OW27736   1.128   3.868  13.196  0.4700  0.3763  0.4215
 5368SOL    HW127737   1.101   3.956  13.170 -0.8593 -0.3914 -0.8172
 5368SOL    HW227738   1.118   3.876  13.290  1.7599 -1.3212  0.7151
 5369SOL     OW27739   3.998   1.476   3.188 -0.2736  0.2541  0.0124
 5369SOL    HW127740   3.972   1.397   3.235  0.5335 -0.9979 -1.6682
 5369SOL    HW227741   3.927   1.479   3.124 -0.0016  1.3477 -0.2382
 5370SOL     OW27742   2.660   3.719   6.905  0.0913 -0.2532 -0.7508
 5370SOL    HW127743   2.667   3.627   6.932 -2.1600 -0.5463 -1.1542
 5370SOL    HW227744   2.686   3.767   6.984 -2.6684  0.0676 -0.0470
 5371SOL     OW27745   1.884   4.104   3.806  0.5452 -0.0323  0.0415
 5371SOL    HW127746   1.918   4.090   3.717 -0.7457  2.1036 -0.7857
 5371SOL    HW227747   1.815   4.039   3.821 -0.5511  1.1093 -0.1169
 5372SOL     OW27748   1.944   0.736   3.545  0.4629  0.3093 -0.4745
 5372SOL    HW127749   2.036   0.739   3.569  0.0935  0.5839  0.9002
 5372SOL    HW227750   1.916   0.827   3.558  1.2260  0.5962 -0.8635
 5373SOL     OW27751   4.054   3.961   2.045 -0.0484  0.3595  0.5276
 5373SOL    HW127752   4.070   3.919   1.961 -0.3325 -2.1634  1.7116
 5373SOL    HW227753   4.116   4.033   2.038 -2.3408  2.2336 -0.4334
 5374SOL     OW27754   0.459   2.445   5.988 -0.1299 -0.1612  0.3765
 5374SOL    HW127755   0.417   2.495   6.058 -0.0534  0.9889 -0.3894
 5374SOL    HW227756   0.403   2.469   5.913  2.0792  1.2978 -0.7978
 5375SOL     OW27757   0.285   4.319   1.666  0.0826 -0.5080  0.2918
 5375SOL    HW127758   0.319   4.391   1.719  1.2889  1.1305 -2.7069
 5375SOL    HW227759   0.281   4.360   1.580 -0.6697  2.2748  1.6576
 5376SOL     OW27760   3.584   3.981   2.007  0.1624 -0.9192 -1.0353
 5376SOL    HW127761   3.525   3.946   1.940 -0.2818 -1.1428 -0.5289
 5376SOL    HW227762   3.662   3.985   1.952  1.1677  2.4047  0.6312
 5377SOL     OW27763   0.505   1.133   8.877  0.2329  0.0974  0.1660
 5377SOL    HW127764   0.505   1.113   8.783  0.5650  0.8230  0.0161
 5377SOL    HW227765   0.589   1.178   8.886  0.3450 -0.4119  1.6380
 5378SOL     OW27766   3.819   4.078   6.133  0.7782 -0.3603  0.0427
 5378SOL    HW127767   3.850   4.165   6.108 -2.5438  0.7352 -0.2857
 5378SOL    HW227768   3.745   4.097   6.191  0.3542  1.9236 -1.2439
 5379SOL     OW27769   1.073   3.618   0.848 -0.3666 -0.4929 -0.2735
 5379SOL    HW127770   1.134   3.685   0.818  0.3430 -0.7901  0.5071
 5379SOL    HW227771   1.030   3.664   0.920 -0.9062  0.4876 -1.2112
 5380SOL     OW27772   1.015   0.569  16.451 -0.2567  0.0877  0.4185
 5380SOL    HW127773   1.006   0.636  16.383 -2.8506 -0.8281 -0.1581
 5380SOL    HW227774   0.963   0.497  16.413 -0.7508  1.0193 -0.6965
 5381SOL     OW27775   1.955   4.090   2.238  0.5407 -0.1935 -0.2678
 5381SOL    HW127776   1.871   4.134   2.227 -0.2851 -1.1928  2.1258
 5381SOL    HW227777   2.013   4.166   2.241 -2.9889  2.4426  0.5216
 5382SOL     OW27778   4.657   2.626   7.152 -0.3544  0.0573 -0.2914
 5382SOL    HW127779   4.733   2.642   7.208 -0.6977  0.4134  0.0801
 5382SOL    HW227780   4.599   2.585   7.216 -0.1477 -0.2601 -0.3106
 5383SOL     OW27781   1.102   2.251   5.043 -0.2230  0.1431  0.0390
 5383SOL    HW127782   1.123   2.341   5.067  0.6167  0.0288 -0.2588
 5383SOL    HW227783   1.187   2.209   5.062 -0.5248 -0.1561  0.7389
 5384SOL     OW27784   2.788   4.709  15.838 -0.4555  0.6044 -0.4194
 5384SOL    HW127785   2.816   0.003  15.754 -1.6376  0.9900 -0.6383
 5384SOL    HW227786   2.775   4.618  15.812 -0.4445  0.8215 -1.1626
 5385SOL     OW27787   4.565   0.370   3.709 -0.2300 -0.0969  0.3639
 5385SOL    HW127788   4.517   0.348   3.629  1.5174 -0.3303 -0.6224
 5385SOL    HW227789   4.527   0.318   3.779 -0.6730 -3.0951 -2.1228
 5386SOL     OW27790   4.586   4.600   0.212  0.4729  0.1230 -0.5857
 5386SOL    HW127791   4.590   4.606   0.307 -2.8484 -0.8413 -0.3668
 5386SOL    HW227792   4.490   4.596   0.207  0.5321 -1.0636 -0.9634
 5387SOL     OW27793   3.978   0.513   4.857 -0.0497 -0.3944 -0.0178
 5387SOL    HW127794   3.894   0.539   4.895  1.2077  3.7494 -0.1474
 5387SOL    HW227795   3.956   0.536   4.767  1.1543  1.1540  0.0847
 5388SOL     OW27796   1.568   0.389   3.818  1.0012 -0.7858  0.0617
 5388SOL    HW127797   1.581   0.359   3.728 -0.4011  1.0634 -0.7396
 5388SOL    HW227798   1.604   0.314   3.866  0.3540 -0.1216  1.5968
 5389SOL     OW27799   0.125   4.247   9.027  0.6717  0.6928 -0.0208
 5389SOL    HW127800   0.185   4.284   9.091  1.1883  2.6317 -1.6202
 5389SOL    HW227801   0.186   4.200   8.971 -0.4116 -1.7152  0.8308
 5390SOL     OW27802   0.856   4.474   3.565 -0.3106  0.1300 -0.2637
 5390SOL    HW127803   0.772   4.500   3.601 -0.5991  0.1672 -0.9531
 5390SOL    HW227804   0.914   4.529   3.617 -0.0631 -1.1110  0.7709
 5391SOL     OW27805   2.395   0.946  16.908 -0.4020 -0.1697  0.4982
 5391SOL    HW127806   2.328   1.005  16.944 -1.0003  0.7245 -2.1205
 5391SOL    HW227807   2.378   0.952  16.814 -1.7407 -0.9476  0.6877
 5392SOL     OW27808   0.493   1.706  16.611  0.4145 -0.1236  0.0510
 5392SOL    HW127809   0.487   1.619  16.572 -0.8049 -0.5344  1.1415
 5392SOL    HW227810   0.502   1.757  16.530 -0.4256 -0.6142 -0.3493
 5393SOL     OW27811   1.388   0.225  17.396  0.3040  0.0834  0.6118
 5393SOL    HW127812   1.448   0.191  17.463 -0.2914 -1.4852  0.3551
 5393SOL    HW227813   1.441   0.280  17.339 -1.1328  1.0212  0.1910
 5394SOL     OW27814   2.836   0.675   1.016 -0.0941  0.2619  0.2368
 5394SOL    HW127815   2.804   0.611   1.079 -2.3357  1.3259  0.1829
 5394SOL    HW227816   2.824   0.751   1.074 -0.2585  1.6248 -1.5592
 5395SOL     OW27817   4.283   0.936   7.826  0.4406  0.3410 -0.4351
 5395SOL    HW127818   4.284   0.860   7.884  0.8248  1.3220  0.8536
 5395SOL    HW227819   4.313   1.003   7.887 -2.1476 -0.9065  2.2271
 5396SOL     OW27820   0.803   1.784  14.116 -0.7166 -0.3834 -0.3462
 5396SOL    HW127821   0.734   1.844  14.142 -1.2577 -0.9180 -0.5405
 5396SOL    HW227822   0.774   1.698  14.147 -1.6037  0.1050  0.1523
 5397SOL     OW27823   1.201   2.535   1.274  0.4666  0.4837 -0.0479
 5397SOL    HW127824   1.261   2.501   1.341 -1.0867 -1.0128  0.6014
 5397SOL    HW227825   1.154   2.592   1.336 -0.7153  0.8407 -1.2736
 5398SOL     OW27826   3.117   1.629   5.292 -0.3380  0.0980  0.0693
 5398SOL    HW127827   3.122   1.722   5.315 -0.0654 -0.3662  1.8782
 5398SOL    HW227828   3.105   1.642   5.198 -4.1616 -3.0287  0.1487
 5399SOL     OW27829   2.882   1.453   5.012 -0.1651  0.3875 -0.0313
 5399SOL    HW127830   2.795   1.492   5.005 -0.9669 -2.1492 -3.8291
 5399SOL    HW227831   2.925   1.536   5.034  0.7697 -0.4371  1.2871
 5400SOL     OW27832   3.411   2.954   1.278 -0.0715  0.2165  0.1121
 5400SOL    HW127833   3.495   2.947   1.233 -0.2440 -0.9576 -0.0356
 5400SOL    HW227834   3.404   3.049   1.269  0.5667  0.1959 -0.5481
 5401SOL     OW27835   3.540   1.086  15.145  0.5413  0.1551 -0.1709
 5401SOL    HW127836   3.477   1.056  15.080 -0.2122  0.5586  0.3736
 5401SOL    HW227837   3.516   1.046  15.229 -0.8859 -0.4804 -0.8866
 5402SOL     OW27838   3.598   2.557  10.867 -0.0870 -0.0460  0.1266
 5402SOL    HW127839   3.693   2.547  10.875 -0.1662  0.0206  1.1243
 5402SOL    HW227840   3.584   2.649  10.842 -0.3549  0.2198  1.2564
 5403SOL     OW27841   2.571   2.371   4.307  0.0025 -0.0470 -0.1392
 5403SOL    HW127842   2.569   2.353   4.401 -1.6131  0.3421 -0.1014
 5403SOL    HW227843   2.609   2.289   4.275  0.6869  0.3355 -0.3224
 5404SOL     OW27844   2.507   0.047  14.809  0.0984  0.1375 -0.0480
 5404SOL    HW127845   2.593   0.012  14.786  0.0555 -0.9189  1.4194
 5404SOL    HW227846   2.445   0.003  14.751 -0.8587 -0.2222  1.2467
 5405SOL     OW27847   1.731   2.448  10.481 -0.1836 -0.7144 -0.0757
 5405SOL    HW127848   1.816   2.411  10.504 -1.1694 -2.3437  1.0285
 5405SOL    HW227849   1.707   2.504  10.555  0.8148 -0.4418  0.0451
 5406SOL     OW27850   4.078   1.339   8.203 -0.9000 -0.3181  0.0591
 5406SOL    HW127851   4.010   1.402   8.181  1.2424  0.5238 -4.1786
 5406SOL    HW227852   4.028   1.259   8.188 -0.9703  0.0535 -1.6839
 5407SOL     OW27853   0.771   0.586   3.849  0.2519 -0.3023 -0.4491
 5407SOL    HW127854   0.804   0.611   3.936 -0.5825  1.3124 -0.6068
 5407SOL    HW227855   0.683   0.624   3.851  1.4245  2.4435 -1.0899
 5408SOL     OW27856   3.742   3.790   9.643 -0.0283 -0.1434 -0.5839
 5408SOL    HW127857   3.740   3.767   9.736 -1.7401  0.2392 -0.5300
 5408SOL    HW227858   3.695   3.873   9.635  0.4373  0.1303 -0.4723
 5409SOL     OW27859   2.186   4.542   5.703 -0.1439 -0.0695  0.0628
 5409SOL    HW127860   2.107   4.496   5.674  0.2155 -0.7064  0.0953
 5409SOL    HW227861   2.221   4.564   5.617 -1.8546  0.7767 -0.4148
 5410SOL     OW27862   3.314   2.430  16.289  0.6202  0.1101 -0.5620
 5410SOL    HW127863   3.397   2.389  16.264  0.4304 -0.5691 -0.0712
 5410SOL    HW227864   3.264   2.356  16.254  0.4515  0.9150 -2.0185
 5411SOL     OW27865   3.656   4.060   3.628  0.5801 -0.3447 -0.3944
 5411SOL    HW127866   3.734   4.062   3.683  0.9285 -0.6311 -0.8753
 5411SOL    HW227867   3.657   4.152   3.605 -1.4146 -0.3746 -0.6649
 5412SOL     OW27868   4.161   2.277   1.873  0.5871  0.2273  0.2513
 5412SOL    HW127869   4.253   2.268   1.849  0.4888 -1.8484  0.6416
 5412SOL    HW227870   4.131   2.348   1.816  0.2938  0.1440  0.3032
 5413SOL     OW27871   3.031   4.118   6.866 -0.1246  0.2626  0.1517
 5413SOL    HW127872   3.073   4.061   6.930 -0.0568 -0.1210 -0.2355
 5413SOL    HW227873   2.975   4.167   6.927 -0.5368 -0.0112 -0.0039
 5414SOL     OW27874   4.442   0.059   7.689 -0.0596 -0.0636  0.1278
 5414SOL    HW127875   4.431   4.706   7.680 -0.7326  0.2225 -2.0358
 5414SOL    HW227876   4.531   0.061   7.723 -0.2586  1.8647  0.5053
 5415SOL     OW27877   0.062   2.660   9.639  0.0625  0.7172 -0.9153
 5415SOL    HW127878   0.109   2.608   9.704 -1.6738 -1.3823 -1.3688
 5415SOL    HW227879   0.037   2.588   9.582  1.3664 -0.7008  0.3069
 5416SOL     OW27880   2.522   4.731   5.336 -0.8258  0.1503 -0.4176
 5416SOL    HW127881   2.606   0.028   5.309  0.5370 -1.2854  1.7522
 5416SOL    HW227882   2.487   4.706   5.251 -0.2270 -0.6944 -0.4140
 5417SOL     OW27883   3.186   2.925   7.616 -0.1876  0.0692 -0.2024
 5417SOL    HW127884   3.210   2.845   7.663  1.2152  1.1586  0.9764
 5417SOL    HW227885   3.103   2.896   7.580 -1.0296  1.1270  0.8862
 5418SOL     OW27886   1.624   0.948   4.672  0.0603  0.1514  0.5034
 5418SOL    HW127887   1.566   0.945   4.596 -1.3464 -1.8201  1.6590
 5418SOL    HW227888   1.708   0.926   4.631 -0.8251  0.8188 -1.6808
 5419SOL     OW27889   0.061   4.593   9.089  0.4553 -0.0499 -0.6682
 5419SOL    HW127890   0.059   4.619   9.181  0.2523 -3.4922  0.3323
 5419SOL    HW227891   0.003   4.518   9.106  0.6901 -0.2697 -0.8283
 5420SOL     OW27892   1.661   2.406   4.086 -0.1468  0.1063  0.0830
 5420SOL    HW127893   1.594   2.372   4.026  1.9342 -1.3349 -1.4126
 5420SOL    HW227894   1.694   2.327   4.127  1.6990  0.6959 -0.2706
 5421SOL     OW27895   1.479   1.762  10.862  0.1012  0.3930 -0.2102
 5421SOL    HW127896   1.438   1.798  10.783 -3.5109 -0.8748  1.0916
 5421SOL    HW227897   1.572   1.760  10.836  0.0591 -0.4918 -0.2994
 5422SOL     OW27898   4.355   2.959  11.309 -0.7473  0.4284  0.5968
 5422SOL    HW127899   4.385   3.007  11.232 -1.4026  1.0316  0.7209
 5422SOL    HW227900   4.442   2.929  11.337 -0.3176  0.1700 -0.9974
 5423SOL     OW27901   3.263   0.918  16.375 -0.0282 -0.0803  0.2630
 5423SOL    HW127902   3.173   0.915  16.407 -0.2653 -0.7419 -0.4384
 5423SOL    HW227903   3.249   0.954  16.287 -1.8823 -0.8155  0.2560
 5424SOL     OW27904   0.268   3.378   2.400 -0.0984  0.2296 -0.1851
 5424SOL    HW127905   0.222   3.457   2.368 -2.5787 -1.4974 -0.9128
 5424SOL    HW227906   0.211   3.362   2.475  2.0075 -0.1857  1.2936
 5425SOL     OW27907   2.372   1.722   3.227 -0.8930  0.2521 -0.0741
 5425SOL    HW127908   2.448   1.681   3.185 -0.1719  0.4440  1.0194
 5425SOL    HW227909   2.309   1.657   3.196 -0.5381  0.2565 -0.8045
 5426SOL     OW27910   2.933   4.104  17.143  0.1997 -0.0007  0.7474
 5426SOL    HW127911   2.864   4.170  17.140  1.4444  1.2518 -0.2472
 5426SOL    HW227912   2.945   4.082  17.051 -1.3684 -1.3335  0.8591
 5427SOL     OW27913   4.673   1.872   4.422 -0.4468 -0.3705  0.6988
 5427SOL    HW127914   4.660   1.962   4.451 -2.0483  0.2086 -1.7549
 5427SOL    HW227915   0.027   1.864   4.426 -0.4848 -1.0077  0.3945
 5428SOL     OW27916   0.482   0.724   2.983  0.7270  0.3851  0.0022
 5428SOL    HW127917   0.529   0.641   2.973 -1.4981 -1.0089  1.0564
 5428SOL    HW227918   0.400   0.692   3.019  0.8099  0.6785  0.4437
 5429SOL     OW27919   3.159   3.460   2.439  0.3721 -0.0452  0.1311
 5429SOL    HW127920   3.209   3.531   2.398  1.4447  0.4939  2.3534
 5429SOL    HW227921   3.203   3.458   2.525  0.0426  0.6695  0.3190
 5430SOL     OW27922   3.203   4.633   2.937  0.2268 -0.4187  0.1797
 5430SOL    HW127923   3.271   4.667   2.878  1.2976 -1.0011  1.0723
 5430SOL    HW227924   3.259   4.611   3.012 -0.3803  1.6005  1.2134
 5431SOL     OW27925   1.150   2.542   8.097  0.5077 -0.5686 -0.5562
 5431SOL    HW127926   1.143   2.591   8.015 -1.2862  2.8964  1.6619
 5431SOL    HW227927   1.056   2.533   8.109  0.4808 -0.1317 -0.4331
 5432SOL     OW27928   0.860   0.382   8.498  0.0446 -0.1264 -0.0565
 5432SOL    HW127929   0.941   0.345   8.532  0.7568  0.5474 -1.0251
 5432SOL    HW227930   0.801   0.307   8.500 -0.0583 -0.0392  0.2311
 5433SOL     OW27931   4.159   0.004   4.477  0.3109 -0.2562  0.0321
 5433SOL    HW127932   4.253   4.726   4.470  0.6027  0.7718  1.0410
 5433SOL    HW227933   4.159   0.041   4.565  1.1903 -1.9289  0.7416
 5434SOL     OW27934   3.540   0.742   7.786 -0.6520 -0.9277 -0.5678
 5434SOL    HW127935   3.448   0.739   7.761 -1.4865  3.7482  1.9798
 5434SOL    HW227936   3.581   0.783   7.711 -1.9113  1.0223 -0.1677
 5435SOL     OW27937   2.824   3.019  17.385 -0.0360 -0.4836  0.0371
 5435SOL    HW127938   2.867   2.980  17.461 -0.3488 -2.1369 -0.6334
 5435SOL    HW227939   2.741   2.976  17.361  1.3065 -2.1596 -1.5880
 5436SOL     OW27940   4.023   3.626   8.440 -0.2513 -0.5613  0.1816
 5436SOL    HW127941   4.052   3.613   8.530 -2.4254  1.7219  1.2268
 5436SOL    HW227942   3.953   3.561   8.444 -0.9988  0.1971 -0.3660
 5437SOL     OW27943   3.200   1.867   2.550  0.0649  0.5309  0.1097
 5437SOL    HW127944   3.283   1.837   2.513  0.2400  0.8754  0.2254
 5437SOL    HW227945   3.194   1.959   2.523  0.7001  0.1653 -1.2950
 5438SOL     OW27946   0.813   1.632   1.553  0.1991 -0.8004  0.5284
 5438SOL    HW127947   0.794   1.663   1.465  1.1347  0.8100  0.8981
 5438SOL    HW227948   0.791   1.708   1.607 -1.0055 -2.2654  2.1079
 5439SOL     OW27949   0.286   2.474   7.624 -0.6318 -0.1761 -0.0433
 5439SOL    HW127950   0.337   2.402   7.662  1.8456  1.5619 -0.1183
 5439SOL    HW227951   0.224   2.426   7.569 -0.5257  0.1944 -0.4789
 5440SOL     OW27952   2.526   2.944   7.377 -0.7552 -0.3019  0.4711
 5440SOL    HW127953   2.484   2.860   7.398 -0.0668 -0.6377  0.4981
 5440SOL    HW227954   2.497   2.986   7.458  0.5539  2.0789 -0.3201
 5441SOL     OW27955   1.803   0.592  15.729  0.0370 -0.1991 -0.1815
 5441SOL    HW127956   1.807   0.497  15.733  0.6033 -0.2023 -0.8184
 5441SOL    HW227957   1.725   0.593  15.785  0.8181  1.2139  0.8925
 5442SOL     OW27958   4.379   4.259   3.176 -0.0678 -0.3529 -0.0550
 5442SOL    HW127959   4.449   4.197   3.157  1.1770  0.9522  0.2746
 5442SOL    HW227960   4.340   4.221   3.254 -2.1801  0.6382 -0.6335
 5443SOL     OW27961   0.285   2.823   6.244  0.5398 -0.2872 -0.6916
 5443SOL    HW127962   0.226   2.840   6.170  0.3099 -0.2113 -0.4919
 5443SOL    HW227963   0.371   2.842   6.205  0.9028 -1.2853 -0.3530
 5444SOL     OW27964   3.387   4.203   9.892 -0.4145 -0.3803 -0.2110
 5444SOL    HW127965   3.469   4.198   9.843  0.1563 -0.6679  0.7767
 5444SOL    HW227966   3.403   4.150   9.971 -0.9982 -0.1974  0.0296
 5445SOL     OW27967   2.382   0.766   1.977 -0.2195 -0.5643 -0.2938
 5445SOL    HW127968   2.435   0.739   2.052 -0.8081  0.2927  0.4295
 5445SOL    HW227969   2.316   0.698   1.962  0.2503 -1.5041  1.8822
 5446SOL     OW27970   3.430   3.654   3.146 -0.0516 -0.4519 -0.1344
 5446SOL    HW127971   3.481   3.613   3.215 -0.3354 -0.8105 -0.1368
 5446SOL    HW227972   3.432   3.747   3.165  1.7991 -0.5787  0.2504
 5447SOL     OW27973   2.182   0.573   6.308  0.1230  0.1514 -0.6809
 5447SOL    HW127974   2.090   0.572   6.334  0.8316  2.2511  1.9589
 5447SOL    HW227975   2.213   0.483   6.322 -0.4761 -0.0657 -0.7693
 5448SOL     OW27976   0.669   1.088   3.601  0.5185  0.7196 -0.4839
 5448SOL    HW127977   0.728   1.014   3.613  0.6836  0.8177 -0.7097
 5448SOL    HW227978   0.584   1.060   3.637 -0.1042  0.1581 -2.4087
 5449SOL     OW27979   3.672   0.602   5.821  1.0395  0.1972 -0.1296
 5449SOL    HW127980   3.708   0.514   5.826 -0.2211 -0.2495  1.1804
 5449SOL    HW227981   3.662   0.621   5.727  0.7849  1.5800  0.1717
 5450SOL     OW27982   0.528   0.828  11.254 -0.3754  0.6331 -0.4723
 5450SOL    HW127983   0.536   0.870  11.168  2.0510  1.2301  0.0443
 5450SOL    HW227984   0.501   0.904  11.306  2.4238 -0.2334  2.2863
 5451SOL     OW27985   0.481   0.956  12.497 -0.2907  0.1383 -0.1016
 5451SOL    HW127986   0.507   1.035  12.451  0.9556 -0.4900 -0.4892
 5451SOL    HW227987   0.532   0.899  12.439  0.8264 -0.0009  1.0203
 5452SOL     OW27988   2.973   2.199   3.724 -0.2298 -0.3047  0.4805
 5452SOL    HW127989   2.990   2.284   3.686 -2.1110 -0.4247 -0.6494
 5452SOL    HW227990   2.942   2.217   3.813  0.8741  1.1063  0.5601
 5453SOL     OW27991   1.012   1.017   1.970 -1.0012 -0.2563 -0.1933
 5453SOL    HW127992   0.974   0.931   1.949 -1.3532  0.4208 -2.3046
 5453SOL    HW227993   1.012   1.059   1.884  0.1540  1.3079  0.5688
 5454SOL     OW27994   1.571   0.035   6.842 -0.0315 -0.0618  0.2861
 5454SOL    HW127995   1.552   4.721   6.918 -1.8428 -1.2375 -1.0136
 5454SOL    HW227996   1.591   4.706   6.780 -1.0564  0.1006 -0.2337
 5455SOL     OW27997   1.394   2.443  13.200 -0.0531 -0.3940  0.3025
 5455SOL    HW127998   1.346   2.517  13.236 -0.0685 -0.2944  0.0799
 5455SOL    HW227999   1.475   2.484  13.169  0.4083  0.3412  2.4738
 5456SOL     OW28000   3.547   1.488   6.889  0.2982  0.0314 -0.1178
 5456SOL    HW128001   3.472   1.517   6.837  1.2034  2.0574 -0.2682
 5456SOL    HW228002   3.609   1.559   6.873 -0.7505  0.6904 -1.2534
 5457SOL     OW28003   1.740   1.778   7.857 -0.0377 -0.4508  0.5853
 5457SOL    HW128004   1.673   1.846   7.862 -0.9446 -1.1582 -2.1728
 5457SOL    HW228005   1.814   1.812   7.908 -0.1050  1.6559 -0.6704
 5458SOL     OW28006   4.100   0.282   7.559 -0.3296 -0.0954  0.7068
 5458SOL    HW128007   4.108   0.286   7.655 -0.2836  0.2694  0.6884
 5458SOL    HW228008   4.177   0.333   7.535  0.7268 -1.3075  1.5076
 5459SOL     OW28009   1.748   0.104  11.588 -0.2031 -0.4198  0.0748
 5459SOL    HW128010   1.771   0.021  11.547 -1.6294 -0.3217 -0.9466
 5459SOL    HW228011   1.798   0.090  11.668  1.5017 -1.5591 -1.1931
 5460SOL     OW28012   0.843   0.110   8.877  0.4208 -0.0159 -0.6545
 5460SOL    HW128013   0.771   0.170   8.899  0.2023  0.0423 -1.5346
 5460SOL    HW228014   0.797   0.026   8.869  0.8521 -0.4987  2.0784
 5461SOL     OW28015   1.592   0.037   4.390 -0.0407  0.5296  0.1752
 5461SOL    HW128016   1.520   0.082   4.345  1.6849  1.2013 -1.9483
 5461SOL    HW228017   1.662   0.068   4.332  1.4034 -1.6294  0.7818
 5462SOL     OW28018   3.383   4.105   8.172  0.4533 -0.1488 -0.2295
 5462SOL    HW128019   3.366   4.198   8.190 -1.6276 -0.7449  0.8233
 5462SOL    HW228020   3.347   4.061   8.248 -0.4292  1.4672  0.2935
 5463SOL     OW28021   4.226   0.354   5.215 -0.1048 -0.0068 -0.3752
 5463SOL    HW128022   4.204   0.338   5.307 -1.9681  0.8180 -0.6716
 5463SOL    HW228023   4.238   0.449   5.206  1.0824 -0.1091  0.0653
 5464SOL     OW28024   2.911   2.652  10.905  0.7588  0.2745  0.2412
 5464SOL    HW128025   2.865   2.628  10.985 -3.5170  1.5018 -1.8443
 5464SOL    HW228026   2.971   2.578  10.897 -1.3623 -1.5341  1.1041
 5465SOL     OW28027   4.448   0.243   4.752 -0.2025  0.2924  0.1215
 5465SOL    HW128028   4.364   0.198   4.743 -0.8436  1.5945 -0.4982
 5465SOL    HW228029   4.445   0.293   4.670 -0.0019 -1.0439 -0.6897
 5466SOL     OW28030   0.026   1.292   2.073  0.7079  0.0080 -0.2296
 5466SOL    HW128031   4.680   1.331   2.077  0.9170  0.4724 -0.1977
 5466SOL    HW228032   0.036   1.277   1.979 -0.3070 -0.5915 -0.2404
 5467SOL     OW28033   1.622   0.523   7.856 -0.0326  0.1533 -0.7557
 5467SOL    HW128034   1.532   0.500   7.833 -0.1176 -0.7553  0.5012
 5467SOL    HW228035   1.608   0.599   7.912 -0.9338 -1.6040  1.4272
 5468SOL     OW28036   3.642   3.194   9.603  0.1517 -0.3830  0.1192
 5468SOL    HW128037   3.623   3.137   9.678 -1.8880 -2.1247 -1.7097
 5468SOL    HW228038   3.619   3.283   9.629 -2.6750 -1.2405  0.5660
 5469SOL     OW28039   4.229   0.155  15.106  0.2149  0.4588 -0.5810
 5469SOL    HW128040   4.295   0.216  15.072 -0.6443  0.9631 -1.3579
 5469SOL    HW228041   4.158   0.192  15.054 -0.6346  0.1572  0.3651
 5470SOL     OW28042   4.131   3.274   5.885  0.3496  0.0550  0.1239
 5470SOL    HW128043   4.070   3.214   5.928  1.4300  0.8705  2.7345
 5470SOL    HW228044   4.069   3.315   5.824 -0.7057 -0.2799  0.9591
 5471SOL     OW28045   2.625   1.615   6.227  0.2919 -0.1072 -0.3544
 5471SOL    HW128046   2.586   1.646   6.309  3.6612 -3.4966  2.5076
 5471SOL    HW228047   2.646   1.703   6.193  0.0624 -0.9361 -2.6797
 5472SOL     OW28048   2.651   3.803   9.142  0.1144  0.4359 -0.0746
 5472SOL    HW128049   2.564   3.815   9.104  0.3148  3.0748  0.3138
 5472SOL    HW228050   2.664   3.884   9.190  0.5692  0.0107  0.5172
 5473SOL     OW28051   2.839   4.063   4.539 -0.2396  0.1723  0.3626
 5473SOL    HW128052   2.883   4.131   4.487  1.1286 -0.7433  0.2967
 5473SOL    HW228053   2.902   3.990   4.533 -2.2018 -1.5400  0.6235
 5474SOL     OW28054   3.941   2.290   3.562  0.2166 -0.3957 -0.0957
 5474SOL    HW128055   3.858   2.300   3.515  0.8308 -0.3181 -1.1684
 5474SOL    HW228056   3.994   2.322   3.489 -2.0730 -0.6524 -1.8632
 5475SOL     OW28057   3.354   2.415   3.584 -0.5188 -0.1700  0.1407
 5475SOL    HW128058   3.411   2.419   3.660 -3.1187  0.8781  2.0068
 5475SOL    HW228059   3.353   2.322   3.560 -2.2818  0.1947 -1.2995
 5476SOL     OW28060   1.782   4.014   4.864 -0.1541 -0.3593 -0.1846
 5476SOL    HW128061   1.865   4.050   4.893 -0.4838  0.5038 -0.2931
 5476SOL    HW228062   1.802   4.022   4.771 -1.2649 -1.6122 -0.5235
 5477SOL     OW28063   1.024   1.525   2.013 -0.3572  0.1046  0.0278
 5477SOL    HW128064   1.015   1.476   2.095  0.6836 -0.2638 -0.0822
 5477SOL    HW228065   0.937   1.514   1.976  0.6046  1.5149 -2.6316
 5478SOL     OW28066   3.170   2.582   1.350 -0.1253  0.0016  0.0661
 5478SOL    HW128067   3.224   2.633   1.290  2.0628 -0.1402  1.9333
 5478SOL    HW228068   3.098   2.644   1.360 -0.6586 -0.4760 -0.7909
 5479SOL     OW28069   4.675   2.289   8.917 -0.1965 -0.2338  0.0772
 5479SOL    HW128070   4.670   2.346   8.840 -0.2133 -0.5436 -0.1489
 5479SOL    HW228071   4.711   2.352   8.979 -2.5847  2.1791 -0.9697
 5480SOL     OW28072   0.217   3.131  16.258 -0.2328  0.3381 -0.5829
 5480SOL    HW128073   0.171   3.150  16.340  2.3303  1.7965  0.5024
 5480SOL    HW228074   0.145   3.115  16.197 -0.2826  0.3065 -0.5160
 5481SOL     OW28075   1.951   2.593   7.739 -0.2032  0.1554 -0.1207
 5481SOL    HW128076   1.911   2.585   7.653 -0.3449  0.0430 -0.0442
 5481SOL    HW228077   1.901   2.661   7.785 -1.1699 -1.1935  0.8148
 5482SOL     OW28078   3.101   2.439   5.031  0.1783 -0.2379 -0.4746
 5482SOL    HW128079   3.051   2.519   5.017  0.0694 -0.2247 -0.0030
 5482SOL    HW228080   3.163   2.437   4.958 -0.4342 -0.0171 -0.9934
 5483SOL     OW28081   3.614   3.598   6.247  0.2833  0.1845 -0.0571
 5483SOL    HW128082   3.604   3.610   6.153  0.0564 -0.5373 -0.1279
 5483SOL    HW228083   3.570   3.514   6.261  0.4345 -0.0656 -1.0651
 5484SOL     OW28084   2.434   0.381   3.985 -0.5037 -0.8923  0.6704
 5484SOL    HW128085   2.340   0.366   3.993 -0.1564 -2.1236  2.6140
 5484SOL    HW228086   2.429   0.382   3.890 -2.2974 -1.0772  0.7520
 5485SOL     OW28087   0.760   0.353   3.520 -0.0424 -0.2606 -0.2061
 5485SOL    HW128088   0.701   0.426   3.536 -0.2292 -0.7333  1.2537
 5485SOL    HW228089   0.789   0.369   3.431 -0.1396 -0.9004 -0.3526
 5486SOL     OW28090   3.548   2.116   3.125  0.1796  0.3960 -0.6060
 5486SOL    HW128091   3.494   2.191   3.097 -0.5574 -0.5249 -1.6440
 5486SOL    HW228092   3.556   2.066   3.044 -1.5511 -0.0123 -0.5310
 5487SOL     OW28093   1.290   1.770   8.826  0.0202  0.3765  0.4645
 5487SOL    HW128094   1.300   1.827   8.750  0.3052  1.9286  1.6743
 5487SOL    HW228095   1.204   1.794   8.862 -0.7899  0.0225 -1.2051
 5488SOL     OW28096   1.775   3.324   2.926  0.4403 -0.2890 -0.2377
 5488SOL    HW128097   1.803   3.286   2.844 -0.0375 -0.2890 -0.4020
 5488SOL    HW228098   1.857   3.368   2.949 -0.9653  1.5562  1.3213
 5489SOL     OW28099   1.858   2.394   3.873  0.1471  0.4987 -0.3782
 5489SOL    HW128100   1.763   2.396   3.864  0.2321  0.5514 -1.3477
 5489SOL    HW228101   1.886   2.473   3.827 -1.4813 -0.3665 -2.8374
 5490SOL     OW28102   4.180   2.995   0.038  0.6936  0.0988  0.2659
 5490SOL    HW128103   4.182   3.029   0.127 -0.0301 -0.3994  0.4657
 5490SOL    HW228104   4.217   2.908   0.053 -1.7840 -1.4073 -2.3306
 5491SOL     OW28105   1.569   3.986   6.642 -0.1914  0.2134  0.0820
 5491SOL    HW128106   1.613   4.002   6.559  0.7313 -1.6508  0.2208
 5491SOL    HW228107   1.501   3.922   6.622 -0.2857  0.0623  0.8821
 5492SOL     OW28108   1.615   4.189   2.715 -0.1114  0.1368  0.1858
 5492SOL    HW128109   1.576   4.253   2.775  0.4193 -0.0212  0.7023
 5492SOL    HW228110   1.578   4.209   2.629 -0.5345  1.2073  0.6171
 5493SOL     OW28111   3.556   2.942   3.421 -0.0156 -0.1128  0.3233
 5493SOL    HW128112   3.546   2.959   3.515  1.6617  5.1330 -0.4544
 5493SOL    HW228113   3.473   2.902   3.397  0.4828  0.1412 -1.8668
 5494SOL     OW28114   0.961   4.228   7.222 -0.1156 -0.2897 -0.2391
 5494SOL    HW128115   0.992   4.248   7.134  0.5431 -2.5876 -0.5496
 5494SOL    HW228116   0.869   4.251   7.210 -0.0830 -0.3047 -0.5177
 5495SOL     OW28117   1.307   3.263   9.142 -0.0162 -0.3865 -0.3661
 5495SOL    HW128118   1.238   3.303   9.195 -2.3610  0.8931 -4.3688
 5495SOL    HW228119   1.353   3.208   9.205 -1.7479 -1.5590 -0.1211
 5496SOL     OW28120   2.234   0.323   7.229  0.2613  0.3099  0.1653
 5496SOL    HW128121   2.218   0.413   7.260  1.0451  1.7037 -3.5399
 5496SOL    HW228122   2.320   0.299   7.264  1.1474  1.1368 -1.4768
 5497SOL     OW28123   0.570   1.453  13.153 -0.4579  0.0907  0.3676
 5497SOL    HW128124   0.606   1.465  13.065 -4.2512 -0.6667 -1.3141
 5497SOL    HW228125   0.555   1.359  13.138 -0.9898  0.3949 -0.9812
 5498SOL     OW28126   2.768   2.349  17.183 -0.3743  0.2012 -0.0850
 5498SOL    HW128127   2.845   2.350  17.126 -1.0598 -0.4456 -1.0244
 5498SOL    HW228128   2.815   2.347  17.267 -1.5074 -0.3467  0.5304
 5499SOL     OW28129   1.895   2.294   1.235 -0.8437 -0.2564 -0.3191
 5499SOL    HW128130   1.886   2.347   1.314 -1.6526  0.3707 -0.8322
 5499SOL    HW228131   1.969   2.333   1.189  1.8347 -1.2822  3.1371
 5500SOL     OW28132   2.354   1.961   6.464 -0.3705  0.5389  0.4729
 5500SOL    HW128133   2.315   1.976   6.378  0.6174  0.6796  0.0493
 5500SOL    HW228134   2.380   1.869   6.456 -0.7252  0.5712 -1.0895
 5501SOL     OW28135   3.761   4.272   0.972 -0.1041 -0.3048 -0.4319
 5501SOL    HW128136   3.756   4.250   0.879 -0.5199 -1.0119 -0.2464
 5501SOL    HW228137   3.814   4.200   1.007 -0.4339 -0.2841  0.1074
 5502SOL     OW28138   3.980   1.296   3.918 -0.0041 -0.1871  0.0215
 5502SOL    HW128139   3.893   1.277   3.955  0.5474  1.2249  2.0556
 5502SOL    HW228140   4.007   1.378   3.961 -2.6498  0.9607 -0.4668
 5503SOL     OW28141   2.471   3.415   4.003  0.6432  0.0225  0.4226
 5503SOL    HW128142   2.541   3.449   3.947 -1.1028  1.5220 -0.8021
 5503SOL    HW228143   2.402   3.407   3.938  0.4422 -0.4889  0.6966
 5504SOL     OW28144   4.737   0.034   7.223  0.2275 -0.0932 -0.3428
 5504SOL    HW128145   0.040   4.708   7.274  0.7447  1.4828  1.2902
 5504SOL    HW228146   0.052   0.111   7.217 -1.5783  1.2584 -0.0313
 5505SOL     OW28147   2.761   4.362   8.872 -0.4737 -0.3198 -0.1550
 5505SOL    HW128148   2.707   4.342   8.949 -0.1933 -0.9564 -0.1175
 5505SOL    HW228149   2.709   4.428   8.827  2.4480  2.0672 -0.0642
 5506SOL     OW28150   2.058   4.544   9.512 -0.4661  0.5336 -0.4076
 5506SOL    HW128151   2.058   4.529   9.418 -0.3122 -1.1905 -0.1378
 5506SOL    HW228152   1.986   4.605   9.529 -2.0073 -1.5739  0.6727
 5507SOL     OW28153   4.160   3.571   4.151  0.0105  0.0732  0.2744
 5507SOL    HW128154   4.165   3.535   4.240 -0.1555  1.8475  0.9961
 5507SOL    HW228155   4.254   3.587   4.137  0.4231 -0.9506  1.8291
 5508SOL     OW28156   1.753   4.376   0.235 -0.4102 -0.3025 -0.3640
 5508SOL    HW128157   1.689   4.315   0.274 -1.5190 -0.2905 -2.1788
 5508SOL    HW228158   1.707   4.459   0.250  2.9015  1.3947  0.3002
 5509SOL     OW28159   1.807   2.778   7.956 -0.2337  0.8720 -0.4980
 5509SOL    HW128160   1.858   2.756   8.033 -0.1038  0.0425 -0.8252
 5509SOL    HW228161   1.766   2.858   7.989  0.1349 -0.4234  2.9971
 5510SOL     OW28162   0.381   2.094   6.948  0.1668  0.2821  0.6480
 5510SOL    HW128163   0.404   2.030   6.880  1.6547 -0.8760  2.2412
 5510SOL    HW228164   0.298   2.123   6.910 -0.2703 -0.9413  0.6675
 5511SOL     OW28165   1.887   1.235   1.335 -0.9696  0.1151 -0.1538
 5511SOL    HW128166   1.875   1.164   1.272 -1.7073 -0.7139  0.9146
 5511SOL    HW228167   1.814   1.203   1.388  1.0991 -0.0400  2.6064
 5512SOL     OW28168   3.198   2.185  12.488 -0.4612  0.0842  0.6395
 5512SOL    HW128169   3.263   2.151  12.549 -1.6158  0.5350  2.0999
 5512SOL    HW228170   3.143   2.108  12.482 -0.2038 -0.1236  0.9610
 5513SOL     OW28171   4.566   0.965  13.868 -0.1828  0.1525 -0.2504
 5513SOL    HW128172   4.479   0.959  13.908 -0.8853 -0.7469 -1.9257
 5513SOL    HW228173   4.543   1.004  13.783 -1.7594 -0.4024 -0.0724
 5514SOL     OW28174   1.329   3.548   3.953  0.1057  0.1005  0.0622
 5514SOL    HW128175   1.378   3.627   3.932  2.0101 -0.7550  1.2880
 5514SOL    HW228176   1.375   3.487   3.895 -1.8022 -1.7318  0.4919
 5515SOL     OW28177   4.179   1.557   5.234 -0.1202 -0.3169  0.3937
 5515SOL    HW128178   4.096   1.597   5.262  0.1126  1.7376 -1.8431
 5515SOL    HW228179   4.162   1.464   5.220  1.8887 -0.4387 -1.1671
 5516SOL     OW28180   4.432   3.150   6.403  0.0016  0.4617 -0.1708
 5516SOL    HW128181   4.377   3.100   6.343 -1.5282  1.0018  0.7904
 5516SOL    HW228182   4.487   3.215   6.358  1.6623 -0.3827  0.6679
 5517SOL     OW28183   3.891   1.260   5.226 -0.5823 -0.2502  0.1958
 5517SOL    HW128184   3.893   1.294   5.316  2.7944 -0.4612  0.1995
 5517SOL    HW228185   3.803   1.224   5.234 -1.2925  1.2170 -1.1653
 5518SOL     OW28186   0.401   1.888   8.021  0.0401 -0.2419 -0.5284
 5518SOL    HW128187   0.374   1.838   8.098 -1.4339 -1.4050 -1.8046
 5518SOL    HW228188   0.496   1.886   8.036 -0.1170  0.6801  0.6007
 5519SOL     OW28189   4.037   1.161   2.288 -0.3960  0.1957  0.3467
 5519SOL    HW128190   4.062   1.076   2.324  0.3142  0.5763  0.7518
 5519SOL    HW228191   4.041   1.213   2.369 -3.3230 -1.8954  1.8422
 5520SOL     OW28192   1.494   2.321  12.927 -0.0282  0.0191  0.2664
 5520SOL    HW128193   1.510   2.297  12.836 -1.4178 -0.3300  0.1124
 5520SOL    HW228194   1.583   2.300  12.956  0.5052  1.3789 -0.4260
 5521SOL     OW28195   3.318   2.711   1.189  0.1745  0.0329 -0.4048
 5521SOL    HW128196   3.339   2.793   1.234 -1.2178  0.4740 -0.5466
 5521SOL    HW228197   3.304   2.746   1.101  2.1656  0.7304 -0.4362
 5522SOL     OW28198   3.464   3.829   3.798 -0.1015 -0.3301 -0.6695
 5522SOL    HW128199   3.467   3.836   3.702 -0.8106 -0.7454 -0.7166
 5522SOL    HW228200   3.502   3.743   3.817 -1.4899 -0.8294 -0.1993
 5523SOL     OW28201   2.423   4.548   7.671  0.5029  0.2099  0.0487
 5523SOL    HW128202   2.511   4.584   7.662  0.4578  0.9660  2.6705
 5523SOL    HW228203   2.372   4.629   7.660 -0.4773 -0.7255 -2.3617
 5524SOL     OW28204   2.041   2.661   2.121 -0.1661 -0.6264 -0.2047
 5524SOL    HW128205   2.133   2.633   2.124 -0.7761 -2.5869  0.4037
 5524SOL    HW228206   2.014   2.638   2.209 -0.1740 -0.4579 -0.1631
 5525SOL     OW28207   0.728   2.631   6.603 -0.2240  0.5148 -0.4211
 5525SOL    HW128208   0.724   2.715   6.649  1.4113  0.7622 -0.7275
 5525SOL    HW228209   0.783   2.573   6.656 -1.0339  1.1853  1.1712
 5526SOL     OW28210   0.974   3.880   3.363  0.1362  0.1795  0.1347
 5526SOL    HW128211   1.013   3.797   3.336 -0.7146 -0.1197 -0.1599
 5526SOL    HW228212   0.886   3.866   3.328 -0.1008  0.4246  0.6295
 5527SOL     OW28213   1.266   3.800   5.235  0.1801  0.6067  0.3641
 5527SOL    HW128214   1.267   3.735   5.165 -0.3243  1.1680 -0.1716
 5527SOL    HW228215   1.300   3.875   5.186  2.4380 -1.2345 -0.8963
 5528SOL     OW28216   2.176   1.187   1.354 -0.0708 -0.4777  0.6877
 5528SOL    HW128217   2.188   1.187   1.449  0.7992  0.7617  0.5813
 5528SOL    HW228218   2.082   1.171   1.341  0.1027 -0.2045 -0.9481
 5529SOL     OW28219   2.506   0.406  14.149  0.0115 -0.3447  0.0544
 5529SOL    HW128220   2.457   0.346  14.205 -0.6008 -0.3849 -0.5295
 5529SOL    HW228221   2.579   0.416  14.210  0.1014  1.2171 -0.3056
 5530SOL     OW28222   0.976   4.643   8.638 -0.2746 -0.0018  0.1735
 5530SOL    HW128223   0.942   4.729   8.661 -1.6373 -0.9610  1.7295
 5530SOL    HW228224   0.946   4.624   8.549  0.1971 -0.9440  0.2196
 5531SOL     OW28225   2.534   0.607  15.836 -0.2354  0.3950 -0.1027
 5531SOL    HW128226   2.462   0.609  15.772 -0.3226 -0.5081 -0.0387
 5531SOL    HW228227   2.611   0.593  15.781 -1.2419 -0.5759 -1.2821
 5532SOL     OW28228   2.280   0.997   2.427 -0.1463 -0.2931  0.2492
 5532SOL    HW128229   2.199   0.986   2.477 -0.6684  0.2433 -0.4992
 5532SOL    HW228230   2.309   1.084   2.454  1.5864 -0.3993 -1.2362
 5533SOL     OW28231   0.537   1.762   3.897  0.0531  0.3456  0.3425
 5533SOL    HW128232   0.578   1.816   3.829 -0.6308  0.0530 -0.3100
 5533SOL    HW228233   0.514   1.680   3.854 -1.2684  0.6918  0.3881
 5534SOL     OW28234   4.088   1.384   7.648  0.1511  0.0103  0.1772
 5534SOL    HW128235   4.118   1.472   7.669 -0.8843  0.4792 -0.3488
 5534SOL    HW228236   4.167   1.335   7.673 -0.4868 -0.8318  0.5270
 5535SOL     OW28237   0.040   4.204   2.098  0.1005  0.2665  0.3892
 5535SOL    HW128238   4.717   4.139   2.070 -0.1466  0.6248  0.1285
 5535SOL    HW228239   0.087   4.219   2.017 -0.6533  0.7080  0.0285
 5536SOL     OW28240   3.962   1.284   6.873  0.0745 -0.2798 -0.2151
 5536SOL    HW128241   3.956   1.228   6.951  1.0174 -0.0136  0.0526
 5536SOL    HW228242   3.871   1.312   6.883  0.2119  0.6234 -1.4967
 5537SOL     OW28243   3.872   0.418   9.468 -0.8683 -0.1823  0.3061
 5537SOL    HW128244   3.873   0.471   9.548 -0.5294  1.6177 -0.8835
 5537SOL    HW228245   3.829   0.336   9.494 -2.0313 -0.1610 -1.5475
 5538SOL     OW28246   1.484   4.008   2.335  0.3897  0.1185 -0.2918
 5538SOL    HW128247   1.513   3.946   2.268  0.2282  0.5880 -0.7872
 5538SOL    HW228248   1.568   4.011   2.381  0.0424  0.0697  0.3487
 5539SOL     OW28249   2.405   1.013   5.110 -0.4820  0.8999  0.3523
 5539SOL    HW128250   2.338   0.975   5.053 -0.0255  0.6498 -0.0180
 5539SOL    HW228251   2.455   0.933   5.125 -0.8870  0.2737 -1.6443
 5540SOL     OW28252   2.498   1.927   1.697 -0.2500 -0.0750  0.0425
 5540SOL    HW128253   2.488   1.967   1.783 -1.2769 -0.5133  0.1292
 5540SOL    HW228254   2.590   1.898   1.697  0.1130  1.0644 -0.1354
 5541SOL     OW28255   1.794   3.156   0.052 -0.6658 -0.4561 -0.1029
 5541SOL    HW128256   1.823   3.091   0.116  3.8715 -1.4967 -3.1928
 5541SOL    HW228257   1.708   3.180   0.087 -0.8274  0.0905 -0.8665
 5542SOL     OW28258   1.124   2.515   5.121 -0.3433  0.0395 -0.2060
 5542SOL    HW128259   1.108   2.548   5.209  0.6686 -2.7453  1.0382
 5542SOL    HW228260   1.160   2.585   5.067  0.9007  0.9043  1.7666
 5543SOL     OW28261   2.635   3.142   8.891 -0.2782  0.4983 -0.1397
 5543SOL    HW128262   2.542   3.127   8.872 -0.5769 -0.4705  2.0849
 5543SOL    HW228263   2.639   3.235   8.867  0.8079  0.8060  1.2048
 5544SOL     OW28264   1.486   2.801   3.750 -0.3420 -0.3750 -0.0112
 5544SOL    HW128265   1.475   2.707   3.762  2.5647 -0.5347  1.3840
 5544SOL    HW228266   1.507   2.808   3.657 -1.2144 -1.3332 -0.2829
 5545SOL     OW28267   0.571   2.513  16.707 -0.4952 -0.0357  0.1310
 5545SOL    HW128268   0.481   2.521  16.676 -0.5249 -1.4656 -0.1554
 5545SOL    HW228269   0.552   2.524  16.801  0.6796  0.4113  0.3244
 5546SOL     OW28270   4.325   4.653   7.191 -0.0861  0.0911  0.4608
 5546SOL    HW128271   4.400   4.690   7.145 -0.2704  0.9972  0.8928
 5546SOL    HW228272   4.314   4.723   7.255  0.1813  1.2901 -0.7977
 5547SOL     OW28273   0.173   4.158   3.680  0.1524  0.3372  0.5673
 5547SOL    HW128274   0.182   4.250   3.653  0.2576  0.7590  2.0089
 5547SOL    HW228275   0.088   4.138   3.640  0.9055  0.8917 -1.2964
 5548SOL     OW28276   2.404   1.235   4.373 -0.8067  0.1126  0.6747
 5548SOL    HW128277   2.349   1.224   4.296  0.8304  1.7396 -0.7367
 5548SOL    HW228278   2.393   1.157   4.426  0.4493 -0.2566  0.3971
 5549SOL     OW28279   1.568   2.709   3.226  0.5998  0.0146  0.2915
 5549SOL    HW128280   1.496   2.665   3.271  1.4163 -1.3299  0.2797
 5549SOL    HW228281   1.527   2.695   3.141  0.0674 -0.5964  0.6492
 5550SOL     OW28282   0.570   0.325  13.272 -0.5981 -0.1313  0.3596
 5550SOL    HW128283   0.476   0.333  13.285 -0.4646 -0.1029  1.2675
 5550SOL    HW228284   0.593   0.418  13.266 -1.5585  0.0126 -1.1570
 5551SOL     OW28285   3.594   1.171   3.353 -0.1409  0.5934  0.1224
 5551SOL    HW128286   3.583   1.228   3.430 -1.7209  0.1263  0.2328
 5551SOL    HW228287   3.677   1.126   3.368 -0.7106 -0.7974 -1.0516
 5552SOL     OW28288   3.488   3.110  13.859  0.4450  0.3758 -0.2151
 5552SOL    HW128289   3.562   3.168  13.839  0.4965 -0.6167 -2.8504
 5552SOL    HW228290   3.411   3.162  13.836  0.9579  0.6180 -1.3729
 5553SOL     OW28291   4.545   3.000   7.982 -0.2518 -0.8728 -0.0810
 5553SOL    HW128292   4.462   2.967   7.948  0.3165 -1.0366 -1.3429
 5553SOL    HW228293   4.587   2.990   7.896  0.6791  4.9269 -0.3069
 5554SOL     OW28294   4.122   2.616   2.860  0.3442  0.3245  0.2965
 5554SOL    HW128295   4.106   2.586   2.950  1.2950  1.2272  0.7676
 5554SOL    HW228296   4.072   2.696   2.871 -0.2470  0.0163 -0.1767
 5555SOL     OW28297   0.013   4.375   3.279  0.3321  0.5072  0.1951
 5555SOL    HW128298   4.723   4.378   3.369  2.2453  1.6308  0.8303
 5555SOL    HW228299   4.696   4.426   3.223  1.2639  1.2689 -0.1046
 5556SOL     OW28300   3.691   3.939   5.441  0.3140  0.1394  0.3085
 5556SOL    HW128301   3.618   3.990   5.406 -1.2437 -1.6771  0.9178
 5556SOL    HW228302   3.718   3.995   5.514 -1.2018 -1.4079  2.0725
 5557SOL     OW28303   0.272   0.243   2.526 -0.5184 -0.2223  0.2452
 5557SOL    HW128304   0.271   0.253   2.621  0.2770  0.3485  0.1971
 5557SOL    HW228305   0.363   0.213   2.527 -0.2403  0.6408  0.8344
 5558SOL     OW28306   0.043   4.386   0.507  0.1479  0.0111 -0.3435
 5558SOL    HW128307   0.059   4.473   0.473  2.2691 -0.6564 -1.0804
 5558SOL    HW228308   0.126   4.368   0.551 -0.2502 -1.4854 -0.1985
 5559SOL     OW28309   2.561   3.146   8.315  0.0655  0.6060  0.8640
 5559SOL    HW128310   2.481   3.095   8.311  0.7062 -0.3583  0.3301
 5559SOL    HW228311   2.591   3.128   8.405 -0.0909  1.0465  1.0033
 5560SOL     OW28312   1.861   4.687  15.430  0.2320 -0.1993 -0.8322
 5560SOL    HW128313   1.828   4.611  15.383 -0.9229 -0.0952 -0.1674
 5560SOL    HW228314   1.880   4.644  15.513  0.7427  0.6713 -0.4936
 5561SOL     OW28315   0.221   3.080   8.717  0.7647 -0.1481  0.7825
 5561SOL    HW128316   0.207   3.044   8.805  2.5744  0.4196  1.3245
 5561SOL    HW228317   0.162   3.155   8.712  0.2073 -0.4462  2.7150
 5562SOL     OW28318   1.136   1.494   2.304  0.6720  0.6211 -0.1702
 5562SOL    HW128319   1.083   1.572   2.314 -0.0897 -0.0897  1.3109
 5562SOL    HW228320   1.204   1.519   2.365  0.0837 -0.6446  0.9978
 5563SOL     OW28321   3.106   0.712   5.611  0.6483  0.1881  0.1089
 5563SOL    HW128322   3.026   0.765   5.609  0.1471 -0.5319  1.2715
 5563SOL    HW228323   3.101   0.674   5.699  1.3430  0.7093  0.3767
 5564SOL     OW28324   0.288   3.089   6.375 -0.9141  0.3857  0.6239
 5564SOL    HW128325   0.229   3.100   6.301 -0.3646 -2.6709 -0.2493
 5564SOL    HW228326   0.291   2.994   6.371  1.1200  0.4625  0.1737
 5565SOL     OW28327   2.046   1.089   5.125 -0.1145  0.2021 -0.1225
 5565SOL    HW128328   2.084   1.159   5.072  0.9023 -0.2432  0.0206
 5565SOL    HW228329   1.952   1.100   5.111 -0.3085 -2.0777 -0.6198
 5566SOL     OW28330   1.716   4.483   7.510  0.0508  0.5190 -0.2326
 5566SOL    HW128331   1.670   4.452   7.588 -2.3889  0.8974 -1.5183
 5566SOL    HW228332   1.723   4.405   7.457 -0.8403  0.6985 -0.6193
 5567SOL     OW28333   0.606   2.396   6.551 -0.2982  0.2965  0.3774
 5567SOL    HW128334   0.668   2.325   6.567 -0.0086  0.6759  0.9817
 5567SOL    HW228335   0.663   2.467   6.584 -2.2114  1.2493  1.6193
 5568SOL     OW28336   3.569   3.280  14.695  0.6643 -0.0809  0.5616
 5568SOL    HW128337   3.639   3.218  14.714  0.5737 -0.5556 -0.6635
 5568SOL    HW228338   3.493   3.224  14.683  0.5017  0.3757 -0.5103
 5569SOL     OW28339   4.047   2.741   7.867  0.1451 -0.1091  0.2747
 5569SOL    HW128340   3.984   2.712   7.802  1.3331  0.2601 -1.0362
 5569SOL    HW228341   4.087   2.656   7.888  1.9475  0.2508 -1.7954
 5570SOL     OW28342   3.776   2.829  13.971 -0.0550  0.6512  0.3407
 5570SOL    HW128343   3.789   2.751  13.915 -2.3281  0.8877 -0.4981
 5570SOL    HW228344   3.776   2.894  13.900 -2.1733  1.9970  1.6086
 5571SOL     OW28345   1.242   4.269   0.924  0.1209 -0.0872 -0.2339
 5571SOL    HW128346   1.333   4.256   0.899  0.5919 -0.9379  1.9031
 5571SOL    HW228347   1.203   4.332   0.863  1.7408  1.5356  0.3790
 5572SOL     OW28348   3.862   4.607   6.195 -0.3029 -0.1065  0.0474
 5572SOL    HW128349   3.786   4.655   6.163  1.8456  3.4825  0.3734
 5572SOL    HW228350   3.818   4.530   6.231 -3.3834  1.6309  0.0258
 5573SOL     OW28351   0.421   3.487   0.442 -0.4137 -0.1138 -0.0282
 5573SOL    HW128352   0.367   3.531   0.508  2.4005  0.8259  1.6769
 5573SOL    HW228353   0.506   3.531   0.441 -0.3491 -0.2239  0.6276
 5574SOL     OW28354   0.405   2.309   7.153  0.7606 -0.6484  0.2681
 5574SOL    HW128355   0.402   2.351   7.067  1.3032  0.9246  1.0299
 5574SOL    HW228356   0.349   2.235   7.128 -0.0210  0.7599 -2.1780
 5575SOL     OW28357   3.509   4.065  16.383  0.0683  0.0975 -0.6147
 5575SOL    HW128358   3.575   4.110  16.331  1.5610 -2.0312 -0.5659
 5575SOL    HW228359   3.448   4.129  16.419  1.0360  2.0492 -2.4235
 5576SOL     OW28360   2.675   4.484  16.311  0.2010 -0.1616  0.5210
 5576SOL    HW128361   2.715   4.570  16.295 -0.3345  0.0843  0.5274
 5576SOL    HW228362   2.585   4.505  16.334  0.0517 -0.6309  0.3680
 5577SOL     OW28363   1.878   2.298   2.604 -0.2700  0.3864 -0.0131
 5577SOL    HW128364   1.820   2.268   2.533  0.6427  1.4991 -1.2292
 5577SOL    HW228365   1.950   2.237   2.592  0.5388  1.4668 -0.6337
 5578SOL     OW28366   1.148   3.358   1.670  0.5081  0.3226 -0.1526
 5578SOL    HW128367   1.188   3.386   1.753  1.6175  1.1866 -0.9753
 5578SOL    HW228368   1.173   3.266   1.680  1.9660  0.7687  0.4051
 5579SOL     OW28369   4.112   4.017  14.357  0.6900 -0.2678  0.4139
 5579SOL    HW128370   4.122   4.037  14.450  0.8497 -2.0281  0.7732
 5579SOL    HW228371   4.165   3.938  14.350  2.0995  0.6332  0.9105
 5580SOL     OW28372   1.916   2.013   4.349 -0.7405 -0.3279  0.2668
 5580SOL    HW128373   1.853   1.980   4.412 -2.5357 -1.2384 -2.0047
 5580SOL    HW228374   2.004   2.021   4.386 -0.7795  1.6927 -0.0655
 5581SOL     OW28375   1.901   1.875   2.302 -0.4658  0.0730 -0.5434
 5581SOL    HW128376   1.938   1.961   2.280 -2.9028  1.0193 -0.9724
 5581SOL    HW228377   1.824   1.876   2.246 -0.0624 -0.5914 -1.0993
 5582SOL     OW28378   3.237   2.862   4.847 -0.6805  0.1952  0.1312
 5582SOL    HW128379   3.206   2.787   4.797 -0.3453 -0.2264  0.5599
 5582SOL    HW228380   3.283   2.810   4.913  0.8625 -0.6077 -1.5789
 5583SOL     OW28381   1.217   3.949  17.409 -0.3472 -0.2481  0.0863
 5583SOL    HW128382   1.131   3.964  17.370 -0.5315  0.1134  0.6314
 5583SOL    HW228383   1.259   4.027  17.444 -0.0090 -0.2736 -0.2703
 5584SOL     OW28384   3.980   1.924  12.085  0.0257  0.5734  0.0200
 5584SOL    HW128385   3.954   1.832  12.077 -0.7782  0.8236 -0.3216
 5584SOL    HW228386   3.982   1.944  11.991 -0.1324 -0.4721 -0.2083
 5585SOL     OW28387   3.271   4.430   4.072  0.4902 -0.5048 -0.7601
 5585SOL    HW128388   3.190   4.396   4.037  1.0833 -1.3425 -1.2959
 5585SOL    HW228389   3.335   4.406   4.005 -0.9602 -2.5704 -1.3864
 5586SOL     OW28390   4.063   3.964  10.131 -0.2953 -0.5304 -0.0998
 5586SOL    HW128391   4.008   3.886  10.123  0.0554 -1.0537  2.9858
 5586SOL    HW228392   4.117   3.954  10.209  0.7743 -0.4913 -0.8396
 5587SOL     OW28393   3.363   0.350   5.583 -0.0076  0.2981  0.3161
 5587SOL    HW128394   3.331   0.392   5.663  0.5344  0.9576  0.1851
 5587SOL    HW228395   3.320   0.402   5.515  0.4040 -1.7961 -1.5324
 5588SOL     OW28396   0.162   3.010   8.973  0.2349 -0.0725 -0.1444
 5588SOL    HW128397   0.210   2.938   9.015 -0.2964 -0.4283 -0.1500
 5588SOL    HW228398   0.208   3.085   9.011 -1.3590 -0.4990  2.6097
 5589SOL     OW28399   0.513   1.063   8.599  0.3184 -0.2813  0.4587
 5589SOL    HW128400   0.534   0.971   8.584 -0.4516 -0.2236 -1.0112
 5589SOL    HW228401   0.526   1.095   8.510 -0.9526 -2.1471 -0.3878
 5590SOL     OW28402   1.309   4.607   2.782 -0.3735  0.4819  0.7012
 5590SOL    HW128403   1.285   4.545   2.713 -0.0381 -0.2264  1.2159
 5590SOL    HW228404   1.353   4.539   2.833 -1.1494  0.6558  1.6139
 5591SOL     OW28405   2.888   1.146   1.408  0.2122  0.1348  0.0500
 5591SOL    HW128406   2.807   1.144   1.358 -0.7696 -1.8189  1.6995
 5591SOL    HW228407   2.907   1.236   1.434 -2.3772  0.5109  0.6787
 5592SOL     OW28408   2.278   3.013   4.372 -0.7856 -0.1345 -0.1784
 5592SOL    HW128409   2.300   2.979   4.286  1.0525 -0.7139  0.5268
 5592SOL    HW228410   2.221   3.087   4.351  1.0132  1.6094  1.0878
 5593SOL     OW28411   4.099   3.607   0.278 -0.0297  0.1288 -0.1363
 5593SOL    HW128412   4.022   3.559   0.246 -0.2793  0.5166 -0.1225
 5593SOL    HW228413   4.169   3.550   0.247  0.0406 -0.1597  0.5411
 5594SOL     OW28414   3.562   2.462  15.937 -0.4590 -0.0501 -0.0061
 5594SOL    HW128415   3.616   2.516  15.879  2.3153 -1.2058  1.5532
 5594SOL    HW228416   3.582   2.377  15.899  0.5767 -0.5354  1.6429
 5595SOL     OW28417   2.587   2.462  14.463  0.1989 -0.0286  0.3541
 5595SOL    HW128418   2.663   2.519  14.453  0.1794 -0.0599  0.0308
 5595SOL    HW228419   2.537   2.507  14.532  1.2091 -0.3715  1.3038
 5596SOL     OW28420   3.687   3.372   4.425  0.6053  0.6074 -0.4096
 5596SOL    HW128421   3.700   3.449   4.481 -0.9047  0.6069 -0.0632
 5596SOL    HW228422   3.707   3.300   4.484 -0.8955  0.9788  0.5617
 5597SOL     OW28423   0.210   3.885   6.470 -0.2773 -0.0563  0.0757
 5597SOL    HW128424   0.154   3.809   6.483 -0.8731  0.3216 -0.2571
 5597SOL    HW228425   0.142   3.948   6.446 -0.8761 -0.2496  1.2869
 5598SOL     OW28426   3.594   2.540  14.300 -0.5497  0.3483 -0.5395
 5598SOL    HW128427   3.620   2.621  14.255  1.0751 -0.9648 -1.9690
 5598SOL    HW228428   3.525   2.563  14.362  0.4877  0.4651  0.5797
 5599SOL     OW28429   0.459   2.500   3.040  0.6446  0.1157 -0.6756
 5599SOL    HW128430   0.448   2.435   3.110 -0.7286  0.4738 -0.5568
 5599SOL    HW228431   0.422   2.459   2.962  0.4191 -2.3289  0.7150
 5600SOL     OW28432   4.547   0.207  16.878  0.2051 -0.5462 -0.0685
 5600SOL    HW128433   4.614   0.160  16.929 -0.3004 -0.6591  0.4951
 5600SOL    HW228434   4.473   0.164  16.921 -0.8167  0.0656 -1.2334
 5601SOL     OW28435   1.614   3.829   3.661  0.4398  0.4932  0.3973
 5601SOL    HW128436   1.640   3.921   3.651 -0.2903  0.4563 -1.8005
 5601SOL    HW228437   1.565   3.817   3.580 -0.1755 -1.9301  1.1459
 5602SOL     OW28438   3.191   2.820   8.687 -0.3675  0.3918  0.0182
 5602SOL    HW128439   3.192   2.877   8.764 -0.6552 -0.9778  1.0382
 5602SOL    HW228440   3.166   2.882   8.619  1.5988  1.6443  0.4486
 5603SOL     OW28441   1.964   2.749   8.163  0.3789  0.4096 -0.5138
 5603SOL    HW128442   1.950   2.720   8.254  0.0650  0.2265 -0.6229
 5603SOL    HW228443   2.052   2.709   8.164  0.5322  0.7631  0.1322
 5604SOL     OW28444   1.359   4.183   3.246  0.3302 -0.4342 -0.4741
 5604SOL    HW128445   1.426   4.200   3.180  0.9187  2.3556  0.8566
 5604SOL    HW228446   1.378   4.105   3.299 -2.4608 -0.5538  0.3561
 5605SOL     OW28447   2.260   1.750   1.814  0.2143  0.4261  0.2361
 5605SOL    HW128448   2.244   1.680   1.877  0.4440  1.2613  1.2301
 5605SOL    HW228449   2.355   1.760   1.821  0.2030  0.2073  0.7112
 5606SOL     OW28450   4.504   3.747  17.393 -0.5752  0.2306  0.3611
 5606SOL    HW128451   4.421   3.699  17.393  0.3527 -1.3468  1.3474
 5606SOL    HW228452   4.475   3.831  17.430 -1.2381  1.0162 -1.9478
 5607SOL     OW28453   2.839   2.632   7.789 -0.1339 -0.4875 -0.1263
 5607SOL    HW128454   2.788   2.709   7.766  1.0303  0.1350 -0.6217
 5607SOL    HW228455   2.865   2.607   7.700 -0.9060 -0.9422 -0.2277
 5608SOL     OW28456   3.361   3.248   7.409  0.1649 -0.2658 -0.1890
 5608SOL    HW128457   3.351   3.190   7.334 -0.2287 -0.2772 -0.1300
 5608SOL    HW228458   3.266   3.251   7.420  0.4570  2.4794  1.4809
 5609SOL     OW28459   4.463   2.781   1.043 -0.3567 -0.3037 -0.6779
 5609SOL    HW128460   4.523   2.848   1.012  0.0371 -0.8973 -1.1965
 5609SOL    HW228461   4.429   2.743   0.962 -0.8417  1.5507 -1.3432
 5610SOL     OW28462   0.111   3.071   3.703 -0.1546 -0.3084 -0.1350
 5610SOL    HW128463   0.198   3.095   3.733  0.0285 -1.1272 -0.0011
 5610SOL    HW228464   0.089   2.995   3.758  1.7147 -0.2916  0.6455
 5611SOL     OW28465   1.481   0.852  10.748 -0.2418  0.1516  0.0530
 5611SOL    HW128466   1.475   0.878  10.840  0.4396  0.5831 -0.0253
 5611SOL    HW228467   1.554   0.790  10.754  1.0999  1.5293 -1.9689
 5612SOL     OW28468   0.468   1.339   0.970 -0.7271 -0.3344 -0.3966
 5612SOL    HW128469   0.438   1.422   1.008  1.2903 -0.2944  1.1238
 5612SOL    HW228470   0.502   1.302   1.051 -1.6862 -0.2304  0.0530
 5613SOL     OW28471   4.625   1.457   9.136  0.2079 -0.4109 -0.2011
 5613SOL    HW128472   4.631   1.389   9.203 -0.0357 -1.7667 -1.5482
 5613SOL    HW228473   4.718   1.478   9.126  0.2307 -0.4568 -0.0862
 5614SOL     OW28474   2.956   3.128   7.983  0.0091  0.3237  0.0430
 5614SOL    HW128475   2.954   3.036   7.957 -1.2156  0.2853  0.2718
 5614SOL    HW228476   2.875   3.166   7.948 -0.9937 -0.0168  1.9982
 5615SOL     OW28477   2.589   2.969  11.281 -0.1033 -0.1504 -0.3564
 5615SOL    HW128478   2.677   2.942  11.307  1.3890  2.4482 -2.6723
 5615SOL    HW228479   2.563   3.038  11.343  2.1788  0.5469 -0.1630
 5616SOL     OW28480   2.295   2.630   2.449  0.3434 -0.0318 -0.0199
 5616SOL    HW128481   2.291   2.698   2.516 -0.5769 -0.9785  0.8785
 5616SOL    HW228482   2.307   2.690   2.376 -1.2204  0.9432  0.5243
 5617SOL     OW28483   0.238   1.298   5.304  0.2743  0.1305 -0.7130
 5617SOL    HW128484   0.192   1.215   5.308 -1.2293  1.0685  1.3440
 5617SOL    HW228485   0.180   1.355   5.354 -0.5373  0.3713 -1.9261
 5618SOL     OW28486   4.055   3.877   0.348  0.4679  0.5321  0.2878
 5618SOL    HW128487   3.986   3.875   0.281  2.9026  3.7075 -2.3783
 5618SOL    HW228488   4.079   3.785   0.339  0.3260  0.4898  0.3621
 5619SOL     OW28489   0.591   1.582   3.006  0.0596  0.0978 -0.2331
 5619SOL    HW128490   0.512   1.590   3.060 -0.3194  0.0222 -0.7741
 5619SOL    HW228491   0.654   1.541   3.064 -0.5877  0.1026  0.4706
 5620SOL     OW28492   0.177   4.201   8.136 -0.4935  0.2261 -0.3018
 5620SOL    HW128493   0.243   4.171   8.199 -0.8563  0.3389  0.1322
 5620SOL    HW228494   0.153   4.126   8.081 -4.4186  0.5753  0.9093
 5621SOL     OW28495   1.334   3.124   3.670 -0.3025 -0.2269  0.3655
 5621SOL    HW128496   1.385   3.115   3.590 -1.0147  2.1786 -0.3694
 5621SOL    HW228497   1.349   3.049   3.728 -2.2116 -1.7049 -1.0498
 5622SOL     OW28498   2.594   1.140  12.030 -0.8304 -0.4884 -0.1414
 5622SOL    HW128499   2.598   1.164  12.122 -0.5053 -0.6314 -0.1174
 5622SOL    HW228500   2.686   1.127  12.006 -0.1898  0.9303  1.5594
 5623SOL     OW28501   2.347   1.474   1.593  0.2841  0.0771  0.2004
 5623SOL    HW128502   2.312   1.535   1.658  0.9870 -0.2075  0.8377
 5623SOL    HW228503   2.327   1.528   1.516 -0.1439  2.9076  2.3106
 5624SOL     OW28504   2.943   3.366  14.699  0.1984  0.3505  0.4532
 5624SOL    HW128505   2.880   3.294  14.698 -1.0804  1.4584  0.7374
 5624SOL    HW228506   2.894   3.418  14.763  2.8134 -0.4066  3.0862
 5625SOL     OW28507   3.043   4.716  14.038  0.2542 -0.4264  0.0664
 5625SOL    HW128508   3.053   4.643  13.978  1.2184  0.4049 -0.7850
 5625SOL    HW228509   3.132   0.009  14.032 -0.6706  2.6155  3.2413
 5626SOL     OW28510   1.299   3.963   6.080 -0.3965  0.4460  0.6843
 5626SOL    HW128511   1.383   3.973   6.124  0.3942 -1.6052 -0.4036
 5626SOL    HW228512   1.235   3.984   6.149 -0.4618 -0.2620  0.8317
 5627SOL     OW28513   0.329   1.031   8.346  0.5442 -0.7064 -0.4869
 5627SOL    HW128514   0.256   1.047   8.286  0.3162  0.0947  0.0115
 5627SOL    HW228515   0.289   1.058   8.429  1.8804  2.2838 -0.8499
 5628SOL     OW28516   2.104   1.466   4.265 -0.2910 -0.0024 -0.1870
 5628SOL    HW128517   2.083   1.420   4.347  0.4798 -0.0723 -0.0237
 5628SOL    HW228518   2.093   1.556   4.296  0.9741 -0.9356  3.0488
 5629SOL     OW28519   0.363   4.036   2.797  0.0395  0.1980  0.7328
 5629SOL    HW128520   0.445   4.005   2.758 -2.4973 -4.0273 -1.2594
 5629SOL    HW228521   0.320   3.957   2.829 -1.0190  0.5795  0.2493
 5630SOL     OW28522   4.357   4.720  16.952 -0.5242 -0.3987 -0.1646
 5630SOL    HW128523   4.402   4.663  17.014  0.0859 -1.0306 -1.1837
 5630SOL    HW228524   4.343   4.661  16.878  0.6814  0.3459 -0.9894
 5631SOL     OW28525   2.778   0.478   9.361  0.4219 -0.0391  0.1961
 5631SOL    HW128526   2.703   0.534   9.379  0.7743  0.2042  0.8921
 5631SOL    HW228527   2.731   0.403   9.323 -1.1316  0.8513  0.3643
 5632SOL     OW28528   1.539   3.669   1.302  0.3311  0.1638 -0.1784
 5632SOL    HW128529   1.453   3.697   1.271  0.8546  2.2680  0.3013
 5632SOL    HW228530   1.542   3.713   1.387  1.7139  1.8265 -1.0939
 5633SOL     OW28531   1.080   3.630  10.493 -0.0247 -0.3419  0.2183
 5633SOL    HW128532   1.110   3.544  10.463  0.6395 -0.2850  0.7177
 5633SOL    HW228533   1.012   3.661  10.433  0.1397 -1.3277 -0.4952
 5634SOL     OW28534   3.076   1.360   6.889 -0.1120 -0.4204 -0.3905
 5634SOL    HW128535   3.067   1.278   6.938 -1.7946 -2.1685 -3.6029
 5634SOL    HW228536   3.065   1.326   6.801  0.7084 -3.9140  0.8485
 5635SOL     OW28537   2.408   1.561  13.582  0.2105 -0.3121  0.1893
 5635SOL    HW128538   2.492   1.594  13.616  0.3941  1.4634 -1.9467
 5635SOL    HW228539   2.429   1.470  13.565  0.9267 -0.7166  3.2979
 5636SOL     OW28540   1.886   1.909   8.038  0.0901  0.5433 -1.0114
 5636SOL    HW128541   1.866   1.976   8.103 -3.0027 -1.6505  0.3065
 5636SOL    HW228542   1.919   1.837   8.091 -1.5790  0.4766 -0.0517
 5637SOL     OW28543   2.946   0.909  11.544 -0.0538 -0.4172 -0.0461
 5637SOL    HW128544   2.936   1.001  11.566 -2.2761 -0.8329  0.6991
 5637SOL    HW228545   2.859   0.882  11.514  0.2111 -0.7645 -0.4957
 5638SOL     OW28546   0.245   0.519   2.643  0.0839  0.0677  0.1783
 5638SOL    HW128547   0.251   0.430   2.678 -0.6441  0.6421  1.7888
 5638SOL    HW228548   0.173   0.548   2.699  1.4603 -0.5638  2.2983
 5639SOL     OW28549   4.027   2.292   6.110 -0.4835 -0.3215 -0.5101
 5639SOL    HW128550   4.024   2.304   6.205  0.3941  3.8933 -1.0276
 5639SOL    HW228551   4.084   2.217   6.090  2.0007  1.2304  0.8038
 5640SOL     OW28552   1.359   4.641  15.444 -0.4349 -0.2690  0.0274
 5640SOL    HW128553   1.303   4.677  15.375  0.2703 -1.2652 -1.0478
 5640SOL    HW228554   1.365   4.548  15.421  2.5344  0.3352 -1.6029
 5641SOL     OW28555   3.797   1.245   5.750  0.4620  1.0277  0.4559
 5641SOL    HW128556   3.765   1.196   5.825  0.8499  1.4907  0.9178
 5641SOL    HW228557   3.746   1.323   5.772 -1.2739 -0.2154  0.7821
 5642SOL     OW28558   1.697   0.912   3.432  0.0926 -0.1812 -0.2121
 5642SOL    HW128559   1.721   0.904   3.525 -1.6118  0.5383  0.2854
 5642SOL    HW228560   1.682   1.006   3.426 -0.9339 -0.3178  0.1950
 5643SOL     OW28561   1.817   1.527   7.149 -0.1324 -0.7606 -0.6371
 5643SOL    HW128562   1.787   1.617   7.138  0.4781 -0.5324 -0.4731
 5643SOL    HW228563   1.779   1.485   7.072 -1.8448 -0.2135 -0.0936
 5644SOL     OW28564   3.015   0.886  16.470  0.2229 -0.3054  0.2713
 5644SOL    HW128565   2.953   0.848  16.532  0.6372 -2.9097 -0.9325
 5644SOL    HW228566   2.988   0.978  16.480 -1.1505 -0.8096  1.2154
 5645SOL     OW28567   3.920   3.431  10.024 -0.0890  0.0215  0.2551
 5645SOL    HW128568   3.999   3.484  10.019  0.4525 -0.8018  0.0727
 5645SOL    HW228569   3.889   3.422   9.933  2.1851 -3.1175 -0.2123
 5646SOL     OW28570   0.741   1.769   4.362  0.7468  0.0184  0.0067
 5646SOL    HW128571   0.749   1.820   4.282  2.8355  1.4034  1.1117
 5646SOL    HW228572   0.697   1.688   4.336 -0.6655  0.9085 -0.3967
 5647SOL     OW28573   1.887   0.523  12.134 -0.0915  0.0637  0.8858
 5647SOL    HW128574   1.886   0.558  12.045 -1.3091 -0.6854  0.6122
 5647SOL    HW228575   1.980   0.533  12.155  0.7999 -2.8741 -1.7608
 5648SOL     OW28576   3.058   1.899  12.945  0.1508 -0.4428  0.0935
 5648SOL    HW128577   3.038   1.872  13.035  0.1250  0.3380  0.3234
 5648SOL    HW228578   2.976   1.913  12.898 -0.4933  0.5739  1.5141
 5649SOL     OW28579   2.793   3.907  10.557 -0.6926 -0.1765  0.1903
 5649SOL    HW128580   2.854   3.914  10.630 -0.4314  0.9359 -0.1393
 5649SOL    HW228581   2.707   3.930  10.593 -0.1943 -2.5633  2.8765
 5650SOL     OW28582   3.365   1.705  11.418 -0.0517  0.1013 -0.0528
 5650SOL    HW128583   3.367   1.640  11.348 -1.1349 -1.0012  0.9300
 5650SOL    HW228584   3.271   1.722  11.422  0.0171  0.2479  0.8634
 5651SOL     OW28585   3.355   1.353   4.159 -0.2166 -0.0798 -0.1817
 5651SOL    HW128586   3.308   1.421   4.208  0.9590  1.5752 -1.3611
 5651SOL    HW228587   3.447   1.376   4.152 -0.8019  1.7912 -1.6587
 5652SOL     OW28588   3.080   3.050   1.114 -0.0158  0.1457  0.0929
 5652SOL    HW128589   3.038   3.027   1.197  0.0600 -0.7512 -0.1105
 5652SOL    HW228590   3.143   2.978   1.103 -1.1963 -0.6409 -1.5515
 5653SOL     OW28591   0.914   1.612   6.640 -0.6178  0.0940 -0.0003
 5653SOL    HW128592   0.967   1.546   6.594 -0.7940  0.4437 -0.6991
 5653SOL    HW228593   0.970   1.690   6.634  0.6834 -0.8090  0.4506
 5654SOL     OW28594   2.222   1.658   0.483 -0.1024 -0.4913  0.0811
 5654SOL    HW128595   2.134   1.691   0.462  0.0044 -0.4344 -0.2848
 5654SOL    HW228596   2.250   1.647   0.392  1.1140 -2.2123  0.6553
 5655SOL     OW28597   3.036   3.960   6.637 -0.6576 -0.0195 -0.2300
 5655SOL    HW128598   3.013   4.046   6.602  1.5996  0.5813 -0.1991
 5655SOL    HW228599   3.046   3.991   6.727 -1.4242 -0.6281  0.0722
 5656SOL     OW28600   3.017   3.025  11.035  0.5814 -0.0762 -0.7361
 5656SOL    HW128601   3.056   2.954  10.985  1.1142 -0.3560  0.0645
 5656SOL    HW228602   3.094   3.069  11.070  0.7522  1.4010 -2.9980
 5657SOL     OW28603   1.126   2.641   2.491 -0.3123  0.1945  0.2937
 5657SOL    HW128604   1.128   2.557   2.446  1.1290 -0.8519  2.2737
 5657SOL    HW228605   1.036   2.670   2.502 -0.2089 -0.0804  1.9948
 5658SOL     OW28606   0.629   0.789   5.585 -0.2037  0.1953 -0.3344
 5658SOL    HW128607   0.626   0.844   5.663 -1.6975  0.7380 -0.7823
 5658SOL    HW228608   0.540   0.792   5.550 -0.0333 -2.2655 -0.9612
 5659SOL     OW28609   1.287   1.621   9.055  0.9165  0.2207  0.1161
 5659SOL    HW128610   1.268   1.529   9.036 -0.1676 -0.2147  3.3971
 5659SOL    HW228611   1.250   1.664   8.978 -0.8226 -0.5449  0.5351
 5660SOL     OW28612   3.897   0.848  13.261  0.1906 -0.3731  0.1704
 5660SOL    HW128613   3.826   0.791  13.290  0.0803 -0.8738 -1.0876
 5660SOL    HW228614   3.863   0.933  13.290  3.4356  1.1980 -0.5209
 5661SOL     OW28615   2.148   3.883   7.023 -0.4969 -0.1231  0.0137
 5661SOL    HW128616   2.187   3.965   7.053 -0.2354  0.2240 -1.2916
 5661SOL    HW228617   2.200   3.820   7.073  0.3743  0.8655  0.3684
 5662SOL     OW28618   3.442   2.314   7.974  0.2170 -0.1032 -0.3444
 5662SOL    HW128619   3.521   2.284   8.019 -0.8504  0.6524  2.0440
 5662SOL    HW228620   3.372   2.294   8.036 -0.0204  0.1499 -0.5324
 5663SOL     OW28621   3.242   3.052   3.808  0.4016 -0.6248 -0.1725
 5663SOL    HW128622   3.200   3.016   3.730  0.6340 -0.0887 -0.5445
 5663SOL    HW228623   3.185   3.015   3.876 -0.2327 -0.0802 -0.4107
 5664SOL     OW28624   1.253   0.204   9.035  0.2249  0.0587 -0.2876
 5664SOL    HW128625   1.331   0.161   9.070 -0.1525 -0.5708 -0.2176
 5664SOL    HW228626   1.188   0.171   9.097  0.0075  0.9586 -0.0254
 5665SOL     OW28627   1.450   4.626  11.708 -0.4846 -0.5771 -0.3116
 5665SOL    HW128628   1.452   4.649  11.615 -3.9158  1.6388  0.1483
 5665SOL    HW228629   1.445   4.715  11.741 -0.4498 -0.1120 -1.5367
 5666SOL     OW28630   3.798   1.548   1.863  0.0069 -0.0081  0.3486
 5666SOL    HW128631   3.834   1.487   1.799 -0.4881  0.5195 -0.4377
 5666SOL    HW228632   3.834   1.629   1.825 -1.4026  0.7155  0.5307
 5667SOL     OW28633   3.740   4.018   2.628  0.0255 -0.0333 -0.4877
 5667SOL    HW128634   3.755   4.030   2.534 -0.1968  0.4034 -0.4672
 5667SOL    HW228635   3.659   3.968   2.629  0.8895 -1.4697 -1.7680
 5668SOL     OW28636   0.037   3.495   4.856  0.0235 -0.1508  0.5182
 5668SOL    HW128637   0.053   3.400   4.860 -1.0520 -0.3181  0.9513
 5668SOL    HW228638   0.126   3.527   4.863  0.4763 -1.5541  1.2419
 5669SOL     OW28639   0.835   3.793   6.072 -0.2230 -0.4144  0.1334
 5669SOL    HW128640   0.823   3.700   6.052  1.3620 -0.3637 -1.0417
 5669SOL    HW228641   0.790   3.841   6.002 -0.8262  1.0485  1.5182
 5670SOL     OW28642   1.841   0.616   6.284 -0.2314 -0.1008  0.7525
 5670SOL    HW128643   1.789   0.660   6.351  0.5983 -1.7060  2.4561
 5670SOL    HW228644   1.775   0.618   6.215 -0.3209 -1.1994  0.8095
 5671SOL     OW28645   1.953   0.493   6.851  0.7677  0.1629  0.1930
 5671SOL    HW128646   2.034   0.443   6.858 -1.3318 -3.2127  0.4116
 5671SOL    HW228647   1.992   0.580   6.846 -2.9145  1.7596 -0.8667
 5672SOL     OW28648   3.859   3.440  10.894 -0.1337 -0.0940 -0.0855
 5672SOL    HW128649   3.898   3.366  10.940 -0.9488 -0.4235  0.0747
 5672SOL    HW228650   3.803   3.404  10.825 -0.6419 -1.2133  0.9206
 5673SOL     OW28651   2.628   0.849   1.914  0.2632 -0.2619 -0.6989
 5673SOL    HW128652   2.606   0.938   1.886 -1.9665 -0.5515  0.0689
 5673SOL    HW228653   2.537   0.819   1.919  0.3734 -0.6458 -1.0260
 5674SOL     OW28654   3.694   0.257   7.085 -0.4881 -0.6401  0.4214
 5674SOL    HW128655   3.623   0.320   7.097  1.1664  1.6256 -1.7108
 5674SOL    HW228656   3.684   0.251   6.990 -1.2287 -0.6456  0.5015
 5675SOL     OW28657   1.625   0.796   7.953 -0.0307 -0.0117  0.0294
 5675SOL    HW128658   1.595   0.847   8.028 -0.0518 -2.8978  1.9969
 5675SOL    HW228659   1.714   0.790   7.987  0.1346  0.6566 -0.2912
 5676SOL     OW28660   4.413   2.215  17.645  0.0464 -0.7173 -0.3666
 5676SOL    HW128661   4.475   2.152  17.607 -0.1050 -0.0604 -1.6985
 5676SOL    HW228662   4.353   2.166  17.702 -1.3044  0.1763 -1.0346
 5677SOL     OW28663   1.791   4.120   8.495  0.5056  0.0876  0.4513
 5677SOL    HW128664   1.806   4.110   8.401 -1.0456 -0.2881  0.2460
 5677SOL    HW228665   1.855   4.064   8.538 -0.5469 -0.6526  1.0494
 5678SOL     OW28666   2.494   3.276  10.464  0.1982  0.2967 -0.6665
 5678SOL    HW128667   2.469   3.349  10.520 -2.3402 -0.5011 -0.7744
 5678SOL    HW228668   2.411   3.233  10.448  0.6354 -0.7182 -0.2027
 5679SOL     OW28669   4.147   3.800   1.812  0.0557 -0.4225 -0.4555
 5679SOL    HW128670   4.095   3.850   1.748 -2.0684  0.3549  1.8937
 5679SOL    HW228671   4.222   3.858   1.820 -1.8039  1.9029  0.3547
 5680SOL     OW28672   0.965   3.090   0.571  0.3064 -0.2503  0.3842
 5680SOL    HW128673   1.023   3.106   0.497  0.1078 -2.2547 -0.1751
 5680SOL    HW228674   0.897   3.156   0.554  2.3445  2.3803  2.4154
 5681SOL     OW28675   4.317   3.643   9.066  0.0389 -0.5028 -0.1180
 5681SOL    HW128676   4.379   3.717   9.069 -1.7157  0.9433  0.1976
 5681SOL    HW228677   4.243   3.697   9.038  0.2282 -0.9426 -1.4985
 5682SOL     OW28678   0.246   0.031  17.240 -0.0906 -0.3697 -0.0678
 5682SOL    HW128679   0.152   0.045  17.252  0.2003  0.5104  1.1374
 5682SOL    HW228680   0.251   4.712  17.166 -2.3470 -1.8766  0.9975
 5683SOL     OW28681   1.885   1.746   5.461 -0.1852  0.5560 -0.0704
 5683SOL    HW128682   1.812   1.779   5.410 -0.4377 -0.8987 -0.6581
 5683SOL    HW228683   1.927   1.695   5.392  1.2645  2.9629 -0.9644
 5684SOL     OW28684   3.169   3.566   6.388  0.4179 -0.8248 -0.3748
 5684SOL    HW128685   3.093   3.529   6.343 -0.7472  0.7689  0.2808
 5684SOL    HW228686   3.174   3.648   6.340 -2.1139 -0.2115  0.4313
 5685SOL     OW28687   2.184   0.707   6.052 -0.3216 -0.3917  0.3495
 5685SOL    HW128688   2.269   0.669   6.030 -0.7797  0.3314 -2.6436
 5685SOL    HW228689   2.162   0.668   6.137  0.5141 -0.6308  0.4496
 5686SOL     OW28690   1.250   2.123   2.088 -0.3060 -0.3969 -0.1358
 5686SOL    HW128691   1.240   2.188   2.018  2.4717  0.8918  0.6407
 5686SOL    HW228692   1.191   2.164   2.152 -1.2752 -2.2702  0.1717
 5687SOL     OW28693   4.607   0.564  12.816  0.0824 -0.3006 -0.5230
 5687SOL    HW128694   4.574   0.653  12.801  2.6718  0.5781 -0.9810
 5687SOL    HW228695   4.635   0.572  12.908 -0.0982 -1.0115 -0.4035
 5688SOL     OW28696   3.469   3.307   2.146  0.3445 -0.1090 -0.0906
 5688SOL    HW128697   3.490   3.317   2.239 -1.2831 -2.4219  0.5330
 5688SOL    HW228698   3.555   3.287   2.109  0.5901  0.2596  0.2836
 5689SOL     OW28699   4.620   3.344   5.633 -0.1643 -0.5155 -0.1834
 5689SOL    HW128700   4.582   3.259   5.613  0.3142 -1.0550  1.2012
 5689SOL    HW228701   4.606   3.394   5.552 -1.1900 -1.7702 -0.7806
 5690SOL     OW28702   2.977   3.012   9.971  0.2368 -0.0402 -0.7807
 5690SOL    HW128703   2.958   3.040   9.882  3.9260  1.4805 -1.0865
 5690SOL    HW228704   2.932   2.928   9.975 -0.6502  0.3717 -2.2947
 5691SOL     OW28705   2.056   3.981   5.734  0.2231 -0.4216 -0.3924
 5691SOL    HW128706   2.022   3.955   5.820  0.0796  1.0557  0.0015
 5691SOL    HW228707   2.070   4.075   5.751 -1.8235  0.1559 -1.8246
 5692SOL     OW28708   3.297   4.224  12.426 -0.1497 -0.5020 -0.3072
 5692SOL    HW128709   3.362   4.154  12.423  2.1071  1.4977  2.3102
 5692SOL    HW228710   3.277   4.215  12.519 -0.3925  1.2245 -0.1869
 5693SOL     OW28711   4.520   0.045   5.479 -0.2816 -0.3305  0.3096
 5693SOL    HW128712   4.508   0.014   5.389  1.3888  2.7043 -0.9562
 5693SOL    HW228713   4.532   0.139   5.467 -0.1997 -0.0998  2.2815
 5694SOL     OW28714   2.386   0.567   7.629 -0.6277  0.7289  0.2407
 5694SOL    HW128715   2.386   0.472   7.642 -0.2367  0.7863  0.6505
 5694SOL    HW228716   2.357   0.590   7.717  1.6607  1.3187  0.8305
 5695SOL     OW28717   0.218   4.417   3.602 -0.3801 -0.5122  0.6242
 5695SOL    HW128718   0.305   4.404   3.565 -0.1400  0.4830  0.8415
 5695SOL    HW228719   0.189   4.501   3.567 -0.0129 -1.1272 -1.1594
 5696SOL     OW28720   4.679   1.161   4.605 -0.0077  0.5007 -0.2227
 5696SOL    HW128721   4.699   1.210   4.685 -0.7745 -0.1447  0.3632
 5696SOL    HW228722   0.030   1.147   4.582 -0.4176  0.4965 -1.8706
 5697SOL     OW28723   2.783   4.284   7.378  0.5416 -0.1323 -0.1327
 5697SOL    HW128724   2.874   4.290   7.408  0.4256 -0.7049  0.3292
 5697SOL    HW228725   2.781   4.353   7.311 -2.4742 -1.0075 -0.9532
 5698SOL     OW28726   2.237   0.630   2.359  0.5247 -0.5122 -0.1523
 5698SOL    HW128727   2.251   0.551   2.306  0.0859  0.0427 -1.0957
 5698SOL    HW228728   2.310   0.681   2.326  1.0738 -1.5337 -0.5295
 5699SOL     OW28729   1.658   0.685  13.434  0.3472 -0.3671 -0.2302
 5699SOL    HW128730   1.734   0.649  13.478  1.6671 -0.7494 -2.8688
 5699SOL    HW228731   1.591   0.689  13.503  0.8653  0.8112  0.2207
 5700SOL     OW28732   2.895   0.797   4.173  0.3999  0.1710  0.7396
 5700SOL    HW128733   2.935   0.803   4.260 -0.0970  0.1700  0.9684
 5700SOL    HW228734   2.870   0.705   4.165  0.2403  0.4018 -1.4466
 5701SOL     OW28735   3.260   3.304   6.305  0.4085 -0.2394 -0.8049
 5701SOL    HW128736   3.317   3.380   6.298  1.8160 -1.1644  0.5551
 5701SOL    HW228737   3.204   3.332   6.233  0.0675  0.0150 -0.4381
 5702SOL     OW28738   2.909   3.897  16.610  0.6088  0.4632  0.4291
 5702SOL    HW128739   2.868   3.827  16.661 -0.3145  1.8861  1.6474
 5702SOL    HW228740   2.981   3.844  16.577  0.3831 -0.2529  1.0765
 5703SOL     OW28741   3.447   0.913   3.290 -0.4464  0.5647 -0.7689
 5703SOL    HW128742   3.508   0.867   3.231  0.8787 -1.3962  2.1193
 5703SOL    HW228743   3.484   0.996   3.321 -1.0612  0.9704 -1.1294
 5704SOL     OW28744   0.483   1.333   7.302  0.3995  0.4928 -0.3691
 5704SOL    HW128745   0.537   1.405   7.269  1.8867 -0.3841  0.1744
 5704SOL    HW228746   0.466   1.362   7.392  0.7057 -2.5540  0.6508
 5705SOL     OW28747   0.732   0.337  11.879 -0.2536  0.8905 -0.4617
 5705SOL    HW128748   0.670   0.404  11.907 -1.2492 -0.3522  0.3368
 5705SOL    HW228749   0.808   0.383  11.844  0.6785  0.3332  0.8671
 5706SOL     OW28750   3.508   0.191   6.352  0.0379  0.3111  0.3072
 5706SOL    HW128751   3.473   0.193   6.441  1.5214  1.2943  0.8667
 5706SOL    HW228752   3.434   0.231   6.306  0.5047  1.6792  0.7582
 5707SOL     OW28753   1.357   2.018   8.229 -0.0491  0.3743  0.0376
 5707SOL    HW128754   1.348   1.966   8.309  2.8671  0.2576  0.2901
 5707SOL    HW228755   1.268   2.047   8.208 -0.4263 -0.6872  0.2044
 5708SOL     OW28756   0.181   1.697   2.994  0.1686  0.1026 -0.2185
 5708SOL    HW128757   0.255   1.714   2.936 -0.9682  0.2563 -1.6243
 5708SOL    HW228758   0.140   1.783   2.988 -0.4336 -0.0980  1.0814
 5709SOL     OW28759   0.315   1.036   5.452 -0.3997 -0.1307  0.0824
 5709SOL    HW128760   0.313   0.993   5.538 -1.6938 -0.0480  0.0929
 5709SOL    HW228761   0.274   1.116   5.486 -0.0943  0.0619 -0.0066
 5710SOL     OW28762   3.196   3.579   1.878  0.0683 -0.4453 -0.0030
 5710SOL    HW128763   3.178   3.514   1.946 -1.5478  0.5230  0.4944
 5710SOL    HW228764   3.291   3.587   1.874  0.1723 -1.2491  0.8121
 5711SOL     OW28765   0.116   2.828   2.896 -0.5135  0.2258 -1.0439
 5711SOL    HW128766   0.023   2.850   2.906 -0.0485  2.5437 -1.8000
 5711SOL    HW228767   0.134   2.868   2.811 -0.8074  1.4398 -0.5260
 5712SOL     OW28768   3.399   2.138   7.347 -0.2846  0.1718  0.8709
 5712SOL    HW128769   3.317   2.097   7.319 -0.5654  1.0793  0.3809
 5712SOL    HW228770   3.366   2.161   7.434 -0.9665  0.0051  0.6594
 5713SOL     OW28771   0.979   2.568   8.829 -0.0754  0.6351  0.1094
 5713SOL    HW128772   0.960   2.661   8.839 -0.4577  0.4298  1.2479
 5713SOL    HW228773   1.074   2.567   8.820 -0.0662 -0.6895  0.3319
 5714SOL     OW28774   4.415   1.085   4.589  0.8385 -0.4454 -0.6292
 5714SOL    HW128775   4.387   1.113   4.502  0.0958 -0.7527 -0.4955
 5714SOL    HW228776   4.502   1.124   4.596  0.4910 -0.3306  3.0596
 5715SOL     OW28777   0.652   3.570   5.889 -0.3795 -0.0631  0.0767
 5715SOL    HW128778   0.656   3.475   5.880  0.5330  0.0104 -0.2727
 5715SOL    HW228779   0.691   3.599   5.807 -0.3779 -0.7787 -0.1712
 5716SOL     OW28780   0.360   2.332   4.915  0.4811  0.2978 -0.5696
 5716SOL    HW128781   0.322   2.244   4.922 -2.8810  1.7923 -0.0766
 5716SOL    HW228782   0.412   2.334   4.835 -1.4505 -0.5697 -1.8690
 5717SOL     OW28783   4.211   0.733   1.464  0.1316  0.6093 -0.2559
 5717SOL    HW128784   4.178   0.660   1.413  1.3774 -0.8353  1.0333
 5717SOL    HW228785   4.190   0.686   1.545  0.5287 -0.8687 -1.0296
 5718SOL     OW28786   2.383   0.188   8.997  0.1045 -0.1160  0.4377
 5718SOL    HW128787   2.350   0.130   9.065 -0.6382 -1.7226 -1.2924
 5718SOL    HW228788   2.377   0.272   9.041  1.3082  0.9414 -1.3964
 5719SOL     OW28789   4.442   2.258   3.230 -0.1453  0.5500  0.0944
 5719SOL    HW128790   4.364   2.227   3.279  0.5485 -0.9749  0.2511
 5719SOL    HW228791   4.413   2.250   3.139 -2.2135  2.6470  0.5573
 5720SOL     OW28792   3.913   1.867   2.393  0.1814 -0.2067  0.3950
 5720SOL    HW128793   3.898   1.795   2.454 -1.5488  0.3728  0.6662
 5720SOL    HW228794   3.946   1.938   2.448  0.9901  0.6518 -1.1925
 5721SOL     OW28795   1.277   0.047  10.980 -0.1131  0.4717 -0.1987
 5721SOL    HW128796   1.203   4.733  10.956  1.2650 -2.5732  2.4938
 5721SOL    HW228797   1.277   0.124  10.923  2.1471 -0.2652 -1.2052
 5722SOL     OW28798   1.030   2.996   0.187 -0.8031 -0.3278  0.4333
 5722SOL    HW128799   0.946   2.959   0.212 -1.8658  1.2134 -0.8360
 5722SOL    HW228800   1.046   2.948   0.106 -4.6275 -2.1853  0.7840
 5723SOL     OW28801   0.829   0.271   2.734 -0.4892  0.1282 -0.4739
 5723SOL    HW128802   0.764   0.259   2.803  0.4667 -2.2709 -0.0167
 5723SOL    HW228803   0.892   0.201   2.752  1.7428  2.1159 -0.5241
 5724SOL     OW28804   0.818   2.225   1.675 -0.8441  0.0326 -0.5426
 5724SOL    HW128805   0.757   2.184   1.613  0.3188 -2.0928 -0.2920
 5724SOL    HW228806   0.754   2.267   1.733  0.8844  2.4490 -0.3934
 5725SOL     OW28807   4.589   0.150   1.172  0.2039  0.4972 -0.6581
 5725SOL    HW128808   4.621   0.231   1.210 -2.4938  0.1871  2.3138
 5725SOL    HW228809   4.610   0.090   1.244 -0.8036  1.3022  0.3151
 5726SOL     OW28810   1.717   3.786  10.671 -0.0078 -0.1227 -0.0836
 5726SOL    HW128811   1.647   3.721  10.662 -0.9110  0.6470  1.2830
 5726SOL    HW228812   1.658   3.860  10.688  1.7927  1.4576 -0.7878
 5727SOL     OW28813   0.077   3.218   6.591  0.1320  0.4639  0.1613
 5727SOL    HW128814   0.156   3.263   6.622  0.0508 -0.1194  1.2140
 5727SOL    HW228815   0.054   3.290   6.532  1.9878  0.1117 -0.9909
 5728SOL     OW28816   3.928   3.555   9.701  0.0556  0.5754 -0.5133
 5728SOL    HW128817   3.966   3.642   9.705  0.1089  0.5995 -1.4210
 5728SOL    HW228818   3.837   3.573   9.674  0.6543 -0.1803 -3.0225
 5729SOL     OW28819   3.387   0.282   2.241  0.6551 -0.1435  0.4319
 5729SOL    HW128820   3.335   0.241   2.310  0.7795 -0.7930  0.1503
 5729SOL    HW228821   3.457   0.316   2.296 -0.4596  0.8658  1.2288
 5730SOL     OW28822   3.476   1.209   6.320  0.4473 -0.3675  0.2567
 5730SOL    HW128823   3.505   1.119   6.310  1.4152  0.1310 -1.5203
 5730SOL    HW228824   3.543   1.243   6.261 -0.3963  1.2481  0.2253
 5731SOL     OW28825   0.152   3.892   9.072  0.4367 -0.4022  0.5119
 5731SOL    HW128826   0.226   3.841   9.105 -0.0761 -0.3609  1.7247
 5731SOL    HW228827   0.193   3.946   9.005 -1.4933 -1.5164 -1.5604
 5732SOL     OW28828   2.457   4.278   7.341 -0.3564  0.1492 -0.2140
 5732SOL    HW128829   2.472   4.204   7.400 -1.8500 -1.1042 -1.4156
 5732SOL    HW228830   2.377   4.306   7.385  0.9535  0.7708  1.8124
 5733SOL     OW28831   4.415   0.791  14.598  0.3487  0.3873 -0.5345
 5733SOL    HW128832   4.487   0.822  14.653  1.6830 -2.2923 -0.7260
 5733SOL    HW228833   4.443   0.822  14.512 -0.0889 -0.2354 -0.9036
 5734SOL     OW28834   0.732   2.748   7.824 -0.1985  0.5341  0.0672
 5734SOL    HW128835   0.665   2.805   7.862  1.2935  3.2416 -1.3806
 5734SOL    HW228836   0.693   2.728   7.740  1.6055  2.0633 -1.1405
 5735SOL     OW28837   4.067   3.902   8.433 -0.2180  0.3954 -0.1521
 5735SOL    HW128838   4.034   3.813   8.426  0.8340  0.1340 -1.6571
 5735SOL    HW228839   4.023   3.937   8.511  1.5773  1.1748  0.4878
 5736SOL     OW28840   0.966   0.992   7.599  0.5560  0.0539 -0.1669
 5736SOL    HW128841   0.975   1.055   7.670  0.5438 -1.7648  1.4593
 5736SOL    HW228842   0.949   1.051   7.525 -0.1662  1.0367  0.7902
 5737SOL     OW28843   0.314   1.747   7.423 -0.2143 -0.3481 -0.0938
 5737SOL    HW128844   0.403   1.765   7.454  0.0058 -2.3057  0.4172
 5737SOL    HW228845   0.266   1.791   7.494  1.0135 -0.7971  1.0232
 5738SOL     OW28846   1.159   0.708   9.425 -0.2804 -0.1694  0.3824
 5738SOL    HW128847   1.217   0.776   9.392  0.9939 -2.1853 -1.4726
 5738SOL    HW228848   1.218   0.634   9.417 -0.9956 -0.7607  0.5268
 5739SOL     OW28849   3.006   3.756  16.180 -0.2385 -0.3811 -0.1853
 5739SOL    HW128850   2.949   3.713  16.116  1.9108 -1.1763 -1.5463
 5739SOL    HW228851   3.072   3.690  16.162  0.3175  0.1473 -0.0741
 5740SOL     OW28852   3.754   1.816   6.250 -0.1812  0.0829 -0.0542
 5740SOL    HW128853   3.780   1.872   6.176  1.0358  1.0506  1.1089
 5740SOL    HW228854   3.814   1.842   6.320  1.3782  0.6753 -1.5857
 5741SOL     OW28855   3.437   1.861  14.275  0.0690 -0.4203  0.6688
 5741SOL    HW128856   3.506   1.839  14.213 -2.5266 -1.7442 -1.7883
 5741SOL    HW228857   3.457   1.828  14.362  1.7924  2.7247  1.4758
 5742SOL     OW28858   0.352   2.258   0.198 -0.0893  0.9130 -0.0310
 5742SOL    HW128859   0.321   2.307   0.274  1.7524 -1.9263  2.5689
 5742SOL    HW228860   0.288   2.187   0.194  0.5415  0.3390  0.0047
 5743SOL     OW28861   3.817   4.199   2.457 -0.3852 -0.2636  0.4689
 5743SOL    HW128862   3.833   4.198   2.551 -1.5148  3.6163  0.7092
 5743SOL    HW228863   3.811   4.293   2.439 -0.8137 -0.3128  0.3630
 5744SOL     OW28864   3.830   3.645   5.036 -0.0951  0.3266  0.2668
 5744SOL    HW128865   3.812   3.716   5.098  0.0590  1.2724 -0.7716
 5744SOL    HW228866   3.911   3.671   4.991 -0.6032  1.2978 -0.0692
 5745SOL     OW28867   1.805   4.252   6.191 -0.4032  0.5726 -0.4828
 5745SOL    HW128868   1.752   4.272   6.268  0.2451 -0.2913  0.1839
 5745SOL    HW228869   1.891   4.266   6.230 -0.8477  1.0369  0.3192
 5746SOL     OW28870   3.988   3.147   8.596  0.3879 -0.5396  0.1956
 5746SOL    HW128871   3.991   3.111   8.684  0.4817 -0.1267  0.3629
 5746SOL    HW228872   4.056   3.088   8.563  1.6193  1.3104 -0.5817
 5747SOL     OW28873   3.978   1.842   7.245  0.3910  0.1637  0.2851
 5747SOL    HW128874   4.053   1.854   7.187 -0.7179  0.9859 -0.9801
 5747SOL    HW228875   3.955   1.749   7.252  1.5435 -0.1470 -0.0910
 5748SOL     OW28876   1.134   3.008   5.304 -0.4834 -0.2334 -0.1454
 5748SOL    HW128877   1.088   3.091   5.295  0.1960  0.0719 -0.8000
 5748SOL    HW228878   1.196   3.032   5.373 -1.2815 -0.0649  0.5075
 5749SOL     OW28879   3.991   3.557   5.247  0.6422  0.5715  0.0068
 5749SOL    HW128880   3.934   3.546   5.171 -0.8484  1.8824  0.9334
 5749SOL    HW228881   4.041   3.636   5.224  0.6912  0.4665 -0.2457
 5750SOL     OW28882   1.311   0.206  15.013 -0.1499 -0.7086 -0.0005
 5750SOL    HW128883   1.294   0.291  14.972 -0.8627  0.0153  1.8015
 5750SOL    HW228884   1.249   0.150  14.966  0.9545 -2.2649  0.4369
 5751SOL     OW28885   1.549   3.075   8.740  0.6441  0.3488  0.3580
 5751SOL    HW128886   1.632   3.115   8.715 -0.3797  1.7112 -0.8322
 5751SOL    HW228887   1.568   2.989   8.702  0.3417  0.3861  0.1207
 5752SOL     OW28888   1.132   2.879   2.767  0.2980  0.1191 -0.4902
 5752SOL    HW128889   1.050   2.884   2.816 -1.0393  0.6327 -2.7531
 5752SOL    HW228890   1.100   2.846   2.683 -1.4336  0.0891  0.1723
 5753SOL     OW28891   1.225   0.350   3.877  0.2318  0.1249 -0.4408
 5753SOL    HW128892   1.248   0.259   3.859  0.0789  0.1741 -0.8977
 5753SOL    HW228893   1.134   0.336   3.903  0.1295  0.4727 -0.6159
 5754SOL     OW28894   4.453   2.332   6.933  0.2268  0.3155 -0.4318
 5754SOL    HW128895   4.496   2.318   6.848  2.9219  0.7110  0.8826
 5754SOL    HW228896   4.367   2.316   6.893 -0.3108  2.0492  0.0257
 5755SOL     OW28897   0.992   0.669   6.231  0.0675  0.0316  1.1108
 5755SOL    HW128898   1.077   0.658   6.273  0.5056 -1.2632 -0.0643
 5755SOL    HW228899   0.937   0.706   6.299 -0.0667  3.2660 -0.7778
 5756SOL     OW28900   1.269   3.526   5.793 -0.4523 -0.4853  0.1596
 5756SOL    HW128901   1.264   3.454   5.731  2.3497 -0.5882  0.0663
 5756SOL    HW228902   1.358   3.535   5.827 -0.5329  0.3542  0.1493
 5757SOL     OW28903   2.421   0.273  16.098 -0.0802  0.8376  0.1713
 5757SOL    HW128904   2.476   0.316  16.033  1.0309 -0.3983  0.2994
 5757SOL    HW228905   2.387   0.344  16.153 -0.7106  0.3445  0.4167
 5758SOL     OW28906   4.417   1.023   2.328 -0.4086 -0.9787  0.7103
 5758SOL    HW128907   4.397   1.024   2.234  0.7723 -2.2993  0.4438
 5758SOL    HW228908   4.511   1.006   2.328  0.0483  1.6045 -1.0475
 5759SOL     OW28909   2.397   0.324  10.238  0.4631 -0.2205 -0.3567
 5759SOL    HW128910   2.352   0.265  10.299  0.3242  0.6952  0.4310
 5759SOL    HW228911   2.443   0.388  10.293  0.5780 -0.0812 -0.6148
 5760SOL     OW28912   3.661   1.010   4.752  0.2908  0.5432  0.3476
 5760SOL    HW128913   3.750   1.022   4.717  0.6490 -0.9082  0.7647
 5760SOL    HW228914   3.635   0.927   4.713  0.1695  0.3457  0.8506
 5761SOL     OW28915   1.937   2.001   9.320 -0.0552  0.2731  0.0091
 5761SOL    HW128916   2.004   1.936   9.297 -1.0879 -1.6441  2.4331
 5761SOL    HW228917   1.891   2.009   9.236 -1.6601  3.5173  1.2145
 5762SOL     OW28918   1.537   0.283  15.665 -0.0047 -0.3790  0.3417
 5762SOL    HW128919   1.488   0.206  15.692 -0.4289 -0.2799 -0.1381
 5762SOL    HW228920   1.500   0.289  15.577  0.3220 -0.2590  0.2129
 5763SOL     OW28921   2.460   1.799   0.006 -0.4576 -0.8831 -0.0492
 5763SOL    HW128922   2.545   1.799  17.726  0.2016  1.5948  1.2528
 5763SOL    HW228923   2.412   1.743  17.709  0.7513 -1.4308 -0.5116
 5764SOL     OW28924   2.590   1.914   4.357  0.0339  1.1580  0.4631
 5764SOL    HW128925   2.520   1.978   4.368 -1.1341 -0.1566  0.5820
 5764SOL    HW228926   2.559   1.865   4.281  0.6499  1.5469 -0.0418
 5765SOL     OW28927   4.592   0.659   2.174  0.2480 -0.4449 -0.6939
 5765SOL    HW128928   4.657   0.721   2.207 -0.9939  0.1812  0.5645
 5765SOL    HW228929   4.602   0.589   2.238  3.1831  2.0002  1.4977
 5766SOL     OW28930   1.035   0.548   8.245  0.7095  0.3164  0.1395
 5766SOL    HW128931   0.957   0.552   8.301  1.9190  2.4049  1.6306
 5766SOL    HW228932   1.102   0.550   8.313  0.4980 -0.0145  0.3613
 5767SOL     OW28933   4.205   0.629  16.958 -0.4601 -0.2073  0.4825
 5767SOL    HW128934   4.272   0.698  16.961 -0.6633  0.0388 -0.8697
 5767SOL    HW228935   4.128   0.683  16.976 -0.7817 -0.1394 -1.1411
 5768SOL     OW28936   2.221   2.689   6.954 -0.8347  0.2718  0.1831
 5768SOL    HW128937   2.212   2.784   6.954  0.0277  0.3619 -2.0160
 5768SOL    HW228938   2.133   2.675   6.988 -0.8557 -2.2587 -0.8797
 5769SOL     OW28939   2.830   2.298   1.310  0.2867 -0.2360  0.3691
 5769SOL    HW128940   2.914   2.266   1.342  0.8517  0.1491 -0.7494
 5769SOL    HW228941   2.799   2.231   1.249  0.6617 -1.6502  1.7406
 5770SOL     OW28942   3.560   3.578   3.886  0.0475  0.6614 -0.2835
 5770SOL    HW128943   3.627   3.511   3.872 -0.4625 -0.2192  1.5090
 5770SOL    HW228944   3.527   3.547   3.970 -1.1306  0.4271 -0.8315
 5771SOL     OW28945   4.065   4.323   3.699 -0.1717 -0.4871  0.7511
 5771SOL    HW128946   4.107   4.405   3.726 -0.7431  0.2188 -0.5250
 5771SOL    HW228947   4.137   4.287   3.647  1.6182  2.2937  1.3228
 5772SOL     OW28948   3.310   1.254   3.621  0.0190 -0.3976  0.8323
 5772SOL    HW128949   3.244   1.313   3.657 -0.3345  0.2684 -0.9145
 5772SOL    HW228950   3.314   1.198   3.699 -0.3465  0.2583  1.3251
 5773SOL     OW28951   1.962   3.512   4.741  0.2585 -0.0485 -0.0160
 5773SOL    HW128952   1.975   3.569   4.817 -1.4911  0.7304 -0.3110
 5773SOL    HW228953   1.896   3.453   4.779  0.2483 -0.1723 -0.2222
 5774SOL     OW28954   3.882   4.470   3.550 -0.0638  0.2898 -0.4503
 5774SOL    HW128955   3.949   4.413   3.587 -0.6421 -1.8166 -2.6415
 5774SOL    HW228956   3.929   4.552   3.533  1.1996  0.0697  2.1046
 5775SOL     OW28957   3.494   2.694   8.427 -0.6244  0.9333  0.1785
 5775SOL    HW128958   3.573   2.647   8.454 -0.5138  1.6685  1.1384
 5775SOL    HW228959   3.523   2.732   8.345  0.5351  0.1326  0.2257
 5776SOL     OW28960   2.971   4.152   7.798  0.0524  0.7609  0.2157
 5776SOL    HW128961   3.066   4.164   7.803  0.2774 -0.0275 -2.2159
 5776SOL    HW228962   2.953   4.226   7.856  3.7494  3.1477 -1.6799
 5777SOL     OW28963   2.652   0.185   8.871  0.2015 -0.1742  0.6874
 5777SOL    HW128964   2.577   0.158   8.925 -1.1911  0.7325 -0.7686
 5777SOL    HW228965   2.715   0.193   8.943 -1.3659  1.9999  1.8329
 5778SOL     OW28966   1.872   2.838  12.477  0.1335 -0.4638  0.4558
 5778SOL    HW128967   1.797   2.788  12.510 -0.1869 -0.7466 -0.6931
 5778SOL    HW228968   1.924   2.836  12.557 -1.6178  0.6551  1.6274
 5779SOL     OW28969   4.195   4.370   2.960  0.1049 -0.0524  0.1858
 5779SOL    HW128970   4.154   4.284   2.968 -3.4304  1.3835 -2.5996
 5779SOL    HW228971   4.261   4.373   3.029 -1.9022 -2.2765  2.1943
 5780SOL     OW28972   4.214   0.903   8.152 -0.1479  0.3706  0.5878
 5780SOL    HW128973   4.225   0.910   8.247  0.4367  2.0635  0.3952
 5780SOL    HW228974   4.186   0.994   8.141  0.9687  0.9488  2.5314
 5781SOL     OW28975   1.421   4.385   5.185 -0.2389 -0.2045 -0.0209
 5781SOL    HW128976   1.422   4.350   5.095 -0.0793  1.0812 -0.5266
 5781SOL    HW228977   1.334   4.365   5.217 -0.7705  0.2719 -1.1467
 5782SOL     OW28978   1.346   1.325   2.283 -0.7030  0.1957 -0.2458
 5782SOL    HW128979   1.312   1.255   2.227 -0.3379 -1.0310  1.0578
 5782SOL    HW228980   1.266   1.376   2.297 -0.2132  1.3026 -1.5167
 5783SOL     OW28981   1.665   0.377   4.284 -0.2886 -0.0724 -0.0091
 5783SOL    HW128982   1.586   0.391   4.233  0.1073 -0.4465 -0.7392
 5783SOL    HW228983   1.699   0.288   4.271 -0.3220 -0.1914  0.7563
 5784SOL     OW28984   2.476   2.171   7.100  0.2632  0.2047  0.2735
 5784SOL    HW128985   2.459   2.099   7.039 -0.4953 -0.2753  1.0329
 5784SOL    HW228986   2.571   2.177   7.098  0.3279 -1.4284 -1.2490
 5785SOL     OW28987   2.518   0.076  15.078  0.2764  0.4944  0.4477
 5785SOL    HW128988   2.505   0.063  14.984  0.7252  1.3244  0.2737
 5785SOL    HW228989   2.498   0.168  15.096  0.8435  0.2545  2.3091
 5786SOL     OW28990   0.569   0.339   7.406  0.3085 -0.0291 -0.2629
 5786SOL    HW128991   0.601   0.341   7.496 -0.1806  0.0584 -0.0896
 5786SOL    HW228992   0.476   0.330   7.429  0.8323 -2.7228  0.8898
 5787SOL     OW28993   4.481   3.537   6.871 -0.0077  0.0184 -0.3844
 5787SOL    HW128994   4.561   3.590   6.879 -0.4223  0.4369  0.9803
 5787SOL    HW228995   4.466   3.530   6.777  1.2349  2.0515 -0.7272
 5788SOL     OW28996   0.272   0.653  11.246 -0.1385 -0.8252  0.1095
 5788SOL    HW128997   0.238   0.639  11.334 -0.3273 -0.3686  0.1083
 5788SOL    HW228998   0.367   0.658  11.251 -0.4126  3.8133  0.7181
 5789SOL     OW28999   0.697   3.809  11.300 -0.0299 -0.5355 -0.2552
 5789SOL    HW129000   0.700   3.879  11.366 -2.2136 -0.6197 -0.0653
 5789SOL    HW229001   0.629   3.744  11.322  0.3548 -0.9793 -0.3720
 5790SOL     OW29002   4.626   4.083   5.149  0.3079 -0.1233 -0.0441
 5790SOL    HW129003   4.649   4.085   5.057 -0.9205  0.6129 -0.3361
 5790SOL    HW229004   4.649   4.174   5.169  2.3984 -0.8927  1.0615
 5791SOL     OW29005   0.451   1.773  13.518 -0.7568  0.1172  0.1339
 5791SOL    HW129006   0.357   1.774  13.532 -0.7817  0.6555 -0.0781
 5791SOL    HW229007   0.468   1.682  13.494 -2.0942  0.0662 -0.6107
 5792SOL     OW29008   2.949   1.079  15.930  0.0420 -0.1581  0.0225
 5792SOL    HW129009   2.953   1.003  15.873 -1.9434 -1.3264  1.4382
 5792SOL    HW229010   2.901   1.048  16.007  1.8791 -1.4128  0.6624
 5793SOL     OW29011   1.173   3.814   3.534 -0.0471 -0.0235  0.0322
 5793SOL    HW129012   1.116   3.851   3.467  1.1926  1.1815 -0.3710
 5793SOL    HW229013   1.235   3.882   3.558 -0.4433 -0.1001  1.2520
 5794SOL     OW29014   0.813   2.196   2.080  0.2825 -0.1366 -0.1214
 5794SOL    HW129015   0.774   2.153   2.004  0.5568 -1.0856  0.2711
 5794SOL    HW229016   0.821   2.135   2.153  0.4188 -0.0504 -0.0644
 5795SOL     OW29017   2.283   2.040  12.326 -0.2248 -0.2382 -0.5016
 5795SOL    HW129018   2.284   2.022  12.232 -0.6772  0.8768 -0.7212
 5795SOL    HW229019   2.353   2.104  12.337  1.9405 -2.5605 -0.8862
 5796SOL     OW29020   1.504   0.670   5.203 -0.2207  0.1129  0.1007
 5796SOL    HW129021   1.544   0.585   5.184 -1.0848  0.0905 -1.6805
 5796SOL    HW229022   1.503   0.674   5.299  0.6312  0.4264  0.0960
 5797SOL     OW29023   1.350   3.998   2.779  0.2180  0.0342  0.4388
 5797SOL    HW129024   1.325   4.055   2.851 -0.1279 -0.1055  0.4303
 5797SOL    HW229025   1.324   4.064   2.714  0.6916  0.9205  1.1615
 5798SOL     OW29026   4.347   0.664  12.058 -0.3105 -0.2603  0.0554
 5798SOL    HW129027   4.400   0.591  12.088  0.5429  0.4762  0.3427
 5798SOL    HW229028   4.320   0.626  11.974  1.1411  0.6984 -0.8628
 5799SOL     OW29029   4.448   4.206   2.482  0.2164  0.4403 -0.2905
 5799SOL    HW129030   4.422   4.147   2.553 -0.5695 -0.2458 -1.1531
 5799SOL    HW229031   4.543   4.215   2.492  0.1717  1.7430 -1.0459
 5800SOL     OW29032   2.833   1.631   6.520  0.4409 -0.2745  0.5022
 5800SOL    HW129033   2.887   1.674   6.587  2.1729  0.4817 -1.3881
 5800SOL    HW229034   2.750   1.678   6.527  0.7698  0.6564 -2.0350
 5801SOL     OW29035   0.141   1.087   8.601 -0.1721 -0.3322  0.5006
 5801SOL    HW129036   0.172   1.031   8.673  0.9995 -0.8395 -0.4097
 5801SOL    HW229037   0.077   1.024   8.566  0.3638  0.6642 -2.2567
 5802SOL     OW29038   1.721   3.333  15.325  0.9975  0.7315  0.1828
 5802SOL    HW129039   1.655   3.402  15.322  0.6658  0.4122  0.0164
 5802SOL    HW229040   1.669   3.267  15.371 -1.6816  1.5245 -1.6817
 5803SOL     OW29041   2.824   1.043  13.139  0.6154  0.6646 -0.1886
 5803SOL    HW129042   2.761   0.979  13.104  0.6720  1.0237 -0.9446
 5803SOL    HW229043   2.857   0.996  13.215 -1.2940 -2.0305 -1.0351
 5804SOL     OW29044   4.408   3.230   8.083 -0.2526  0.0347 -0.4903
 5804SOL    HW129045   4.464   3.156   8.062  0.5981  1.0468 -1.8038
 5804SOL    HW229046   4.419   3.225   8.178 -0.0804 -0.1643 -0.5215
 5805SOL     OW29047   0.582   0.954   1.923  0.3675  0.4753 -0.0371
 5805SOL    HW129048   0.590   0.894   1.997  0.5705  0.8224  0.2200
 5805SOL    HW229049   0.646   0.915   1.863  0.9512  1.5222 -0.0798
 5806SOL     OW29050   0.693   3.213  14.106 -0.0664  0.0823 -0.2136
 5806SOL    HW129051   0.640   3.200  14.185 -0.5236  1.2831 -0.3200
 5806SOL    HW229052   0.697   3.122  14.076  0.6211  0.5169 -1.4175
 5807SOL     OW29053   3.458   0.128  17.117  0.2851 -0.4087  0.7640
 5807SOL    HW129054   3.423   0.213  17.090  0.2618  0.0672  2.2728
 5807SOL    HW229055   3.406   0.075  17.057  0.1058 -0.3016  0.8251
 5808SOL     OW29056   3.922   1.630   5.070  0.2187 -0.3036  0.3610
 5808SOL    HW129057   3.922   1.559   5.005 -1.9617  0.6280 -0.6685
 5808SOL    HW229058   4.015   1.642   5.086  0.5386 -0.2159 -1.5567
 5809SOL     OW29059   3.021   1.945   1.797 -0.4735  0.3625 -0.3428
 5809SOL    HW129060   2.983   1.959   1.884  0.9742  1.1935  0.1635
 5809SOL    HW229061   3.083   1.877   1.824 -0.5878  0.3023 -0.2321
 5810SOL     OW29062   1.233   2.394   0.539 -0.4745 -0.3657  0.4358
 5810SOL    HW129063   1.196   2.419   0.454 -0.3730 -1.0831  0.1817
 5810SOL    HW229064   1.318   2.439   0.544  1.2117 -3.8134  2.7791
 5811SOL     OW29065   4.657   1.880   1.967 -0.0126 -0.5508  0.6842
 5811SOL    HW129066   4.707   1.866   1.887 -2.6617 -1.2869 -0.8553
 5811SOL    HW229067   4.725   1.869   2.033 -0.5083 -2.3864  0.8759
 5812SOL     OW29068   3.216   1.952   8.423 -0.1397 -0.2150 -0.7522
 5812SOL    HW129069   3.285   2.017   8.438  1.1247 -1.7341  0.0869
 5812SOL    HW229070   3.223   1.950   8.328  0.6258  0.6680 -0.7208
 5813SOL     OW29071   0.314   3.631  13.471  0.6087  0.3724 -0.2805
 5813SOL    HW129072   0.393   3.591  13.507  1.4641  0.4350 -2.0501
 5813SOL    HW229073   0.275   3.560  13.420  4.5693 -1.4809 -0.7030
 5814SOL     OW29074   2.792   3.619   1.205  0.6931 -0.0971 -0.0139
 5814SOL    HW129075   2.797   3.526   1.228 -1.6222 -0.0886  0.4624
 5814SOL    HW229076   2.756   3.646   1.289 -0.8459  1.1148 -1.0781
 5815SOL     OW29077   3.171   2.897   6.397 -0.3653  0.3964  0.4037
 5815SOL    HW129078   3.247   2.846   6.370  1.8880  2.5706  2.7437
 5815SOL    HW229079   3.126   2.902   6.312  1.9942 -0.5921 -0.9030
 5816SOL     OW29080   2.582   1.539   8.905  0.1810 -0.0348 -0.5707
 5816SOL    HW129081   2.673   1.518   8.924 -0.0482 -2.0437 -1.7575
 5816SOL    HW229082   2.574   1.514   8.813 -1.8755  1.0689 -0.7000
 5817SOL     OW29083   1.586   0.057  15.403  0.2813  0.3405 -0.3268
 5817SOL    HW129084   1.635   0.014  15.472 -0.9232 -0.7166 -0.1387
 5817SOL    HW229085   1.507   0.004  15.412  1.1641 -1.1674 -1.4794
 5818SOL     OW29086   1.589   3.680   6.327 -0.5554 -0.1071 -0.1049
 5818SOL    HW129087   1.681   3.655   6.337 -1.3006 -2.3459  1.3371
 5818SOL    HW229088   1.607   3.766   6.289 -0.0052 -0.2480 -0.1593
 5819SOL     OW29089   2.751   4.364   9.319  0.1856  0.0245 -0.2403
 5819SOL    HW129090   2.713   4.345   9.405 -2.6178 -1.4084 -1.8007
 5819SOL    HW229091   2.801   4.441   9.345  0.9612 -0.6900  0.3702
 5820SOL     OW29092   3.930   1.716   2.614 -0.1818  0.0722 -0.4966
 5820SOL    HW129093   4.013   1.675   2.590 -0.2973 -0.0926 -0.6181
 5820SOL    HW229094   3.957   1.797   2.656 -1.8398 -0.3970  1.4982
 5821SOL     OW29095   0.976   1.619   5.644 -0.1455  0.6407 -0.3343
 5821SOL    HW129096   1.046   1.646   5.585  3.0723 -1.5302  2.5461
 5821SOL    HW229097   0.931   1.550   5.595 -0.5117 -1.0419  2.3732
 5822SOL     OW29098   2.547   3.830  13.639 -0.2162 -0.0021 -0.0128
 5822SOL    HW129099   2.452   3.842  13.638 -0.5428 -2.4120  2.5998
 5822SOL    HW229100   2.568   3.858  13.550  0.2869 -2.0009 -0.5390
 5823SOL     OW29101   0.766   0.573  17.188 -0.2406 -0.6553 -0.2064
 5823SOL    HW129102   0.774   0.654  17.137  1.1787  0.5234  1.8944
 5823SOL    HW229103   0.828   0.576  17.261 -0.8093  0.4930  0.2370
 5824SOL     OW29104   1.424   1.963   6.725  0.3087  0.1939 -0.0265
 5824SOL    HW129105   1.457   1.920   6.646 -1.7856  0.3437 -0.9896
 5824SOL    HW229106   1.339   1.995   6.694 -0.4406  0.2581  2.1417
 5825SOL     OW29107   3.072   0.578   3.089  0.2167 -0.2478 -0.2293
 5825SOL    HW129108   2.988   0.624   3.093  1.1419  1.1775  2.9934
 5825SOL    HW229109   3.123   0.660   3.091  0.6769 -0.5655  1.3009
 5826SOL     OW29110   4.208   2.543   2.265 -0.0797 -0.1498 -0.1916
 5826SOL    HW129111   4.178   2.609   2.203  1.6125  2.3408  1.6233
 5826SOL    HW229112   4.159   2.468   2.231 -1.8688  0.5188  0.8948
 5827SOL     OW29113   0.311   1.225   6.368 -0.2625 -0.4496 -0.3554
 5827SOL    HW129114   0.392   1.207   6.416 -1.4162 -0.7717  1.4887
 5827SOL    HW229115   0.333   1.301   6.313 -0.4623  0.4064  0.7390
 5828SOL     OW29116   4.087   0.445   4.268  0.4463 -0.5689 -0.0795
 5828SOL    HW129117   4.143   0.368   4.275  0.4123 -0.6010 -0.1555
 5828SOL    HW229118   4.150   0.508   4.235  2.5785 -1.0289  3.0776
 5829SOL     OW29119   2.659   0.256  14.579 -0.2250  0.0213 -0.0940
 5829SOL    HW129120   2.600   0.192  14.540 -1.6062  1.0215  0.3545
 5829SOL    HW229121   2.610   0.330  14.614  0.0148  0.3101 -0.3704
 5830SOL     OW29122   3.434   1.301   5.468 -0.0250  0.7474 -0.6302
 5830SOL    HW129123   3.383   1.339   5.397 -0.2854  1.9007  0.1751
 5830SOL    HW229124   3.451   1.382   5.516  0.8218  0.4904 -0.4931
 5831SOL     OW29125   3.862   0.567   9.750  0.2158 -0.4961 -0.3431
 5831SOL    HW129126   3.930   0.616   9.796 -1.4889  1.8991 -0.3375
 5831SOL    HW229127   3.825   0.641   9.702 -1.7508 -1.0964  0.2369
 5832SOL     OW29128   1.941   2.535  12.090  0.1145 -1.0660  0.0890
 5832SOL    HW129129   1.925   2.510  11.999  0.8173 -1.8875  0.1829
 5832SOL    HW229130   1.887   2.462  12.121  0.0645 -1.0297  0.0867
 5833SOL     OW29131   4.174   0.197  13.129  0.4887 -0.0224  0.9980
 5833SOL    HW129132   4.138   0.277  13.091  1.4151  0.4004  0.9961
 5833SOL    HW229133   4.094   0.145  13.123 -0.3324  1.2010  1.4133
 5834SOL     OW29134   1.472   3.061  10.767 -0.1655 -0.0687 -0.0807
 5834SOL    HW129135   1.534   3.134  10.762  0.6422 -0.6522  1.6088
 5834SOL    HW229136   1.529   2.987  10.746 -0.1819  0.3753 -1.6921
 5835SOL     OW29137   0.522   4.148   4.289  0.4269 -0.2962 -0.1192
 5835SOL    HW129138   0.616   4.132   4.279  0.5320  0.4011 -0.2316
 5835SOL    HW229139   0.495   4.176   4.201 -2.7818 -1.3694  0.5368
 5836SOL     OW29140   4.202   1.298   4.911  0.2769 -0.0201  0.2224
 5836SOL    HW129141   4.204   1.218   4.859 -0.3321  0.2542 -0.2285
 5836SOL    HW229142   4.201   1.267   5.001  1.2297 -0.5846  0.0368
 5837SOL     OW29143   0.844   1.272   8.053  0.6815  0.0304 -0.2718
 5837SOL    HW129144   0.848   1.365   8.076  1.0323  0.1144 -0.6673
 5837SOL    HW229145   0.749   1.266   8.055  0.7714 -0.7504  1.3973
 5838SOL     OW29146   1.502   3.002   5.057 -0.4395 -0.1241 -0.3171
 5838SOL    HW129147   1.562   3.037   5.122 -0.8615  0.4317 -0.2318
 5838SOL    HW229148   1.447   2.941   5.107 -0.4050  1.0224  1.1062
 5839SOL     OW29149   2.234   1.026  16.376 -0.1114 -0.5743  0.4239
 5839SOL    HW129150   2.204   0.937  16.360 -0.7005 -0.1217 -1.0236
 5839SOL    HW229151   2.175   1.059  16.443 -2.5525 -1.7747 -1.1755
 5840SOL     OW29152   1.914   2.862   3.314  0.3506 -0.0411 -0.1448
 5840SOL    HW129153   1.890   2.775   3.282  2.2503 -1.0803  1.2779
 5840SOL    HW229154   2.006   2.844   3.332 -0.1695 -3.5508 -0.9647
 5841SOL     OW29155   1.167   3.084   7.242  0.2259 -0.6721  0.3090
 5841SOL    HW129156   1.254   3.124   7.245  0.3263 -0.7802 -1.3597
 5841SOL    HW229157   1.189   2.991   7.240 -2.5933 -1.2961 -1.2055
 5842SOL     OW29158   2.101   1.531   6.653  0.5231 -0.0462 -0.2509
 5842SOL    HW129159   2.076   1.459   6.712 -0.2689  1.0057  0.7038
 5842SOL    HW229160   2.120   1.594   6.722 -3.0881  0.6393  0.1160
 5843SOL     OW29161   4.267   3.909   6.614 -0.1876  0.0757 -0.3321
 5843SOL    HW129162   4.271   3.955   6.698  2.4095 -3.3392  1.4121
 5843SOL    HW229163   4.212   3.836   6.644 -1.6460  1.6259  0.7388
 5844SOL     OW29164   1.714   0.840  15.173  0.6873  0.2470  0.9657
 5844SOL    HW129165   1.624   0.808  15.167  0.3990  1.2215  0.0317
 5844SOL    HW229166   1.752   0.767  15.124 -0.2847  0.5138 -0.1712
 5845SOL     OW29167   4.228   1.889   8.737 -0.0488 -0.6332 -0.0746
 5845SOL    HW129168   4.289   1.816   8.745  0.5627 -0.0476  0.5397
 5845SOL    HW229169   4.198   1.883   8.647  0.7577 -1.3715 -0.2857
 5846SOL     OW29170   0.231   1.317   7.475  0.8345 -0.2261  0.3813
 5846SOL    HW129171   0.263   1.275   7.395 -0.3073 -2.0082  0.8749
 5846SOL    HW229172   0.244   1.411   7.461  0.3854 -0.4238 -1.3548
 5847SOL     OW29173   0.325   2.310   8.186 -0.4353  0.0981 -0.5454
 5847SOL    HW129174   0.339   2.389   8.133  1.7316  0.3672  0.4301
 5847SOL    HW229175   0.410   2.305   8.230  0.3656 -3.1431 -2.4929
 5848SOL     OW29176   2.277   2.252   2.796 -0.4586  0.6926  0.5382
 5848SOL    HW129177   2.223   2.324   2.830 -1.2941 -0.1847  1.0847
 5848SOL    HW229178   2.287   2.197   2.873  0.1347  0.4507  0.2871
 5849SOL     OW29179   2.896   0.756   2.495 -0.3960 -0.0670 -0.4657
 5849SOL    HW129180   2.985   0.790   2.493 -0.4618  0.0459 -1.6678
 5849SOL    HW229181   2.871   0.795   2.410 -0.3740  1.2987  0.1542
 5850SOL     OW29182   0.740   1.781   5.654  0.2593 -0.0810 -0.0417
 5850SOL    HW129183   0.675   1.717   5.626 -0.3613  1.0623 -1.1994
 5850SOL    HW229184   0.814   1.723   5.671  0.2231  0.0772  0.6685
 5851SOL     OW29185   3.702   4.082   6.821 -0.6066 -0.2391 -0.0331
 5851SOL    HW129186   3.689   3.989   6.803 -1.2051 -0.3868  1.1919
 5851SOL    HW229187   3.714   4.109   6.730 -3.3697  2.5840  0.4121
 5852SOL     OW29188   1.920   2.715  16.686  0.2434 -0.1040  0.9085
 5852SOL    HW129189   1.836   2.756  16.665  0.0612 -0.5239  0.8114
 5852SOL    HW229190   1.971   2.724  16.606 -0.6936  1.5553  0.4896
 5853SOL     OW29191   3.095   2.069   7.643 -0.1168  0.5486  0.6028
 5853SOL    HW129192   3.123   2.014   7.570 -0.1324 -2.0012  2.5265
 5853SOL    HW229193   3.047   1.999   7.687  0.7840  0.4813  1.4915
 5854SOL     OW29194   0.924   4.507   2.782 -0.0666  0.0013  0.0497
 5854SOL    HW129195   1.001   4.563   2.790 -1.8885  2.7638 -1.5514
 5854SOL    HW229196   0.971   4.425   2.799 -1.3030 -0.3379  1.9241
 5855SOL     OW29197   1.116   0.785   3.288 -0.5574  0.9691  0.2519
 5855SOL    HW129198   1.048   0.722   3.315  0.9517 -1.1788 -0.9892
 5855SOL    HW229199   1.101   0.791   3.194  0.8279  1.1511  0.0575
 5856SOL     OW29200   2.118   1.915   3.065 -0.2843 -0.5844 -0.0403
 5856SOL    HW129201   2.191   1.927   3.125 -0.2968 -4.3748  0.7207
 5856SOL    HW229202   2.049   1.965   3.109 -0.8974 -2.2834  0.9370
 5857SOL     OW29203   0.556   3.784   6.302  0.4265  0.2499 -0.1706
 5857SOL    HW129204   0.493   3.854   6.318 -1.4263 -0.9687 -2.1012
 5857SOL    HW229205   0.543   3.754   6.212 -2.1639  2.0428 -0.3700
 5858SOL     OW29206   4.321   2.408  12.509 -0.5096 -0.2960 -0.4947
 5858SOL    HW129207   4.300   2.392  12.417 -0.4360 -0.1579 -0.5353
 5858SOL    HW229208   4.399   2.460  12.491  1.0120 -2.4963 -0.2092
 5859SOL     OW29209   0.608   2.122   5.110  0.2200 -0.6169  0.1272
 5859SOL    HW129210   0.693   2.160   5.135  0.9951 -1.2472 -1.5111
 5859SOL    HW229211   0.636   2.033   5.088 -0.8782 -1.0331  0.4390
 5860SOL     OW29212   1.814   0.133   4.242 -0.0041 -0.2291  0.1826
 5860SOL    HW129213   1.909   0.128   4.253 -0.1799 -1.1353  1.3207
 5860SOL    HW229214   1.798   0.086   4.160  3.3356 -0.8883 -0.0846
 5861SOL     OW29215   2.295   1.722  10.145  0.2777 -0.0295  0.0277
 5861SOL    HW129216   2.202   1.708  10.131  0.2876  0.5163 -0.5962
 5861SOL    HW229217   2.329   1.787  10.083  2.2750  0.7024  1.8806
 5862SOL     OW29218   1.636   2.804   3.493 -0.2867 -0.4838  0.5407
 5862SOL    HW129219   1.716   2.763   3.524  1.5797 -0.2355 -3.9219
 5862SOL    HW229220   1.631   2.779   3.400 -0.5219  0.9059  0.1812
 5863SOL     OW29221   0.679   2.219   6.897  0.4393 -0.3439  0.5982
 5863SOL    HW129222   0.751   2.195   6.840 -0.9584  2.6337 -2.4328
 5863SOL    HW229223   0.638   2.135   6.916  1.6505 -0.8095  1.1194
 5864SOL     OW29224   1.297   3.160  15.732  0.2029 -0.0373  0.2767
 5864SOL    HW129225   1.373   3.132  15.681  0.7268  2.3976 -0.2786
 5864SOL    HW229226   1.283   3.249  15.700  1.1080 -0.1782 -0.5056
 5865SOL     OW29227   2.902   4.001  11.529  0.7195  0.4319 -0.5040
 5865SOL    HW129228   2.930   4.002  11.620 -0.3881 -1.0960 -0.1408
 5865SOL    HW229229   2.938   4.086  11.503  0.0156  0.3329 -1.7968
 5866SOL     OW29230   4.535   0.314   5.421  0.0400  0.2399  0.3644
 5866SOL    HW129231   4.501   0.402   5.442 -0.3466  0.5044 -1.4199
 5866SOL    HW229232   4.600   0.327   5.353 -0.2108  0.0701  0.0945
 5867SOL     OW29233   2.609   0.735  11.719  0.4699  0.8471 -0.8282
 5867SOL    HW129234   2.578   0.796  11.786 -1.4583  0.2023 -1.1226
 5867SOL    HW229235   2.659   0.685  11.784  1.4618  1.7017 -0.9409
 5868SOL     OW29236   3.809   2.535   3.276  0.4155 -0.0983  0.2698
 5868SOL    HW129237   3.797   2.596   3.348  0.6520 -0.1413  0.3464
 5868SOL    HW229238   3.815   2.456   3.330 -0.9703 -0.0760  0.4584
 5869SOL     OW29239   3.752   3.443   5.720  0.3893  0.2613 -0.1440
 5869SOL    HW129240   3.758   3.522   5.666 -2.2318 -0.2054 -1.1444
 5869SOL    HW229241   3.807   3.474   5.791  0.7689 -1.8016  0.4571
 5870SOL     OW29242   3.668   4.563   3.262  0.2058 -0.2739  0.1939
 5870SOL    HW129243   3.672   4.468   3.270  0.3572 -0.1184  1.9137
 5870SOL    HW229244   3.760   4.578   3.239 -0.1406  0.7306 -0.5571
 5871SOL     OW29245   4.504   1.858   4.749  0.0297 -0.5376 -0.0550
 5871SOL    HW129246   4.583   1.879   4.700 -1.0291 -0.0031 -1.5436
 5871SOL    HW229247   4.508   1.914   4.827 -0.7097 -0.7844  0.1614
 5872SOL     OW29248   1.485   0.038   2.559  0.2697  0.4220  0.6769
 5872SOL    HW129249   1.396   0.020   2.528  0.2738  1.4625  0.0567
 5872SOL    HW229250   1.505   4.692   2.593 -0.1088 -1.1953 -3.3165
 5873SOL     OW29251   1.267   1.430   5.988  0.5015  0.9258  0.4526
 5873SOL    HW129252   1.248   1.337   5.974 -0.6614  0.7532  3.1352
 5873SOL    HW229253   1.198   1.481   5.945  0.3303 -1.7571 -2.4403
 5874SOL     OW29254   2.184   2.803   8.444  0.6257  0.0960 -0.1131
 5874SOL    HW129255   2.100   2.793   8.490  1.5427 -1.0764  1.3350
 5874SOL    HW229256   2.186   2.739   8.373  1.9639 -0.2296  0.2190
 5875SOL     OW29257   3.763   4.233   8.533 -0.6599  0.5176 -0.3215
 5875SOL    HW129258   3.747   4.324   8.558 -2.0400  0.3751 -0.7146
 5875SOL    HW229259   3.754   4.191   8.619  1.4614 -2.3414 -1.5121
 5876SOL     OW29260   4.321   2.465   3.527 -0.2379  0.4970 -0.2271
 5876SOL    HW129261   4.317   2.391   3.588 -0.1040  1.1708  0.5885
 5876SOL    HW229262   4.409   2.464   3.488 -0.3209 -0.8591 -0.3847
 5877SOL     OW29263   3.329   3.543  10.607  0.0445  0.5633 -0.2357
 5877SOL    HW129264   3.335   3.637  10.623 -0.5666  0.4246  0.8057
 5877SOL    HW229265   3.273   3.532  10.529  0.3123  0.4918 -0.4179
 5878SOL     OW29266   4.136   2.369  16.280 -0.3930  0.1860  0.5849
 5878SOL    HW129267   4.193   2.400  16.351  1.8333 -2.7683  0.0875
 5878SOL    HW229268   4.049   2.391  16.313 -0.2423 -0.5221  1.4746
 5879SOL     OW29269   4.042   0.417  17.571 -0.5611 -0.4248 -0.1360
 5879SOL    HW129270   4.033   0.415  17.476 -0.3382  0.7999 -0.1914
 5879SOL    HW229271   4.001   0.503  17.584  0.9982  0.3150 -0.1055
 5880SOL     OW29272   2.620   0.482   9.007 -0.3258 -1.1720  0.5602
 5880SOL    HW129273   2.595   0.480   8.914  1.0881  1.9106  0.1368
 5880SOL    HW229274   2.558   0.538   9.053 -1.0118 -0.4821 -1.1805
 5881SOL     OW29275   0.617   0.585  11.952  0.2353  0.2172 -0.2183
 5881SOL    HW129276   0.644   0.617  12.038  0.0798  1.4474 -0.6282
 5881SOL    HW229277   0.543   0.528  11.975 -0.2349  1.1062  0.4595
 5882SOL     OW29278   2.641   4.274   7.130 -0.4339  0.4721  0.1482
 5882SOL    HW129279   2.575   4.282   7.199 -0.3862 -1.6824  0.4532
 5882SOL    HW229280   2.657   4.180   7.120  0.5173  0.7206 -0.6203
 5883SOL     OW29281   2.132   2.055   7.423  0.2251 -0.1378 -0.4673
 5883SOL    HW129282   2.037   2.061   7.433  0.6303  0.7733  2.8101
 5883SOL    HW229283   2.163   2.115   7.491 -1.3909  0.8583 -0.6005
 5884SOL     OW29284   2.181   3.997   6.538 -0.3210 -0.1867  0.3932
 5884SOL    HW129285   2.147   3.978   6.625 -1.9850  2.4230  0.3271
 5884SOL    HW229286   2.117   3.952   6.483  0.0807  0.1446 -0.3566
 5885SOL     OW29287   3.732   3.857   5.171  0.2742  0.4579 -0.2047
 5885SOL    HW129288   3.707   3.849   5.263  0.9510  1.8840  0.1184
 5885SOL    HW229289   3.743   3.952   5.162 -2.5930  0.8439  0.4134
 5886SOL     OW29290   0.154   4.288   7.168 -0.5678  0.6388 -0.0166
 5886SOL    HW129291   0.136   4.198   7.139  2.2513 -0.0249  0.3257
 5886SOL    HW229292   0.062   4.314   7.165 -0.5243  0.7527 -0.3634
 5887SOL     OW29293   1.040   0.115   1.922 -0.0586 -0.1012 -0.0630
 5887SOL    HW129294   1.052   0.026   1.890 -3.1430  0.1684 -1.8808
 5887SOL    HW229295   0.974   0.094   1.988  0.5164 -1.7923 -0.0282
 5888SOL     OW29296   3.256   0.281   8.051 -0.1380  0.0198 -0.4835
 5888SOL    HW129297   3.245   0.321   8.137  2.0248  1.5361 -0.9263
 5888SOL    HW229298   3.347   0.307   8.040  0.6867 -2.1401  1.3136
 5889SOL     OW29299   1.302   0.908  14.660  0.3554 -0.0250 -0.3620
 5889SOL    HW129300   1.365   0.920  14.730 -1.9102  4.2617  0.9248
 5889SOL    HW229301   1.226   0.951  14.700 -0.5311 -2.1931  0.3153
 5890SOL     OW29302   4.237   1.895   8.465  0.3437 -0.0735 -0.7345
 5890SOL    HW129303   4.164   1.947   8.433 -2.0063 -3.6420 -1.1583
 5890SOL    HW229304   4.237   1.820   8.406  0.0844 -1.2636  0.7690
 5891SOL     OW29305   1.779   0.060   5.968 -0.1862  0.2455  0.5891
 5891SOL    HW129306   1.853   0.007   5.940 -0.0354  0.7060  0.1163
 5891SOL    HW229307   1.798   0.150   5.944  1.6299  0.6447  3.5539
 5892SOL     OW29308   4.522   2.541   6.264  0.1968  0.6207 -0.1986
 5892SOL    HW129309   4.557   2.581   6.343 -0.7230 -0.8454  0.9418
 5892SOL    HW229310   4.443   2.587   6.238  0.1383 -0.5860 -2.2131
 5893SOL     OW29311   1.087   3.642   4.002 -0.3732 -0.5245  0.5709
 5893SOL    HW129312   1.174   3.608   3.984 -0.3532  1.1895 -2.6428
 5893SOL    HW229313   1.068   3.691   3.922  2.6874  0.0795  0.2364
 5894SOL     OW29314   3.061   1.161   2.729 -0.1878  0.6395 -0.1124
 5894SOL    HW129315   3.081   1.227   2.796  1.3795 -0.9639  1.0107
 5894SOL    HW229316   3.110   1.187   2.651  0.6398  0.7727  0.4462
 5895SOL     OW29317   1.260   1.478  13.763 -0.0234 -0.1104  0.2501
 5895SOL    HW129318   1.239   1.418  13.835  3.3106 -1.6900 -0.0679
 5895SOL    HW229319   1.263   1.561  13.810 -0.3099  0.5847 -0.9833
 5896SOL     OW29320   2.153   1.714   7.714 -0.2274 -0.0220  0.5601
 5896SOL    HW129321   2.083   1.669   7.667 -0.5256 -0.8226  1.7532
 5896SOL    HW229322   2.211   1.653   7.759  0.2417  0.0399  0.0368
 5897SOL     OW29323   3.698   2.966  10.518 -0.2720 -0.4898 -0.1145
 5897SOL    HW129324   3.612   3.004  10.499 -0.4421 -2.1524 -2.7052
 5897SOL    HW229325   3.698   2.980  10.613 -0.7636 -2.8533  0.2313
 5898SOL     OW29326   4.215   2.100   3.287  0.3652  0.5597 -0.0389
 5898SOL    HW129327   4.241   2.014   3.320  0.0291 -0.2209 -1.8257
 5898SOL    HW229328   4.170   2.078   3.205  0.0031  0.3692  0.2124
 5899SOL     OW29329   1.788   2.693  14.578  0.1620 -0.6943  0.1153
 5899SOL    HW129330   1.819   2.675  14.666  0.7414 -1.4348 -0.2489
 5899SOL    HW229331   1.778   2.606  14.540 -0.2500 -0.3700 -0.5266
 5900SOL     OW29332   2.371   1.371   2.434 -0.4729 -0.0212  0.2405
 5900SOL    HW129333   2.389   1.350   2.526 -2.0494 -3.8698 -0.3382
 5900SOL    HW229334   2.367   1.465   2.450 -0.0774 -0.0977  0.8059
 5901SOL     OW29335   0.575   1.502   0.404 -0.2821  0.3435  0.3951
 5901SOL    HW129336   0.637   1.482   0.333 -1.7713  0.5093 -0.9619
 5901SOL    HW229337   0.596   1.593   0.425 -1.9717  0.3684  1.9258
 5902SOL     OW29338   1.839   4.066   5.403 -0.2224 -0.0390 -0.3797
 5902SOL    HW129339   1.807   4.125   5.334 -0.9307 -0.8716 -0.7637
 5902SOL    HW229340   1.926   4.047   5.368  1.1413  2.7395  1.4406
 5903SOL     OW29341   2.533   0.480   5.503  0.1989 -0.8044  0.2783
 5903SOL    HW129342   2.462   0.434   5.459  0.2175 -1.2594  0.7271
 5903SOL    HW229343   2.611   0.425   5.491  0.9968 -0.1831  2.6428
 5904SOL     OW29344   1.185   2.853   8.162  0.1123 -0.1398 -0.2736
 5904SOL    HW129345   1.140   2.793   8.102  1.2559 -1.1176 -0.1693
 5904SOL    HW229346   1.107   2.900   8.190  0.3383  0.3347 -0.4437
 5905SOL     OW29347   2.395   1.591   5.838  0.0730  0.2913  0.8350
 5905SOL    HW129348   2.351   1.631   5.913  0.3129  0.9912  0.5988
 5905SOL    HW229349   2.423   1.672   5.796 -0.0857  0.6720  1.4748
 5906SOL     OW29350   2.873   4.657   5.560 -0.4080 -0.2082  0.0410
 5906SOL    HW129351   2.859   4.721   5.631  1.4700  1.5008 -1.1480
 5906SOL    HW229352   2.792   4.606   5.569  0.4366 -1.5535 -0.0322
 5907SOL     OW29353   2.184   0.936   1.816 -0.4026  0.0787  0.0169
 5907SOL    HW129354   2.255   0.889   1.860 -0.6438 -1.0313 -0.7657
 5907SOL    HW229355   2.118   0.924   1.885 -0.0473  1.9230  0.6686
 5908SOL     OW29356   2.914   0.325  11.622  0.1036 -0.1723  0.8489
 5908SOL    HW129357   2.951   0.371  11.697  0.0441 -0.8791  1.3078
 5908SOL    HW229358   2.988   0.270  11.596 -0.1633 -0.8499  1.5332
 5909SOL     OW29359   2.723   3.250   9.165 -0.6800 -0.8762  0.1488
 5909SOL    HW129360   2.671   3.209   9.096 -1.1277 -0.3359  0.1636
 5909SOL    HW229361   2.666   3.222   9.236  1.3816 -1.6266  1.5219
 5910SOL     OW29362   0.181   3.624   2.355  0.2276  0.2048  0.2483
 5910SOL    HW129363   0.209   3.716   2.357 -0.1466  0.3097  0.6600
 5910SOL    HW229364   0.125   3.610   2.431  0.2214  0.7477  0.3443
 5911SOL     OW29365   2.432   2.170   5.294 -0.4184  0.6736  0.0930
 5911SOL    HW129366   2.352   2.119   5.292  0.2924 -0.4119 -1.0001
 5911SOL    HW229367   2.495   2.100   5.275 -1.2486 -0.5069  1.7304
 5912SOL     OW29368   1.877   0.762   4.760 -0.3692 -0.2463  0.6558
 5912SOL    HW129369   1.911   0.733   4.845 -0.8917 -1.8904  0.3010
 5912SOL    HW229370   1.939   0.834   4.743  0.5346 -1.0971  0.3726
 5913SOL     OW29371   0.030   4.709   4.745  0.2317  0.1689  0.4424
 5913SOL    HW129372   0.024   0.062   4.742  0.8056  0.2378  1.7650
 5913SOL    HW229373   0.125   4.693   4.746  0.4817  1.6340  0.1071
 5914SOL     OW29374   2.436   3.505   3.534 -0.0543  0.1193 -0.3526
 5914SOL    HW129375   2.445   3.521   3.440  0.9944  0.1959 -0.2358
 5914SOL    HW229376   2.503   3.436   3.540  0.4871  0.6751 -0.1080
 5915SOL     OW29377   2.043   0.431  11.109  0.1083  0.2544 -0.8137
 5915SOL    HW129378   2.126   0.456  11.150  0.3393  2.0655 -2.3543
 5915SOL    HW229379   2.026   0.343  11.143  0.8646  0.8767  1.2157
 5916SOL     OW29380   2.297   2.646   3.433 -0.6433  0.2096 -0.5348
 5916SOL    HW129381   2.376   2.682   3.393 -0.3915 -0.5297 -0.6998
 5916SOL    HW229382   2.329   2.599   3.510 -0.4548  1.2370  0.0161
 5917SOL     OW29383   4.136   2.991  13.854 -0.4900  0.5600 -0.1629
 5917SOL    HW129384   4.051   2.981  13.811 -0.2675 -0.4388 -0.3646
 5917SOL    HW229385   4.196   2.991  13.779  0.8670 -0.5829  0.9311
 5918SOL     OW29386   3.431   2.124   8.391 -0.4393  0.7238  0.3777
 5918SOL    HW129387   3.501   2.087   8.444 -0.5172  0.3940  0.2514
 5918SOL    HW229388   3.466   2.213   8.384 -1.2054  0.8372 -1.9441
 5919SOL     OW29389   1.038   0.221   7.082 -0.3388  0.4513 -0.0158
 5919SOL    HW129390   0.958   0.170   7.098 -0.2011  0.7400  1.6758
 5919SOL    HW229391   1.082   0.209   7.166  0.4029  0.0490 -0.4662
 5920SOL     OW29392   3.597   3.903  10.189 -0.2508 -0.5560 -0.6004
 5920SOL    HW129393   3.615   3.901  10.095 -0.9140  0.0517 -0.7390
 5920SOL    HW229394   3.682   3.869  10.217 -0.4185 -2.4574 -2.3711
 5921SOL     OW29395   2.641   3.694  10.747  0.0240 -0.1912 -0.0251
 5921SOL    HW129396   2.607   3.746  10.673 -1.4305 -0.6047  0.3465
 5921SOL    HW229397   2.717   3.735  10.787  1.1254 -3.0027  0.7852
 5922SOL     OW29398   2.219   2.559  12.417 -0.1504 -0.5712 -0.0567
 5922SOL    HW129399   2.166   2.623  12.370  0.2574 -0.2105 -0.0296
 5922SOL    HW229400   2.219   2.493  12.348  0.9491 -0.9380  0.2919
 5923SOL     OW29401   2.814   0.482   5.198 -0.7351  0.5530 -0.4734
 5923SOL    HW129402   2.764   0.517   5.272 -1.0041 -0.3087 -0.2408
 5923SOL    HW229403   2.865   0.557   5.167  0.9771 -0.1977  0.5538
 5924SOL     OW29404   4.514   2.568   5.037 -0.4025  0.1356 -0.2594
 5924SOL    HW129405   4.438   2.591   5.090 -0.0074  1.3204 -0.1940
 5924SOL    HW229406   4.476   2.610   4.960 -3.5425 -1.8765  0.2024
 5925SOL     OW29407   1.142   0.528  12.351  0.2753 -0.6172 -0.1019
 5925SOL    HW129408   1.086   0.602  12.329  0.5297 -0.3060  0.3153
 5925SOL    HW229409   1.094   0.464  12.297  0.7173 -0.7533 -0.3302
 5926SOL     OW29410   2.555   0.398   4.919  0.4210 -0.1999  0.3590
 5926SOL    HW129411   2.551   0.364   5.008 -3.8862  2.5756  1.2242
 5926SOL    HW229412   2.551   0.320   4.864  1.4299  0.7627 -1.0880
 5927SOL     OW29413   0.607   4.547   3.704  0.4398  0.1764  0.2092
 5927SOL    HW129414   0.647   4.616   3.757 -0.5523  2.4731 -1.9959
 5927SOL    HW229415   0.604   4.477   3.769  0.6264  0.0184  0.0441
 5928SOL     OW29416   1.134   2.018   7.461 -0.1160 -0.0524 -0.8952
 5928SOL    HW129417   1.226   2.009   7.436  0.4742  0.6476  1.0416
 5928SOL    HW229418   1.127   2.097   7.515  2.1315  0.2676 -1.0618
 5929SOL     OW29419   0.669   1.012  13.650 -0.2575  1.0076 -0.1750
 5929SOL    HW129420   0.713   1.068  13.714 -1.6996 -1.1532  2.7055
 5929SOL    HW229421   0.654   0.933  13.703  0.8659 -0.3200 -1.8280
 5930SOL     OW29422   1.299   2.907   6.627  0.1286  0.1922 -0.2364
 5930SOL    HW129423   1.260   2.992   6.644  0.3762 -0.0231  1.4042
 5930SOL    HW229424   1.385   2.932   6.592  0.2772  0.7988  0.5793
 5931SOL     OW29425   0.568   1.712   6.295  0.2988  0.6353 -0.1877
 5931SOL    HW129426   0.649   1.670   6.267 -0.0360  0.1564 -0.4493
 5931SOL    HW229427   0.511   1.648   6.338 -1.4835  2.8961  0.8010
 5932SOL     OW29428   1.103   1.937   2.582 -0.0558  0.3946  0.3498
 5932SOL    HW129429   1.025   1.990   2.597  0.2648  0.9405  0.0856
 5932SOL    HW229430   1.165   1.992   2.630  0.2467 -0.8970  1.4463
 5933SOL     OW29431   1.115   1.751   6.985  0.1584 -0.6121  0.1299
 5933SOL    HW129432   1.153   1.761   6.898  0.1755 -0.8429  0.1109
 5933SOL    HW229433   1.179   1.700   7.034  1.5268 -1.3653 -2.4589
 5934SOL     OW29434   0.675   2.780   5.130  0.3794 -0.0587  0.0672
 5934SOL    HW129435   0.747   2.739   5.083  0.0343 -1.8179  1.0690
 5934SOL    HW229436   0.644   2.712   5.190  0.7180  1.5503  2.0991
 5935SOL     OW29437   3.059   3.055   5.875  1.0097 -0.2943 -0.1453
 5935SOL    HW129438   3.088   3.145   5.867 -0.2227  0.0379 -0.8562
 5935SOL    HW229439   3.137   3.007   5.845  1.0921 -0.6542  0.6529
 5936SOL     OW29440   0.723   4.093  16.484 -0.0014  0.7873 -0.1134
 5936SOL    HW129441   0.744   4.137  16.567  0.1572 -2.3359  1.4812
 5936SOL    HW229442   0.684   4.011  16.511  0.9665 -0.2447 -1.8543
 5937SOL     OW29443   2.526   4.666   6.553  0.0839  0.6624 -0.2271
 5937SOL    HW129444   2.480   4.619   6.485  0.7019 -0.0759 -0.1429
 5937SOL    HW229445   2.447   4.681   6.604  0.3720 -1.9966  1.0538
 5938SOL     OW29446   4.262   2.393   8.960 -0.5340 -0.9873  0.3370
 5938SOL    HW129447   4.311   2.466   8.997 -2.4043  0.7099 -0.5141
 5938SOL    HW229448   4.294   2.317   9.007 -0.6121 -0.3527  1.4037
 5939SOL     OW29449   4.094   1.902   1.410  0.2346 -0.1129 -0.0866
 5939SOL    HW129450   4.116   1.930   1.499 -0.7031  0.4435 -0.0299
 5939SOL    HW229451   4.074   1.810   1.431  0.0019 -0.0194  0.1047
 5940SOL     OW29452   1.708   1.654   6.810  0.1871  0.4155  0.0523
 5940SOL    HW129453   1.726   1.560   6.804 -1.8238  0.0356 -0.0784
 5940SOL    HW229454   1.718   1.673   6.903  1.0415 -2.0742  0.4913
 5941SOL     OW29455   1.933   2.709  17.214  0.0529 -0.0673 -0.1384
 5941SOL    HW129456   1.983   2.760  17.150 -0.1461 -0.0792 -0.3008
 5941SOL    HW229457   1.995   2.636  17.225 -2.1305 -1.8018  0.8227
 5942SOL     OW29458   0.447   4.344   7.184  0.3213  0.2547  0.2316
 5942SOL    HW129459   0.407   4.262   7.213 -0.3542  1.5031  2.8369
 5942SOL    HW229460   0.381   4.378   7.124  0.0141  1.3025  1.1587
 5943SOL     OW29461   2.558   2.661   1.814  0.3246  0.2280 -0.1545
 5943SOL    HW129462   2.536   2.570   1.835  1.2926  0.2328  0.9325
 5943SOL    HW229463   2.633   2.652   1.755  0.0514  0.5155 -0.5386
 5944SOL     OW29464   0.594   1.502   2.446 -0.1203  0.0192  0.1260
 5944SOL    HW129465   0.570   1.500   2.539 -1.8303  0.6139 -0.3114
 5944SOL    HW229466   0.511   1.517   2.400  0.0137  0.9311  0.1858
 5945SOL     OW29467   3.928   2.425  16.471 -0.0463  0.0178 -0.2965
 5945SOL    HW129468   3.854   2.368  16.491  1.4222 -1.0891  2.0580
 5945SOL    HW229469   3.974   2.414  16.554 -1.4394 -0.3084  0.4329
 5946SOL     OW29470   1.697   2.185   0.321 -0.5860 -0.0134 -0.2337
 5946SOL    HW129471   1.714   2.251   0.254  0.1124  0.6603  0.6083
 5946SOL    HW229472   1.686   2.232   0.403 -0.1106  0.1148 -0.2410
 5947SOL     OW29473   2.189   4.147  16.032 -0.2808 -0.3345  0.1484
 5947SOL    HW129474   2.242   4.213  16.076 -1.6043  0.0800  1.1451
 5947SOL    HW229475   2.234   4.140  15.948 -2.4375  1.0173 -1.1205
 5948SOL     OW29476   0.711   1.164   6.868 -0.5938 -0.5629  0.0021
 5948SOL    HW129477   0.787   1.191   6.816 -0.4692  0.4310  0.7025
 5948SOL    HW229478   0.667   1.102   6.809  0.3797 -0.3056 -1.0009
 5949SOL     OW29479   1.413   2.842   2.721 -0.1825 -0.2961  0.3033
 5949SOL    HW129480   1.479   2.873   2.783 -2.7254 -1.6042  3.6847
 5949SOL    HW229481   1.332   2.883   2.752 -1.9637 -2.7504 -1.1120
 5950SOL     OW29482   0.662   1.222   1.930  0.3027  0.0052 -0.3137
 5950SOL    HW129483   0.726   1.191   1.994  2.5501  1.1892 -1.9687
 5950SOL    HW229484   0.618   1.137   1.918 -0.3275  0.4701 -1.3861
 5951SOL     OW29485   2.926   2.531   7.250 -0.0985  0.4059  0.3987
 5951SOL    HW129486   3.008   2.486   7.227 -0.9006 -1.0139  0.2929
 5951SOL    HW229487   2.908   2.589   7.176  0.2957  0.2351  0.1682
 5952SOL     OW29488   0.925   2.898   3.739  0.3223  0.0446 -0.3863
 5952SOL    HW129489   0.965   2.984   3.725  1.0929 -0.1691  0.4953
 5952SOL    HW229490   0.902   2.877   3.830  0.3633  0.0373 -0.3776
 5953SOL     OW29491   0.949   4.295   1.870 -0.4787 -0.1613  0.6933
 5953SOL    HW129492   1.017   4.360   1.859 -0.1666 -0.4187  1.0828
 5953SOL    HW229493   0.900   4.336   1.941  0.9990  1.8939  0.5074
 5954SOL     OW29494   3.349   4.620  13.518 -0.1747 -0.3512 -0.2171
 5954SOL    HW129495   3.324   4.684  13.451  0.2428  1.5684  1.4841
 5954SOL    HW229496   3.273   4.639  13.573  0.4534 -1.6680  1.0863
 5955SOL     OW29497   0.436   4.350   6.554 -0.0422  0.4244  0.2153
 5955SOL    HW129498   0.372   4.418   6.535 -1.1685 -0.4911  0.6861
 5955SOL    HW229499   0.500   4.366   6.485  0.8615 -1.3849  0.6324
 5956SOL     OW29500   1.070   4.552   7.585 -0.2504 -0.3686  0.0253
 5956SOL    HW129501   0.988   4.511   7.614 -0.8535 -0.3020 -1.5847
 5956SOL    HW229502   1.035   4.629   7.541  0.1272 -0.0889  0.2197
 5957SOL     OW29503   2.497   3.644   5.633  0.0941 -0.0554 -0.4704
 5957SOL    HW129504   2.492   3.714   5.567  0.2864  0.5819  0.1902
 5957SOL    HW229505   2.589   3.621   5.619  0.3387  1.3519 -1.2493
 5958SOL     OW29506   3.873   0.326   9.930 -0.1481  0.1977  0.2872
 5958SOL    HW129507   3.921   0.408   9.943 -0.5506  0.0812  2.5485
 5958SOL    HW229508   3.839   0.328  10.020 -1.7086 -0.4273 -0.2891
 5959SOL     OW29509   1.357   0.557   2.152  0.0293 -0.4589 -0.0790
 5959SOL    HW129510   1.379   0.465   2.160  1.0207 -0.0865  1.3524
 5959SOL    HW229511   1.443   0.588   2.179 -0.2835 -0.4360  0.8861
 5960SOL     OW29512   1.643   3.882   8.811  0.4441 -0.3576  0.7708
 5960SOL    HW129513   1.693   3.844   8.738  0.5955 -0.0576  0.7167
 5960SOL    HW229514   1.667   3.833   8.889  0.2327  1.3834  1.9247
 5961SOL     OW29515   3.102   3.914   4.493  0.2202 -0.1188  0.7364
 5961SOL    HW129516   3.155   3.885   4.567  0.1478 -2.2651 -0.0640
 5961SOL    HW229517   3.168   3.973   4.456 -0.1361  0.2844  0.7482
 5962SOL     OW29518   3.285   3.822   3.002 -0.0844  0.1955 -0.1291
 5962SOL    HW129519   3.218   3.853   3.064  0.4229  0.0732  0.4775
 5962SOL    HW229520   3.318   3.742   3.041  1.9853  1.2077  0.1948
 5963SOL     OW29521   4.298   0.253   1.513 -0.4350  0.1413 -0.5491
 5963SOL    HW129522   4.327   0.185   1.453  0.0700  1.2282 -1.5254
 5963SOL    HW229523   4.236   0.298   1.455  0.1271  1.2807 -0.2571
 5964SOL     OW29524   3.016   1.651   5.722  0.6507 -0.2608  0.1708
 5964SOL    HW129525   3.100   1.620   5.756  0.2257  0.7032  2.0681
 5964SOL    HW229526   2.958   1.578   5.743  1.6248 -1.1937 -0.3456
 5965SOL     OW29527   0.081   4.443   6.780  0.1547 -0.3445 -0.1630
 5965SOL    HW129528   0.026   4.513   6.744  0.0032 -0.7388 -0.6958
 5965SOL    HW229529   0.104   4.478   6.866  2.3525 -1.7910 -0.1604
 5966SOL     OW29530   3.083   0.668   3.586  0.4823  0.1476  0.2934
 5966SOL    HW129531   3.086   0.720   3.667  0.0297 -3.5932  2.7190
 5966SOL    HW229532   3.116   0.735   3.527 -0.2215  2.1425  2.1329
 5967SOL     OW29533   4.714   0.868   8.489 -0.4249 -0.0980  0.0245
 5967SOL    HW129534   0.001   0.850   8.579 -2.7871 -2.0895  0.3754
 5967SOL    HW229535   4.625   0.834   8.482  0.2320 -1.3805 -1.9828
 5968SOL     OW29536   4.712   4.035  15.844  0.3402  0.1214 -0.6833
 5968SOL    HW129537   0.013   4.039  15.758 -0.5759  2.0895 -1.0399
 5968SOL    HW229538   4.628   4.067  15.814 -0.2894 -0.8215  0.0559
 5969SOL     OW29539   0.529   2.712   2.317 -0.1639 -0.2112  0.0296
 5969SOL    HW129540   0.589   2.636   2.316  1.4869  1.0583  1.9933
 5969SOL    HW229541   0.446   2.666   2.304 -0.6665  0.3705  1.1640
 5970SOL     OW29542   0.806   0.813   8.721  0.7261 -0.0086  0.8049
 5970SOL    HW129543   0.721   0.799   8.680  0.6334 -0.9959  1.3335
 5970SOL    HW229544   0.785   0.842   8.810 -2.3430 -0.1664  0.1261
 5971SOL     OW29545   2.833   2.782  10.040 -0.0470 -0.0714 -0.3369
 5971SOL    HW129546   2.810   2.804  10.130 -0.9480 -1.1370 -0.3103
 5971SOL    HW229547   2.811   2.689  10.037  0.9248 -0.3108  0.0521
 5972SOL     OW29548   4.140   3.383   6.155  0.1057  0.4020 -1.0729
 5972SOL    HW129549   4.170   3.474   6.143 -0.4907  0.5175 -1.7356
 5972SOL    HW229550   4.117   3.343   6.071 -1.5170 -0.7854 -0.0625
 5973SOL     OW29551   0.574   2.371   1.872 -0.4015  0.1731 -0.0792
 5973SOL    HW129552   0.584   2.465   1.891  0.1245  0.0779  0.1134
 5973SOL    HW229553   0.533   2.338   1.952 -1.0555  0.2025 -0.3980
 5974SOL     OW29554   3.469   0.906   7.103  0.4173  0.4066  0.1468
 5974SOL    HW129555   3.496   0.963   7.175  1.3327  1.0936 -0.7377
 5974SOL    HW229556   3.554   0.866   7.086 -0.1957  0.0336 -2.0271
 5975SOL     OW29557   4.211   4.684   5.379 -0.0592  0.0362 -0.3056
 5975SOL    HW129558   4.144   0.009   5.393 -0.0258  0.1073 -0.4957
 5975SOL    HW229559   4.192   4.652   5.291 -1.6299  0.7256 -0.2138
 5976SOL     OW29560   1.248   2.518   4.763 -0.7179 -0.1473  0.5834
 5976SOL    HW129561   1.303   2.589   4.729 -1.1616 -0.6764 -1.2314
 5976SOL    HW229562   1.319   2.477   4.812  0.1293  0.3206 -0.2575
 5977SOL     OW29563   1.055   2.397   3.972  0.3360  0.0896 -0.0483
 5977SOL    HW129564   1.108   2.476   3.974 -0.2054  0.5058 -1.6497
 5977SOL    HW229565   1.097   2.337   4.033 -1.2223 -0.6495  0.2984
 5978SOL     OW29566   3.752   2.863   8.842  0.6778  0.0496 -0.2773
 5978SOL    HW129567   3.671   2.898   8.805  0.9173  1.3789  0.4523
 5978SOL    HW229568   3.736   2.884   8.933 -1.3761 -0.3313 -0.5495
 5979SOL     OW29569   1.189   3.533   3.611 -0.0026  0.3113 -0.2196
 5979SOL    HW129570   1.103   3.545   3.652 -0.1142 -0.1860 -0.3042
 5979SOL    HW229571   1.213   3.622   3.585 -0.0018  0.8848  1.8181
 5980SOL     OW29572   1.423   0.142   3.256 -0.2952  0.0378  0.2550
 5980SOL    HW129573   1.382   0.074   3.202 -0.0792 -0.0948  0.2580
 5980SOL    HW229574   1.417   0.220   3.200 -0.7795  0.6441  1.1665
 5981SOL     OW29575   4.415   2.958   4.862  0.2441 -0.3383  0.0318
 5981SOL    HW129576   4.494   3.009   4.882  0.0440  0.5225 -1.4078
 5981SOL    HW229577   4.374   2.998   4.786 -1.7223 -3.3000 -0.4728
 5982SOL     OW29578   1.428   1.204   3.982 -0.4198  0.2379  0.1602
 5982SOL    HW129579   1.439   1.191   3.888 -1.5103 -3.1381  0.4929
 5982SOL    HW229580   1.425   1.114   4.013 -1.2996  0.3703  0.4633
 5983SOL     OW29581   2.366   4.392  10.333  0.0857 -0.2287 -0.1012
 5983SOL    HW129582   2.372   4.485  10.356 -0.8287  0.0432 -0.9620
 5983SOL    HW229583   2.278   4.389  10.295  0.8713  0.9803 -1.9993
 5984SOL     OW29584   0.994   3.914   8.572  1.0464  0.4701 -0.2502
 5984SOL    HW129585   1.070   3.931   8.629  0.4406  1.8788  0.1319
 5984SOL    HW229586   1.033   3.856   8.506 -0.6142 -2.1416  1.0491
 5985SOL     OW29587   2.056   1.231   0.108  0.7572 -0.5957 -0.2761
 5985SOL    HW129588   2.081   1.318   0.140 -0.1971 -0.4503  0.0746
 5985SOL    HW229589   2.129   1.171   0.108  0.3275 -1.1193  0.4984
 5986SOL     OW29590   3.413   2.897  14.046 -0.3750 -0.4624  0.2081
 5986SOL    HW129591   3.452   2.948  13.975 -0.6713  0.0080  0.3776
 5986SOL    HW229592   3.351   2.958  14.087  1.6961  2.5254 -1.0923
 5987SOL     OW29593   2.642   3.174   5.674 -0.2749 -0.2625 -0.5934
 5987SOL    HW129594   2.704   3.224   5.620  0.0621 -0.8009 -0.7100
 5987SOL    HW229595   2.707   3.112   5.709  1.1479  0.3408 -2.1347
 5988SOL     OW29596   2.804   4.529   0.901 -0.2460 -0.1841  0.4103
 5988SOL    HW129597   2.891   4.535   0.861 -0.2257 -0.6129  0.3904
 5988SOL    HW229598   2.755   4.470   0.844  0.9449 -1.7033  0.9607
 5989SOL     OW29599   1.938   4.338  17.534  0.2762 -0.8583  0.1055
 5989SOL    HW129600   1.945   4.433  17.523 -1.1220 -1.1496 -3.3318
 5989SOL    HW229601   1.913   4.321  17.625  0.1281 -0.5867  0.1160
 5990SOL     OW29602   4.202   4.309   9.793  0.0549 -0.2788  0.6827
 5990SOL    HW129603   4.269   4.241   9.796  2.2046  1.7477 -1.1773
 5990SOL    HW229604   4.259   4.384   9.808 -0.6074  0.2041  0.7751
 5991SOL     OW29605   1.154   1.050   3.382 -0.3434  0.4419 -0.2905
 5991SOL    HW129606   1.093   1.113   3.343 -1.9847 -0.9981 -0.0445
 5991SOL    HW229607   1.145   0.974   3.324 -0.0298 -0.1284  0.4224
 5992SOL     OW29608   0.792   1.407   4.977  0.3053 -0.2325 -0.5907
 5992SOL    HW129609   0.708   1.383   5.017  0.5009 -1.4624 -0.9007
 5992SOL    HW229610   0.768   1.418   4.885  1.0587  0.2233 -0.7286
 5993SOL     OW29611   0.442   0.326   3.856 -0.0834  0.0750 -0.0054
 5993SOL    HW129612   0.472   0.285   3.937  0.7499 -1.4636 -1.0939
 5993SOL    HW229613   0.390   0.255   3.818 -1.2148  1.0589 -0.2843
 5994SOL     OW29614   1.411   1.904   4.674  0.2291 -0.4916  0.6035
 5994SOL    HW129615   1.473   1.954   4.727  0.6539  0.9535 -1.2135
 5994SOL    HW229616   1.376   1.966   4.610  0.8060  1.2416  1.9356
 5995SOL     OW29617   0.722   3.124   1.089 -0.2515 -0.1132 -0.1460
 5995SOL    HW129618   0.740   3.078   1.007  1.4520 -0.3186  0.3510
 5995SOL    HW229619   0.799   3.178   1.107 -1.1794  0.9559  0.6845
 5996SOL     OW29620   2.934   3.788   1.487  0.4357  0.8433 -0.4033
 5996SOL    HW129621   3.006   3.802   1.425 -0.1330  0.5860 -1.1196
 5996SOL    HW229622   2.857   3.809   1.433 -0.1300 -2.4201 -0.8410
 5997SOL     OW29623   1.028   4.020   9.365  0.3735  0.1340 -0.0463
 5997SOL    HW129624   1.072   3.973   9.294 -0.5526  1.5507 -1.5560
 5997SOL    HW229625   0.971   3.946   9.388 -1.7804  1.6398 -0.4908
 5998SOL     OW29626   2.365   0.327   8.405  0.1100 -0.5044 -0.7879
 5998SOL    HW129627   2.313   0.404   8.379 -0.3968 -0.8693 -0.8478
 5998SOL    HW229628   2.298   0.270   8.443 -0.0022  1.2410  1.6738
 5999SOL     OW29629   2.994   0.085  10.671 -0.1444  0.4268  0.0769
 5999SOL    HW129630   2.991   0.098  10.576  0.6886  0.8525  0.1090
 5999SOL    HW229631   3.087   0.097  10.690  0.1456  0.7143 -1.5389
 6000SOL     OW29632   2.144   2.285   8.383 -0.1743 -0.3074  0.3338
 6000SOL    HW129633   2.111   2.353   8.442 -0.7039  1.4159 -1.9640
 6000SOL    HW229634   2.211   2.249   8.442  1.2075  0.4081 -0.8049
 6001SOL     OW29635   1.294   1.806   6.148 -0.1991 -0.2003  0.0991
 6001SOL    HW129636   1.372   1.847   6.110 -1.0223 -0.1355 -1.5377
 6001SOL    HW229637   1.233   1.842   6.084  1.0505 -0.2962 -1.1531
 6002SOL     OW29638   3.504   4.608   9.140  0.3226 -0.0637  0.5215
 6002SOL    HW129639   3.429   4.644   9.187 -0.0253  0.4559 -0.4116
 6002SOL    HW229640   3.555   4.580   9.216 -1.3993  0.2396  1.7960
 6003SOL     OW29641   3.760   0.444   7.885 -0.0583 -0.6660  0.1579
 6003SOL    HW129642   3.735   0.451   7.793  1.4621 -0.5784 -0.2523
 6003SOL    HW229643   3.778   0.350   7.883  4.0895  0.1423 -0.1906
 6004SOL     OW29644   0.559   1.632  17.680 -0.4995  0.2638  0.4257
 6004SOL    HW129645   0.470   1.634  17.714 -2.4143  2.3581 -4.6599
 6004SOL    HW229646   0.591   1.548  17.710  0.5422  0.4265 -0.2180
 6005SOL     OW29647   3.900   2.704   7.652  0.5637  0.0804  0.0382
 6005SOL    HW129648   3.956   2.733   7.580 -0.0700 -0.2331 -0.5772
 6005SOL    HW229649   3.813   2.720   7.616  2.4028  3.0592 -3.0676
 6006SOL     OW29650   2.781   1.551   1.325 -0.0853 -0.4649  0.3245
 6006SOL    HW129651   2.687   1.566   1.330 -0.0476  0.5501 -1.8701
 6006SOL    HW229652   2.800   1.546   1.231 -0.7750  0.8092  0.1235
 6007SOL     OW29653   1.139   1.856   4.919 -0.4857 -0.1745  0.5330
 6007SOL    HW129654   1.106   1.935   4.961  0.0581  1.1528 -1.5539
 6007SOL    HW229655   1.228   1.873   4.948  0.1586 -1.7197 -0.5924
 6008SOL     OW29656   4.019   1.918   3.930 -0.1104 -0.1216 -0.3813
 6008SOL    HW129657   3.958   1.844   3.922 -3.7388  2.5387  3.2367
 6008SOL    HW229658   3.961   1.992   3.943 -0.3362  0.0449 -2.3891
 6009SOL     OW29659   0.466   3.131   3.411  0.7065 -0.9525 -0.4562
 6009SOL    HW129660   0.410   3.058   3.385 -0.9201  0.7054 -1.5666
 6009SOL    HW229661   0.452   3.133   3.505  1.6365  1.2256 -0.3694
 6010SOL     OW29662   2.468   2.597   4.932  0.4913 -0.2246 -0.5068
 6010SOL    HW129663   2.470   2.618   5.026  0.0783  0.2318 -0.5964
 6010SOL    HW229664   2.387   2.547   4.932 -0.1262  0.7602 -0.6011
 6011SOL     OW29665   0.282   3.973   7.666  0.8877  0.7049 -0.0229
 6011SOL    HW129666   0.289   4.018   7.581 -1.9327  0.1519 -0.5687
 6011SOL    HW229667   0.333   3.894   7.650  1.8872  1.5725 -1.0939
 6012SOL     OW29668   2.691   0.455  14.356 -0.3528 -0.1029 -0.0710
 6012SOL    HW129669   2.731   0.542  14.358 -2.5317  0.8885  0.6592
 6012SOL    HW229670   2.708   0.419  14.443  0.8456  0.5138 -0.0505
 6013SOL     OW29671   3.750   3.256   2.072  0.0908  0.0031 -0.7136
 6013SOL    HW129672   3.842   3.283   2.074 -0.7971  2.8065  4.9365
 6013SOL    HW229673   3.764   3.164   2.097  0.7901  0.6347  1.2274
 6014SOL     OW29674   0.720   1.880   5.050  0.1138  0.3296 -0.1294
 6014SOL    HW129675   0.779   1.822   5.097  1.5517  2.6736  0.9440
 6014SOL    HW229676   0.638   1.830   5.051 -0.3461  1.0052 -2.3168
 6015SOL     OW29677   2.557   2.102   5.920 -0.6902 -0.1991 -0.1986
 6015SOL    HW129678   2.465   2.116   5.941 -0.7736  0.7521 -1.1997
 6015SOL    HW229679   2.595   2.176   5.969  0.7018 -1.3190  0.4043
 6016SOL     OW29680   3.144   0.031   0.875 -0.5883 -0.3165 -0.2670
 6016SOL    HW129681   3.050   0.026   0.860 -0.1689 -2.4509 -2.2112
 6016SOL    HW229682   3.175   0.098   0.815 -2.1348 -0.0105 -0.7317
 6017SOL     OW29683   1.549   0.282  15.091 -0.5071 -0.0200  0.1979
 6017SOL    HW129684   1.514   0.350  15.148  1.9552  0.3181  1.3321
 6017SOL    HW229685   1.471   0.235  15.063 -0.2860 -0.1692 -0.1730
 6018SOL     OW29686   1.292   2.554   1.759  0.4495 -0.1336 -0.3464
 6018SOL    HW129687   1.327   2.568   1.847  1.0229 -0.3957 -0.5392
 6018SOL    HW229688   1.227   2.625   1.763  1.0786  0.4557 -0.5540
 6019SOL     OW29689   1.843   3.006   0.267  0.1968  1.1202 -0.5849
 6019SOL    HW129690   1.852   2.945   0.341 -0.8479  1.8948  0.1949
 6019SOL    HW229691   1.816   3.085   0.315 -1.1337 -0.2278  0.9309
 6020SOL     OW29692   4.392   2.411   5.373 -0.0507 -0.1556 -0.2217
 6020SOL    HW129693   4.371   2.329   5.417  1.0924  0.4687  1.4840
 6020SOL    HW229694   4.365   2.398   5.282 -2.8016  0.9900  0.4296
 6021SOL     OW29695   0.675   3.482   3.877  0.0201 -0.2207  0.4951
 6021SOL    HW129696   0.677   3.539   3.799 -4.8160  1.3511  1.5544
 6021SOL    HW229697   0.682   3.396   3.835  1.8413 -0.4742  1.2887
 6022SOL     OW29698   0.316   3.298   6.677 -0.3558 -0.8539 -0.3274
 6022SOL    HW129699   0.388   3.321   6.736  0.0411  2.0552 -1.9192
 6022SOL    HW229700   0.356   3.324   6.594 -0.6310  0.6886  0.0251
 6023SOL     OW29701   2.557   0.655   3.182  0.6147 -0.2145 -0.0413
 6023SOL    HW129702   2.473   0.622   3.150  0.5836 -0.0881 -0.0920
 6023SOL    HW229703   2.616   0.625   3.113 -0.7784  2.9088 -2.5892
 6024SOL     OW29704   0.583   4.384   3.907  0.4019 -0.0877 -0.0135
 6024SOL    HW129705   0.549   4.349   3.990 -1.3734  1.1915 -0.1889
 6024SOL    HW229706   0.608   4.299   3.871  2.7552  1.7419 -2.6848
 6025SOL     OW29707   4.338   0.451   7.490 -0.4677 -0.0736 -0.0066
 6025SOL    HW129708   4.308   0.420   7.405  1.2014 -2.7964  0.3905
 6025SOL    HW229709   4.331   0.546   7.478  0.1425  0.0100  0.2665
 6026SOL     OW29710   2.385   1.360   6.783 -0.1118 -0.1017  0.0675
 6026SOL    HW129711   2.380   1.282   6.839  2.0760  0.2578  0.7799
 6026SOL    HW229712   2.296   1.393   6.769  0.3029  0.9824  0.0038
 6027SOL     OW29713   1.029   3.931  12.374 -0.5214  0.5473 -0.3619
 6027SOL    HW129714   0.950   3.906  12.422 -0.1604  0.7208  0.3158
 6027SOL    HW229715   1.073   3.991  12.434  0.2069  1.4815 -1.8143
 6028SOL     OW29716   2.224   0.336  13.011  0.6064 -0.1170  0.2369
 6028SOL    HW129717   2.196   0.268  12.950 -1.6432 -1.5188  2.8371
 6028SOL    HW229718   2.316   0.355  12.992  0.5525 -0.8143 -0.7035
 6029SOL     OW29719   0.534   1.578   5.536 -0.4190 -1.0565  0.0641
 6029SOL    HW129720   0.474   1.547   5.604 -0.5695  0.7801  0.7687
 6029SOL    HW229721   0.538   1.495   5.489  1.1831 -0.5720 -0.6633
 6030SOL     OW29722   3.608   3.800  10.833 -0.3887  0.0914 -0.0100
 6030SOL    HW129723   3.646   3.715  10.855 -0.2985  0.3775  0.9399
 6030SOL    HW229724   3.686   3.847  10.803  1.7384 -2.4158  1.5858
 6031SOL     OW29725   1.463   1.372   6.745 -0.0047  0.6981  0.0565
 6031SOL    HW129726   1.450   1.399   6.836  0.0794 -0.7654  0.5126
 6031SOL    HW229727   1.400   1.300   6.738 -1.7903  2.3085 -0.2650
 6032SOL     OW29728   1.884   1.010  17.431  0.2920  0.0222  0.0325
 6032SOL    HW129729   1.958   0.963  17.469 -0.7808 -2.6146 -1.1374
 6032SOL    HW229730   1.883   1.074  17.502  0.5201  0.0044  0.0534
 6033SOL     OW29731   0.936   2.509  12.102 -0.2815  0.0444 -0.1147
 6033SOL    HW129732   0.852   2.478  12.137 -0.8889 -0.9689 -2.4827
 6033SOL    HW229733   0.956   2.586  12.154 -3.0179 -0.0203  1.0439
 6034SOL     OW29734   4.003   2.971   8.872 -0.0491  0.6603 -0.4989
 6034SOL    HW129735   4.055   2.891   8.882 -0.1858  0.7922  1.2576
 6034SOL    HW229736   3.917   2.930   8.877  0.6572 -0.4709  2.4830
 6035SOL     OW29737   3.659   2.127   8.587  0.2741 -0.3981 -0.2077
 6035SOL    HW129738   3.744   2.161   8.561 -0.5897  1.4930 -0.5206
 6035SOL    HW229739   3.624   2.198   8.640 -0.3310 -0.0410 -1.0902
 6036SOL     OW29740   1.521   0.411   1.505  0.2029 -0.3546  0.1020
 6036SOL    HW129741   1.485   0.447   1.586  0.5333  0.5894 -0.1682
 6036SOL    HW229742   1.446   0.362   1.472 -0.2078 -0.3338  1.0036
 6037SOL     OW29743   4.202   1.845   3.422 -0.4610 -0.0903 -0.0448
 6037SOL    HW129744   4.216   1.859   3.515 -0.5401  1.0393 -0.2082
 6037SOL    HW229745   4.273   1.785   3.397 -2.4868 -2.6741  0.4279
 6038SOL     OW29746   1.956   2.807   8.573  0.4219  0.0774  0.3841
 6038SOL    HW129747   1.976   2.897   8.598 -1.0784  0.6078 -0.2966
 6038SOL    HW229748   1.934   2.774   8.660 -0.7161 -0.7777 -0.2269
 6039SOL     OW29749   1.117   1.043   7.186 -0.0706 -0.2169 -0.5237
 6039SOL    HW129750   1.092   0.952   7.170  1.7353 -0.3073 -2.8257
 6039SOL    HW229751   1.098   1.088   7.103  1.4188  0.2332 -0.6333
 6040SOL     OW29752   3.763   0.571   7.623  0.2378 -0.1118 -0.2471
 6040SOL    HW129753   3.822   0.547   7.551  2.3011 -1.9704  2.0437
 6040SOL    HW229754   3.790   0.662   7.634  0.7200 -0.3260  0.3605
 6041SOL     OW29755   0.651   4.148   3.810  0.4210  0.3777 -0.4127
 6041SOL    HW129756   0.575   4.096   3.837  1.9005 -1.1738  0.7687
 6041SOL    HW229757   0.662   4.124   3.718  0.2473  1.6255 -0.7653
 6042SOL     OW29758   4.437   1.452  14.442  0.3676  0.3589  0.3082
 6042SOL    HW129759   4.447   1.498  14.525  1.1659 -2.1366  1.5992
 6042SOL    HW229760   4.381   1.513  14.395 -0.5930 -1.5199 -1.0100
 6043SOL     OW29761   2.643   4.688  15.567  0.0309  0.1666 -0.1395
 6043SOL    HW129762   2.689   0.029  15.585  0.5331  0.0133 -0.6928
 6043SOL    HW229763   2.577   4.679  15.635 -1.0586 -0.5139 -1.2794
 6044SOL     OW29764   3.107   2.146   6.666  0.0147 -0.2589 -0.3953
 6044SOL    HW129765   3.032   2.098   6.633 -0.7648  0.6729  0.0329
 6044SOL    HW229766   3.070   2.234   6.678 -0.4043 -0.5943  0.7688
 6045SOL     OW29767   2.876   1.388   8.515  0.0646  0.3170  0.2757
 6045SOL    HW129768   2.946   1.453   8.524 -0.9212  1.4254 -0.0848
 6045SOL    HW229769   2.907   1.341   8.438 -1.6669 -0.0069 -0.2005
 6046SOL     OW29770   1.793   1.536   9.022 -0.5343  0.3357 -0.0031
 6046SOL    HW129771   1.867   1.553   9.081 -1.2639  0.7387  0.7850
 6046SOL    HW229772   1.813   1.446   8.995 -0.4020  0.1373  0.7703
 6047SOL     OW29773   3.800   1.832   7.950 -0.1508  0.3210  0.2499
 6047SOL    HW129774   3.726   1.772   7.942  1.4323 -1.3013 -2.4344
 6047SOL    HW229775   3.857   1.784   7.889 -0.1030  0.5649  0.1032
 6048SOL     OW29776   3.932   0.921   5.446  0.0456 -0.0627 -0.5543
 6048SOL    HW129777   3.856   0.976   5.464 -0.4231 -0.6626 -0.7043
 6048SOL    HW229778   3.889   0.854   5.393  0.2385  1.4837 -2.6789
 6049SOL     OW29779   0.821   0.102   4.353 -0.3961  0.6283  0.1967
 6049SOL    HW129780   0.844   0.120   4.445 -2.2339  4.4451 -0.0703
 6049SOL    HW229781   0.915   0.105   4.337 -0.5776 -0.2151 -0.9862
 6050SOL     OW29782   4.080   1.094   8.944 -0.1078  0.4625 -0.0646
 6050SOL    HW129783   4.151   1.044   8.985  0.2742 -0.5159 -1.9304
 6050SOL    HW229784   4.005   1.077   9.002  0.1820  1.2274  0.5366
 6051SOL     OW29785   3.719   2.950   5.128 -0.0796 -0.2395  0.3275
 6051SOL    HW129786   3.768   2.899   5.193  2.4333  1.2334 -0.4169
 6051SOL    HW229787   3.778   3.025   5.123  0.0747 -0.3579  0.3369
 6052SOL     OW29788   3.414   4.437  12.259 -0.3650 -0.3566 -0.5279
 6052SOL    HW129789   3.481   4.470  12.320  0.8431 -3.3898 -0.1953
 6052SOL    HW229790   3.368   4.367  12.305 -2.5483  1.5346  0.1288
 6053SOL     OW29791   3.009   1.663  12.406  0.3095 -0.5892 -0.6756
 6053SOL    HW129792   2.963   1.721  12.466 -0.2703 -2.5666  0.7993
 6053SOL    HW229793   3.060   1.605  12.463 -1.2385 -1.1497  0.1446
 6054SOL     OW29794   0.649   2.816   6.153 -0.1923  0.4994 -0.0376
 6054SOL    HW129795   0.641   2.781   6.242  1.0848  0.5910  0.1102
 6054SOL    HW229796   0.591   2.891   6.166  1.2388  1.6344 -0.1810
 6055SOL     OW29797   3.682   1.558   2.918 -0.3115  0.8379 -0.3201
 6055SOL    HW129798   3.603   1.505   2.914 -1.7146  2.9741 -0.9091
 6055SOL    HW229799   3.744   1.487   2.935 -1.0945  0.4269  0.7717
 6056SOL     OW29800   3.620   4.406  10.234 -0.2342 -0.4542  0.2666
 6056SOL    HW129801   3.615   4.422  10.140  1.1233 -0.8604  0.1177
 6056SOL    HW229802   3.700   4.457  10.249 -0.0371 -1.3734  2.3954
 6057SOL     OW29803   4.296   3.797   0.472  0.1200  0.6008 -0.1196
 6057SOL    HW129804   4.324   3.872   0.524  0.8430  1.2244 -1.4218
 6057SOL    HW229805   4.215   3.837   0.440 -0.3123  0.3099  0.6054
 6058SOL     OW29806   2.226   0.298   1.622 -0.4270  0.2862 -0.6482
 6058SOL    HW129807   2.286   0.354   1.673 -0.1906 -1.8670  1.4372
 6058SOL    HW229808   2.272   0.285   1.539  0.9669 -2.0642  0.5022
 6059SOL     OW29809   3.966   2.468  11.341  0.0049  0.1172  0.2403
 6059SOL    HW129810   3.964   2.374  11.359  0.6811 -0.1064 -0.8750
 6059SOL    HW229811   4.056   2.481  11.310 -0.3232  1.8200  0.0034
 6060SOL     OW29812   0.863   4.286  14.141  0.7048  0.3667 -0.0675
 6060SOL    HW129813   0.853   4.192  14.152  2.0100  0.2639  0.2487
 6060SOL    HW229814   0.777   4.310  14.108  0.5275 -1.0070 -0.5927
 6061SOL     OW29815   2.857   3.027   4.149  0.2947 -0.7313  0.3317
 6061SOL    HW129816   2.780   2.975   4.124  0.2042  0.7913 -2.5283
 6061SOL    HW229817   2.816   3.045   4.234  0.4292  0.3317  0.1688
 6062SOL     OW29818   2.094   1.919   1.987  0.1809  0.0035  0.0804
 6062SOL    HW129819   2.151   1.894   1.914  0.2530  0.7242 -0.1154
 6062SOL    HW229820   2.004   1.926   1.956  0.9304  3.7573 -1.2870
 6063SOL     OW29821   2.425   0.974   4.507 -0.4996  0.6597 -0.5056
 6063SOL    HW129822   2.401   0.994   4.598 -0.4042 -0.7183 -0.1770
 6063SOL    HW229823   2.456   0.884   4.511 -3.0495 -0.3443 -3.0415
 6064SOL     OW29824   0.172   3.758  13.693  0.1735  0.6521 -0.0423
 6064SOL    HW129825   0.221   3.749  13.611  1.1534  1.2007  0.4907
 6064SOL    HW229826   0.238   3.740  13.760  0.4233 -0.8889 -0.6989
 6065SOL     OW29827   0.305   2.416   5.396 -0.1454  0.3502  0.2608
 6065SOL    HW129828   0.368   2.393   5.328  0.4164  0.0806  0.8695
 6065SOL    HW229829   0.327   2.509   5.403 -1.7133  0.6560  0.9909
 6066SOL     OW29830   4.247   3.608   6.030 -0.2002  0.4340 -0.1610
 6066SOL    HW129831   4.284   3.693   6.053  1.6805  0.2283 -2.4896
 6066SOL    HW229832   4.225   3.615   5.937  1.5346 -0.4191 -0.6301
 6067SOL     OW29833   4.211   0.846   5.281 -0.0896 -0.1467  0.0866
 6067SOL    HW129834   4.146   0.902   5.322 -0.3317 -0.6518  0.4017
 6067SOL    HW229835   4.285   0.895   5.316  0.2823 -1.2277  0.8399
 6068SOL     OW29836   2.021   3.626  13.686  0.2089 -0.7048  0.0598
 6068SOL    HW129837   1.994   3.671  13.766 -0.8210 -1.0340 -0.1022
 6068SOL    HW229838   1.986   3.540  13.708 -0.7684 -0.0209  1.1987
 6069SOL     OW29839   0.636   4.354   9.396 -0.1627  0.3731 -0.3362
 6069SOL    HW129840   0.644   4.259   9.404 -1.6129  0.3960  1.2953
 6069SOL    HW229841   0.541   4.359   9.401 -0.0568  0.1776  1.9847
 6070SOL     OW29842   3.589   2.389  17.065  0.5107  0.4338 -0.6114
 6070SOL    HW129843   3.621   2.462  17.117  0.6105  0.9434 -1.3909
 6070SOL    HW229844   3.537   2.343  17.131 -1.5332  0.5208 -2.1364
 6071SOL     OW29845   2.869   2.742   2.870  0.0819 -0.8173  0.4443
 6071SOL    HW129846   2.791   2.710   2.825 -0.3283  1.2967 -0.3209
 6071SOL    HW229847   2.928   2.667   2.857 -1.2694 -1.6520 -0.8403
 6072SOL     OW29848   2.538   0.907   6.887  0.7477 -0.1227  0.3457
 6072SOL    HW129849   2.581   0.825   6.911  0.3472 -0.0326  1.4081
 6072SOL    HW229850   2.495   0.877   6.807  2.9913 -2.5324  0.0578
 6073SOL     OW29851   0.639   4.279   7.669  0.0527  0.5533  0.0972
 6073SOL    HW129852   0.622   4.189   7.642  1.0077  0.3980  0.0150
 6073SOL    HW229853   0.550   4.306   7.649 -0.5308 -1.2203  0.2657
 6074SOL     OW29854   3.002   0.333   9.333 -0.2468 -0.0374 -0.4197
 6074SOL    HW129855   3.027   0.267   9.398 -0.2239 -0.7893 -1.1940
 6074SOL    HW229856   2.924   0.372   9.371 -1.6646 -1.0704 -2.2559
 6075SOL     OW29857   3.140   4.735   5.050  0.2921 -0.4135  0.4655
 6075SOL    HW129858   3.047   4.714   5.038  0.3814 -0.4984 -0.0802
 6075SOL    HW229859   3.186   4.654   5.028  2.6058  0.7798  0.9138
 6076SOL     OW29860   1.017   3.130   6.471  0.3002 -0.0498  0.3190
 6076SOL    HW129861   1.020   3.035   6.462  2.5229  0.1222 -0.6310
 6076SOL    HW229862   1.025   3.168   6.384 -0.4149  0.0499  0.2979
 6077SOL     OW29863   2.989   3.849  12.960  0.6480 -0.4988  0.5747
 6077SOL    HW129864   2.948   3.923  12.914 -0.3565 -0.9906  0.6880
 6077SOL    HW229865   2.991   3.779  12.894 -0.2042  2.0641 -2.1923
 6078SOL     OW29866   0.115   1.591   6.081 -0.7362 -0.0845 -0.5272
 6078SOL    HW129867   0.024   1.609   6.058  0.2329  2.0872 -2.7273
 6078SOL    HW229868   0.149   1.679   6.096 -1.8750  0.4167 -0.9227
 6079SOL     OW29869   3.798   3.042   3.680 -0.2692  0.0225  0.0636
 6079SOL    HW129870   3.795   2.991   3.760 -0.2120 -0.1449 -0.0410
 6079SOL    HW229871   3.717   3.093   3.681 -0.4488 -0.3169  2.4353
 6080SOL     OW29872   0.623   1.612  10.819  0.1298 -0.0041 -0.0080
 6080SOL    HW129873   0.543   1.658  10.845 -0.2884  0.2762 -1.8062
 6080SOL    HW229874   0.631   1.550  10.891  2.8327 -0.5645 -0.7752
 6081SOL     OW29875   2.812   1.221   1.710  0.7697  0.0085  0.1092
 6081SOL    HW129876   2.877   1.203   1.641 -0.3010 -2.5499 -0.2305
 6081SOL    HW229877   2.806   1.316   1.709  1.6646  0.0588 -0.8193
 6082SOL     OW29878   0.821   0.764  11.323 -1.0411 -0.2038  0.2594
 6082SOL    HW129879   0.782   0.841  11.280 -0.9283 -1.0196 -1.2679
 6082SOL    HW229880   0.841   0.797  11.411  0.8733 -2.0384  0.4955
 6083SOL     OW29881   2.883   1.783  12.600  0.0549  0.0215 -0.0358
 6083SOL    HW129882   2.880   1.814  12.690  0.1287  1.7343 -0.6258
 6083SOL    HW229883   2.793   1.769  12.570 -0.2357  2.4325 -0.2503
 6084SOL     OW29884   3.025   0.039   6.961  0.6402  0.4330 -0.0534
 6084SOL    HW129885   3.000   0.038   6.869 -0.4340 -1.1335  0.2514
 6084SOL    HW229886   3.016   0.133   6.975  0.3945  0.3087  0.6272
 6085SOL     OW29887   4.706   4.579   4.350  0.0392  0.2878  0.0155
 6085SOL    HW129888   4.693   4.525   4.428 -2.2931  2.7755  1.3466
 6085SOL    HW229889   4.712   4.519   4.275  1.7913 -0.2316  0.5851
 6086SOL     OW29890   2.758   1.028   6.290 -0.1786  0.1408  0.7563
 6086SOL    HW129891   2.771   1.089   6.217 -0.0525 -1.4597 -0.5483
 6086SOL    HW229892   2.776   0.948   6.240 -0.6389  0.7322 -0.3681
 6087SOL     OW29893   3.340   2.366  16.590  0.2430 -0.3394 -0.1300
 6087SOL    HW129894   3.282   2.388  16.517  1.8551 -1.0651 -1.6315
 6087SOL    HW229895   3.270   2.371  16.655  0.7467 -2.0651  0.5306
 6088SOL     OW29896   2.913   2.013   8.312 -0.3337  0.1949 -0.3814
 6088SOL    HW129897   2.910   1.987   8.220 -0.4610  0.5006 -0.4601
 6088SOL    HW229898   2.988   2.072   8.306 -0.9182  0.6959 -2.6311
 6089SOL     OW29899   0.038   1.480   7.969  0.1096  0.4331  0.0329
 6089SOL    HW129900   0.046   1.559   7.915 -0.8883  1.0709  0.8218
 6089SOL    HW229901   0.034   1.496   8.063 -0.5628 -0.7442  0.2063
 6090SOL     OW29902   0.914   3.038   1.955  0.1540  0.3988 -0.3030
 6090SOL    HW129903   0.903   3.092   2.034  0.4962 -0.0053  0.0246
 6090SOL    HW229904   0.961   3.103   1.903  1.2331 -0.5872 -0.5753
 6091SOL     OW29905   2.845   0.437   6.787  0.5470  0.0504  0.2570
 6091SOL    HW129906   2.900   0.495   6.734  1.0420 -1.8702 -1.3531
 6091SOL    HW229907   2.764   0.459   6.739  0.2837  0.1455  0.7505
 6092SOL     OW29908   0.430   3.070   1.995 -0.2267  0.1837 -0.3140
 6092SOL    HW129909   0.427   3.116   1.911 -3.0676 -2.7930 -1.8711
 6092SOL    HW229910   0.379   3.135   2.043  2.0040  2.4482 -1.0092
 6093SOL     OW29911   4.184   2.789  16.399 -0.3469 -0.1508 -0.9282
 6093SOL    HW129912   4.227   2.731  16.462  2.6955  1.8459 -1.1748
 6093SOL    HW229913   4.261   2.840  16.374 -0.3879 -0.8856 -2.5243
 6094SOL     OW29914   2.900   1.937  11.406  0.0891 -0.0943 -0.4970
 6094SOL    HW129915   2.968   1.983  11.356  0.8470  0.2907  0.8979
 6094SOL    HW229916   2.827   1.996  11.392 -0.1169  0.1837  1.8553
 6095SOL     OW29917   1.919   0.005  12.761  0.1834 -0.5103 -0.0005
 6095SOL    HW129918   1.893   0.040  12.676  0.3067 -0.2569  0.0659
 6095SOL    HW229919   2.011   0.028  12.774 -0.2450  1.1540  0.0905
 6096SOL     OW29920   0.300   4.427   0.628 -0.4745 -0.1074 -0.5187
 6096SOL    HW129921   0.365   4.480   0.583 -0.6530 -0.8316 -1.6236
 6096SOL    HW229922   0.330   4.440   0.718  0.0004 -0.6407 -0.5995
 6097SOL     OW29923   0.521   0.319  12.911  0.3189 -0.2825 -0.0478
 6097SOL    HW129924   0.517   0.342  12.818 -1.2328  1.4157  0.4266
 6097SOL    HW229925   0.610   0.339  12.941  0.7253 -1.1989 -0.6487
 6098SOL     OW29926   4.319   3.194   6.840 -0.3370  0.3355 -0.4608
 6098SOL    HW129927   4.388   3.129   6.829  0.4396  0.8800  1.2269
 6098SOL    HW229928   4.296   3.231   6.754 -1.7984 -1.4732 -0.8412
 6099SOL     OW29929   1.513   2.773  15.461  0.7086 -0.4959  0.0212
 6099SOL    HW129930   1.553   2.688  15.480 -0.3309 -0.8588  0.5839
 6099SOL    HW229931   1.429   2.755  15.503  0.5062 -0.6548 -0.4537
 6100SOL     OW29932   1.318   4.043  17.018  0.6273  0.3158  0.4668
 6100SOL    HW129933   1.292   4.003  16.935 -0.9691 -2.2525  2.1899
 6100SOL    HW229934   1.336   3.971  17.078  2.7962  1.1284  0.7869
 6101SOL     OW29935   0.768   3.168   2.397  0.0792  0.7214  0.0047
 6101SOL    HW129936   0.741   3.110   2.468 -2.3852  0.0472 -1.4842
 6101SOL    HW229937   0.684   3.190   2.356 -1.0929 -1.0941  1.4698
 6102SOL     OW29938   1.086   1.522  11.421  0.3736 -0.4216  0.1704
 6102SOL    HW129939   1.109   1.586  11.488  1.6450 -0.3429 -0.3427
 6102SOL    HW229940   1.006   1.563  11.388  0.7249  0.5015  0.4471
 6103SOL     OW29941   1.345   2.303   8.945 -0.0456 -0.1425  0.2664
 6103SOL    HW129942   1.411   2.329   8.880 -0.3311  1.3188  0.5654
 6103SOL    HW229943   1.306   2.226   8.903 -0.0745 -0.5771  1.0981
 6104SOL     OW29944   2.371   3.099   5.468  0.5534 -0.3551 -0.4794
 6104SOL    HW129945   2.355   3.113   5.375 -3.2517  1.8609  0.4936
 6104SOL    HW229946   2.438   3.164   5.490  1.1850 -0.9897 -0.5341
 6105SOL     OW29947   3.067   0.082   6.110 -0.9095 -0.4709 -0.5741
 6105SOL    HW129948   3.044   4.735   6.081  1.0543 -1.1061 -0.1575
 6105SOL    HW229949   3.150   0.093   6.064 -0.2991  2.1517  1.1519
 6106SOL     OW29950   1.385   3.243   0.315  0.4135  0.2906  0.2085
 6106SOL    HW129951   1.382   3.320   0.372  2.3597  1.4748 -1.3338
 6106SOL    HW229952   1.435   3.189   0.377 -0.5760  0.2400  0.9661
 6107SOL     OW29953   4.304   3.823   4.290  0.4725  0.2657  0.5082
 6107SOL    HW129954   4.362   3.837   4.215 -0.9451  0.0945 -0.6248
 6107SOL    HW229955   4.362   3.776   4.350 -0.4604 -0.1590  1.0831
 6108SOL     OW29956   3.334   1.067   6.926 -0.2111 -0.2310  0.4623
 6108SOL    HW129957   3.387   1.025   6.993 -1.4226 -1.9285  0.3555
 6108SOL    HW229958   3.341   1.158   6.955  0.4767  0.3985 -1.6972
 6109SOL     OW29959   2.049   4.084   9.609  0.1605  0.4386  0.1276
 6109SOL    HW129960   2.129   4.079   9.556 -0.2721 -1.1122 -0.3864
 6109SOL    HW229961   1.995   4.015   9.572  0.5202 -0.6350  1.6042
 6110SOL     OW29962   3.230   0.814   7.701 -0.0546  0.4561  0.0970
 6110SOL    HW129963   3.279   0.894   7.719 -0.7941  1.0498 -0.5401
 6110SOL    HW229964   3.212   0.831   7.609  1.0248 -0.4495 -0.2893
 6111SOL     OW29965   4.161   4.165  16.227 -0.5395 -0.1649 -0.2485
 6111SOL    HW129966   4.199   4.238  16.276 -1.2847  0.8344 -1.1665
 6111SOL    HW229967   4.132   4.215  16.151 -0.5780  0.1064 -0.0554
 6112SOL     OW29968   3.170   2.042   1.598 -0.2013  0.5200 -0.1330
 6112SOL    HW129969   3.123   2.004   1.524  0.8841 -1.0479 -0.0157
 6112SOL    HW229970   3.120   2.015   1.675 -0.1053 -1.7062 -0.8393
 6113SOL     OW29971   2.742   2.897   7.686  0.0264 -0.5117  0.1831
 6113SOL    HW129972   2.770   2.967   7.744 -0.9493  0.8412 -0.9754
 6113SOL    HW229973   2.649   2.898   7.708 -0.5579 -1.7134 -2.2065
 6114SOL     OW29974   2.735   2.448   2.270 -0.5537  0.1493 -0.1675
 6114SOL    HW129975   2.739   2.513   2.341 -2.6649 -1.8394  1.7456
 6114SOL    HW229976   2.708   2.367   2.313  0.0860  2.2085  4.1480
 6115SOL     OW29977   2.780   1.130   0.990 -0.5274 -0.0050  0.0409
 6115SOL    HW129978   2.771   1.205   0.931 -0.0611 -0.5863 -0.7630
 6115SOL    HW229979   2.865   1.150   1.029 -0.2150  0.6555 -0.9827
 6116SOL     OW29980   4.462   3.439   6.039  0.7320 -0.1132  0.7426
 6116SOL    HW129981   4.387   3.497   6.026  0.5068 -0.9632 -1.7604
 6116SOL    HW229982   4.512   3.465   5.961  0.3511  0.6684  0.7618
 6117SOL     OW29983   0.256   1.385   1.765 -0.5016 -0.2652  0.5744
 6117SOL    HW129984   0.337   1.344   1.733 -0.1849  1.5156 -0.8866
 6117SOL    HW229985   0.292   1.429   1.843 -0.5740 -1.2905  1.1836
 6118SOL     OW29986   1.263   2.505  15.396 -0.0623  0.2585  0.4716
 6118SOL    HW129987   1.289   2.428  15.446  2.9619  1.2786  0.4376
 6118SOL    HW229988   1.254   2.566  15.468 -0.4555  0.1968  0.4750
 6119SOL     OW29989   3.379   1.329   7.051  0.2712  0.2950 -0.0155
 6119SOL    HW129990   3.466   1.358   7.025  0.8607 -2.1464 -0.7666
 6119SOL    HW229991   3.346   1.416   7.074 -1.9982 -0.1314 -1.6318
 6120SOL     OW29992   2.826   3.434   6.599 -0.2251  0.3964 -0.2757
 6120SOL    HW129993   2.857   3.382   6.525 -0.0274 -0.0805  0.1406
 6120SOL    HW229994   2.852   3.522   6.572 -0.7032  0.5193 -0.3331
 6121SOL     OW29995   3.990   1.411  10.873  0.1815 -0.3403  0.3198
 6121SOL    HW129996   4.071   1.384  10.830 -0.8432  0.1756 -1.9421
 6121SOL    HW229997   3.987   1.364  10.957 -0.0293 -0.6791  0.1211
 6122SOL     OW29998   4.164   4.085   6.394  0.2280 -0.4710  0.2814
 6122SOL    HW129999   4.160   4.026   6.470 -0.9451 -2.6107 -1.4379
 6122SOL    HW230000   4.104   4.049   6.329  2.4789 -1.4891 -1.2390
 6123SOL     OW30001   2.367   4.019   8.710  0.0143 -0.4135  0.2334
 6123SOL    HW130002   2.331   4.101   8.677  0.1314 -0.4912 -0.0897
 6123SOL    HW230003   2.416   4.047   8.788 -1.2305 -1.2169  1.3162
 6124SOL     OW30004   0.998   0.721   5.274  0.2816  0.3074  0.0293
 6124SOL    HW130005   0.933   0.698   5.341  1.3108  0.6061  1.1301
 6124SOL    HW230006   0.995   0.645   5.217  0.6977  0.9837 -0.9020
 6125SOL     OW30007   3.179   4.100   4.150  1.0431 -0.2391  0.1627
 6125SOL    HW130008   3.227   4.119   4.069  1.3950 -0.0377  0.4174
 6125SOL    HW230009   3.136   4.186   4.158  1.0344 -0.0912 -1.3790
 6126SOL     OW30010   1.129   3.364  10.508 -0.0229  0.5243  0.4458
 6126SOL    HW130011   1.103   3.337  10.596 -0.5551  0.8342  0.3801
 6126SOL    HW230012   1.058   3.327  10.454  0.3677 -0.1366  0.3869
 6127SOL     OW30013   2.158   1.394   7.807 -1.1037  0.3674  0.1282
 6127SOL    HW130014   2.199   1.335   7.744 -0.5576 -1.1201  1.8814
 6127SOL    HW230015   2.071   1.362   7.830  0.3045 -2.2380  1.7807
 6128SOL     OW30016   4.689   3.720  13.971  0.9223  0.0452  0.0027
 6128SOL    HW130017   4.680   3.674  13.887  1.6482  1.2486 -0.7356
 6128SOL    HW230018   0.039   3.703  13.995  0.5009 -2.4654 -0.2041
 6129SOL     OW30019   2.229   0.317   3.643  0.1224  0.4071 -0.0236
 6129SOL    HW130020   2.295   0.385   3.642 -0.8649  1.3512 -0.5949
 6129SOL    HW230021   2.223   0.286   3.734 -1.6947  0.6665 -0.0420
 6130SOL     OW30022   4.635   0.719   9.412  0.8514 -0.2814  0.2183
 6130SOL    HW130023   4.563   0.723   9.349  0.2413 -0.5111  0.8954
 6130SOL    HW230024   4.706   0.746   9.355  0.4482  1.2753  0.4577
 6131SOL     OW30025   2.949   2.348   8.216  0.5491 -0.0959 -0.1038
 6131SOL    HW130026   2.961   2.324   8.308  2.1814 -0.8764 -0.5328
 6131SOL    HW230027   2.936   2.443   8.220 -0.6585 -0.2716  0.2752
 6132SOL     OW30028   1.619   3.895   7.654 -0.4990 -0.3980  0.2449
 6132SOL    HW130029   1.595   3.827   7.717  1.2789 -1.7140 -0.4909
 6132SOL    HW230030   1.704   3.917   7.692  0.0019 -0.6333 -0.7386
 6133SOL     OW30031   1.390   1.502   2.783 -0.0494 -0.4650 -0.7477
 6133SOL    HW130032   1.317   1.452   2.749 -2.0083  2.5759 -1.0478
 6133SOL    HW230033   1.425   1.537   2.701  0.7867 -1.6067 -0.8745
 6134SOL     OW30034   2.695   0.700   5.392 -0.1197 -0.7165  0.0178
 6134SOL    HW130035   2.746   0.759   5.447  0.2323 -0.8275 -0.1848
 6134SOL    HW230036   2.648   0.644   5.453  2.0239 -0.2315  2.1145
 6135SOL     OW30037   3.305   2.090  15.901  0.7302  0.6904  0.4469
 6135SOL    HW130038   3.302   2.015  15.842  3.6096 -1.5972  3.1910
 6135SOL    HW230039   3.396   2.113  15.917  0.7224  1.3406 -0.4566
 6136SOL     OW30040   2.140   3.308   4.601  0.0564  0.1110 -0.3262
 6136SOL    HW130041   2.110   3.387   4.645 -1.6637 -0.8308  0.1598
 6136SOL    HW230042   2.095   3.316   4.517  1.2605  0.0848 -0.9842
 6137SOL     OW30043   4.057   0.082   2.862 -0.2792 -0.2066 -0.0425
 6137SOL    HW130044   4.088   0.006   2.814 -1.5609 -0.2683 -0.7771
 6137SOL    HW230045   3.964   0.058   2.866  0.6961 -4.1606 -1.4359
 6138SOL     OW30046   4.026   4.645   4.794 -0.1464 -0.7178  0.2914
 6138SOL    HW130047   4.022   4.604   4.707  1.4267  1.4690 -0.8220
 6138SOL    HW230048   4.117   4.673   4.803  0.0077 -1.1309  0.0397
 6139SOL     OW30049   2.895   3.726   6.523  0.0298 -0.0705 -0.0357
 6139SOL    HW130050   2.933   3.785   6.587  1.9790 -1.1347 -0.2009
 6139SOL    HW230051   2.805   3.758   6.521  0.8391  2.1471 -1.9873
 6140SOL     OW30052   2.481   4.471   2.455 -0.8382  0.0013 -0.0877
 6140SOL    HW130053   2.434   4.551   2.432 -0.5783  0.1081 -0.2391
 6140SOL    HW230054   2.479   4.418   2.375 -0.4413 -0.7406  0.3847
 6141SOL     OW30055   4.354   1.987   2.896 -0.6892  0.1553 -0.5070
 6141SOL    HW130056   4.382   1.912   2.950  0.2362  0.6734 -0.2595
 6141SOL    HW230057   4.272   2.016   2.936 -0.4103  1.8719 -1.1969
 6142SOL     OW30058   2.239   3.350   9.168  0.0082 -0.3316 -0.0407
 6142SOL    HW130059   2.266   3.386   9.252 -0.1540  0.6245 -0.3968
 6142SOL    HW230060   2.308   3.379   9.108 -0.7247 -1.2116 -1.3264
 6143SOL     OW30061   1.237   1.140   2.094  0.4008  0.0939  0.8379
 6143SOL    HW130062   1.264   1.057   2.053 -1.3102 -0.9729  1.8735
 6143SOL    HW230063   1.144   1.129   2.075  0.1627  0.2949  1.9331
 6144SOL     OW30064   4.275   0.030   4.031  0.4744 -0.4561  0.0839
 6144SOL    HW130065   4.324   4.690   4.021  1.6532  0.3764 -0.9154
 6144SOL    HW230066   4.338   0.095   4.001  0.0193 -0.5835 -1.1308
 6145SOL     OW30067   2.062   3.846   9.123  0.5886 -0.0729 -0.3633
 6145SOL    HW130068   2.045   3.877   9.034 -0.4436  2.3225  0.6708
 6145SOL    HW230069   1.990   3.783   9.122 -1.0131  1.7487 -0.7880
 6146SOL     OW30070   3.591   0.193   6.838  0.2867  0.2533 -0.3571
 6146SOL    HW130071   3.553   0.279   6.823  0.3431  0.4651  0.7299
 6146SOL    HW230072   3.523   0.131   6.811  1.6628 -1.2146 -0.4390
 6147SOL     OW30073   3.393   3.461   8.892  0.2045 -0.4815 -0.0677
 6147SOL    HW130074   3.347   3.378   8.879  1.2970 -1.1205  0.1857
 6147SOL    HW230075   3.467   3.438   8.947  1.0141  0.6788 -0.6555
 6148SOL     OW30076   4.507   1.464   3.805 -0.3320 -0.7518 -0.1928
 6148SOL    HW130077   4.567   1.422   3.867 -0.3002 -0.3376  0.0567
 6148SOL    HW230078   4.565   1.492   3.734  0.6220 -0.1050  0.8343
 6149SOL     OW30079   3.904   0.909  12.789  0.3022  0.4769 -0.2340
 6149SOL    HW130080   3.809   0.908  12.784  0.3956  2.9351 -2.2186
 6149SOL    HW230081   3.930   0.937  12.702  2.4135  0.9301  0.5296
 6150SOL     OW30082   4.366   0.130  15.373  0.5703 -0.5043 -0.0179
 6150SOL    HW130083   4.300   0.088  15.317 -0.0127 -0.9122  0.9743
 6150SOL    HW230084   4.330   0.218  15.361 -0.2318 -0.8746 -0.3560
 6151SOL     OW30085   0.835   2.510   5.463  0.0691 -0.0390 -0.0990
 6151SOL    HW130086   0.784   2.587   5.437  0.5530 -0.3673 -2.0070
 6151SOL    HW230087   0.841   2.447   5.391 -1.8802 -0.9777  0.5628
 6152SOL     OW30088   0.581   3.177  12.858 -0.3751 -0.0157  0.6211
 6152SOL    HW130089   0.577   3.263  12.815  0.7244 -1.1430 -1.7545
 6152SOL    HW230090   0.617   3.194  12.945  0.3841 -0.4452  0.3999
 6153SOL     OW30091   2.687   2.859   0.857 -0.1404 -0.1416  0.1630
 6153SOL    HW130092   2.680   2.786   0.796  0.1367 -0.1172  0.1038
 6153SOL    HW230093   2.615   2.905   0.813  1.3129  1.9682 -0.0430
 6154SOL     OW30094   2.803   3.923  16.319 -0.1191 -0.7092 -0.3120
 6154SOL    HW130095   2.893   3.897  16.300  1.1502  3.3885 -0.0494
 6154SOL    HW230096   2.822   3.996  16.378 -0.4452 -0.6197 -0.3191
 6155SOL     OW30097   3.171   2.148   6.974  0.1472  0.2262 -0.2408
 6155SOL    HW130098   3.192   2.237   6.947 -0.8769  1.1921  2.1183
 6155SOL    HW230099   3.192   2.099   6.895 -2.8292  1.0968 -1.5243
 6156SOL     OW30100   2.094   3.803   7.770 -0.1275  0.2109 -0.2637
 6156SOL    HW130101   2.117   3.783   7.861  4.4552 -1.3258 -1.7769
 6156SOL    HW230102   2.174   3.783   7.721  0.5713  0.2304  0.8521
 6157SOL     OW30103   0.358   4.345   7.579 -0.1476 -0.8229  0.2214
 6157SOL    HW130104   0.286   4.406   7.594  1.4365  0.9900  0.4043
 6157SOL    HW230105   0.307   4.288   7.521  0.9205  0.7145 -2.2352
 6158SOL     OW30106   0.011   0.115  11.575  0.2690 -0.2518 -0.3465
 6158SOL    HW130107   4.659   0.123  11.555  0.3737  2.0438  0.0722
 6158SOL    HW230108   0.016   0.133  11.669  1.8721  0.1965 -0.5253
 6159SOL     OW30109   1.793   0.945  14.857  0.6458  0.2346 -0.1289
 6159SOL    HW130110   1.778   1.020  14.915  2.4376  1.2575 -0.9890
 6159SOL    HW230111   1.707   0.904  14.867  0.3305  0.3059 -2.3785
 6160SOL     OW30112   0.464   2.779   6.917  0.2699  0.1178  0.1253
 6160SOL    HW130113   0.386   2.745   6.873 -0.2862  0.2535  1.0242
 6160SOL    HW230114   0.525   2.790   6.844  0.0370  1.8637  0.1977
 6161SOL     OW30115   0.057   1.865   4.724 -0.2124  0.2572  0.0538
 6161SOL    HW130116   0.028   1.953   4.699 -2.1454 -0.6750 -0.9228
 6161SOL    HW230117   0.091   1.838   4.639 -0.0607  0.5187  0.0313
 6162SOL     OW30118   3.585   0.651   5.553  0.2567 -0.5997 -0.4823
 6162SOL    HW130119   3.555   0.723   5.498  0.8086  0.2260  0.2908
 6162SOL    HW230120   3.654   0.609   5.502  1.2581  0.4866 -0.0065
 6163SOL     OW30121   4.718   0.092  17.322  0.2782  0.4598  0.1569
 6163SOL    HW130122   0.003   0.159  17.384  1.3697 -0.7301  0.9765
 6163SOL    HW230123   4.656   0.045  17.379  1.2800 -0.0905  0.7807
 6164SOL     OW30124   1.687   0.303   5.254  0.2066  0.0604 -0.1880
 6164SOL    HW130125   1.671   0.216   5.219 -1.7653  0.4256 -0.2194
 6164SOL    HW230126   1.656   0.287   5.344  1.8177 -0.3972  0.2862
 6165SOL     OW30127   1.610   3.305  13.608 -0.3989 -0.3895 -0.2768
 6165SOL    HW130128   1.520   3.302  13.639  0.2230  0.7186  1.6712
 6165SOL    HW230129   1.643   3.372  13.669 -0.6328  0.3383 -0.9481
 6166SOL     OW30130   4.162   4.004   7.873 -0.0035 -0.1393 -0.0760
 6166SOL    HW130131   4.255   3.999   7.896 -0.1359  0.4034  0.5620
 6166SOL    HW230132   4.163   4.100   7.874 -1.9212 -0.1709  2.4009
 6167SOL     OW30133   0.988   3.069   1.433 -0.3952  0.3523 -0.1847
 6167SOL    HW130134   0.923   3.049   1.500  0.6698  0.3595  0.8480
 6167SOL    HW230135   0.939   3.095   1.355 -0.8116 -0.0072 -0.0445
 6168SOL     OW30136   2.014   4.259   4.205  0.9962  0.2163 -0.3220
 6168SOL    HW130137   1.962   4.188   4.242  1.5150 -0.3615 -0.7083
 6168SOL    HW230138   1.996   4.327   4.270  1.9787 -1.1697  1.3860
 6169SOL     OW30139   0.696   0.823   2.589 -0.5864 -0.1355  0.2697
 6169SOL    HW130140   0.640   0.888   2.546 -0.8372  0.7757  1.9574
 6169SOL    HW230141   0.634   0.759   2.622 -1.4815  1.0364  0.8619
 6170SOL     OW30142   3.047   4.465  17.056  0.3031 -0.0585 -0.1604
 6170SOL    HW130143   3.001   4.454  16.973 -1.5712  1.5422  0.6550
 6170SOL    HW230144   2.980   4.462  17.125  0.8379  1.4642  0.4314
 6171SOL     OW30145   1.598   4.543   2.620  0.7042 -0.3172 -0.3607
 6171SOL    HW130146   1.693   4.549   2.624  0.5574  0.2961  1.9800
 6171SOL    HW230147   1.587   4.479   2.690 -0.0967  0.6450  0.3859
 6172SOL     OW30148   0.399   4.423   0.890 -0.4698  0.1928  0.1247
 6172SOL    HW130149   0.341   4.355   0.924  0.4873 -0.7468 -0.1262
 6172SOL    HW230150   0.485   4.403   0.927 -0.5738  1.2141  0.9070
 6173SOL     OW30151   4.089   3.046   3.982 -0.0808 -0.2233 -0.2810
 6173SOL    HW130152   4.136   2.989   3.921 -0.2571 -0.5520 -0.1093
 6173SOL    HW230153   4.129   3.129   3.955 -0.5001 -0.0491 -0.3592
 6174SOL     OW30154   1.900   3.489   6.017  0.4693  0.1238 -0.5976
 6174SOL    HW130155   1.980   3.535   5.991  1.4798 -2.1219 -1.4801
 6174SOL    HW230156   1.849   3.543   5.955 -1.6847 -0.9675  0.2307
 6175SOL     OW30157   2.670   2.633  17.192  0.3142  0.6166  0.4019
 6175SOL    HW130158   2.683   2.542  17.215 -1.1591  0.8505  2.1726
 6175SOL    HW230159   2.663   2.633  17.096  0.2860 -0.9654  0.4116
 6176SOL     OW30160   2.283   4.113  12.262  0.2276 -0.4031 -0.1127
 6176SOL    HW130161   2.254   4.031  12.223 -1.8053  1.3243 -2.2746
 6176SOL    HW230162   2.201   4.164  12.265  2.0074  2.3409  1.8390
 6177SOL     OW30163   2.640   1.494   8.617 -0.0879 -0.1445 -0.5056
 6177SOL    HW130164   2.696   1.568   8.641  2.8615 -3.4022  2.7303
 6177SOL    HW230165   2.702   1.429   8.585 -0.8890 -2.2856  2.2837
 6178SOL     OW30166   0.823   2.878   2.252  0.0524 -0.1910 -0.3727
 6178SOL    HW130167   0.837   2.972   2.259 -1.3160  0.1358 -1.8966
 6178SOL    HW230168   0.752   2.883   2.187  0.2457  1.0877 -0.4825
 6179SOL     OW30169   3.251   3.521   3.999  0.1803 -0.1610 -0.2065
 6179SOL    HW130170   3.291   3.577   3.932  1.7656 -0.9544  0.0522
 6179SOL    HW230171   3.250   3.585   4.070 -1.9017  0.6966 -1.0144
 6180SOL     OW30172   2.613   3.080   8.056  0.5123 -0.6046 -0.2691
 6180SOL    HW130173   2.640   2.989   8.065 -1.7662 -1.1089  1.5428
 6180SOL    HW230174   2.631   3.123   8.139  3.1555 -0.3154 -0.9778
 6181SOL     OW30175   3.675   3.937   4.186  0.1558 -0.0739  0.4090
 6181SOL    HW130176   3.723   3.899   4.112 -0.9563 -1.0080  0.1754
 6181SOL    HW230177   3.642   3.870   4.245  3.3326 -0.7216  1.4062
 6182SOL     OW30178   4.711   2.356  11.416 -0.5712  0.3972 -0.2155
 6182SOL    HW130179   0.044   2.315  11.460 -2.9273 -1.5815  1.9050
 6182SOL    HW230180   4.662   2.285  11.375  1.6188 -0.3563 -1.5042
 6183SOL     OW30181   2.938   3.088   8.943 -0.2167  0.0785  0.5550
 6183SOL    HW130182   2.953   3.165   8.887  0.1646  1.0438  1.9898
 6183SOL    HW230183   2.842   3.081   8.938 -0.2093  1.6983 -2.2418
 6184SOL     OW30184   1.311   2.450   5.791 -0.0250  0.0563 -0.3583
 6184SOL    HW130185   1.301   2.366   5.834  0.8452  0.5024  0.7001
 6184SOL    HW230186   1.222   2.468   5.761 -0.2621 -2.4680 -1.1608
 6185SOL     OW30187   3.924   2.402   7.798 -0.1908  0.2958  0.2091
 6185SOL    HW130188   3.906   2.459   7.724 -1.7791 -0.5575 -0.0662
 6185SOL    HW230189   3.972   2.336   7.748  0.5462  2.3865 -1.8524
 6186SOL     OW30190   3.137   0.249   6.676 -0.3432 -0.2969  0.3291
 6186SOL    HW130191   3.052   0.205   6.678 -0.9216  0.8769  1.4568
 6186SOL    HW230192   3.148   0.246   6.581  1.6773  0.9483  0.5293
 6187SOL     OW30193   4.358   4.519   9.789 -0.0900 -0.1368  0.3433
 6187SOL    HW130194   4.396   4.553   9.870 -2.0307 -0.3491  1.3435
 6187SOL    HW230195   4.326   4.603   9.757 -2.0472 -1.0278 -0.0082
 6188SOL     OW30196   2.333   0.644   7.881 -0.3465  0.2126 -0.4195
 6188SOL    HW130197   2.245   0.676   7.904 -0.7212 -0.0673 -1.4561
 6188SOL    HW230198   2.333   0.555   7.916  2.0720  0.1539 -0.5939
 6189SOL     OW30199   0.243   2.011  10.949 -0.1565 -0.3504  0.7632
 6189SOL    HW130200   0.262   1.918  10.956  3.5221  0.3893  0.6716
 6189SOL    HW230201   0.335   2.039  10.944 -0.3346  0.2692  0.9241
 6190SOL     OW30202   3.918   3.993   9.822 -0.1018  0.1307  0.3209
 6190SOL    HW130203   3.921   4.051   9.746  2.3261 -2.1143 -1.2755
 6190SOL    HW230204   3.936   4.047   9.898 -0.3342  1.4647 -0.5748
 6191SOL     OW30205   3.764   3.780   7.221 -0.0645 -0.7696  0.6196
 6191SOL    HW130206   3.761   3.703   7.278  0.6914 -0.4881  1.0347
 6191SOL    HW230207   3.802   3.741   7.143  0.3161  0.9838 -0.0702
 6192SOL     OW30208   2.075   4.248  17.289  0.5509 -0.0104  0.2817
 6192SOL    HW130209   2.143   4.315  17.278  1.2260 -0.2755  2.9351
 6192SOL    HW230210   2.014   4.281  17.355 -0.1001  0.1443 -0.3895
 6193SOL     OW30211   1.724   2.899   0.511  0.3644  0.6175 -0.0625
 6193SOL    HW130212   1.630   2.899   0.494  0.8832 -1.1833 -3.0305
 6193SOL    HW230213   1.734   2.966   0.578  3.0331  0.0631  0.1008
 6194SOL     OW30214   1.525   4.376   2.879  0.2713  0.0612 -1.0848
 6194SOL    HW130215   1.448   4.355   2.932  1.7628 -0.3145  0.9182
 6194SOL    HW230216   1.588   4.386   2.950 -1.5707 -0.5412  0.6342
 6195SOL     OW30217   4.070   0.446   2.215 -0.5714 -0.3175  0.1381
 6195SOL    HW130218   4.067   0.357   2.181 -2.5215  0.0003 -0.5287
 6195SOL    HW230219   4.151   0.454   2.267 -1.0362  0.1709  0.7922
 6196SOL     OW30220   0.013   0.852   1.513  0.6850 -0.0771  0.9368
 6196SOL    HW130221   0.032   0.902   1.592  2.8200  2.6057 -1.2646
 6196SOL    HW230222   4.701   0.782   1.552  0.0537 -0.5072 -0.6718
 6197SOL     OW30223   2.280   0.288   5.002 -0.8348  0.4404 -0.0706
 6197SOL    HW130224   2.278   0.264   4.910 -0.8266 -0.2830  0.1217
 6197SOL    HW230225   2.192   0.322   5.018 -1.3981 -1.3559  0.5776
 6198SOL     OW30226   4.503   1.375   2.008  0.1097 -0.1665  0.9680
 6198SOL    HW130227   4.431   1.357   2.068 -1.3898  3.5674  0.2864
 6198SOL    HW230228   4.484   1.468   1.994  0.5589 -0.4411 -1.4432
 6199SOL     OW30229   4.354   3.178   7.671 -0.0624  0.4661 -0.3317
 6199SOL    HW130230   4.424   3.239   7.647  1.0358  0.5544  3.0993
 6199SOL    HW230231   4.302   3.224   7.737 -1.1083 -3.0261  1.2314
 6200SOL     OW30232   4.229   2.989   4.394  0.7673 -0.0462 -0.2602
 6200SOL    HW130233   4.157   3.040   4.359  0.1195 -1.8525 -1.5552
 6200SOL    HW230234   4.264   2.954   4.312 -1.4926 -1.9850 -0.3965
 6201SOL     OW30235   2.901   1.609   5.462 -1.2288  0.0425  0.0675
 6201SOL    HW130236   2.959   1.634   5.534  0.4545 -1.2453 -0.8331
 6201SOL    HW230237   2.975   1.595   5.403  0.1751  1.4860  1.4534
 6202SOL     OW30238   2.968   2.294  13.103 -0.1374  0.4276  0.2005
 6202SOL    HW130239   2.985   2.223  13.041  2.1129 -0.3115  1.6540
 6202SOL    HW230240   3.043   2.299  13.163  0.5646 -2.0097 -0.4649
 6203SOL     OW30241   1.770   4.716   7.148  0.6256 -0.3664 -0.3880
 6203SOL    HW130242   1.799   4.697   7.237  1.8615  0.6631 -0.5548
 6203SOL    HW230243   1.714   4.639   7.145  1.4574 -1.0094  0.6024
 6204SOL     OW30244   0.636   4.144   1.741  0.4922  0.3037 -0.3120
 6204SOL    HW130245   0.719   4.101   1.763  0.0868 -0.5699 -0.4780
 6204SOL    HW230246   0.665   4.235   1.746  0.4274  0.2421  1.2757
 6205SOL     OW30247   0.021   1.346   8.557 -0.2380 -0.2934 -0.0950
 6205SOL    HW130248   4.672   1.360   8.586  0.1617  0.3555  0.8326
 6205SOL    HW230249   0.040   1.262   8.598  0.6644 -1.2816 -2.5503
 6206SOL     OW30250   1.227   3.810   0.724 -0.4442  0.8553 -0.0291
 6206SOL    HW130251   1.181   3.885   0.762  0.2569  0.4374  1.6704
 6206SOL    HW230252   1.237   3.853   0.639  0.3570  2.6936  1.0090
 6207SOL     OW30253   0.543   0.309   3.184 -0.2189  0.6109 -0.0034
 6207SOL    HW130254   0.587   0.378   3.233 -0.6662  0.8266  0.0883
 6207SOL    HW230255   0.458   0.305   3.226 -0.4829  2.1354 -0.4198
 6208SOL     OW30256   1.755   4.084   6.854  0.0821 -0.3135  0.0429
 6208SOL    HW130257   1.783   3.996   6.878 -2.2870 -1.2698 -0.6706
 6208SOL    HW230258   1.717   4.056   6.770 -1.5634 -0.9179  0.9928
 6209SOL     OW30259   2.245   0.109   5.495 -0.1019  0.6507  0.0373
 6209SOL    HW130260   2.323   0.105   5.549  0.0858  0.7720 -0.2259
 6209SOL    HW230261   2.232   0.014   5.488 -0.9403  0.7681 -0.0956
 6210SOL     OW30262   1.444   0.730  11.031  0.1243  0.6061  0.5301
 6210SOL    HW130263   1.431   0.676  11.109  2.1554 -0.9858 -0.2485
 6210SOL    HW230264   1.369   0.790  11.038 -0.1897  0.2631  0.0876
 6211SOL     OW30265   2.189   2.984   7.004  0.1700 -0.2567 -0.0947
 6211SOL    HW130266   2.256   2.989   6.936  0.6174  0.8733  0.4258
 6211SOL    HW230267   2.213   3.065   7.050  0.9812  1.2421 -3.1622
 6212SOL     OW30268   2.178   0.188   3.901  0.4931 -0.5154  0.1737
 6212SOL    HW130269   2.216   0.107   3.868 -1.3178 -1.7870  1.2145
 6212SOL    HW230270   2.085   0.166   3.901 -0.4591  3.4353  0.8178
 6213SOL     OW30271   2.493   2.672  14.064 -0.7737  0.3495 -0.1125
 6213SOL    HW130272   2.543   2.692  14.144  0.7108 -1.2065 -0.6415
 6213SOL    HW230273   2.409   2.714  14.077 -0.4033  0.6210  1.4410
 6214SOL     OW30274   2.409   2.907   3.175 -0.4009  0.0183  0.0779
 6214SOL    HW130275   2.427   2.813   3.173  0.4794  0.2521 -3.6924
 6214SOL    HW230276   2.444   2.935   3.259  0.6697 -0.0207 -0.3484
 6215SOL     OW30277   3.146   4.175  17.332 -0.6098  0.3892  0.2742
 6215SOL    HW130278   3.094   4.106  17.373  1.6522 -0.5983  1.4585
 6215SOL    HW230279   3.071   4.229  17.306 -0.3620  0.4341 -0.3510
 6216SOL     OW30280   0.967   3.193   1.186 -0.2250  0.0606 -0.0829
 6216SOL    HW130281   0.989   3.286   1.191  0.8610 -0.2632  1.1294
 6216SOL    HW230282   1.032   3.160   1.124 -1.0611 -1.0508 -0.3675
 6217SOL     OW30283   2.468   2.090   2.467  0.0286 -0.1386  0.0636
 6217SOL    HW130284   2.438   2.179   2.486 -1.2084 -0.8797  1.6279
 6217SOL    HW230285   2.391   2.055   2.422 -1.2694  1.9100  0.7079
 6218SOL     OW30286   2.188   1.945   2.773 -0.5251  0.1043  0.6473
 6218SOL    HW130287   2.255   1.877   2.775 -1.7782 -1.1577 -0.1478
 6218SOL    HW230288   2.146   1.936   2.858 -1.3960 -1.1410  0.0861
 6219SOL     OW30289   1.587   3.991   3.289  0.0758  0.0583  0.3928
 6219SOL    HW130290   1.677   3.961   3.279 -0.0843 -0.3901  0.2732
 6219SOL    HW230291   1.570   4.005   3.196 -0.1977  0.4596  0.5004
 6220SOL     OW30292   1.144   1.014   2.407 -0.1238 -0.5505  0.0427
 6220SOL    HW130293   1.193   0.956   2.349  1.0118 -0.3403  0.7924
 6220SOL    HW230294   1.152   0.970   2.492  1.8854 -1.7581 -0.7761
 6221SOL     OW30295   0.167   3.292  13.735 -0.2035  0.2543  0.5135
 6221SOL    HW130296   0.121   3.376  13.738  0.7446  0.7372  1.8757
 6221SOL    HW230297   0.151   3.259  13.647  0.0025 -0.1386  0.6235
 6222SOL     OW30298   3.202   2.400   7.808 -0.0692  0.0082 -0.0841
 6222SOL    HW130299   3.285   2.428   7.847  1.5341 -1.1908 -2.6065
 6222SOL    HW230300   3.202   2.310   7.842 -0.4777 -0.5695 -1.6110
 6223SOL     OW30301   3.836   4.514  16.335 -0.2563 -0.7871 -0.3808
 6223SOL    HW130302   3.892   4.529  16.411 -1.2417 -1.1923  0.4348
 6223SOL    HW230303   3.800   4.433  16.372 -2.3114 -0.1212 -0.9617
 6224SOL     OW30304   1.458   3.071   1.879  0.0483 -0.5525 -0.1654
 6224SOL    HW130305   1.422   3.054   1.966  2.0613 -2.3926  0.3017
 6224SOL    HW230306   1.549   3.048   1.900  0.6111  1.0570 -0.8827
 6225SOL     OW30307   2.191   4.630  10.293  0.6361  1.0405 -0.2908
 6225SOL    HW130308   2.209   4.624  10.200  1.5254  0.8854 -0.1058
 6225SOL    HW230309   2.095   4.627  10.292  0.7364 -1.5216 -0.5392
 6226SOL     OW30310   0.942   1.432  11.817  0.5899  0.7145  0.1390
 6226SOL    HW130311   0.880   1.500  11.789  0.5482 -0.0129 -1.5365
 6226SOL    HW230312   1.028   1.469  11.797  0.2583  0.3118 -2.1051
 6227SOL     OW30313   2.201   3.899   0.542 -0.1590  0.2253 -0.1167
 6227SOL    HW130314   2.248   3.824   0.579 -0.3302  0.7862  1.2201
 6227SOL    HW230315   2.180   3.870   0.453  0.9696  2.3418 -1.0733
 6228SOL     OW30316   1.156   2.963  16.483  0.0311  0.4856 -0.1205
 6228SOL    HW130317   1.075   2.913  16.473  0.0616 -0.0427  2.1595
 6228SOL    HW230318   1.173   2.964  16.389 -1.3809  1.3944 -0.3704
 6229SOL     OW30319   2.804   2.838   1.098 -0.0658 -0.5028  0.2967
 6229SOL    HW130320   2.754   2.833   1.016  0.3221  0.9942 -0.0275
 6229SOL    HW230321   2.877   2.786   1.064 -1.4378 -1.9298 -0.4655
 6230SOL     OW30322   3.741   2.270   3.382 -0.1510  0.6428  0.0296
 6230SOL    HW130323   3.690   2.302   3.308 -1.3546 -0.6646  0.2715
 6230SOL    HW230324   3.713   2.179   3.389  1.5441  0.1215 -0.0946
 6231SOL     OW30325   3.110   2.530   6.292  0.0249 -0.5709  0.1310
 6231SOL    HW130326   3.036   2.530   6.354  1.9627 -0.4263  2.4536
 6231SOL    HW230327   3.181   2.522   6.355  0.6146  1.1506 -0.3044
 6232SOL     OW30328   2.749   3.268  10.354 -0.0758  0.4039 -0.1182
 6232SOL    HW130329   2.664   3.261  10.397 -1.2042 -0.3008 -2.4295
 6232SOL    HW230330   2.761   3.356  10.319  0.6415 -0.5823 -2.4252
 6233SOL     OW30331   3.732   0.463   3.941  0.2754 -0.1116  0.0003
 6233SOL    HW130332   3.667   0.531   3.922  0.6898  0.2409 -0.1639
 6233SOL    HW230333   3.756   0.452   3.849 -2.7107 -0.5388 -0.7210
 6234SOL     OW30334   2.326   2.756   5.405 -0.6969 -0.0150 -0.5613
 6234SOL    HW130335   2.233   2.735   5.413 -0.9580  0.8285 -1.3431
 6234SOL    HW230336   2.347   2.815   5.477 -1.1042 -1.6870  0.9196
 6235SOL     OW30337   4.635   3.614   2.226 -0.3083 -0.6876  0.0387
 6235SOL    HW130338   4.572   3.611   2.154  0.8432  1.6242 -1.0720
 6235SOL    HW230339   4.718   3.626   2.180 -0.4631  1.0898  0.2302
 6236SOL     OW30340   2.292   2.568   2.080 -0.0096  0.3516  0.3397
 6236SOL    HW130341   2.367   2.621   2.108  0.0627  0.4122  0.0321
 6236SOL    HW230342   2.315   2.532   1.994  2.7935 -0.6784  1.5381
 6237SOL     OW30343   3.496   0.824   5.376 -0.5283  0.1304 -0.4072
 6237SOL    HW130344   3.457   0.908   5.397  0.2356  0.7029 -1.2578
 6237SOL    HW230345   3.413   0.776   5.371 -1.1812  1.4384 -2.1871
 6238SOL     OW30346   3.955   1.835  15.696  0.5978  0.1755 -0.6006
 6238SOL    HW130347   3.931   1.804  15.784  0.2118  1.5217 -0.2352
 6238SOL    HW230348   3.965   1.750  15.653 -0.8481  0.3136 -1.2033
 6239SOL     OW30349   2.189   0.835  14.563  0.5089  0.1793 -0.2686
 6239SOL    HW130350   2.182   0.930  14.549 -1.9518 -0.1141 -1.0497
 6239SOL    HW230351   2.099   0.820  14.592 -0.1554  0.8644 -2.0110
 6240SOL     OW30352   2.755   4.577  10.144  0.0760  0.0500 -0.2023
 6240SOL    HW130353   2.762   4.622  10.061  1.6220 -1.5034 -0.9138
 6240SOL    HW230354   2.716   4.644  10.200  0.0624 -0.7708  0.7915
 6241SOL     OW30355   2.989   0.362   6.989  0.2008 -0.3984 -1.1210
 6241SOL    HW130356   2.911   0.376   6.935 -0.9397  0.1697  0.6518
 6241SOL    HW230357   3.051   0.428   6.960 -1.6885  2.8050  2.0871
 6242SOL     OW30358   4.169   3.982   3.855 -0.3909 -0.4267  0.0737
 6242SOL    HW130359   4.100   3.960   3.792 -1.1503  1.9014  0.1037
 6242SOL    HW230360   4.202   3.896   3.880 -0.9033 -0.5817  0.2135
 6243SOL     OW30361   3.879   2.815   9.948 -0.2310  0.3368  0.0332
 6243SOL    HW130362   3.933   2.769   9.883  1.1561 -1.6792  2.6102
 6243SOL    HW230363   3.956   2.849   9.993  0.8522 -0.0301 -1.5241
 6244SOL     OW30364   0.079   0.363   3.766 -0.4905  0.0894  0.3553
 6244SOL    HW130365   0.107   0.277   3.736  1.0181  0.2955  1.1882
 6244SOL    HW230366   4.739   0.376   3.717  1.2128  2.5393 -1.8511
 6245SOL     OW30367   1.479   4.499  17.443 -0.4259  0.4927 -0.6692
 6245SOL    HW130368   1.541   4.449  17.390 -2.4137 -2.1916 -0.4757
 6245SOL    HW230369   1.493   4.459  17.529 -0.1292 -1.9581 -1.8550
 6246SOL     OW30370   0.897   2.431   8.060  0.2155 -0.2799 -0.7282
 6246SOL    HW130371   0.927   2.340   8.057 -0.1725 -0.4177 -0.4287
 6246SOL    HW230372   0.802   2.428   8.046 -0.2145  1.1374  1.7632
 6247SOL     OW30373   2.043   3.056   1.793  0.2215 -0.3080 -0.0303
 6247SOL    HW130374   2.049   2.992   1.864  4.6846  0.5668  0.4213
 6247SOL    HW230375   2.130   3.092   1.777  0.2713 -1.0135 -1.3558
 6248SOL     OW30376   0.916   4.245   9.254  0.4050  0.6150  0.1515
 6248SOL    HW130377   0.967   4.177   9.297 -0.0250  0.7671  0.8961
 6248SOL    HW230378   0.831   4.201   9.254  1.5824 -1.6510  2.2759
 6249SOL     OW30379   0.037   0.928  16.830 -0.2096  0.0137 -0.3903
 6249SOL    HW130380   0.053   0.958  16.920  0.7533 -0.2343 -0.4771
 6249SOL    HW230381   4.725   0.851  16.851  0.9380 -0.3908  1.1425
 6250SOL     OW30382   4.326   4.439   0.620 -0.2173  0.1077 -0.1675
 6250SOL    HW130383   4.410   4.428   0.664 -0.7289  1.6564  1.1927
 6250SOL    HW230384   4.314   4.531   0.644  1.0077 -0.4678  2.6167
 6251SOL     OW30385   2.153   3.748   1.379 -0.1822  0.5662  0.1555
 6251SOL    HW130386   2.139   3.683   1.310  0.4094  0.1450  0.4349
 6251SOL    HW230387   2.109   3.828   1.350  0.3852  0.6977 -0.3401
 6252SOL     OW30388   1.346   0.222   6.840  0.1406 -0.1129 -0.2302
 6252SOL    HW130389   1.331   0.203   6.747 -1.6081  2.0072 -0.3955
 6252SOL    HW230390   1.423   0.169   6.858 -0.0580 -0.3285 -0.0184
 6253SOL     OW30391   4.479   0.702  16.723 -0.1470  0.4317 -0.6725
 6253SOL    HW130392   4.485   0.608  16.736 -0.8663  0.2430 -1.6522
 6253SOL    HW230393   4.466   0.733  16.812  0.6532 -0.3777 -0.2858
 6254SOL     OW30394   3.513   1.354  12.247  0.2130 -0.4690  0.1516
 6254SOL    HW130395   3.553   1.285  12.300  1.0457  0.8053  1.1881
 6254SOL    HW230396   3.472   1.400  12.321  1.8326  3.4408 -1.3681
 6255SOL     OW30397   3.620   4.202  12.479  0.3152  0.2398 -0.3854
 6255SOL    HW130398   3.691   4.144  12.452  0.6544 -0.2507  1.5734
 6255SOL    HW230399   3.635   4.196  12.574  1.9336  0.3059 -0.6288
 6256SOL     OW30400   4.153   0.143  17.021 -0.0333  0.3390  0.0233
 6256SOL    HW130401   4.205   0.220  17.043 -2.3708  1.1647  2.6134
 6256SOL    HW230402   4.225   0.083  17.041  0.7504  1.8693  1.7669
 6257SOL     OW30403   1.433   3.796   3.881  0.2903  0.1899 -0.0858
 6257SOL    HW130404   1.517   3.821   3.844  0.3577 -0.6995 -0.5164
 6257SOL    HW230405   1.375   3.821   3.809  0.4006 -1.5232 -0.7645
 6258SOL     OW30406   3.270   3.599   8.347  0.0702 -0.1335 -0.0371
 6258SOL    HW130407   3.295   3.667   8.409  0.3451 -0.0734 -0.2148
 6258SOL    HW230408   3.175   3.602   8.343  0.1115 -0.3878 -1.2035
 6259SOL     OW30409   2.603   4.044   4.839  0.3958 -0.2642 -0.1612
 6259SOL    HW130410   2.681   4.031   4.893  0.1453 -1.0672  0.0116
 6259SOL    HW230411   2.559   3.966   4.873 -1.8221  1.3221  0.6231
 6260SOL     OW30412   0.930   2.077   3.606  0.0605 -0.0514 -0.0663
 6260SOL    HW130413   0.948   2.019   3.531 -2.0618 -0.4897 -0.2377
 6260SOL    HW230414   0.865   2.139   3.573  0.2090  0.0192 -0.2319
 6261SOL     OW30415   1.879   3.779   0.016  0.3620 -0.1867 -0.0958
 6261SOL    HW130416   1.847   3.862  17.744  0.3636 -0.9299 -1.8204
 6261SOL    HW230417   1.941   3.760  17.709 -0.6857 -1.1196 -0.7909
 6262SOL     OW30418   3.384   2.972   9.598  1.0500 -0.3512 -0.0120
 6262SOL    HW130419   3.452   2.914   9.633 -0.0640 -0.8224  1.3598
 6262SOL    HW230420   3.408   3.051   9.646  0.5484 -0.9430  1.2119
 6263SOL     OW30421   4.169   4.419  16.875 -0.7173  0.3025 -0.3370
 6263SOL    HW130422   4.092   4.462  16.912 -0.9243  0.2534 -0.7032
 6263SOL    HW230423   4.166   4.331  16.911  2.8714  0.0945 -0.4910
 6264SOL     OW30424   2.827   1.148   7.276 -0.4385 -0.0891 -0.3125
 6264SOL    HW130425   2.901   1.111   7.324 -1.3114 -1.0904  0.2753
 6264SOL    HW230426   2.802   1.068   7.230 -1.0901 -0.4998  0.7377
 6265SOL     OW30427   3.292   4.349   5.327 -0.3893  0.5650  0.6196
 6265SOL    HW130428   3.247   4.269   5.299  0.3984  0.3038  0.0954
 6265SOL    HW230429   3.268   4.417   5.264 -1.5759  0.0204  0.4791
 6266SOL     OW30430   3.776   3.979   4.865 -0.0105 -0.4532 -0.1283
 6266SOL    HW130431   3.746   4.059   4.909 -1.5398 -1.1885  0.1689
 6266SOL    HW230432   3.764   3.997   4.772  0.5793 -0.5551 -0.2218
 6267SOL     OW30433   1.374   0.380  10.409 -0.4915 -0.1147  0.0439
 6267SOL    HW130434   1.372   0.326  10.488 -1.1541  1.9657  1.4499
 6267SOL    HW230435   1.323   0.331  10.345  0.8936 -1.3186 -0.1472
 6268SOL     OW30436   2.571   3.583  14.790 -0.4279 -0.5276  0.0781
 6268SOL    HW130437   2.617   3.603  14.708 -0.6719 -0.2858  0.0012
 6268SOL    HW230438   2.641   3.550  14.847 -2.6361 -0.4275  2.8175
 6269SOL     OW30439   4.240   1.335   6.632  0.3899  0.0894 -0.9551
 6269SOL    HW130440   4.299   1.376   6.569  1.7541 -1.2250 -0.5319
 6269SOL    HW230441   4.282   1.321   6.716 -0.2884  2.0504 -0.2777
 6270SOL     OW30442   2.376   1.836  16.808 -0.1571 -0.4633 -0.1811
 6270SOL    HW130443   2.429   1.842  16.887  1.1591 -0.4175 -1.0633
 6270SOL    HW230444   2.433   1.799  16.741 -2.1155 -2.5280 -0.7283
 6271SOL     OW30445   1.225   0.121  13.901 -0.0058  0.6050 -0.0045
 6271SOL    HW130446   1.294   0.060  13.875 -0.7686 -0.8809  1.4329
 6271SOL    HW230447   1.184   0.138  13.817 -0.1145  1.9403  0.3239
 6272SOL     OW30448   1.563   4.144   1.178 -0.4835 -0.2968 -0.4700
 6272SOL    HW130449   1.566   4.112   1.088 -0.4482  1.9201 -1.2568
 6272SOL    HW230450   1.470   4.163   1.192 -0.2282  1.3287 -0.9946
 6273SOL     OW30451   4.451   4.289  15.053 -0.2540 -0.2308 -0.2019
 6273SOL    HW130452   4.358   4.269  15.068 -0.7631  1.3586 -1.3128
 6273SOL    HW230453   4.464   4.253  14.966 -0.1376 -2.7806  0.8482
 6274SOL     OW30454   2.539   0.851  13.865 -1.0177 -0.4880  0.2220
 6274SOL    HW130455   2.522   0.869  13.957 -1.2928 -0.1712  0.1090
 6274SOL    HW230456   2.570   0.761  13.875 -0.5477 -0.1718  1.5550
 6275SOL     OW30457   0.885   4.699  13.275 -0.1040  0.1241 -0.1421
 6275SOL    HW130458   0.880   4.608  13.246  0.2337  0.1675 -0.3318
 6275SOL    HW230459   0.813   4.736  13.225 -1.0435  0.1206  1.1965
 6276SOL     OW30460   2.343   0.497   8.656  0.2644  0.1449  0.3045
 6276SOL    HW130461   2.416   0.447   8.620 -1.0554 -1.8093  0.3406
 6276SOL    HW230462   2.390   0.558   8.712  0.2100 -0.9533  1.5402
 6277SOL     OW30463   2.604   0.558   6.316 -0.6586 -0.6211 -0.2678
 6277SOL    HW130464   2.577   0.647   6.294  0.2363  0.0188  1.2034
 6277SOL    HW230465   2.585   0.557   6.410  0.7644  0.8377  0.0515
 6278SOL     OW30466   0.163   1.633   3.256 -0.2037  0.3605  0.6417
 6278SOL    HW130467   0.105   1.557   3.253 -1.2496  1.1373  1.1762
 6278SOL    HW230468   0.175   1.640   3.161  2.5220 -1.8528  0.8216
 6279SOL     OW30469   4.378   2.944  13.701  0.4786 -0.0595  0.1283
 6279SOL    HW130470   4.405   2.895  13.624 -4.0345 -0.9933 -0.8590
 6279SOL    HW230471   4.370   2.870  13.761 -2.6618 -0.8251 -1.2650
 6280SOL     OW30472   4.539   3.789   8.071 -0.3897  0.0016 -0.3281
 6280SOL    HW130473   4.542   3.730   7.995  0.7837 -0.9646  0.4728
 6280SOL    HW230474   4.460   3.832   8.039  1.5279  3.0477 -1.0151
 6281SOL     OW30475   0.950   2.613   7.704 -0.3739 -0.1271  0.8429
 6281SOL    HW130476   0.864   2.647   7.727  0.0220  0.0842  1.9989
 6281SOL    HW230477   0.929   2.520   7.714  0.4566 -0.4214 -0.1115
 6282SOL     OW30478   0.692   1.559  16.322 -0.2084  0.2251  0.5492
 6282SOL    HW130479   0.654   1.647  16.312 -0.8352 -0.0891  0.1732
 6282SOL    HW230480   0.612   1.510  16.344 -1.4937  0.4523 -3.5447
 6283SOL     OW30481   1.369   1.028   7.904 -0.2278  0.3211  0.2488
 6283SOL    HW130482   1.354   1.102   7.962 -0.4937  1.2549 -1.0298
 6283SOL    HW230483   1.282   0.988   7.898  0.2321 -0.4204 -1.7180
 6284SOL     OW30484   1.650   2.877  11.544 -0.0786 -0.0983  0.6692
 6284SOL    HW130485   1.567   2.863  11.591 -0.9689 -0.8308 -1.0962
 6284SOL    HW230486   1.652   2.807  11.478 -0.7668  1.3002 -0.8509
 6285SOL     OW30487   0.468   1.134   5.024 -0.8444 -0.5307  0.2912
 6285SOL    HW130488   0.408   1.060   5.016 -0.6904 -0.4759 -1.3804
 6285SOL    HW230489   0.513   1.093   5.098  2.1073  0.4642 -0.9674
 6286SOL     OW30490   4.608   0.495   2.505 -0.0065  0.4138  0.2659
 6286SOL    HW130491   4.517   0.520   2.490  0.1323  0.5263 -0.3824
 6286SOL    HW230492   4.629   0.547   2.583 -1.2117 -0.1367  0.9480
 6287SOL     OW30493   4.500   4.460   3.809 -0.0428  0.7335 -1.0918
 6287SOL    HW130494   4.588   4.460   3.846 -1.5561  0.4183  2.5339
 6287SOL    HW230495   4.447   4.423   3.879  1.0814  0.8495 -0.1757
 6288SOL     OW30496   4.163   0.853  12.378  0.2342  0.0548  0.3740
 6288SOL    HW130497   4.177   0.900  12.296  1.7661  0.0227  0.6121
 6288SOL    HW230498   4.138   0.771  12.335  1.7368 -0.2995  0.1967
 6289SOL     OW30499   3.290   2.722   5.133 -0.6680  0.2031 -0.0716
 6289SOL    HW130500   3.320   2.631   5.130  0.8692  0.6401  2.7234
 6289SOL    HW230501   3.370   2.758   5.171 -2.1040  1.5318  1.6520
 6290SOL     OW30502   3.453   3.097   0.158  0.0930  0.8296  0.1351
 6290SOL    HW130503   3.422   3.150   0.232  1.0266  1.5307  0.0173
 6290SOL    HW230504   3.517   3.040   0.200 -0.3514  2.6022  3.2230
 6291SOL     OW30505   1.021   4.480   4.074  0.0249 -0.1955 -0.0566
 6291SOL    HW130506   0.926   4.487   4.068  0.1216  0.3600 -0.9348
 6291SOL    HW230507   1.041   4.392   4.043  1.0581  0.1501 -0.3502
 6292SOL     OW30508   2.232   0.990   3.498 -0.4200  0.7595  0.0256
 6292SOL    HW130509   2.279   1.024   3.574 -0.0959 -1.4232  0.8112
 6292SOL    HW230510   2.206   0.902   3.525  0.4663  0.4734 -0.0487
 6293SOL     OW30511   3.880   2.983   7.501  0.2310 -0.7312 -0.1622
 6293SOL    HW130512   3.832   2.922   7.446 -0.6976  0.8509 -1.1097
 6293SOL    HW230513   3.809   3.041   7.531 -0.1933 -2.5965  2.4518
 6294SOL     OW30514   3.109   0.455   8.845 -0.4160 -0.2774 -0.0899
 6294SOL    HW130515   3.191   0.483   8.887 -0.6629  0.5246 -0.1536
 6294SOL    HW230516   3.039   0.518   8.857 -1.8516 -1.5626 -1.6883
 6295SOL     OW30517   4.256   0.626   7.138 -0.4610 -0.3283 -0.2010
 6295SOL    HW130518   4.215   0.711   7.154  0.4654  0.2566 -0.9567
 6295SOL    HW230519   4.319   0.620   7.210 -0.2358 -0.8097 -0.4388
 6296SOL     OW30520   1.157   2.734   3.638 -0.1870  0.6801 -0.4148
 6296SOL    HW130521   1.155   2.661   3.577 -0.4738 -0.1166  0.5456
 6296SOL    HW230522   1.065   2.762   3.638 -0.6772 -0.9253  2.8291
 6297SOL     OW30523   2.299   1.616   2.431  0.1656 -0.5852 -0.2053
 6297SOL    HW130524   2.299   1.706   2.398  2.8292  0.0226  1.4212
 6297SOL    HW230525   2.227   1.588   2.375 -0.1755  0.9330 -0.5468
 6298SOL     OW30526   3.241   1.135   7.957 -0.4516  0.0514 -0.1530
 6298SOL    HW130527   3.259   1.101   8.044 -0.2800  3.7417  1.2900
 6298SOL    HW230528   3.150   1.106   7.959  0.0395 -1.3525  1.4764
 6299SOL     OW30529   2.349   3.384  16.482  0.7367  0.2230  0.2845
 6299SOL    HW130530   2.408   3.382  16.556  0.6381  2.1717  0.4149
 6299SOL    HW230531   2.293   3.461  16.497 -0.1234 -0.1069 -1.2072
 6300SOL     OW30532   3.929   1.839   3.097 -0.3439 -0.1090  0.0832
 6300SOL    HW130533   3.986   1.776   3.053 -2.3159 -0.1710 -2.3954
 6300SOL    HW230534   3.847   1.834   3.047  1.3428 -3.3807 -2.3252
 6301SOL     OW30535   1.977   0.355   9.711 -0.6565  0.1458  0.2638
 6301SOL    HW130536   1.985   0.312   9.796 -0.0411 -0.7501 -0.2483
 6301SOL    HW230537   1.958   0.281   9.653 -2.2497  1.6767 -1.1590
 6302SOL     OW30538   2.022   3.605   0.928 -0.1990 -0.5434 -0.0178
 6302SOL    HW130539   2.051   3.635   0.842  0.2972  0.7710  0.6119
 6302SOL    HW230540   1.984   3.518   0.913 -0.1613 -0.5146 -0.2733
 6303SOL     OW30541   0.610   1.525   8.811  0.6245  0.3708  0.0781
 6303SOL    HW130542   0.523   1.549   8.841  0.8082  2.2253 -0.8887
 6303SOL    HW230543   0.639   1.603   8.765  1.2083  0.4340  0.5551
 6304SOL     OW30544   2.672   4.666  10.796  0.3731  0.0303  0.1655
 6304SOL    HW130545   2.748   4.623  10.834  0.8275 -0.9156 -1.8065
 6304SOL    HW230546   2.597   4.608  10.804  0.0568  0.3646 -0.2958
 6305SOL     OW30547   0.489   2.965   5.140 -1.0298 -0.1440 -1.1022
 6305SOL    HW130548   0.565   2.907   5.148 -0.3442  0.4409 -3.4572
 6305SOL    HW230549   0.527   3.045   5.104  1.6414 -0.7610  0.3785
 6306SOL     OW30550   0.495   3.449  13.641 -0.0994 -0.2041 -0.4254
 6306SOL    HW130551   0.479   3.393  13.565 -0.2683  0.7168 -1.0652
 6306SOL    HW230552   0.567   3.398  13.678 -0.3485  0.6559  1.2447
 6307SOL     OW30553   1.692   0.778   6.499  0.5132 -0.3996  0.1602
 6307SOL    HW130554   1.765   0.812   6.550  0.6261  1.4485 -1.2343
 6307SOL    HW230555   1.633   0.751   6.570  1.4075  2.5438  2.0183
 6308SOL     OW30556   2.617   2.126   6.553  0.1552 -0.1135 -0.1569
 6308SOL    HW130557   2.557   2.076   6.498 -0.4588  0.2911  0.1552
 6308SOL    HW230558   2.552   2.184   6.591 -0.5440 -0.1905 -1.2537
 6309SOL     OW30559   4.390   3.388   5.211 -0.3549  0.3739 -0.1808
 6309SOL    HW130560   4.388   3.417   5.302  1.8976  1.3674 -0.4385
 6309SOL    HW230561   4.474   3.342   5.202 -0.8922 -0.5210 -0.6569
 6310SOL     OW30562   1.411   0.267   2.163 -0.2190  0.5943  0.0889
 6310SOL    HW130563   1.446   0.190   2.207 -1.3732 -1.3556 -2.3977
 6310SOL    HW230564   1.389   0.222   2.082  1.6756 -1.4040  0.6943
 6311SOL     OW30565   0.395   0.148   7.974 -0.2947 -0.1362  0.1691
 6311SOL    HW130566   0.465   0.084   7.990  0.0946  0.9180  2.5284
 6311SOL    HW230567   0.318   0.099   8.002 -0.2547  1.3192  2.7561
 6312SOL     OW30568   3.789   4.380   5.625 -0.7433  0.1489  0.6256
 6312SOL    HW130569   3.885   4.379   5.630 -0.6824 -0.6900 -0.7444
 6312SOL    HW230570   3.772   4.409   5.536  0.5021  2.5773  1.1755
 6313SOL     OW30571   2.368   1.014  11.157  0.2494 -0.2327 -1.1024
 6313SOL    HW130572   2.421   0.945  11.196  2.0945  2.5067  1.2572
 6313SOL    HW230573   2.283   1.007  11.199  0.1077 -0.6914 -1.4671
 6314SOL     OW30574   2.294   4.533   7.963 -0.0375 -0.4885 -0.0278
 6314SOL    HW130575   2.336   4.592   7.900 -0.7658  1.5741  1.4382
 6314SOL    HW230576   2.207   4.526   7.924  0.4324 -1.8599 -0.8527
 6315SOL     OW30577   3.898   4.371  14.105  0.0566  0.0810 -0.3739
 6315SOL    HW130578   3.879   4.277  14.111  0.1812  0.0412 -0.6366
 6315SOL    HW230579   3.950   4.373  14.185  0.1539 -0.4121 -0.4243
 6316SOL     OW30580   4.328   2.755   2.014 -0.0867  0.0114  0.3249
 6316SOL    HW130581   4.380   2.739   2.093  1.6189  1.7554 -0.4573
 6316SOL    HW230582   4.331   2.851   2.022 -1.8410  0.1049 -0.0217
 6317SOL     OW30583   2.171   3.955   7.511 -0.2736  0.1082 -0.0699
 6317SOL    HW130584   2.166   4.021   7.580  1.3222  0.6082 -0.4483
 6317SOL    HW230585   2.076   3.942   7.501 -0.3102  1.8914 -1.9841
 6318SOL     OW30586   1.848   2.673  15.122 -0.0239 -0.1160  0.5762
 6318SOL    HW130587   1.857   2.671  15.218 -3.2195 -2.4728  0.8589
 6318SOL    HW230588   1.820   2.585  15.097  1.8017 -0.4440 -0.2905
 6319SOL     OW30589   1.081   4.543   2.451  0.1055 -0.3234 -0.3931
 6319SOL    HW130590   1.150   4.507   2.507  1.0565 -1.1919 -2.1086
 6319SOL    HW230591   1.074   4.637   2.466 -0.9285 -0.4340 -0.1820
 6320SOL     OW30592   0.142   1.365  17.189 -0.5788  0.3846  0.1992
 6320SOL    HW130593   0.131   1.448  17.143  1.2813 -0.4240 -1.6958
 6320SOL    HW230594   0.201   1.388  17.261  0.7765  1.0399 -1.1358
 6321SOL     OW30595   4.436   1.119   8.726 -0.6375 -0.1828 -0.0918
 6321SOL    HW130596   4.426   1.024   8.719  0.5095 -0.5535  3.4724
 6321SOL    HW230597   4.475   1.121   8.813  0.6381  0.5462 -0.6793
 6322SOL     OW30598   1.279   4.418   2.609 -0.7609 -0.1322 -0.2387
 6322SOL    HW130599   1.239   4.335   2.635 -0.1573 -0.4332 -0.2634
 6322SOL    HW230600   1.333   4.379   2.539  1.7298 -0.1900  1.7163
 6323SOL     OW30601   3.080   0.144   6.385  0.0128  0.3476  0.4116
 6323SOL    HW130602   3.066   0.057   6.422  0.2449  0.0211 -0.2639
 6323SOL    HW230603   3.043   0.126   6.298 -3.5675 -0.0975  2.0559
 6324SOL     OW30604   0.928   1.527   6.900 -0.5574  0.0025  0.2238
 6324SOL    HW130605   0.906   1.551   6.810  0.3816  0.2692  0.0731
 6324SOL    HW230606   0.939   1.615   6.938  0.7340  0.4209 -1.1138
 6325SOL     OW30607   2.283   0.946   4.237 -0.2886 -0.0398  0.1217
 6325SOL    HW130608   2.337   0.875   4.203  0.0712  0.4652 -0.3742
 6325SOL    HW230609   2.325   0.946   4.323 -1.0146 -1.2803  0.4666
 6326SOL     OW30610   1.489   0.697  12.955  0.7995 -0.1358  1.0046
 6326SOL    HW130611   1.532   0.657  13.031  0.5489 -0.0306  1.2017
 6326SOL    HW230612   1.489   0.616  12.904 -1.6381 -0.2921  1.2260
 6327SOL     OW30613   1.533   3.288   0.758  0.0970 -0.4106 -0.1232
 6327SOL    HW130614   1.508   3.273   0.849  0.4350  2.8511  0.5168
 6327SOL    HW230615   1.479   3.359   0.724 -2.0560 -3.3117 -2.6970
 6328SOL     OW30616   0.837   1.665  16.534 -0.2411 -0.0502 -0.0321
 6328SOL    HW130617   0.801   1.602  16.472 -0.8356 -0.2847  0.5585
 6328SOL    HW230618   0.799   1.627  16.613 -0.2624 -2.1167 -1.0345
 6329SOL     OW30619   2.668   3.570   7.888  0.1110 -1.1095  0.0018
 6329SOL    HW130620   2.642   3.594   7.977  0.5842  0.1368 -0.2005
 6329SOL    HW230621   2.759   3.597   7.878  0.6743 -2.5706  1.3049
 6330SOL     OW30622   0.947   0.042   7.426  0.1830 -0.3790  0.1365
 6330SOL    HW130623   0.892   0.096   7.370  1.4064  0.5452 -0.1673
 6330SOL    HW230624   1.033   0.080   7.410  0.3287  0.1246  2.0307
 6331SOL     OW30625   2.754   3.463   5.859  0.0560  0.0564  0.0060
 6331SOL    HW130626   2.664   3.487   5.836 -0.4996 -0.7226  1.3330
 6331SOL    HW230627   2.738   3.378   5.901  2.8168 -0.2222  0.4724
 6332SOL     OW30628   4.002   3.405  10.631 -0.0651  0.4178 -0.0953
 6332SOL    HW130629   3.989   3.489  10.588 -0.7048  1.0164  1.2804
 6332SOL    HW230630   3.951   3.410  10.711  1.3684  1.0381  0.7890
 6333SOL     OW30631   0.178   1.174   4.513 -0.0145  0.0869  0.7041
 6333SOL    HW130632   0.240   1.239   4.481 -1.7035  0.9125 -0.8889
 6333SOL    HW230633   0.162   1.127   4.431  0.1256  2.2729 -0.5633
 6334SOL     OW30634   3.061   4.270   6.314  0.3898  0.7385 -0.1268
 6334SOL    HW130635   2.969   4.260   6.290  0.4813 -0.8170  0.2154
 6334SOL    HW230636   3.095   4.200   6.258 -1.1677 -0.6196  0.6190
 6335SOL     OW30637   3.212   4.610   8.978 -0.2724 -0.7556 -0.1359
 6335SOL    HW130638   3.255   4.549   9.037 -2.7746 -0.9008  1.5418
 6335SOL    HW230639   3.156   4.549   8.930 -1.7247  0.6215 -0.2272
 6336SOL     OW30640   2.435   1.357   4.818 -0.0281  0.6136 -0.2632
 6336SOL    HW130641   2.446   1.385   4.727  1.0953 -2.2501 -0.9820
 6336SOL    HW230642   2.510   1.394   4.864 -0.1466 -1.1126  1.3114
 6337SOL     OW30643   3.289   1.364  13.357  0.0235  0.5615 -0.8243
 6337SOL    HW130644   3.228   1.317  13.414  0.0875  1.0577 -0.3584
 6337SOL    HW230645   3.309   1.431  13.421 -0.9283  0.7722 -0.7571
 6338SOL     OW30646   3.679   0.963   6.252  0.0248 -0.1496 -0.2748
 6338SOL    HW130647   3.663   0.913   6.172  0.1279 -1.1119  0.3158
 6338SOL    HW230648   3.661   0.898   6.319 -1.6268 -0.5819 -1.1489
 6339SOL     OW30649   2.543   3.608  10.039 -0.2786  0.3565  0.6058
 6339SOL    HW130650   2.503   3.628   9.955 -0.3710 -1.5884  0.1991
 6339SOL    HW230651   2.512   3.684  10.088 -1.8708 -0.4400  0.8123
 6340SOL     OW30652   1.793   3.335   5.111  0.1412  0.0239  0.3190
 6340SOL    HW130653   1.762   3.426   5.115  1.2198  0.4388 -0.9769
 6340SOL    HW230654   1.888   3.347   5.116  0.0173  1.0405  0.3783
 6341SOL     OW30655   2.718   3.210   5.983 -0.1452  0.4695 -0.4303
 6341SOL    HW130656   2.623   3.206   5.975 -0.0143 -1.7276 -0.9656
 6341SOL    HW230657   2.746   3.141   5.922 -0.5042 -0.2313  0.1981
 6342SOL     OW30658   1.697   2.188  17.392  0.3114 -0.1302 -0.8094
 6342SOL    HW130659   1.760   2.169  17.461  1.8685  0.7169 -2.0162
 6342SOL    HW230660   1.629   2.128  17.424  0.5243  0.5100  0.8253
 6343SOL     OW30661   0.500   1.318   3.668 -0.4832  0.0756  0.2284
 6343SOL    HW130662   0.448   1.322   3.748 -0.3389  1.3247  0.2546
 6343SOL    HW230663   0.544   1.237   3.694  4.2551  2.4309 -0.3388
 6344SOL     OW30664   3.611   2.377   3.718  0.1470  0.6608  0.4170
 6344SOL    HW130665   3.654   2.292   3.704 -0.4417  0.3825  0.3207
 6344SOL    HW230666   3.635   2.382   3.810 -0.5478 -0.2033  0.6430
 6345SOL     OW30667   1.011   4.604   1.414 -0.0269  0.2864 -0.1392
 6345SOL    HW130668   0.986   4.545   1.343  0.8259  1.5623 -1.5111
 6345SOL    HW230669   0.968   4.574   1.494  0.6127 -0.6539 -0.1552
 6346SOL     OW30670   2.036   2.340   6.977  0.4152  0.1200  0.3652
 6346SOL    HW130671   2.003   2.255   6.951  0.5934 -0.3337  1.6248
 6346SOL    HW230672   1.988   2.373   7.053  0.9044  2.0906 -0.1773
 6347SOL     OW30673   0.422   1.452   8.514 -0.0151 -0.0001 -0.9020
 6347SOL    HW130674   0.387   1.424   8.430 -1.4477  0.3286 -0.4080
 6347SOL    HW230675   0.515   1.463   8.492  0.3576 -0.3823  0.4458
 6348SOL     OW30676   2.354   1.629   2.849 -0.0555 -0.2084 -0.3754
 6348SOL    HW130677   2.348   1.546   2.896  0.8527  0.6022  1.1741
 6348SOL    HW230678   2.270   1.623   2.804 -0.6464 -1.8929  0.9574
 6349SOL     OW30679   4.211   1.030   2.523  0.0539  0.4283 -0.8672
 6349SOL    HW130680   4.276   1.075   2.469  0.6148 -2.0770 -2.2783
 6349SOL    HW230681   4.168   1.107   2.560  0.6574  1.5389 -2.4798
 6350SOL     OW30682   0.198   0.918   2.933  0.3492 -0.1276 -0.2510
 6350SOL    HW130683   0.253   0.966   2.994  0.1643 -0.7374  0.4066
 6350SOL    HW230684   0.210   0.973   2.856 -2.2615  1.2403  0.3007
 6351SOL     OW30685   1.115   0.330   2.467 -0.3072 -0.3033  0.3340
 6351SOL    HW130686   1.076   0.416   2.486  0.5656  0.4631 -1.3649
 6351SOL    HW230687   1.200   0.338   2.511  0.4323 -1.1148 -0.9649
 6352SOL     OW30688   4.606   0.055   4.008 -0.0911  0.1692  0.7324
 6352SOL    HW130689   4.551   0.051   3.930  2.4113 -1.6166 -0.8905
 6352SOL    HW230690   4.661   4.721   3.993  0.2112  0.5201  0.1023
 6353SOL     OW30691   1.336   1.270   1.871  0.1367  0.5718  0.6074
 6353SOL    HW130692   1.309   1.359   1.895 -1.8894 -0.4897  2.2320
 6353SOL    HW230693   1.358   1.224   1.952 -1.4049 -1.5549 -0.1773
 6354SOL     OW30694   2.403   0.445  10.647  0.4106 -0.2025 -0.4729
 6354SOL    HW130695   2.437   0.465  10.560  0.7181 -1.1061 -0.5570
 6354SOL    HW230696   2.454   0.374  10.686  0.6587  0.9185  1.2820
 6355SOL     OW30697   3.427   1.750   6.951 -0.1956 -0.6969  0.0471
 6355SOL    HW130698   3.506   1.702   6.926 -0.3895 -0.6837 -0.5916
 6355SOL    HW230699   3.452   1.786   7.036  2.7198  1.8176 -1.8917
 6356SOL     OW30700   2.602   1.312   1.534 -0.0825  0.0445 -0.1512
 6356SOL    HW130701   2.525   1.368   1.540  1.9532  2.7141  0.8398
 6356SOL    HW230702   2.644   1.341   1.615  0.5057 -0.9076 -0.1108
 6357SOL     OW30703   0.991   3.550   5.801 -0.0913 -0.2684  0.3490
 6357SOL    HW130704   0.958   3.631   5.840  0.1914 -0.5811  1.2403
 6357SOL    HW230705   1.085   3.560   5.786  0.0383 -1.2195  0.4656
 6358SOL     OW30706   4.020   0.357   3.550  0.0741 -0.3279 -0.3865
 6358SOL    HW130707   4.043   0.268   3.575  1.8536 -0.2602 -1.8262
 6358SOL    HW230708   4.059   0.370   3.464  1.6452  2.3235  0.7067
 6359SOL     OW30709   4.157   0.167   1.737  0.3789  0.8103 -0.1463
 6359SOL    HW130710   4.230   0.184   1.678  0.1237  0.0159 -0.7003
 6359SOL    HW230711   4.093   0.132   1.675  2.1950 -1.3559 -0.8258
 6360SOL     OW30712   1.689   4.633   6.157 -0.4674 -0.5913  0.7804
 6360SOL    HW130713   1.715   4.677   6.238  1.6295  2.2027 -1.4083
 6360SOL    HW230714   1.705   4.708   6.100  2.0790 -2.9623 -1.5954
 6361SOL     OW30715   3.488   3.144   7.860  0.5775 -1.0102 -0.3908
 6361SOL    HW130716   3.564   3.196   7.834 -0.4119  0.2102 -0.8312
 6361SOL    HW230717   3.435   3.155   7.781 -0.1363 -1.4901  0.0125
 6362SOL     OW30718   4.400   1.618   7.943  0.3398  0.1258  0.2120
 6362SOL    HW130719   4.332   1.579   7.998 -1.4006 -0.6038 -2.4580
 6362SOL    HW230720   4.464   1.643   8.010  0.9649 -1.8619  0.3604
 6363SOL     OW30721   2.491   0.885   7.306 -0.4576  0.5339 -0.4279
 6363SOL    HW130722   2.455   0.807   7.264 -2.4128  1.0351  0.3282
 6363SOL    HW230723   2.528   0.845   7.385 -0.0966  0.6758 -0.5247
 6364SOL     OW30724   0.602   4.304  14.055  0.1043 -0.1875 -0.4552
 6364SOL    HW130725   0.601   4.282  13.962  0.5120 -1.9226 -0.0345
 6364SOL    HW230726   0.510   4.333  14.059  1.0836  2.6947  1.1555
 6365SOL     OW30727   1.230   0.571   6.385 -0.1945 -0.2142 -0.1458
 6365SOL    HW130728   1.165   0.523   6.437 -0.0373  0.4654  0.6937
 6365SOL    HW230729   1.307   0.516   6.401 -0.4904 -0.9045 -1.1289
 6366SOL     OW30730   1.773   1.557  15.296 -0.1537 -0.1097 -0.0068
 6366SOL    HW130731   1.839   1.596  15.354 -0.1075  2.0704 -1.5085
 6366SOL    HW230732   1.771   1.469  15.333 -1.0826 -0.6570 -1.3452
 6367SOL     OW30733   1.910   4.255   0.033 -0.0949 -0.4936  0.0922
 6367SOL    HW130734   1.850   4.296   0.096 -0.1519  1.1447 -1.0535
 6367SOL    HW230735   1.992   4.261   0.082 -0.3540  3.6329 -0.0395
 6368SOL     OW30736   3.706   2.445   7.324 -0.3024 -0.1419 -0.3820
 6368SOL    HW130737   3.628   2.396   7.300 -0.0396 -1.0691  0.6660
 6368SOL    HW230738   3.758   2.435   7.245  0.7202  0.3586  0.2242
 6369SOL     OW30739   2.477   1.357   5.705 -0.1604 -0.3166 -0.3552
 6369SOL    HW130740   2.461   1.439   5.752 -2.3050 -0.6218 -0.5489
 6369SOL    HW230741   2.385   1.333   5.702 -0.1419 -0.4873  0.6031
 6370SOL     OW30742   2.813   3.293   2.926 -0.1368  0.0870 -0.3067
 6370SOL    HW130743   2.881   3.246   2.877  0.0791 -1.1122  1.1330
 6370SOL    HW230744   2.738   3.258   2.878  2.1520  0.5366 -4.2182
 6371SOL     OW30745   1.745   2.125   8.119  0.3727  0.5201  0.3060
 6371SOL    HW130746   1.743   2.188   8.191  1.1744 -0.8614  1.5339
 6371SOL    HW230747   1.794   2.179   8.057 -0.6135 -0.3052 -1.1803
 6372SOL     OW30748   4.705   2.152   6.366 -0.6505  0.2626  0.0912
 6372SOL    HW130749   4.679   2.190   6.282  1.6571  0.5049 -0.5131
 6372SOL    HW230750   0.029   2.213   6.401 -0.8713  0.0037  0.9639
 6373SOL     OW30751   1.287   1.368  11.855 -0.4723 -0.4529  0.3889
 6373SOL    HW130752   1.250   1.390  11.940  0.7992  0.7985  0.6270
 6373SOL    HW230753   1.267   1.455  11.819 -0.9273 -0.1690  1.3198
 6374SOL     OW30754   1.347   4.184  17.481 -0.0276  0.3445  0.3349
 6374SOL    HW130755   1.377   4.156  17.568 -0.8429  0.1181  0.5511
 6374SOL    HW230756   1.429   4.195  17.434 -0.0610 -0.9113 -0.0261
 6375SOL     OW30757   0.286   3.006   4.766 -0.2211 -0.6755 -0.5247
 6375SOL    HW130758   0.380   2.988   4.753  0.0849  0.8520 -0.3642
 6375SOL    HW230759   0.286   3.101   4.764  1.2558 -0.6598  0.1134
 6376SOL     OW30760   4.259   0.400  15.373  0.5805 -0.1142  0.3939
 6376SOL    HW130761   4.296   0.485  15.349 -0.7732  0.0590 -1.0792
 6376SOL    HW230762   4.174   0.403  15.330  0.6469 -0.4871  0.2393
 6377SOL     OW30763   1.410   2.930   7.804  0.6622 -0.2628 -0.4308
 6377SOL    HW130764   1.412   2.961   7.895  0.4830  1.7419 -1.1083
 6377SOL    HW230765   1.316   2.917   7.794  1.1204 -3.3236 -0.4857
 6378SOL     OW30766   0.650   2.663   5.940  0.0686  0.3728 -0.1575
 6378SOL    HW130767   0.639   2.701   6.027  0.2004 -0.1445  0.0881
 6378SOL    HW230768   0.593   2.587   5.954  0.1157  0.6099  1.3134
 6379SOL     OW30769   3.172   3.850   3.699 -0.3209  0.1220  0.1103
 6379SOL    HW130770   3.244   3.854   3.762 -2.0122 -1.8987  2.1656
 6379SOL    HW230771   3.212   3.825   3.615  0.5388  0.5750  0.3805
 6380SOL     OW30772   1.450   0.485   6.836 -0.5861  0.5917 -0.3219
 6380SOL    HW130773   1.532   0.449   6.870 -0.3577  1.2271 -0.2132
 6380SOL    HW230774   1.401   0.405   6.815  0.7666 -0.4453  0.4731
 6381SOL     OW30775   1.655   0.050   1.946 -0.2622 -0.7167  0.9237
 6381SOL    HW130776   1.602   0.033   1.868 -0.5505  0.4157  0.8624
 6381SOL    HW230777   1.714   4.721   1.921 -1.4052 -1.7310  1.1207
 6382SOL     OW30778   4.336   1.650   6.198 -0.1767  0.3496  0.1575
 6382SOL    HW130779   4.335   1.555   6.196 -0.7570  0.3334  1.4062
 6382SOL    HW230780   4.257   1.670   6.147 -0.8393 -0.8569  0.7387
 6383SOL     OW30781   4.157   3.010   6.967 -0.5774  0.1694 -0.2067
 6383SOL    HW130782   4.151   2.963   6.884  0.5957 -0.4230  0.0309
 6383SOL    HW230783   4.211   3.084   6.939 -1.9719  0.8231 -1.1723
 6384SOL     OW30784   2.229   4.331   9.494 -0.1713  0.5664  0.0753
 6384SOL    HW130785   2.241   4.336   9.399  1.1261  0.7318  0.2521
 6384SOL    HW230786   2.168   4.404   9.502 -0.3260  0.4293  0.1497
 6385SOL     OW30787   3.626   2.444   3.008 -0.1733  0.4433  0.1766
 6385SOL    HW130788   3.709   2.416   3.047 -0.8161  0.5670  1.5911
 6385SOL    HW230789   3.649   2.443   2.915  1.4196  1.7226  0.5443
 6386SOL     OW30790   2.596   2.639   1.293 -0.1430  0.4610  0.1824
 6386SOL    HW130791   2.511   2.681   1.285 -1.2029 -1.5855  0.6638
 6386SOL    HW230792   2.635   2.647   1.205  3.1383 -0.4318  1.5547
 6387SOL     OW30793   2.380   2.516   3.659  0.3383  0.9759  0.8112
 6387SOL    HW130794   2.432   2.436   3.656 -1.7166 -0.3103 -0.7178
 6387SOL    HW230795   2.306   2.494   3.716 -0.5254  0.0279 -0.6823
 6388SOL     OW30796   3.398   3.892  17.063  0.2003 -0.2083 -0.2799
 6388SOL    HW130797   3.400   3.967  17.004  2.3922 -0.1077 -0.0737
 6388SOL    HW230798   3.305   3.893  17.088  0.1111 -0.8127 -0.5864
 6389SOL     OW30799   2.055   3.738  12.832 -0.3727 -0.6365 -0.3750
 6389SOL    HW130800   2.042   3.797  12.906 -0.7002  0.4920 -1.3226
 6389SOL    HW230801   2.084   3.802  12.767  0.0617 -1.1296 -0.6607
 6390SOL     OW30802   2.489   1.713  10.316  0.2104 -0.6259  0.5647
 6390SOL    HW130803   2.426   1.691  10.248  1.8223 -0.7586 -0.8658
 6390SOL    HW230804   2.462   1.644  10.378 -1.1109 -0.3675  0.2884
 6391SOL     OW30805   2.308   1.683   8.137  0.2536 -0.7726  0.8923
 6391SOL    HW130806   2.362   1.664   8.060  1.2735 -0.1605  1.4502
 6391SOL    HW230807   2.326   1.607   8.192  1.7547  1.1388  3.0913
 6392SOL     OW30808   0.136   2.681   7.310 -0.2025  0.0575  0.5768
 6392SOL    HW130809   0.222   2.643   7.290 -0.6655 -0.0025 -1.2486
 6392SOL    HW230810   0.139   2.695   7.405  0.9338  3.2527  0.0655
 6393SOL     OW30811   4.016   3.319   2.000 -0.0502 -0.2943 -0.1554
 6393SOL    HW130812   4.047   3.409   1.991 -0.2199 -0.4128 -1.9261
 6393SOL    HW230813   4.037   3.283   1.914 -2.1711  1.2073 -1.2646
 6394SOL     OW30814   2.075   4.305   9.801  0.4749 -0.2659 -0.4001
 6394SOL    HW130815   2.071   4.253   9.721  1.7495  0.5200 -0.9801
 6394SOL    HW230816   2.116   4.248   9.866 -1.5081 -1.4629 -0.1936
 6395SOL     OW30817   1.613   1.902  17.418  0.5194 -0.3500  0.2571
 6395SOL    HW130818   1.553   1.949  17.361  1.3474  0.9039  0.4343
 6395SOL    HW230819   1.556   1.868  17.487 -0.3020  0.7400  0.1154
 6396SOL     OW30820   1.600   1.573   1.976 -0.2506  0.4807 -0.5746
 6396SOL    HW130821   1.562   1.495   2.016  0.5147  0.1629 -0.4679
 6396SOL    HW230822   1.688   1.543   1.951 -0.4133 -1.9044  1.7368
 6397SOL     OW30823   0.476   4.346   4.781 -0.1479 -0.8339 -0.0901
 6397SOL    HW130824   0.386   4.339   4.813  0.8447  1.5716  3.1737
 6397SOL    HW230825   0.517   4.393   4.854  0.0866 -0.1421 -0.6730
 6398SOL     OW30826   0.069   2.212   2.258  0.2342 -0.2540 -0.5904
 6398SOL    HW130827   0.144   2.241   2.311 -1.7008  3.2127  0.2483
 6398SOL    HW230828   0.002   2.230   2.323 -0.2821  1.9982 -1.7360
 6399SOL     OW30829   0.133   1.821   6.991  0.5204 -0.2511 -0.3796
 6399SOL    HW130830   0.135   1.888   6.922 -0.8567  1.2106  0.9788
 6399SOL    HW230831   0.212   1.853   7.034  0.5970  0.7355 -1.2478
 6400SOL     OW30832   1.834   4.507  10.657 -0.1241 -0.3505  0.6056
 6400SOL    HW130833   1.836   4.576  10.724 -0.6122 -1.2517  1.5392
 6400SOL    HW230834   1.740   4.501  10.646 -0.1141 -1.3368  1.1236
 6401SOL     OW30835   4.685   2.484  10.634 -0.0230  0.1745  0.4865
 6401SOL    HW130836   0.019   2.427  10.620 -1.0392 -1.3001  0.9536
 6401SOL    HW230837   4.710   2.540  10.707 -2.5074 -0.2321  1.6626
 6402SOL     OW30838   0.618   1.343   8.327 -0.4777  0.1078 -0.3391
 6402SOL    HW130839   0.593   1.312   8.240 -0.6822  0.2531 -0.3310
 6402SOL    HW230840   0.688   1.285   8.356 -0.0684 -1.4950 -4.5260
 6403SOL     OW30841   1.503   0.115   9.115  0.1034  0.0655  0.4081
 6403SOL    HW130842   1.591   0.116   9.076 -0.5436  1.7365 -1.0104
 6403SOL    HW230843   1.532   0.173   9.186 -0.2284  2.0386 -1.0650
 6404SOL     OW30844   1.887   3.644   1.454  0.2893  0.5966 -0.1759
 6404SOL    HW130845   1.902   3.616   1.364 -0.9859 -2.4512  0.5577
 6404SOL    HW230846   1.958   3.708   1.456  0.2321  0.5714  2.1276
 6405SOL     OW30847   0.958   1.513   8.324  0.2624  0.3184 -0.0990
 6405SOL    HW130848   0.918   1.572   8.389  0.4471  0.4084 -0.0659
 6405SOL    HW230849   0.895   1.499   8.254  2.1920 -0.3280 -1.7277
 6406SOL     OW30850   4.731   4.623   2.755  0.4121  0.2329 -0.1817
 6406SOL    HW130851   0.051   4.694   2.736  2.0610 -1.7861 -2.4342
 6406SOL    HW230852   4.672   4.635   2.680  1.9897  1.3917 -1.2399
 6407SOL     OW30853   4.540   0.100  13.557  0.3703 -0.0637 -0.6149
 6407SOL    HW130854   4.450   0.069  13.562 -0.4083  2.4092  0.5061
 6407SOL    HW230855   4.544   0.172  13.621  0.8691 -1.6858  1.1911
 6408SOL     OW30856   1.309   3.757   1.182 -0.3624  0.3933  0.3695
 6408SOL    HW130857   1.257   3.810   1.242 -0.0983  0.4449  0.5511
 6408SOL    HW230858   1.330   3.824   1.117 -0.5780  1.3245  1.2621
 6409SOL     OW30859   2.874   0.603   8.470 -0.0180  0.0003 -0.1720
 6409SOL    HW130860   2.891   0.509   8.457 -0.3357 -0.4051  2.4083
 6409SOL    HW230861   2.853   0.600   8.563 -2.6361  0.5497 -0.7244
 6410SOL     OW30862   0.323   0.959   6.951  0.1007  0.4080 -0.1393
 6410SOL    HW130863   0.355   1.048   6.937 -1.9422  0.4909 -3.9606
 6410SOL    HW230864   0.408   0.918   6.966 -1.2775 -1.4802  2.5375
 6411SOL     OW30865   1.625   2.675   0.025 -0.1111 -0.4490  0.1711
 6411SOL    HW130866   1.700   2.677   0.085 -1.1075 -1.2477  1.4644
 6411SOL    HW230867   1.600   2.766   0.037  0.0988 -0.5041  1.0671
 6412SOL     OW30868   3.027   3.560   8.809  0.2228  0.3236  0.6747
 6412SOL    HW130869   3.000   3.641   8.853 -0.1617  1.5056 -1.7606
 6412SOL    HW230870   2.979   3.573   8.728 -1.7789 -2.7350  1.4006
 6413SOL     OW30871   2.451   1.282  10.391  0.6764 -0.0835 -0.4352
 6413SOL    HW130872   2.410   1.275  10.305 -1.6733  2.0833  0.5294
 6413SOL    HW230873   2.428   1.374  10.400  0.0575 -0.3301  0.5683
 6414SOL     OW30874   3.267   2.565   2.004 -0.1312  0.4258 -0.5507
 6414SOL    HW130875   3.211   2.580   1.927 -0.0166  0.8489 -0.5515
 6414SOL    HW230876   3.322   2.643   1.995  0.7050  0.2383  3.0839
 6415SOL     OW30877   3.262   1.960  17.171 -0.1040 -0.5278 -0.3229
 6415SOL    HW130878   3.202   1.887  17.160 -0.2457 -0.5854  0.8572
 6415SOL    HW230879   3.328   1.910  17.219  1.2792  0.5757 -1.0504
 6416SOL     OW30880   2.584   0.676   8.411 -0.5876 -0.3673 -0.2012
 6416SOL    HW130881   2.656   0.614   8.404 -0.6664 -0.4134 -0.5759
 6416SOL    HW230882   2.586   0.685   8.507  0.5581 -3.6447  0.0787
 6417SOL     OW30883   3.226   4.184   7.474  0.5435  0.1512 -0.3178
 6417SOL    HW130884   3.284   4.192   7.398  0.9773 -3.0743 -0.3132
 6417SOL    HW230885   3.267   4.115   7.526 -1.6807 -0.8600  0.1132
 6418SOL     OW30886   0.547   0.070   6.644 -0.5892 -0.9682 -0.1659
 6418SOL    HW130887   0.488   0.088   6.571 -1.7238  0.9074  1.2167
 6418SOL    HW230888   0.599   0.005   6.596 -1.4053 -1.6701 -0.1006
 6419SOL     OW30889   0.940   0.896  14.603  0.5374 -0.1863 -0.5166
 6419SOL    HW130890   0.846   0.892  14.621  0.5550  0.8107 -0.2011
 6419SOL    HW230891   0.949   0.991  14.594 -2.3101  0.3503  2.0840
 6420SOL     OW30892   0.693   3.122   1.560 -0.6354  0.0029  0.2203
 6420SOL    HW130893   0.657   3.183   1.496  1.0840 -0.0924 -0.8134
 6420SOL    HW230894   0.686   3.029   1.538 -0.6162  0.4458 -1.6725
 6421SOL     OW30895   2.385   2.950   6.819 -0.3175  0.1582  0.2848
 6421SOL    HW130896   2.459   3.011   6.830  0.2562 -0.1309 -1.9192
 6421SOL    HW230897   2.422   2.866   6.846  3.4398  2.3918  2.1317
 6422SOL     OW30898   4.440   2.463   3.878 -0.3163  0.0638 -0.1146
 6422SOL    HW130899   4.411   2.478   3.968 -3.6262 -0.8287 -1.0503
 6422SOL    HW230900   4.375   2.402   3.843 -0.9877  0.4469  0.4682
 6423SOL     OW30901   3.882   2.340  13.981  0.1646 -0.4227  0.1447
 6423SOL    HW130902   3.897   2.268  14.042 -0.7291  0.7734  1.7750
 6423SOL    HW230903   3.788   2.346  14.001  0.6035  1.5830  1.5035
 6424SOL     OW30904   0.903   0.842  11.577  0.6442  0.1565 -0.1392
 6424SOL    HW130905   0.985   0.838  11.626 -0.4643  1.1312  1.7816
 6424SOL    HW230906   0.843   0.787  11.628 -1.4971  0.5486 -2.2018
 6425SOL     OW30907   0.213   2.911  17.093  0.2615 -0.3385 -0.1989
 6425SOL    HW130908   0.158   2.931  17.169  0.4465  0.8998 -0.3850
 6425SOL    HW230909   0.281   2.855  17.131 -1.4649 -0.5584  2.5599
 6426SOL     OW30910   0.974   2.111   6.768 -0.1269 -0.5118  0.2111
 6426SOL    HW130911   1.021   2.189   6.797  2.9871 -1.8964 -1.0080
 6426SOL    HW230912   1.049   2.078   6.718 -0.5220  1.8836 -1.9201
 6427SOL     OW30913   3.073   2.532   5.470 -0.2697  0.0395 -0.0585
 6427SOL    HW130914   3.015   2.571   5.404  0.2834  0.1074 -0.5062
 6427SOL    HW230915   3.136   2.601   5.491 -0.6753  0.1455  0.8117
 6428SOL     OW30916   2.233   4.482   1.185 -0.6308  0.8933  0.5187
 6428SOL    HW130917   2.293   4.496   1.259 -0.1743  3.0312 -0.2856
 6428SOL    HW230918   2.172   4.429   1.236 -2.4401  1.5332 -0.9989
 6429SOL     OW30919   4.442   4.726   4.434  0.3082 -0.0632 -0.5316
 6429SOL    HW130920   4.477   0.043   4.367 -2.1158  3.2258  1.0254
 6429SOL    HW230921   4.439   4.641   4.390  1.1479 -0.9093  1.0416
 6430SOL     OW30922   2.848   4.106   4.184  0.4405 -0.3521 -0.6550
 6430SOL    HW130923   2.805   4.038   4.236  2.7700 -1.1315  0.2731
 6430SOL    HW230924   2.811   4.076   4.101 -0.1224 -1.4470 -0.0055
 6431SOL     OW30925   1.230   0.150   0.260 -0.0230  0.2057  0.2518
 6431SOL    HW130926   1.234   0.239   0.295 -3.2247  1.1436 -1.7281
 6431SOL    HW230927   1.322   0.126   0.267 -0.2558 -1.0178 -1.1197
 6432SOL     OW30928   1.965   3.831  10.589 -0.0150  0.6381 -0.1209
 6432SOL    HW130929   1.879   3.822  10.630  0.4596 -2.6301  0.1882
 6432SOL    HW230930   1.999   3.882  10.663  1.4272 -1.9254  1.0112
 6433SOL     OW30931   2.884   3.516   1.648  0.5315  0.8235  0.5507
 6433SOL    HW130932   2.968   3.536   1.606 -0.1186  0.5419 -0.9001
 6433SOL    HW230933   2.903   3.429   1.681 -1.2437  0.2371  0.0342
 6434SOL     OW30934   1.383   0.489   1.782  1.0669 -0.3575  0.1772
 6434SOL    HW130935   1.377   0.409   1.833  2.4922  0.5206  1.6955
 6434SOL    HW230936   1.309   0.535   1.821 -0.0504 -3.9566  2.2708
 6435SOL     OW30937   2.759   0.832   7.645  0.0580 -0.4674  0.0888
 6435SOL    HW130938   2.710   0.781   7.581  1.1644  1.9610 -2.6862
 6435SOL    HW230939   2.701   0.825   7.721  0.3998 -1.1585  0.2913
 6436SOL     OW30940   0.861   1.182   7.218  0.1942  0.2899  0.1698
 6436SOL    HW130941   0.843   1.171   7.311 -1.9494 -0.3433 -0.3245
 6436SOL    HW230942   0.948   1.143   7.218  0.4156  0.7843 -0.7522
 6437SOL     OW30943   4.427   2.583   9.074 -0.3623  0.2685  0.0342
 6437SOL    HW130944   4.390   2.671   9.086 -1.5105 -0.1575 -0.3304
 6437SOL    HW230945   4.458   2.557   9.160 -1.7782 -0.5882  0.2897
 6438SOL     OW30946   2.412   2.667   7.369 -0.4513 -0.9038 -0.2610
 6438SOL    HW130947   2.397   2.602   7.438 -1.5848 -1.4903 -1.0512
 6438SOL    HW230948   2.323   2.660   7.333  0.0900 -1.0661 -1.5327
 6439SOL     OW30949   2.475   2.169   6.175 -0.0545  0.1488 -0.7999
 6439SOL    HW130950   2.435   2.251   6.204 -1.3601 -0.9354  0.4320
 6439SOL    HW230951   2.395   2.117   6.175 -0.1752  0.3315 -0.3791
 6440SOL     OW30952   0.356   0.784  10.028 -0.1522  0.3806  0.0180
 6440SOL    HW130953   0.308   0.846  10.082  1.1589 -0.0924  1.7413
 6440SOL    HW230954   0.426   0.841   9.996  1.4304 -1.6801 -0.2622
 6441SOL     OW30955   1.251   1.088  10.466 -0.4349  0.0233 -0.3840
 6441SOL    HW130956   1.298   1.148  10.408  0.3905 -1.9547 -1.7320
 6441SOL    HW230957   1.176   1.133  10.506 -0.1488  1.2201 -1.2206
 6442SOL     OW30958   1.760   2.396   0.135  0.3412  0.5565  0.5192
 6442SOL    HW130959   1.804   2.445   0.066  2.2519  0.2733  1.5268
 6442SOL    HW230960   1.769   2.455   0.211 -2.9355 -1.0004  2.1172
 6443SOL     OW30961   4.157   0.844  10.208  0.1277 -0.3710  0.1287
 6443SOL    HW130962   4.177   0.829  10.115  0.0042  0.8370 -0.0922
 6443SOL    HW230963   4.085   0.784  10.225 -1.9798  2.4988  1.3631
 6444SOL     OW30964   1.819   0.931   2.519  0.2031 -0.2977  0.0437
 6444SOL    HW130965   1.907   0.932   2.556  0.0170 -0.2190  0.4915
 6444SOL    HW230966   1.791   1.018   2.549 -0.8176 -0.7125  0.2935
 6445SOL     OW30967   4.029   3.392   6.652  0.3816  0.0335  0.1710
 6445SOL    HW130968   4.123   3.376   6.638 -0.0624 -2.3617 -0.1618
 6445SOL    HW230969   4.024   3.345   6.735  1.3327  2.0164  1.3572
 6446SOL     OW30970   3.261   1.494   3.131  0.0210  0.2339  0.4361
 6446SOL    HW130971   3.335   1.555   3.141 -0.5396  1.1820 -1.1596
 6446SOL    HW230972   3.282   1.431   3.199  0.8140  1.9770  1.8246
 6447SOL     OW30973   4.420   1.686   0.665  0.1121 -0.0158 -0.3808
 6447SOL    HW130974   4.332   1.662   0.634 -1.4527  2.1373  2.3765
 6447SOL    HW230975   4.443   1.612   0.722 -1.9002  0.1729  0.6746
 6448SOL     OW30976   0.814   3.704  13.016 -0.3565 -0.0697 -0.1734
 6448SOL    HW130977   0.733   3.667  12.982  0.9827  0.1769 -3.5947
 6448SOL    HW230978   0.808   3.699  13.112 -2.8578 -4.2890 -0.5935
 6449SOL     OW30979   3.535   2.705   6.705  0.4191 -0.1464 -0.3225
 6449SOL    HW130980   3.444   2.721   6.678 -0.3739 -1.1018  1.7284
 6449SOL    HW230981   3.575   2.664   6.628  1.6063  1.9358 -0.7850
 6450SOL     OW30982   1.723   3.667   2.490  0.2669 -0.3360  0.5956
 6450SOL    HW130983   1.758   3.583   2.460 -0.4626 -0.7640  0.9633
 6450SOL    HW230984   1.803   3.707   2.525 -0.4274  0.6614  1.0254
 6451SOL     OW30985   1.721   1.178   2.592 -0.0008 -0.4488 -0.4235
 6451SOL    HW130986   1.631   1.195   2.563  0.2165  0.5136 -0.5577
 6451SOL    HW230987   1.715   1.172   2.688  1.0307  1.2291 -0.2588
 6452SOL     OW30988   1.231   3.108   1.734  0.1645 -0.4147  0.1751
 6452SOL    HW130989   1.305   3.094   1.793 -1.2587  0.0592  2.0674
 6452SOL    HW230990   1.162   3.081   1.794 -0.5680  1.5005  0.1906
 6453SOL     OW30991   4.040   2.096  14.961  0.1535 -0.5214  0.3261
 6453SOL    HW130992   4.022   2.004  14.940  0.6089 -0.6017  0.2950
 6453SOL    HW230993   4.030   2.137  14.875  0.7053 -0.6036  0.2236
 6454SOL     OW30994   0.200   3.885   4.208 -0.8594  0.0712 -0.2150
 6454SOL    HW130995   0.221   3.973   4.175  1.0122 -0.3817 -0.1860
 6454SOL    HW230996   0.159   3.903   4.293 -2.8185 -0.5491 -1.0187
 6455SOL     OW30997   0.544   2.790   4.901 -0.2331  0.1795 -0.0103
 6455SOL    HW130998   0.590   2.811   4.983 -0.5070  0.0475  0.1790
 6455SOL    HW230999   0.449   2.787   4.915 -0.3374  2.4603 -0.2141
 6456SOL     OW31000   1.664   3.127   5.215  0.5590 -0.0283 -0.0387
 6456SOL    HW131001   1.707   3.200   5.169  0.4727 -0.2235 -0.4292
 6456SOL    HW231002   1.652   3.166   5.301 -1.9549  0.5908 -0.6721
 6457SOL     OW31003   3.259   0.131   2.418 -0.6503  0.2704 -0.0822
 6457SOL    HW131004   3.250   0.169   2.505  2.6103  0.2756  0.2547
 6457SOL    HW231005   3.197   0.059   2.428  0.8886 -1.1227 -0.4177
 6458SOL     OW31006   2.935   1.029   7.978 -0.1042  0.1744 -0.0988
 6458SOL    HW131007   2.858   1.055   7.928  0.5807 -0.4845 -1.4887
 6458SOL    HW231008   2.894   1.009   8.062 -0.8319 -0.3015 -0.5735
 6459SOL     OW31009   4.714   1.903   6.295  0.1441 -0.0908  0.0542
 6459SOL    HW131010   0.050   1.922   6.241  1.7134 -0.0915  2.3238
 6459SOL    HW231011   4.692   1.989   6.330 -1.0700 -1.5185  2.7997
 6460SOL     OW31012   1.257   4.098   4.491  0.2476  0.1486 -0.6205
 6460SOL    HW131013   1.210   4.094   4.575 -0.3663  3.1329 -0.8412
 6460SOL    HW231014   1.196   4.048   4.436 -0.9376  2.7381 -1.6288
 6461SOL     OW31015   4.296   4.537  15.615 -0.1433  0.0916 -0.3625
 6461SOL    HW131016   4.257   4.542  15.528 -0.3296 -1.0091 -0.3369
 6461SOL    HW231017   4.365   4.604  15.611 -2.0592  2.1340  0.8700
 6462SOL     OW31018   1.111   3.353  14.469  0.1662 -0.2295 -0.2843
 6462SOL    HW131019   1.106   3.262  14.438 -2.8383  0.2214 -1.1022
 6462SOL    HW231020   1.019   3.378  14.468  0.6496  1.6050  0.9166
 6463SOL     OW31021   0.769   0.622   8.403  0.3955  0.6804 -0.0303
 6463SOL    HW131022   0.676   0.614   8.380 -0.0118 -0.8970  2.1281
 6463SOL    HW231023   0.787   0.541   8.451  2.5585 -0.4213 -2.7081
 6464SOL     OW31024   4.442   1.618   5.213  0.0868  0.1743 -0.1110
 6464SOL    HW131025   4.493   1.544   5.246  0.8297 -0.5274 -2.8120
 6464SOL    HW231026   4.352   1.586   5.223  1.0767 -2.0843  1.5940
 6465SOL     OW31027   4.354   2.306   7.776 -0.4304 -0.4450 -0.2052
 6465SOL    HW131028   4.423   2.303   7.709  0.0549 -2.4412  0.3720
 6465SOL    HW231029   4.329   2.216   7.794  1.4102 -0.6794  1.1792
 6466SOL     OW31030   1.962   4.650   8.751  0.0029  0.6533 -0.2261
 6466SOL    HW131031   1.952   4.583   8.683  0.3653  0.6327 -0.2583
 6466SOL    HW231032   1.878   4.692   8.733 -0.6598 -0.8821 -0.7755
 6467SOL     OW31033   1.003   2.692   9.150 -0.2771  0.3432 -0.2788
 6467SOL    HW131034   0.947   2.622   9.183 -2.0592  2.2615  0.7775
 6467SOL    HW231035   1.093   2.659   9.142  0.6274  2.2784  1.8973
 6468SOL     OW31036   0.708   3.529  12.299  0.8853 -1.0110  0.1310
 6468SOL    HW131037   0.803   3.522  12.297  1.1353  1.9886  1.2682
 6468SOL    HW231038   0.689   3.554  12.208  2.4360 -0.7656 -0.1134
 6469SOL     OW31039   1.391   3.686  10.409 -0.5136  0.2343 -0.0182
 6469SOL    HW131040   1.477   3.699  10.369 -0.0790 -0.5011  0.7027
 6469SOL    HW231041   1.365   3.770  10.447 -0.1420 -0.3333  1.4706
 6470SOL     OW31042   3.831   2.944   3.949  0.0627  0.0142  0.1600
 6470SOL    HW131043   3.776   2.963   4.025 -1.1685 -0.1813 -0.6882
 6470SOL    HW231044   3.915   2.982   3.976  0.6235 -0.6744 -0.6138
 6471SOL     OW31045   0.591   1.926   6.762 -0.0501  0.1426  0.2323
 6471SOL    HW131046   0.498   1.906   6.748  0.4068 -1.9281  0.1585
 6471SOL    HW231047   0.637   1.855   6.717  0.7435  0.9191 -0.1810
 6472SOL     OW31048   2.245   2.230   3.127  0.8582  0.2992  0.6494
 6472SOL    HW131049   2.201   2.163   3.180  0.7116  0.5046  0.7839
 6472SOL    HW231050   2.295   2.176   3.066  0.7204  1.1848 -0.2408
 6473SOL     OW31051   2.950   1.613   1.753  0.3327  0.0227  0.4177
 6473SOL    HW131052   3.040   1.626   1.781  0.9765  0.1603 -1.6941
 6473SOL    HW231053   2.895   1.637   1.828 -0.2565 -2.0088  0.6413
 6474SOL     OW31054   3.196   0.855   6.333 -0.1812 -0.1729 -0.4694
 6474SOL    HW131055   3.231   0.834   6.420  0.1151  0.3920 -0.4593
 6474SOL    HW231056   3.118   0.907   6.351  1.6028  2.1447  0.5075
 6475SOL     OW31057   3.842   4.046  17.422  0.3911 -0.0308 -0.3805
 6475SOL    HW131058   3.820   4.045  17.515 -1.0037  0.7348 -0.6884
 6475SOL    HW231059   3.764   4.009  17.380 -0.8857  0.2722  1.6912
 6476SOL     OW31060   1.418   4.143  16.588  0.4047 -0.2583  0.3959
 6476SOL    HW131061   1.484   4.174  16.526 -0.1903  2.9808  1.3600
 6476SOL    HW231062   1.344   4.190  16.551  3.6084  3.9856 -0.5602
 6477SOL     OW31063   1.822   3.713   3.405  0.9499  0.3899 -0.1102
 6477SOL    HW131064   1.794   3.675   3.488 -0.8930 -0.4188 -1.0980
 6477SOL    HW231065   1.864   3.795   3.431  0.0728  1.1187 -0.9323
 6478SOL     OW31066   2.717   0.389  10.587 -0.3636  0.4188 -0.2603
 6478SOL    HW131067   2.718   0.298  10.615  2.0542  1.5446  3.3729
 6478SOL    HW231068   2.710   0.427  10.675 -0.4087 -3.6866  1.4794
 6479SOL     OW31069   3.225   0.388   8.281 -0.3751  0.3408 -0.5083
 6479SOL    HW131070   3.200   0.480   8.274  1.5260  0.9708  1.1979
 6479SOL    HW231071   3.152   0.348   8.329  0.3851 -0.1936  0.1903
 6480SOL     OW31072   4.319   2.116   7.201  0.3283 -0.8311 -0.7332
 6480SOL    HW131073   4.390   2.167   7.161 -0.4190  0.5089 -0.3430
 6480SOL    HW231074   4.239   2.157   7.170  1.4850 -0.2492 -2.9561
 6481SOL     OW31075   2.473   3.902  10.331 -0.2655  0.4022 -0.2165
 6481SOL    HW131076   2.486   3.989  10.293 -1.4679  0.4921 -0.4529
 6481SOL    HW231077   2.562   3.870  10.325  0.9605  3.4535  1.7087
 6482SOL     OW31078   3.829   4.310   6.923 -0.5420 -0.2423 -0.3566
 6482SOL    HW131079   3.782   4.234   6.889 -0.5894 -1.5313  2.5691
 6482SOL    HW231080   3.893   4.255   6.968 -0.9795 -0.7956 -0.4164
 6483SOL     OW31081   1.254   0.199  14.171  0.4812  0.7684  0.0216
 6483SOL    HW131082   1.216   0.125  14.219 -0.8657  1.4451  0.0100
 6483SOL    HW231083   1.279   0.164  14.085 -0.0608  1.1857 -0.3044
 6484SOL     OW31084   2.133   0.822   5.216 -0.2417  0.5047 -0.3496
 6484SOL    HW131085   2.200   0.844   5.281 -0.2655  1.9325 -0.8113
 6484SOL    HW231086   2.111   0.905   5.173  0.8125 -0.5068 -2.8309
 6485SOL     OW31087   3.023   1.089   6.891 -0.0354  0.5422 -0.0912
 6485SOL    HW131088   3.059   1.049   6.970  0.7047 -0.8730 -1.1433
 6485SOL    HW231089   2.935   1.052   6.895 -0.2755  1.1000 -0.1719
 6486SOL     OW31090   0.670   4.357  12.178  0.0975  0.1861 -0.1907
 6486SOL    HW131091   0.676   4.365  12.083 -0.2968  4.2858  0.1084
 6486SOL    HW231092   0.706   4.271  12.197 -2.4890 -0.6591  0.9251
 6487SOL     OW31093   3.505   3.651   6.989  0.1508 -0.1569  0.8140
 6487SOL    HW131094   3.591   3.611   6.978  0.2221  0.3881 -0.6330
 6487SOL    HW231095   3.498   3.707   6.911  0.6784 -3.3230 -1.5082
 6488SOL     OW31096   3.284   0.326  17.079  0.3137  0.5470 -0.1641
 6488SOL    HW131097   3.245   0.342  17.165  0.0371  0.3593 -0.2537
 6488SOL    HW231098   3.213   0.315  17.015 -0.5045 -0.5043  0.9208
 6489SOL     OW31099   1.699   1.095   1.490 -0.6587  0.5726 -0.5693
 6489SOL    HW131100   1.616   1.086   1.537  0.6014 -2.6876  0.9978
 6489SOL    HW231101   1.764   1.105   1.561  0.3875  1.8074 -1.7081
 6490SOL     OW31102   0.867   0.934   2.758 -0.1818 -0.2986 -0.1184
 6490SOL    HW131103   0.808   0.907   2.687 -0.1721  0.6900 -0.5149
 6490SOL    HW231104   0.950   0.924   2.711 -0.0339 -1.2126  0.3423
 6491SOL     OW31105   4.065   2.838   5.492  0.1721 -0.0631  0.2084
 6491SOL    HW131106   4.079   2.747   5.465  1.9956  0.3018 -0.0550
 6491SOL    HW231107   4.115   2.894   5.433 -1.8111 -1.7878 -3.1772
 6492SOL     OW31108   1.600   3.833   2.193  0.0735 -0.3953 -0.8807
 6492SOL    HW131109   1.607   3.888   2.116 -0.8293  1.3755  0.2938
 6492SOL    HW231110   1.633   3.748   2.165 -0.5524  0.1527 -3.2315
 6493SOL     OW31111   2.384   4.640   2.748  0.7077 -0.1865 -0.4990
 6493SOL    HW131112   2.315   4.678   2.694 -0.6821 -0.5001  1.0650
 6493SOL    HW231113   2.464   4.643   2.696 -0.1087  1.5598 -1.6553
 6494SOL     OW31114   1.522   0.695   3.430  0.1391 -0.2634  0.0759
 6494SOL    HW131115   1.567   0.756   3.488 -0.9931 -1.2125  1.9534
 6494SOL    HW231116   1.581   0.620   3.427 -0.3371 -0.5966 -1.1837
 6495SOL     OW31117   1.113   4.348  16.979 -0.0881 -0.3971 -0.0869
 6495SOL    HW131118   1.161   4.295  16.915 -2.5564 -0.7678 -1.6049
 6495SOL    HW231119   1.025   4.311  16.972 -0.8113  1.8108 -2.2695
 6496SOL     OW31120   3.786   3.746  10.379 -0.9026  0.6286  0.0736
 6496SOL    HW131121   3.750   3.684  10.442 -0.4685 -0.6432 -0.9275
 6496SOL    HW231122   3.778   3.829  10.426 -0.3226  0.8250 -0.1730
 6497SOL     OW31123   1.100   4.707   6.483  1.1062  0.2477  0.2519
 6497SOL    HW131124   1.124   4.736   6.395  1.6329  2.0968  1.0188
 6497SOL    HW231125   1.051   0.032   6.531 -2.6563 -2.2034 -0.1354
 6498SOL     OW31126   0.646   4.055  10.048 -0.5314 -0.2303 -0.2234
 6498SOL    HW131127   0.599   4.042  10.130  0.4888 -2.2127  0.0485
 6498SOL    HW231128   0.569   4.046   9.992  1.3954 -3.9866 -2.2699
 6499SOL     OW31129   3.983   1.934   4.733 -0.5090 -0.2747 -0.0257
 6499SOL    HW131130   3.971   1.996   4.662  1.6052 -0.7179 -0.7897
 6499SOL    HW231131   4.074   1.916   4.709 -0.1258 -0.3225  1.4399
 6500SOL     OW31132   1.258   3.006  14.748 -0.0475  0.3996  0.2754
 6500SOL    HW131133   1.347   3.026  14.776 -0.2062  1.0485  0.3102
 6500SOL    HW231134   1.283   2.922  14.708 -2.1546 -1.3262  2.5860
 6501SOL     OW31135   1.324   0.694   5.917 -0.1633  0.2528  0.2290
 6501SOL    HW131136   1.248   0.722   5.967 -1.3112  1.3386 -2.1571
 6501SOL    HW231137   1.378   0.649   5.982 -0.6468  0.6710  0.9109
 6502SOL     OW31138   2.156   3.152   5.923 -0.8785  0.1443 -0.1281
 6502SOL    HW131139   2.108   3.070   5.910  1.3554 -1.5393  2.4102
 6502SOL    HW231140   2.125   3.207   5.851 -0.1339  0.6305 -0.0789
 6503SOL     OW31141   1.729   0.385   6.939 -0.2684 -0.8440 -0.2992
 6503SOL    HW131142   1.803   0.427   6.895  0.0031 -1.0864 -0.0687
 6503SOL    HW231143   1.782   0.313   6.974  0.1931 -0.7821 -0.8636
 6504SOL     OW31144   4.420   4.361   1.930  0.0455  0.0351 -0.5830
 6504SOL    HW131145   4.446   4.354   2.021  0.6058  0.1433 -0.7347
 6504SOL    HW231146   4.492   4.314   1.887  0.3479  0.0939 -0.1295
 6505SOL     OW31147   2.370   1.518   5.094  0.1978 -0.2778  0.5208
 6505SOL    HW131148   2.292   1.505   5.040 -0.9296  0.3088  1.9897
 6505SOL    HW231149   2.370   1.426   5.123 -0.7983 -0.2105  0.7503
 6506SOL     OW31150   0.361   1.665   2.788  0.2114 -0.0321  0.4450
 6506SOL    HW131151   0.349   1.679   2.694 -1.4584  2.2795  1.0041
 6506SOL    HW231152   0.393   1.575   2.786 -2.9845 -1.0926 -2.5120
 6507SOL     OW31153   1.603   0.694   4.436 -0.3429  0.2946 -0.4586
 6507SOL    HW131154   1.594   0.682   4.530  2.5293  0.8248 -0.1199
 6507SOL    HW231155   1.562   0.780   4.426 -0.2770  0.1939 -1.5685
 6508SOL     OW31156   2.103   3.421  14.436 -0.6473  0.1555 -0.2482
 6508SOL    HW131157   2.111   3.367  14.358  2.4821 -0.1310  0.2898
 6508SOL    HW231158   2.177   3.481  14.429 -1.0441  0.7386  0.5749
 6509SOL     OW31159   4.458   3.367   4.817 -0.0404 -0.0464 -0.5784
 6509SOL    HW131160   4.537   3.358   4.763 -0.5615 -1.0359 -1.1700
 6509SOL    HW231161   4.461   3.282   4.861  0.0862  0.3855  0.2443
 6510SOL     OW31162   1.305   3.618   4.244 -0.0617  0.2240  0.0009
 6510SOL    HW131163   1.244   3.593   4.175  0.2658 -0.5095 -0.0204
 6510SOL    HW231164   1.375   3.553   4.241 -0.9544 -0.7477  0.3522
 6511SOL     OW31165   3.429   2.180  16.873 -0.5172 -0.5654  0.5317
 6511SOL    HW131166   3.398   2.175  16.964  1.2834 -1.1427  1.1104
 6511SOL    HW231167   3.482   2.259  16.873 -1.3076 -0.0419 -0.3274
 6512SOL     OW31168   1.155   1.434   3.617  0.0290  0.2346 -0.7032
 6512SOL    HW131169   1.150   1.511   3.675 -1.6130 -1.0684  0.8928
 6512SOL    HW231170   1.247   1.408   3.619  0.2629  1.0136 -1.1745
 6513SOL     OW31171   0.771   3.510   8.968  1.1400  0.8684 -0.4170
 6513SOL    HW131172   0.838   3.560   8.922  0.0698  0.4585 -2.4206
 6513SOL    HW231173   0.824   3.434   8.994  2.5787  1.3661 -1.9264
 6514SOL     OW31174   4.604   1.697   8.133  0.0124  0.4464  0.5700
 6514SOL    HW131175   4.640   1.616   8.168 -2.6948 -0.3199  1.5582
 6514SOL    HW231176   4.689   1.739   8.123  0.7838 -1.9282 -2.4824
 6515SOL     OW31177   4.646   3.195   8.609 -0.7005  0.1458  0.2975
 6515SOL    HW131178   4.737   3.224   8.603 -0.2383 -1.8218 -2.4031
 6515SOL    HW231179   4.598   3.263   8.657 -1.5414 -0.2136 -0.0350
 6516SOL     OW31180   2.749   3.216   7.116  0.3804 -0.1146 -0.2826
 6516SOL    HW131181   2.686   3.184   7.181 -0.3874 -0.8992 -1.4197
 6516SOL    HW231182   2.689   3.249   7.049  0.5384  0.5926 -0.0733
 6517SOL     OW31183   3.811   3.305   8.972  0.2660  0.0429 -0.1411
 6517SOL    HW131184   3.843   3.248   8.903  0.3694 -0.7794  0.5904
 6517SOL    HW231185   3.865   3.383   8.960 -3.2132  2.6892  1.3778
 6518SOL     OW31186   1.943   2.671   7.070  0.2707 -0.7555  0.5366
 6518SOL    HW131187   1.850   2.650   7.063  0.2416 -0.6562  0.6256
 6518SOL    HW231188   1.948   2.689   7.163  0.1414 -1.6860  0.7233
 6519SOL     OW31189   4.278   0.532  17.296 -0.3319 -0.1617 -0.3961
 6519SOL    HW131190   4.243   0.595  17.360 -0.9568 -1.2278  0.3084
 6519SOL    HW231191   4.364   0.572  17.278  0.3164 -0.3115  2.3368
 6520SOL     OW31192   3.510   3.105   9.828  0.0118 -0.0001 -0.0894
 6520SOL    HW131193   3.442   3.171   9.823 -1.0894 -1.1567 -0.3945
 6520SOL    HW231194   3.462   3.028   9.860 -2.6360  1.0568 -1.5050
 6521SOL     OW31195   2.179   1.069   1.595 -0.2703  0.3944 -0.3724
 6521SOL    HW131196   2.089   1.036   1.598 -0.6687  1.2571 -2.7970
 6521SOL    HW231197   2.214   1.014   1.665  1.9687  0.1448 -1.6737
 6522SOL     OW31198   3.664   3.303  10.764 -0.0705 -0.1070  0.5474
 6522SOL    HW131199   3.681   3.210  10.779  1.8502  0.3914  1.4448
 6522SOL    HW231200   3.592   3.285  10.704  0.5914 -2.6767  0.5214
 6523SOL     OW31201   4.487   2.357   4.193 -0.1373  0.1502 -0.0837
 6523SOL    HW131202   4.484   2.365   4.288  2.0311  2.0549 -0.1942
 6523SOL    HW231203   4.422   2.422   4.166  0.4403  0.9417  0.4421
 6524SOL     OW31204   3.370   4.613  15.089  0.3939 -0.1936 -0.3555
 6524SOL    HW131205   3.466   4.613  15.090  0.3905 -0.3778  0.6578
 6524SOL    HW231206   3.362   4.608  15.185 -1.7648 -2.7509 -0.6732
 6525SOL     OW31207   1.580   2.685  11.815 -0.0697  0.0425 -0.5056
 6525SOL    HW131208   1.524   2.742  11.760  0.1512  0.1128 -0.6570
 6525SOL    HW231209   1.642   2.739  11.864  2.1074 -1.0407 -2.0907
 6526SOL     OW31210   0.343   1.729   5.756 -0.4129  0.1696  0.9745
 6526SOL    HW131211   0.266   1.785   5.742  0.9173  1.6414 -0.4165
 6526SOL    HW231212   0.374   1.767   5.838  1.6379  1.5796 -0.4758
 6527SOL     OW31213   4.726   2.969   6.580 -0.5330  0.8123 -0.6548
 6527SOL    HW131214   0.020   3.052   6.551  2.3237 -0.2336 -0.1505
 6527SOL    HW231215   0.058   2.921   6.618  1.1218  2.5084 -1.7978
 6528SOL     OW31216   3.212   1.234   6.212 -0.4517  0.4175  0.0114
 6528SOL    HW131217   3.277   1.283   6.160 -0.2110  1.8520  1.6752
 6528SOL    HW231218   3.267   1.215   6.288 -1.7123 -2.2201  0.2502
 6529SOL     OW31219   3.637   2.760  11.468 -0.4389 -0.0825 -0.5308
 6529SOL    HW131220   3.724   2.783  11.501 -0.2612  0.2180 -1.2015
 6529SOL    HW231221   3.574   2.815  11.516 -1.0298 -1.9285  0.8285
 6530SOL     OW31222   2.185   2.134  14.946  0.1529 -0.0430  0.6198
 6530SOL    HW131223   2.238   2.138  15.025  0.2542  2.5171  0.4287
 6530SOL    HW231224   2.249   2.142  14.874 -1.0360  0.7738 -0.3416
 6531SOL     OW31225   1.200   3.043   5.693  0.1847 -0.0372 -0.2825
 6531SOL    HW131226   1.111   3.013   5.712 -1.2402  3.6312 -1.3938
 6531SOL    HW231227   1.254   2.976   5.736 -0.2052 -0.6424 -0.7265
 6532SOL     OW31228   1.313   4.005   3.698  0.0114  0.6313  0.2504
 6532SOL    HW131229   1.232   4.048   3.723 -0.3087  1.2792 -1.8968
 6532SOL    HW231230   1.375   4.077   3.690  1.0788 -0.1390  1.4966
 6533SOL     OW31231   4.253   3.599   9.853 -0.1335  0.0383  0.0234
 6533SOL    HW131232   4.324   3.642   9.805  0.8894 -2.9240 -1.1168
 6533SOL    HW231233   4.176   3.654   9.839  0.0583  0.2033 -0.3909
 6534SOL     OW31234   3.571   3.882   3.269 -0.3634 -0.1882 -0.0438
 6534SOL    HW131235   3.548   3.960   3.219 -0.0006 -0.2766 -0.3504
 6534SOL    HW231236   3.665   3.878   3.256 -0.2566  2.0810  0.1131
 6535SOL     OW31237   0.644   0.819  12.906 -0.7319  0.2103 -0.6666
 6535SOL    HW131238   0.691   0.898  12.931 -0.1206 -0.9777  1.9590
 6535SOL    HW231239   0.693   0.798  12.827  0.5653  2.5172 -0.4804
 6536SOL     OW31240   4.203   4.329   6.830  0.2124  0.0744  0.1363
 6536SOL    HW131241   4.271   4.389   6.798  1.5972 -1.9753 -0.7278
 6536SOL    HW231242   4.127   4.358   6.779  1.3679  0.0602 -1.6263
 6537SOL     OW31243   2.640   3.525   9.108 -0.0623 -0.4649  0.6410
 6537SOL    HW131244   2.718   3.470   9.105  1.4236  1.4772  3.5412
 6537SOL    HW231245   2.668   3.593   9.169  0.2085  0.5541 -0.6244
 6538SOL     OW31246   1.906   1.937   5.667  0.0047 -0.4408 -0.2571
 6538SOL    HW131247   1.829   1.993   5.658 -0.2193 -0.5356  1.0862
 6538SOL    HW231248   1.879   1.873   5.601  0.2374 -1.3720  0.5388
 6539SOL     OW31249   0.673   3.779   8.058  0.2939  0.2055  0.1560
 6539SOL    HW131250   0.657   3.686   8.043 -1.1748  0.4877 -0.0673
 6539SOL    HW231251   0.647   3.820   7.975  1.0760  1.1850  0.3903
 6540SOL     OW31252   3.693   4.539   1.395  0.1708  0.3457 -0.2003
 6540SOL    HW131253   3.684   4.617   1.449 -0.1922 -1.3755  2.2153
 6540SOL    HW231254   3.787   4.531   1.412  0.1754  0.5784 -0.1261
 6541SOL     OW31255   2.431   4.109   2.901 -0.6398  0.2092 -0.2956
 6541SOL    HW131256   2.450   4.194   2.862  0.9374 -0.4786 -1.0136
 6541SOL    HW231257   2.340   4.093   2.877  0.4182 -2.3336 -2.5389
 6542SOL     OW31258   4.126   2.725   8.914  0.1356 -0.2117  0.1742
 6542SOL    HW131259   4.174   2.684   8.987  1.1912 -0.2152 -0.5207
 6542SOL    HW231260   4.056   2.662   8.901 -0.5715  0.9869 -1.8006
 6543SOL     OW31261   3.957   4.690   1.933  0.6516  0.6663  0.7171
 6543SOL    HW131262   3.862   4.701   1.930  0.5346 -0.5563 -0.0866
 6543SOL    HW231263   3.973   4.611   1.881 -1.7926 -1.6102  3.3890
 6544SOL     OW31264   2.554   1.745   9.093  0.3637  0.0254  0.0018
 6544SOL    HW131265   2.595   1.831   9.104  1.0797 -0.1900 -0.9744
 6544SOL    HW231266   2.579   1.702   9.011  1.4348  0.2002  0.2388
 6545SOL     OW31267   3.314   0.337   7.357  0.0786  0.0822 -0.2638
 6545SOL    HW131268   3.231   0.379   7.336  0.0556  0.2555  0.1728
 6545SOL    HW231269   3.323   0.347   7.452  0.9302 -0.7995 -0.2538
 6546SOL     OW31270   3.927   1.542  17.108 -0.6024 -0.5689 -0.2096
 6546SOL    HW131271   3.846   1.538  17.057 -0.2095 -2.2193 -0.7221
 6546SOL    HW231272   4.001   1.516  17.054 -1.1915 -0.1823 -1.1989
 6547SOL     OW31273   3.825   2.742   6.256 -0.2620  0.4174 -0.2120
 6547SOL    HW131274   3.899   2.794   6.224 -0.2556  1.9035  2.2105
 6547SOL    HW231275   3.806   2.683   6.183  0.9055 -1.8928  1.3324
 6548SOL     OW31276   2.266   2.150   4.962  0.4553 -0.3307 -0.1469
 6548SOL    HW131277   2.317   2.231   4.965  1.0079 -0.5968 -2.2958
 6548SOL    HW231278   2.181   2.175   4.998  0.3848  0.1850 -0.6704
 6549SOL     OW31279   1.304   3.200   4.269  0.6038  0.0328 -0.4394
 6549SOL    HW131280   1.346   3.279   4.235  1.8417  0.3745  1.8308
 6549SOL    HW231281   1.285   3.160   4.185 -2.2846 -1.5672  0.9784
 6550SOL     OW31282   0.091   0.885  15.319  0.2225 -0.3445 -0.2892
 6550SOL    HW131283   0.161   0.943  15.349  0.6757 -0.7699 -0.5458
 6550SOL    HW231284   0.138   0.821  15.267 -0.4146 -1.5005  0.5634
 6551SOL     OW31285   2.013   3.160  14.674 -0.2326  0.7734  0.1529
 6551SOL    HW131286   2.064   3.202  14.604  1.3222  3.8715  3.1317
 6551SOL    HW231287   2.051   3.201  14.752 -1.4237 -0.6458  1.4770
 6552SOL     OW31288   1.139   3.344  10.827  0.2677 -0.1894  1.2989
 6552SOL    HW131289   1.045   3.329  10.821  0.6845 -1.4816 -1.8740
 6552SOL    HW231290   1.177   3.258  10.844 -2.0778 -1.5259 -0.2992
 6553SOL     OW31291   2.709   1.435   4.749  0.9249  0.4918  0.5171
 6553SOL    HW131292   2.713   1.520   4.707  2.9074 -0.5507 -1.3950
 6553SOL    HW231293   2.753   1.441   4.834  2.1936 -0.8408 -0.0399
 6554SOL     OW31294   3.124   1.916  12.501  0.3237  0.3245  0.2102
 6554SOL    HW131295   3.033   1.889  12.512 -0.4767  1.7169 -3.1926
 6554SOL    HW231296   3.160   1.866  12.574  1.0047 -1.9650 -1.6976
 6555SOL     OW31297   0.791   3.129  12.342 -0.0277  0.6896  0.4646
 6555SOL    HW131298   0.734   3.067  12.388 -0.4506 -0.7128 -1.9227
 6555SOL    HW231299   0.849   3.068  12.295  0.6765  1.4755  0.3214
 6556SOL     OW31300   4.402   4.399   0.360 -0.0809 -0.2160 -0.4588
 6556SOL    HW131301   4.370   4.422   0.448  0.4589 -1.8968  0.1683
 6556SOL    HW231302   4.339   4.451   0.310 -1.0154 -0.5738  0.3416
 6557SOL     OW31303   2.847   1.114   1.963 -1.1332  0.0163  0.5694
 6557SOL    HW131304   2.909   1.179   1.929 -0.7066 -1.7442 -2.0633
 6557SOL    HW231305   2.774   1.121   1.901  0.6106  0.1351 -1.4946
 6558SOL     OW31306   4.035   2.533  13.383  0.1407 -1.2695  0.5490
 6558SOL    HW131307   4.076   2.517  13.468 -0.8043 -3.3117  0.6216
 6558SOL    HW231308   4.107   2.526  13.320  0.3221  2.3869  0.3484
 6559SOL     OW31309   1.321   1.258   8.049  0.0321  0.1243  0.2634
 6559SOL    HW131310   1.272   1.339   8.034  0.0353 -0.0133 -0.5364
 6559SOL    HW231311   1.300   1.243   8.141  2.6088 -3.9435  0.1822
 6560SOL     OW31312   4.126   1.599  13.037 -0.2546  1.1552 -0.2184
 6560SOL    HW131313   4.055   1.644  12.991  0.4481  0.5384 -1.9147
 6560SOL    HW231314   4.142   1.663  13.107 -1.7755  0.2016  1.0122
 6561SOL     OW31315   3.498   4.117  13.111  0.6378 -0.4709 -0.4441
 6561SOL    HW131316   3.403   4.131  13.105  0.9996  1.6804 -1.1503
 6561SOL    HW231317   3.499   4.101  13.206 -0.7655  0.4255 -0.2712
 6562SOL     OW31318   2.650   2.181  13.920 -0.6652  0.3257 -0.0201
 6562SOL    HW131319   2.725   2.171  13.861 -2.6275 -1.4390 -2.2199
 6562SOL    HW231320   2.689   2.210  14.002 -0.9949 -0.9697  0.5857
 6563SOL     OW31321   0.804   0.215  16.450 -0.9355 -0.0801  0.0801
 6563SOL    HW131322   0.874   0.195  16.512  0.5378 -1.7817 -2.1301
 6563SOL    HW231323   0.730   0.209  16.511  0.2948 -0.7711  1.5198
 6564SOL     OW31324   1.094   0.980   8.265 -0.1747  0.8205 -0.1844
 6564SOL    HW131325   1.163   0.968   8.331 -1.0655  0.2945  0.6556
 6564SOL    HW231326   1.038   0.905   8.288 -0.5857  1.3679  0.6189
 6565SOL     OW31327   2.194   2.856   4.628  0.2363 -0.0981  0.0106
 6565SOL    HW131328   2.244   2.932   4.657  0.6840 -0.5486  0.4131
 6565SOL    HW231329   2.134   2.900   4.567 -0.9945  0.3048  1.5195
 6566SOL     OW31330   4.599   1.971   6.737  0.1858  0.1184 -0.0899
 6566SOL    HW131331   4.558   2.026   6.804  1.7882  0.1327  0.8805
 6566SOL    HW231332   4.540   1.995   6.665 -2.2172 -1.3312  1.4250
 6567SOL     OW31333   0.592   3.593   7.571  0.1268 -0.2436 -0.3234
 6567SOL    HW131334   0.518   3.533   7.582 -0.1641  0.6239  2.1968
 6567SOL    HW231335   0.653   3.575   7.643  0.6339  1.1081 -0.4206
 6568SOL     OW31336   2.325   2.174   3.530  0.3282 -0.2020  0.1299
 6568SOL    HW131337   2.397   2.210   3.479  1.4931  1.3368  2.8722
 6568SOL    HW231338   2.361   2.100   3.578 -0.1996 -1.6009 -1.6176
 6569SOL     OW31339   4.351   4.222   9.202 -0.0706  0.1061  0.0600
 6569SOL    HW131340   4.445   4.201   9.202  0.3800  2.1470  0.1963
 6569SOL    HW231341   4.348   4.317   9.192 -0.2005 -0.0417 -1.2815
 6570SOL     OW31342   0.416   0.197   5.544 -0.0272  0.3034 -0.1136
 6570SOL    HW131343   0.475   0.272   5.542 -0.8096  0.8464 -2.9720
 6570SOL    HW231344   0.341   0.239   5.585 -1.1115 -0.4803 -1.2964
 6571SOL     OW31345   2.485   4.479   4.222 -0.0944 -0.6032 -0.2780
 6571SOL    HW131346   2.413   4.486   4.159 -0.3033 -1.5213 -0.1324
 6571SOL    HW231347   2.460   4.405   4.277  1.9356 -2.2695 -1.6338
 6572SOL     OW31348   0.037   2.487   9.065 -0.5136  0.3437 -0.1100
 6572SOL    HW131349   0.037   2.580   9.087  0.0281 -0.2437  2.4322
 6572SOL    HW231350   0.106   2.455   9.124 -0.7514 -1.4298 -0.7973
 6573SOL     OW31351   3.054   1.803   8.586  1.1545 -0.0139 -0.0242
 6573SOL    HW131352   3.102   1.863   8.528  0.7439  0.6738  0.3600
 6573SOL    HW231353   3.089   1.835   8.669 -0.1646  2.2262 -0.3284
 6574SOL     OW31354   3.250   1.167  10.521 -0.5205 -0.2398 -0.3816
 6574SOL    HW131355   3.198   1.245  10.502 -0.7521  0.2397  2.2765
 6574SOL    HW231356   3.328   1.185  10.468  0.1841 -0.4618  0.5935
 6575SOL     OW31357   4.274   1.834   3.767  0.1963 -0.0971  0.3448
 6575SOL    HW131358   4.237   1.861   3.851 -0.7644  1.4851 -0.5829
 6575SOL    HW231359   4.357   1.882   3.764  0.5233 -0.7102 -0.5762
 6576SOL     OW31360   1.529   3.522   7.183 -0.1996 -0.0105  0.4670
 6576SOL    HW131361   1.469   3.490   7.115 -0.0806 -1.6439  1.1274
 6576SOL    HW231362   1.458   3.557   7.236 -0.9989 -0.8918 -0.0141
 6577SOL     OW31363   0.516   0.287   1.665 -0.2099 -0.4376 -1.0827
 6577SOL    HW131364   0.487   0.369   1.705  2.4786  0.4849 -1.0343
 6577SOL    HW231365   0.461   0.300   1.587 -1.6275 -1.3195 -0.2276
 6578SOL     OW31366   0.264   1.991   2.337  0.1498 -0.1757 -0.2426
 6578SOL    HW131367   0.251   1.919   2.398  2.2564  1.6959  2.4078
 6578SOL    HW231368   0.179   2.022   2.307  1.2526  2.7535 -0.4031
 6579SOL     OW31369   0.050   0.503   1.707 -0.4990  0.0656 -0.1643
 6579SOL    HW131370   0.032   0.550   1.788 -0.9796  0.5873 -0.5752
 6579SOL    HW231371   4.704   0.476   1.680 -0.6951  0.4867  0.0538
 6580SOL     OW31372   1.304   1.950   8.629 -1.0511 -0.0341 -0.7236
 6580SOL    HW131373   1.247   1.948   8.552 -0.9150 -0.8088 -0.7995
 6580SOL    HW231374   1.391   1.953   8.591 -1.5523  3.2951 -1.6023
 6581SOL     OW31375   3.557   3.454   9.644 -0.0985  0.0894  0.0678
 6581SOL    HW131376   3.529   3.519   9.708  0.2549  0.3373 -0.0267
 6581SOL    HW231377   3.490   3.460   9.576 -1.8303 -0.8263  1.7061
 6582SOL     OW31378   0.294   4.203   1.206 -0.4275 -0.2601 -0.1039
 6582SOL    HW131379   0.363   4.269   1.209 -0.4032 -0.2222 -1.3953
 6582SOL    HW231380   0.219   4.249   1.244 -0.5131 -0.6670  0.2175
 6583SOL     OW31381   4.293   3.973   9.620  0.5718  0.1060 -0.4603
 6583SOL    HW131382   4.223   4.038   9.615  0.3706 -0.1621 -1.1769
 6583SOL    HW231383   4.318   3.987   9.712 -2.3357  0.2400  0.2884
 6584SOL     OW31384   1.725   4.436  15.789  0.2569  0.2641  0.5227
 6584SOL    HW131385   1.700   4.348  15.761 -1.8388  1.8365 -2.4698
 6584SOL    HW231386   1.789   4.454  15.720  0.5651 -0.0544  0.7229
 6585SOL     OW31387   0.214   0.965   6.352  0.1949  0.3793  0.2997
 6585SOL    HW131388   0.255   1.047   6.381  0.7056 -0.6395  2.4270
 6585SOL    HW231389   0.145   1.000   6.296 -1.0151  0.1557  1.6648
 6586SOL     OW31390   0.180   4.123  10.371 -0.3557 -0.3244  0.0839
 6586SOL    HW131391   0.221   4.173  10.300 -1.3942  0.9564  0.3687
 6586SOL    HW231392   0.162   4.041  10.324 -1.3840 -0.1768  0.2081
 6587SOL     OW31393   1.376   4.096  12.395  0.5828 -0.0371  0.0847
 6587SOL    HW131394   1.344   4.136  12.314  0.8735 -0.4673 -0.2399
 6587SOL    HW231395   1.414   4.174  12.436 -0.8019  0.0929  1.1369
 6588SOL     OW31396   0.424   4.244   5.084 -0.2808 -0.9622 -0.5315
 6588SOL    HW131397   0.373   4.166   5.059  1.1020 -1.7875 -0.7392
 6588SOL    HW231398   0.347   4.296   5.110 -0.6945 -1.1590 -1.3725
 6589SOL     OW31399   2.102   2.152   2.592  0.3027 -0.3379  0.0658
 6589SOL    HW131400   2.122   2.083   2.656  0.9181 -0.6488 -0.4572
 6589SOL    HW231401   2.160   2.218   2.631  0.0091  1.5110 -2.6283
 6590SOL     OW31402   1.265   4.518  15.087 -0.1975  0.3576  0.5858
 6590SOL    HW131403   1.352   4.490  15.112  0.0839  1.7194  1.1014
 6590SOL    HW231404   1.255   4.603  15.130 -0.2660  0.3753  0.5356
 6591SOL     OW31405   0.913   4.060   3.652 -0.2302 -0.7635 -0.0740
 6591SOL    HW131406   0.841   4.083   3.594  0.5355 -0.1271 -0.7761
 6591SOL    HW231407   0.891   3.973   3.685  1.6031 -0.4631  1.8815
 6592SOL     OW31408   3.152   1.143  12.933  0.1670 -0.1200  0.0728
 6592SOL    HW131409   3.240   1.182  12.939  0.0619  0.0592  0.4724
 6592SOL    HW231410   3.160   1.058  12.976  0.6621 -0.4552 -0.6854
 6593SOL     OW31411   2.581   1.891   7.772 -0.1120  0.3069 -0.6198
 6593SOL    HW131412   2.622   1.977   7.761 -0.4989  0.0293 -4.5040
 6593SOL    HW231413   2.545   1.881   7.683  0.7762  1.8221 -1.1500
 6594SOL     OW31414   1.312   4.147   5.836  0.3190 -0.4365 -0.6070
 6594SOL    HW131415   1.300   4.065   5.883 -3.0043  1.1328  1.2666
 6594SOL    HW231416   1.379   4.187   5.891 -0.4246  0.5959 -0.4513
 6595SOL     OW31417   3.665   2.943   7.932 -0.1997 -0.3478 -0.8596
 6595SOL    HW131418   3.610   3.016   7.903  1.6235  1.2942 -0.1493
 6595SOL    HW231419   3.662   2.894   7.849 -1.0377  1.3000 -1.8070
 6596SOL     OW31420   4.268   0.397   5.820  0.1038 -0.1216 -0.5688
 6596SOL    HW131421   4.238   0.364   5.905 -0.8936  1.6368 -0.2411
 6596SOL    HW231422   4.199   0.372   5.758 -1.7828  2.3659  0.5378
 6597SOL     OW31423   1.870   0.824  16.819  0.1760 -0.3785 -0.2791
 6597SOL    HW131424   1.859   0.730  16.807  2.7688 -0.5809 -0.9102
 6597SOL    HW231425   1.786   0.838  16.864  0.5093 -0.5146  0.3852
 6598SOL     OW31426   1.249   3.984   8.663  0.8969  0.4495  0.0098
 6598SOL    HW131427   1.315   4.030   8.611  0.2301 -1.5817 -2.6319
 6598SOL    HW231428   1.297   3.998   8.744 -0.3528  0.6269  0.7144
 6599SOL     OW31429   0.566   1.934  14.118 -0.0168  1.4363 -0.1297
 6599SOL    HW131430   0.536   1.934  14.027 -0.0194 -1.2860 -0.1389
 6599SOL    HW231431   0.562   2.028  14.137 -1.9664  1.2987  0.0766
 6600SOL     OW31432   0.234   0.235   1.465  0.0755  0.4953  0.5307
 6600SOL    HW131433   0.201   0.324   1.474 -2.2088 -0.4902  1.8761
 6600SOL    HW231434   0.293   0.250   1.391 -0.1500  0.5743  0.3690
 6601SOL     OW31435   2.511   3.432   5.404 -0.0101 -0.2058  0.0118
 6601SOL    HW131436   2.509   3.452   5.311 -0.3160  2.2983  0.5665
 6601SOL    HW231437   2.416   3.434   5.416  0.0333 -0.1961  0.3596
 6602SOL     OW31438   0.437   3.134   8.561 -0.4484  0.4548  0.5543
 6602SOL    HW131439   0.410   3.218   8.525  1.4642  0.3422 -1.1221
 6602SOL    HW231440   0.373   3.118   8.630  0.4495 -0.2485  1.2379
 6603SOL     OW31441   1.312   3.494   7.996  0.1358 -0.1325  0.2226
 6603SOL    HW131442   1.403   3.486   7.969  0.0553  0.9779 -0.3667
 6603SOL    HW231443   1.279   3.575   7.957 -3.3913 -1.0080  1.3871
 6604SOL     OW31444   3.966   2.213  11.620  0.2831  0.1652  0.1491
 6604SOL    HW131445   3.987   2.120  11.611 -0.7615 -0.0452 -0.0731
 6604SOL    HW231446   3.883   2.220  11.573  0.3387  2.1896  0.3326
 6605SOL     OW31447   2.117   0.062   7.123 -0.7676  0.5769 -0.2746
 6605SOL    HW131448   2.163   0.121   7.182 -2.5979 -1.2964  3.0248
 6605SOL    HW231449   2.190   0.016   7.080 -2.1093  0.5846 -2.5466
 6606SOL     OW31450   1.739   0.053   8.969 -0.1950 -0.4903 -0.1119
 6606SOL    HW131451   1.781   0.040   8.885 -1.3146  0.4121 -0.8255
 6606SOL    HW231452   1.814   0.042   9.027 -0.1159  0.7249  0.0258
 6607SOL     OW31453   1.037   2.378   8.555 -0.3681  0.5727 -0.4809
 6607SOL    HW131454   1.089   2.376   8.475 -0.1465 -0.5643 -0.3138
 6607SOL    HW231455   0.991   2.460   8.539 -0.1149  0.6499 -0.8075
 6608SOL     OW31456   3.266   3.169   7.684  0.6561  0.6174 -0.1884
 6608SOL    HW131457   3.246   3.203   7.597  0.3466 -2.3505 -1.2842
 6608SOL    HW231458   3.246   3.076   7.674 -1.0413  0.9538  0.0817
 6609SOL     OW31459   0.850   1.376   3.529 -0.1136  0.1988 -0.5229
 6609SOL    HW131460   0.778   1.324   3.494 -0.2182  1.2463 -1.8134
 6609SOL    HW231461   0.892   1.308   3.583  0.2904  0.3884 -0.5946
 6610SOL     OW31462   3.285   2.705   6.639 -0.0009  0.8127  0.5344
 6610SOL    HW131463   3.219   2.769   6.612 -0.0140 -0.9491 -3.5056
 6610SOL    HW231464   3.277   2.633   6.577  1.1814 -0.6693  2.1060
 6611SOL     OW31465   4.104   4.425   1.017  0.1622  0.4765 -0.1711
 6611SOL    HW131466   4.073   4.431   0.927  0.9787 -2.7006 -0.6489
 6611SOL    HW231467   4.183   4.373   1.001  0.1065  0.7590 -1.3610
 6612SOL     OW31468   1.925   4.335   8.653  0.3408 -0.0570  0.4238
 6612SOL    HW131469   1.843   4.357   8.609  1.3086  0.2780 -1.2300
 6612SOL    HW231470   1.927   4.240   8.645  0.0057 -0.0926  0.7845
 6613SOL     OW31471   3.723   0.630   3.204 -0.0169 -0.1625 -0.7187
 6613SOL    HW131472   3.814   0.655   3.194 -0.2839  1.2035  0.3936
 6613SOL    HW231473   3.681   0.669   3.127 -1.0964  1.1427  0.5390
 6614SOL     OW31474   2.823   0.135   2.382  0.3589 -0.0223 -0.0038
 6614SOL    HW131475   2.766   0.094   2.316  0.5144 -0.7201  0.2971
 6614SOL    HW231476   2.771   0.124   2.462  1.4438 -0.4340  0.6372
 6615SOL     OW31477   0.359   4.415   2.174  0.1314  0.0651  0.5628
 6615SOL    HW131478   0.328   4.338   2.221  2.7467  0.0991  2.3521
 6615SOL    HW231479   0.287   4.477   2.188 -0.4018 -0.3010 -0.5752
 6616SOL     OW31480   4.082   3.790   9.751 -0.3097  0.7393 -0.0425
 6616SOL    HW131481   4.136   3.850   9.701  0.4678 -1.8141 -2.3020
 6616SOL    HW231482   4.013   3.842   9.791  0.1934  0.0454  1.7222
 6617SOL     OW31483   1.242   2.179   5.653 -0.1587  0.0674  0.3259
 6617SOL    HW131484   1.300   2.229   5.597 -0.9245  2.1641  1.4047
 6617SOL    HW231485   1.173   2.244   5.668  0.7173  0.8374  0.9869
 6618SOL     OW31486   2.527   3.222   7.293  0.0973 -0.5740 -0.4032
 6618SOL    HW131487   2.532   3.128   7.305 -1.4752 -0.4156  1.5513
 6618SOL    HW231488   2.544   3.249   7.384  0.7588 -0.1405 -0.6588
 6619SOL     OW31489   2.485   3.613   7.389 -0.4639 -0.1560  0.1175
 6619SOL    HW131490   2.408   3.666   7.409  0.0588  0.9215 -0.7411
 6619SOL    HW231491   2.508   3.578   7.475 -0.0961 -0.5322 -0.1366
 6620SOL     OW31492   4.122   4.067  14.682  0.2153  0.4426 -0.5043
 6620SOL    HW131493   4.120   4.055  14.777  0.7279  0.3483 -0.5073
 6620SOL    HW231494   4.031   4.045  14.663  0.1016  2.0693 -1.8232
 6621SOL     OW31495   1.287   2.822   7.258 -0.2169  0.1193 -1.0439
 6621SOL    HW131496   1.354   2.852   7.196 -0.2673  0.6188 -0.8599
 6621SOL    HW231497   1.350   2.839   7.328 -2.3809 -0.4007  1.0050
 6622SOL     OW31498   0.151   3.686   6.748 -0.3559 -0.2637  0.0397
 6622SOL    HW131499   0.206   3.617   6.785 -0.3687 -0.0188  0.5186
 6622SOL    HW231500   0.093   3.710   6.820 -1.4967  0.7038 -1.2092
 6623SOL     OW31501   3.013   2.768   4.427 -0.3258  0.2287 -0.1276
 6623SOL    HW131502   3.007   2.790   4.520  1.1640  0.5535 -0.0964
 6623SOL    HW231503   2.961   2.689   4.438 -0.4984  0.2203 -0.9703
 6624SOL     OW31504   4.065   0.576  15.213  0.2826  0.1322  0.1307
 6624SOL    HW131505   4.002   0.616  15.153 -0.4666  0.0495  0.8709
 6624SOL    HW231506   4.027   0.492  15.238  0.3802 -0.2305 -0.9138
 6625SOL     OW31507   1.307   3.549  10.909 -0.3997  0.3081 -0.2569
 6625SOL    HW131508   1.265   3.583  10.987  1.4751 -0.5899  1.1420
 6625SOL    HW231509   1.241   3.486  10.883  1.9512 -1.9243 -0.8616
 6626SOL     OW31510   0.264   1.515  17.695  0.1964 -0.1876  0.2859
 6626SOL    HW131511   0.225   1.431  17.672 -2.5481  1.2635 -0.3134
 6626SOL    HW231512   0.206   1.569  17.641  2.7564  0.8236 -1.4851
 6627SOL     OW31513   3.425   0.280   3.891  0.6244 -0.2841  0.6694
 6627SOL    HW131514   3.455   0.232   3.968  0.8767 -0.5553  0.4011
 6627SOL    HW231515   3.347   0.322   3.929  1.9471  1.1277  1.8094
 6628SOL     OW31516   4.287   1.336   9.043 -0.4233  0.7563 -0.6160
 6628SOL    HW131517   4.276   1.319   9.137  0.3702  0.2075 -0.6176
 6628SOL    HW231518   4.350   1.269   9.016 -0.0511  0.6337  0.5513
 6629SOL     OW31519   2.638   1.711   3.521  0.1133 -0.8151 -0.2267
 6629SOL    HW131520   2.705   1.765   3.562 -0.7702 -0.5535  0.8916
 6629SOL    HW231521   2.679   1.710   3.435 -0.1329  0.0623 -0.3620
 6630SOL     OW31522   2.955   2.958   3.003 -0.4037  0.2630  0.2725
 6630SOL    HW131523   2.919   2.885   2.953 -0.4676  0.0750  0.5986
 6630SOL    HW231524   2.959   3.032   2.941 -2.4268 -0.6344 -0.9181
 6631SOL     OW31525   0.346   1.907   8.346  0.1669 -0.5250  0.0008
 6631SOL    HW131526   0.355   1.857   8.427  0.3148 -0.6032 -0.0635
 6631SOL    HW231527   0.269   1.963   8.349  0.6720  0.1369  0.5965
 6632SOL     OW31528   2.643   1.109  14.079 -0.1371  0.0246  0.0633
 6632SOL    HW131529   2.651   1.204  14.071  0.0280  0.0011 -0.0384
 6632SOL    HW231530   2.661   1.083  13.989  3.6070  0.4894  0.6842
 6633SOL     OW31531   2.975   4.189   5.976 -0.4563  0.2507  0.4557
 6633SOL    HW131532   3.034   4.145   6.037  0.5636  1.1811  0.1342
 6633SOL    HW231533   2.988   4.282   5.992  2.1851  0.0076 -0.3016
 6634SOL     OW31534   3.363   0.783   6.110  0.1033  0.1420  0.4537
 6634SOL    HW131535   3.302   0.809   6.179 -0.9525 -2.8604  0.6150
 6634SOL    HW231536   3.412   0.716   6.157 -0.3735  0.5498  1.5356
 6635SOL     OW31537   1.667   0.592   4.715  0.1647 -0.5478 -0.8142
 6635SOL    HW131538   1.683   0.535   4.790 -1.2689 -0.9154 -0.7881
 6635SOL    HW231539   1.719   0.671   4.731 -0.2404 -0.5893  0.6518
 6636SOL     OW31540   4.169   2.127  16.194  1.0543 -0.2458 -0.6081
 6636SOL    HW131541   4.132   2.211  16.221 -0.9400 -0.8392 -1.4968
 6636SOL    HW231542   4.245   2.114  16.252  0.0552  0.1568  0.7915
 6637SOL     OW31543   0.419   1.127   2.599 -0.0741  0.2475 -0.4147
 6637SOL    HW131544   0.337   1.163   2.633 -0.2811  0.0058 -0.6586
 6637SOL    HW231545   0.425   1.049   2.654 -2.4798 -0.2677 -0.8699
 6638SOL     OW31546   3.737   1.833   2.909 -0.5909 -0.4035  0.6855
 6638SOL    HW131547   3.737   1.738   2.899 -2.7005 -0.3695  0.4614
 6638SOL    HW231548   3.676   1.845   2.837 -2.9982  1.9501  3.1451
 6639SOL     OW31549   4.463   4.089   8.273  0.1343 -0.0113  0.5013
 6639SOL    HW131550   4.538   4.148   8.284  1.2602 -1.4121  0.2288
 6639SOL    HW231551   4.462   4.050   8.360 -1.2884  0.1565  0.5692
 6640SOL     OW31552   4.650   1.034  17.332 -0.1161 -0.0679 -0.7348
 6640SOL    HW131553   4.729   1.028  17.385 -0.9417 -0.8833  0.3827
 6640SOL    HW231554   4.596   1.086  17.391  1.1599 -0.2403  0.5641
 6641SOL     OW31555   0.550   2.083  13.540 -0.1061  0.3049 -0.0590
 6641SOL    HW131556   0.551   2.012  13.475 -0.2362  3.1418 -3.1802
 6641SOL    HW231557   0.548   2.041  13.626  0.2936  2.3959  0.9797
 6642SOL     OW31558   1.329   4.177   9.675  0.1700 -0.4322 -0.0807
 6642SOL    HW131559   1.264   4.125   9.723  0.9254 -1.9797 -0.7570
 6642SOL    HW231560   1.361   4.222   9.753  1.3528 -1.1043 -0.1879
 6643SOL     OW31561   3.617   0.775   3.808  0.0846 -0.3224 -0.6940
 6643SOL    HW131562   3.593   0.791   3.899 -0.5009 -2.2724 -0.5044
 6643SOL    HW231563   3.550   0.808   3.748 -1.5472 -0.7417  0.9336
 6644SOL     OW31564   4.188   4.604   1.447  0.3734 -0.0864  0.2593
 6644SOL    HW131565   4.242   4.563   1.515 -1.6134 -2.9930  0.0966
 6644SOL    HW231566   4.249   4.653   1.391 -3.0587  1.0731 -2.4723
 6645SOL     OW31567   0.820   0.754   3.233 -0.2217  0.0362 -0.4351
 6645SOL    HW131568   0.855   0.674   3.272 -2.0405 -0.4280  0.2456
 6645SOL    HW231569   0.784   0.727   3.149 -0.3985  1.6593 -0.8919
 6646SOL     OW31570   3.542   3.058   8.739 -0.0318  0.1839 -0.1785
 6646SOL    HW131571   3.494   3.036   8.659 -2.0205 -0.7780  1.2825
 6646SOL    HW231572   3.584   3.140   8.713 -0.6120  0.5083 -0.1059
 6647SOL     OW31573   4.655   0.915   2.911  0.3254  0.9694 -0.1021
 6647SOL    HW131574   4.662   0.830   2.867 -0.5047  1.2137 -0.6922
 6647SOL    HW231575   0.007   0.927   2.930  0.5669  0.8626 -1.2259
 6648SOL     OW31576   1.308   0.905   6.377  0.0879 -0.0524  0.0553
 6648SOL    HW131577   1.266   0.852   6.444 -0.3648  0.8057  0.4575
 6648SOL    HW231578   1.239   0.966   6.350  0.0424 -0.5338 -0.9118
 6649SOL     OW31579   3.115   3.578  10.404  0.0504  0.5416 -0.2698
 6649SOL    HW131580   3.128   3.505  10.344 -1.1280  0.0825  0.0145
 6649SOL    HW231581   3.129   3.651  10.343  2.2485 -0.0912 -0.5136
 6650SOL     OW31582   3.781   3.793   3.509  0.2332 -0.0807  0.0001
 6650SOL    HW131583   3.692   3.828   3.508  0.8902  1.6321  0.8694
 6650SOL    HW231584   3.815   3.836   3.430 -1.9528  2.0890  0.2507
 6651SOL     OW31585   0.019   1.215   0.827 -0.0273 -0.3256  0.2884
 6651SOL    HW131586   0.099   1.173   0.859  0.5202 -0.0929 -0.7780
 6651SOL    HW231587   0.069   1.286   0.787  0.1393 -0.1488  0.8148
 6652SOL     OW31588   0.518   1.882   1.733  0.3702  0.5597  0.2542
 6652SOL    HW131589   0.494   1.921   1.649  1.9283  2.2229  0.5729
 6652SOL    HW231590   0.475   1.796   1.733 -1.7191  1.6220  1.1562
 6653SOL     OW31591   0.587   4.665   8.000 -0.0060 -1.0475  0.1799
 6653SOL    HW131592   0.648   4.708   7.939 -1.2191 -1.5282 -1.3699
 6653SOL    HW231593   0.648   4.593   8.017 -1.0163 -1.9680 -0.1150
 6654SOL     OW31594   0.093   2.348   6.029  0.1644 -0.3421 -0.0733
 6654SOL    HW131595   0.016   2.324   6.081  0.7679  2.6704  2.1937
 6654SOL    HW231596   0.147   2.382   6.100 -0.7010  0.5671  0.1475
 6655SOL     OW31597   3.695   4.553   5.409 -0.0050 -0.4383 -0.6643
 6655SOL    HW131598   3.611   4.536   5.451 -0.9791  3.2192 -1.0480
 6655SOL    HW231599   3.674   4.637   5.366  0.4986  0.2854  0.5143
 6656SOL     OW31600   3.839   0.865   7.359  0.2805  0.2821 -0.3165
 6656SOL    HW131601   3.799   0.786   7.321 -1.2125  0.8991 -0.0494
 6656SOL    HW231602   3.813   0.933   7.297 -0.3273 -0.8756 -1.3622
 6657SOL     OW31603   4.116   2.966  17.377  0.1457 -0.0530 -0.0111
 6657SOL    HW131604   4.167   2.903  17.428  1.0720 -0.0868 -0.9753
 6657SOL    HW231605   4.137   3.047  17.423  0.8548  0.2770 -0.9184
 6658SOL     OW31606   4.068   2.544   4.231  0.7843 -1.1529 -0.3106
 6658SOL    HW131607   4.047   2.629   4.267  1.6662 -1.3753  0.7256
 6658SOL    HW231608   3.996   2.527   4.170 -1.7360 -0.5850  2.4984
 6659SOL     OW31609   4.067   4.418   4.660 -0.5606  0.0295 -0.2517
 6659SOL    HW131610   4.054   4.361   4.736 -1.0294  1.3217  0.6440
 6659SOL    HW231611   4.138   4.366   4.621 -0.9609  1.3101 -2.7075
 6660SOL     OW31612   0.943   2.618  12.815 -0.0334  0.1915  0.6349
 6660SOL    HW131613   0.856   2.612  12.856 -1.6650  0.5106 -2.7881
 6660SOL    HW231614   0.928   2.560  12.740  0.0081  2.5392 -1.1737
 6661SOL     OW31615   0.280   0.832  13.838  0.8857 -0.3267 -0.3950
 6661SOL    HW131616   0.248   0.745  13.813 -0.4092  1.2143 -4.2097
 6661SOL    HW231617   0.319   0.819  13.924 -1.4257 -1.6760  0.4587
 6662SOL     OW31618   4.211   2.881   6.696 -0.0995 -0.3536 -0.2706
 6662SOL    HW131619   4.300   2.880   6.661 -1.1529  1.7295 -3.0559
 6662SOL    HW231620   4.155   2.909   6.623  1.0730  0.8330 -0.7259
 6663SOL     OW31621   2.891   3.961  13.872 -0.0856  0.5309 -0.4444
 6663SOL    HW131622   2.922   3.996  13.955  1.5903 -0.0413 -0.8163
 6663SOL    HW231623   2.818   3.907  13.903  0.8870 -0.2143  0.5793
 6664SOL     OW31624   3.510   1.907  16.475  0.3589  0.1717 -0.2290
 6664SOL    HW131625   3.443   1.974  16.462  0.6978  0.3192 -1.2133
 6664SOL    HW231626   3.515   1.917  16.571  2.6230 -0.5869 -0.2722
 6665SOL     OW31627   3.263   0.453   9.684 -0.3511 -0.1117  0.2967
 6665SOL    HW131628   3.265   0.546   9.706 -2.9029 -0.1394  0.7039
 6665SOL    HW231629   3.303   0.414   9.761 -1.0646  1.7180  1.5787
 6666SOL     OW31630   2.137   1.234  14.828  0.0644  0.0101  0.3183
 6666SOL    HW131631   2.164   1.318  14.791  1.8623 -1.1132 -0.9323
 6666SOL    HW231632   2.190   1.228  14.907 -1.2698 -0.2861  1.1905
 6667SOL     OW31633   2.199   3.254  16.997 -0.4698  0.2609 -0.6426
 6667SOL    HW131634   2.104   3.246  16.985 -0.6691 -0.8005  1.6759
 6667SOL    HW231635   2.208   3.215  17.084 -1.7064 -0.7318 -0.9545
 6668SOL     OW31636   3.230   2.586  15.684 -0.1505  0.0253  0.8206
 6668SOL    HW131637   3.275   2.509  15.719 -1.8661 -1.6345 -0.6431
 6668SOL    HW231638   3.149   2.592  15.735 -0.6305  0.2987  0.0208
 6669SOL     OW31639   2.969   3.602  10.089 -0.2267 -0.0009  0.2918
 6669SOL    HW131640   3.021   3.544  10.145  1.7214 -0.2759 -1.8244
 6669SOL    HW231641   2.982   3.563  10.003  0.6445 -1.2776  1.0047
 6670SOL     OW31642   4.000   4.246  17.376 -0.4787 -0.6407  0.2616
 6670SOL    HW131643   3.968   4.304  17.308  2.2975  0.0859 -0.4427
 6670SOL    HW231644   3.921   4.197  17.400  0.5190 -1.5873  1.6494
 6671SOL     OW31645   0.153   4.118   9.869  0.1146  0.9001 -0.5789
 6671SOL    HW131646   0.193   4.032   9.856 -0.5446  0.2512  1.6488
 6671SOL    HW231647   0.065   4.100   9.902  1.0619  2.9066  3.1142
 6672SOL     OW31648   0.943   0.737   1.868  0.1813  0.1898 -0.8321
 6672SOL    HW131649   0.908   0.655   1.833 -0.9082  0.3827 -0.1732
 6672SOL    HW231650   1.035   0.709   1.871  1.0376  3.3809  2.4823
 6673SOL     OW31651   0.812   1.308   6.149 -0.4034 -0.4692  0.0472
 6673SOL    HW131652   0.845   1.344   6.067  2.1798 -0.9187  0.8908
 6673SOL    HW231653   0.842   1.217   6.148 -2.6601 -1.2073 -0.1081
 6674SOL     OW31654   4.246   4.338   6.220 -1.4190 -0.0842  0.1543
 6674SOL    HW131655   4.270   4.283   6.145 -1.2497 -1.2079  1.0427
 6674SOL    HW231656   4.243   4.272   6.288  0.8210  1.4450  1.7242
 6675SOL     OW31657   0.482   0.644   3.820  0.0588  0.1398 -0.5696
 6675SOL    HW131658   0.421   0.702   3.864  2.3500  1.4132  0.9568
 6675SOL    HW231659   0.461   0.564   3.868 -1.5260  0.8819 -0.0510
 6676SOL     OW31660   4.127   3.410   8.287 -0.2881  0.1751 -0.1239
 6676SOL    HW131661   4.096   3.485   8.337 -1.6733 -0.2487 -0.3547
 6676SOL    HW231662   4.054   3.396   8.228 -0.6186  0.2986  0.2559
 6677SOL     OW31663   1.878   2.995   2.853  0.5165  0.0657  0.0926
 6677SOL    HW131664   1.902   3.063   2.917 -1.1252  2.0052 -1.3390
 6677SOL    HW231665   1.948   3.001   2.788 -0.0668  1.4092 -0.4235
 6678SOL     OW31666   1.668   1.288   5.765 -0.0814 -0.2482 -0.4066
 6678SOL    HW131667   1.761   1.304   5.752  0.5433 -2.3286  1.5198
 6678SOL    HW231668   1.679   1.224   5.835  0.7569 -0.5849 -0.8404
 6679SOL     OW31669   3.228   1.359  17.300 -0.3496  0.1955 -0.1971
 6679SOL    HW131670   3.236   1.453  17.284  0.9157  0.0607 -0.3599
 6679SOL    HW231671   3.164   1.339  17.231  1.4577  1.2891 -2.1777
 6680SOL     OW31672   4.144   3.161   7.983 -0.1223 -0.3759  0.1847
 6680SOL    HW131673   4.138   3.235   7.923  2.5509  0.1269  0.5392
 6680SOL    HW231674   4.201   3.203   8.047  1.0702 -2.2049  0.3230
 6681SOL     OW31675   2.892   3.949   7.970 -0.7608  0.0396 -0.5127
 6681SOL    HW131676   2.940   3.954   8.053 -0.2518 -1.9800 -0.6729
 6681SOL    HW231677   2.924   4.023   7.919 -0.6756 -0.3929 -1.0958
 6682SOL     OW31678   3.954   2.790   4.341 -0.5974 -0.0120  0.5786
 6682SOL    HW131679   3.872   2.790   4.389  0.3511 -1.6074  2.2118
 6682SOL    HW231680   3.968   2.882   4.320 -1.3106 -0.3186 -1.2470
 6683SOL     OW31681   0.571   1.315   6.518 -0.3264 -0.5671  0.2273
 6683SOL    HW131682   0.588   1.361   6.600 -0.5899  0.0497 -0.0695
 6683SOL    HW231683   0.535   1.386   6.465  0.8665 -0.4275 -0.3975
 6684SOL     OW31684   4.534   3.051   8.340 -0.3129  0.5602  0.5716
 6684SOL    HW131685   4.450   3.096   8.344 -0.7668  0.0388 -3.2083
 6684SOL    HW231686   4.576   3.079   8.422  1.8697 -1.2267  0.0740
 6685SOL     OW31687   3.245   3.954   7.988  0.1620  0.3723  0.3627
 6685SOL    HW131688   3.181   3.924   8.053 -0.0771  0.2909  0.0853
 6685SOL    HW231689   3.295   4.017   8.041 -1.2422  2.6026 -0.9557
 6686SOL     OW31690   2.485   0.724   0.973 -0.2566  0.8265 -0.1648
 6686SOL    HW131691   2.519   0.705   0.886 -1.9404 -1.2221 -0.3960
 6686SOL    HW231692   2.516   0.813   0.986  1.8606 -0.2695  2.2749
 6687SOL     OW31693   4.072   1.045   3.923  0.0786  0.2602  0.3098
 6687SOL    HW131694   4.059   1.135   3.894  2.2099  1.0511  1.7863
 6687SOL    HW231695   4.071   1.065   4.017  1.3669  3.6027 -0.3878
 6688SOL     OW31696   0.390   0.672   1.965  0.3414  0.2922  0.5646
 6688SOL    HW131697   0.394   0.580   1.992  0.2221  0.1217  0.0079
 6688SOL    HW231698   0.473   0.706   1.997  1.7521 -0.9350 -1.8532
 6689SOL     OW31699   2.783   0.715  14.152 -0.3199  0.0675  0.0012
 6689SOL    HW131700   2.697   0.713  14.110 -1.7374 -0.3853  2.8521
 6689SOL    HW231701   2.823   0.646  14.099 -0.1004 -0.0406  0.3075
 6690SOL     OW31702   0.485   3.039   6.125 -0.6173  0.0472 -0.3375
 6690SOL    HW131703   0.540   3.107   6.085  0.6460  1.0097  2.9817
 6690SOL    HW231704   0.402   3.087   6.121 -0.0847  1.0802  0.7995
 6691SOL     OW31705   1.834   2.694   0.185  0.0769  0.1123  0.2005
 6691SOL    HW131706   1.925   2.692   0.215 -0.4626  1.1748  1.9476
 6691SOL    HW231707   1.802   2.780   0.211  0.1654  0.0632  0.4732
 6692SOL     OW31708   3.325   4.021  13.981 -0.4682  0.5124 -0.0871
 6692SOL    HW131709   3.398   4.000  13.923 -0.0139 -0.8982  0.9909
 6692SOL    HW231710   3.376   4.020  14.062 -1.8316 -3.1644  0.7280
 6693SOL     OW31711   1.487   0.710   5.476  0.4907  0.3803 -0.5458
 6693SOL    HW131712   1.401   0.747   5.459  0.0456 -1.5807 -2.5149
 6693SOL    HW231713   1.458   0.643   5.538  0.3650  0.0570 -0.9516
 6694SOL     OW31714   4.595   0.171   7.466  0.3858  0.5705  0.3049
 6694SOL    HW131715   4.508   0.148   7.433  1.7500  0.6351 -3.2938
 6694SOL    HW231716   4.593   0.108   7.538  3.0555  0.5076  0.3486
 6695SOL     OW31717   3.297   2.486  17.100  0.1257  0.4340 -0.0522
 6695SOL    HW131718   3.336   2.399  17.089  0.6627  0.8205 -1.1815
 6695SOL    HW231719   3.362   2.548  17.067 -2.3500  1.9150 -2.1251
 6696SOL     OW31720   0.376   3.311  13.097  0.1323  0.4037 -0.2534
 6696SOL    HW131721   0.364   3.403  13.121 -0.6046  0.6821 -1.6883
 6696SOL    HW231722   0.347   3.324  13.007  1.6074 -0.5289 -0.8648
 6697SOL     OW31723   0.756   3.787   6.751 -0.8041 -0.1090 -0.0384
 6697SOL    HW131724   0.784   3.703   6.787  0.2077  0.0918 -0.3620
 6697SOL    HW231725   0.796   3.789   6.665  1.1150  0.1769  0.8695
 6698SOL     OW31726   2.527   4.455  15.478 -0.9099  0.2477 -0.0742
 6698SOL    HW131727   2.552   4.458  15.386  0.3731 -0.6495  0.2446
 6698SOL    HW231728   2.547   4.546  15.501 -1.9332  1.0465 -2.4386
 6699SOL     OW31729   2.361   1.781   3.805 -0.4111 -0.0812 -0.4676
 6699SOL    HW131730   2.283   1.836   3.811 -0.3283 -0.0218  0.0377
 6699SOL    HW231731   2.329   1.699   3.767  0.7010 -0.1673 -1.2171
 6700SOL     OW31732   2.044   2.102   2.306 -0.3140  0.0786  0.2519
 6700SOL    HW131733   2.053   2.193   2.278 -0.5398 -0.4203 -1.4096
 6700SOL    HW231734   2.082   2.098   2.394  2.1248  1.5917 -0.7618
 6701SOL     OW31735   4.728   0.952   0.716  0.6420 -0.9461 -0.0818
 6701SOL    HW131736   4.695   1.019   0.776 -0.3018 -0.8565 -0.6906
 6701SOL    HW231737   4.718   0.992   0.630 -0.5769  0.4173  0.6687
 6702SOL     OW31738   4.019   2.683   9.766  0.0642 -0.3367  0.1517
 6702SOL    HW131739   4.002   2.617   9.699 -1.0401 -0.0673  0.1665
 6702SOL    HW231740   4.084   2.745   9.733  1.8785 -1.8596  0.8049
 6703SOL     OW31741   4.100   4.095  14.971  0.1820 -0.1323 -0.2271
 6703SOL    HW131742   4.005   4.103  14.974  0.2218  0.3456 -0.3117
 6703SOL    HW231743   4.109   4.001  14.988  0.5340  0.0104  0.3816
 6704SOL     OW31744   0.391   2.061   4.915 -0.2568 -0.3312  0.0340
 6704SOL    HW131745   0.454   2.110   4.968 -1.4429 -0.1115  1.2205
 6704SOL    HW231746   0.362   1.986   4.967  2.8890 -0.5020  1.5610
 6705SOL     OW31747   0.632   1.353   0.026  0.2301 -0.0413  0.2233
 6705SOL    HW131748   0.613   1.328  17.700 -0.1058  0.2995  0.1997
 6705SOL    HW231749   0.646   1.268   0.070  1.3518 -0.3260 -0.6742
 6706SOL     OW31750   3.136   1.672  14.390  0.2967  0.2197  0.2455
 6706SOL    HW131751   3.078   1.706  14.458 -0.2369 -1.8139  0.7908
 6706SOL    HW231752   3.141   1.749  14.333  1.4502  1.8894  2.5842
 6707SOL     OW31753   4.632   0.705  12.393  0.4786 -0.7982 -0.3996
 6707SOL    HW131754   4.643   0.614  12.368 -1.9901 -1.7942  2.1340
 6707SOL    HW231755   4.542   0.706  12.426  0.5572 -2.0955 -0.1481
 6708SOL     OW31756   0.558   3.119   4.326 -0.0571 -0.2965  0.3087
 6708SOL    HW131757   0.544   3.026   4.344 -0.7156 -0.5265 -1.4067
 6708SOL    HW231758   0.639   3.137   4.374 -0.1828 -1.5724  1.0042
 6709SOL     OW31759   3.427   4.655  11.976  0.4353  0.1019  0.5308
 6709SOL    HW131760   3.359   4.626  12.036  0.2123  1.0224  0.7266
 6709SOL    HW231761   3.503   4.617  12.020  1.5641  3.0343  1.1389
 6710SOL     OW31762   0.725   2.022   3.165  0.4019 -0.4427 -0.2752
 6710SOL    HW131763   0.801   2.057   3.211 -0.9245  1.7947  0.1723
 6710SOL    HW231764   0.684   1.974   3.237 -0.7205 -1.6024 -1.6732
 6711SOL     OW31765   0.438   1.941   3.211 -0.3690 -0.3984 -0.0154
 6711SOL    HW131766   0.436   1.847   3.230  0.8486 -0.2219  0.9666
 6711SOL    HW231767   0.435   1.969   3.302  0.7806 -2.9533  0.8144
 6712SOL     OW31768   0.170   2.171  13.645  0.0295  0.1945 -0.2735
 6712SOL    HW131769   0.144   2.258  13.614 -2.3348 -0.8501 -1.1930
 6712SOL    HW231770   0.209   2.191  13.730 -0.8146 -0.3458  0.2350
 6713SOL     OW31771   2.504   0.095   5.037  0.0961  0.6345  0.1464
 6713SOL    HW131772   2.549   0.167   5.080  2.3028 -0.8768  0.3187
 6713SOL    HW231773   2.415   0.130   5.038 -0.2291 -0.1979  0.0840
 6714SOL     OW31774   4.565   2.692   4.231 -0.0445  0.8122 -0.0418
 6714SOL    HW131775   4.611   2.769   4.263 -0.1056  0.6911  0.3358
 6714SOL    HW231776   4.475   2.721   4.214 -0.1768  0.9242  0.8647
 6715SOL     OW31777   1.170   0.473   5.481 -0.5012  0.1490 -0.6153
 6715SOL    HW131778   1.245   0.499   5.535  0.0702  0.7497 -1.7087
 6715SOL    HW231779   1.105   0.502   5.546 -2.5469 -0.2145 -2.5063
 6716SOL     OW31780   0.697   4.561   9.551 -0.5958 -0.2043  0.3386
 6716SOL    HW131781   0.782   4.578   9.511 -0.6576  1.0263  0.7315
 6716SOL    HW231782   0.679   4.474   9.514 -1.5399 -0.2593  0.9333
 6717SOL     OW31783   3.531   3.479   7.995  0.1214 -0.5196 -0.3576
 6717SOL    HW131784   3.446   3.447   8.025 -0.7514  0.8739 -1.3236
 6717SOL    HW231785   3.583   3.476   8.076 -0.5748  1.6598  0.1827
 6718SOL     OW31786   3.961   0.238   2.022 -0.5547  0.1163 -0.1590
 6718SOL    HW131787   3.990   0.196   2.103 -1.3564  0.1270  0.1369
 6718SOL    HW231788   3.980   0.167   1.961  1.2413 -2.4014  3.4094
 6719SOL     OW31789   3.979   4.564   6.875 -0.4241  0.0783 -0.2678
 6719SOL    HW131790   4.036   4.539   6.948  2.4370 -0.3455 -2.6780
 6719SOL    HW231791   3.912   4.496   6.878 -1.4770  1.1429  0.6341
 6720SOL     OW31792   2.793   3.923  13.175 -0.1504 -0.5460  0.2890
 6720SOL    HW131793   2.777   4.007  13.133 -0.2084 -1.1626 -0.9372
 6720SOL    HW231794   2.798   3.864  13.099 -1.0884 -1.2729  0.7946
 6721SOL     OW31795   1.773   2.115  12.461  0.2403 -0.4100 -0.0865
 6721SOL    HW131796   1.700   2.149  12.408  0.1077 -0.0221  0.3434
 6721SOL    HW231797   1.844   2.159  12.414  1.1582  0.2955  1.9740
 6722SOL     OW31798   1.072   3.402   2.778  0.1097  0.3776  0.6279
 6722SOL    HW131799   1.110   3.398   2.865  1.1045  0.0647  0.1756
 6722SOL    HW231800   1.128   3.461   2.728  0.7570 -1.1803 -0.5085
 6723SOL     OW31801   3.908   4.282   9.694  0.7680  0.1772 -0.3047
 6723SOL    HW131802   3.961   4.317   9.766 -0.7979  1.5048  0.2183
 6723SOL    HW231803   3.842   4.351   9.683 -0.5763 -1.0335  0.1416
 6724SOL     OW31804   2.618   1.880   7.219  0.8719 -0.3238 -0.2189
 6724SOL    HW131805   2.589   1.946   7.282 -1.2933 -0.4484 -1.1050
 6724SOL    HW231806   2.684   1.831   7.269  1.3173  0.4452 -0.0297
 6725SOL     OW31807   2.239   1.028   0.134  0.2108  0.1099  0.1439
 6725SOL    HW131808   2.329   1.049   0.112 -0.3272 -0.5811 -2.6886
 6725SOL    HW231809   2.234   0.952   0.076 -0.3908 -0.5949  1.1110
 6726SOL     OW31810   0.637   4.075   5.014 -0.2076  0.0559 -0.5024
 6726SOL    HW131811   0.600   4.148   4.965 -3.4270 -0.3031  1.3778
 6726SOL    HW231812   0.613   4.095   5.105  3.5581 -2.4125  1.0563
 6727SOL     OW31813   0.763   0.788   2.963 -0.6446  0.0434 -0.1189
 6727SOL    HW131814   0.668   0.787   2.966 -0.6125 -1.0981  0.5822
 6727SOL    HW231815   0.772   0.877   2.929  1.2037 -0.7213 -1.6404
 6728SOL     OW31816   3.328   4.048   4.363  0.3964  0.5644  0.6625
 6728SOL    HW131817   3.367   4.135   4.360  0.7329  0.3890 -0.0809
 6728SOL    HW231818   3.265   4.057   4.292  1.4181 -0.6311 -0.3889
 6729SOL     OW31819   0.900   1.754   3.163 -0.2583  0.7361  0.7289
 6729SOL    HW131820   0.864   1.813   3.229 -0.0706  2.3966 -0.6493
 6729SOL    HW231821   0.880   1.668   3.199 -0.9865  2.0023  3.3119
 6730SOL     OW31822   0.797   4.651   4.708  0.2496 -0.5870 -0.1627
 6730SOL    HW131823   0.711   4.682   4.736  1.0458  1.0931  0.4459
 6730SOL    HW231824   0.853   4.697   4.771 -2.9282  0.4368  1.9200
 6731SOL     OW31825   3.005   0.269   7.946 -0.5098  0.1246 -0.3866
 6731SOL    HW131826   3.055   0.269   8.028  1.4975  4.1931 -1.5839
 6731SOL    HW231827   2.977   0.361   7.945 -1.0603 -0.0474 -0.5720
 6732SOL     OW31828   0.020   4.280   4.359 -0.1521  0.4358 -0.7069
 6732SOL    HW131829   4.728   4.296   4.447  1.0059  1.6034 -0.4816
 6732SOL    HW231830   0.110   4.253   4.375 -0.7175 -0.5347  0.7886
 6733SOL     OW31831   3.915   1.776  16.763  0.7031  0.3354  0.0668
 6733SOL    HW131832   3.887   1.863  16.732 -0.2243  0.4457  1.2310
 6733SOL    HW231833   3.969   1.798  16.839 -1.3815  2.6059  0.8937
 6734SOL     OW31834   2.914   0.786   4.826  0.3664 -0.0334  0.1693
 6734SOL    HW131835   2.887   0.834   4.748 -1.2683 -0.2739  0.5732
 6734SOL    HW231836   2.825   0.756   4.847  0.8610  0.1307  2.5628
 6735SOL     OW31837   2.062   4.576   7.819 -0.1951 -0.2588  0.4741
 6735SOL    HW131838   2.011   4.656   7.833 -0.6711 -0.0960 -2.2839
 6735SOL    HW231839   2.039   4.564   7.727 -0.7584  0.9692  0.4598
 6736SOL     OW31840   1.654   3.864  10.957  0.1678  0.2920 -0.5759
 6736SOL    HW131841   1.582   3.896  10.904 -0.5076  0.5839  0.5182
 6736SOL    HW231842   1.608   3.788  10.993  0.2628  0.4222 -0.1829
 6737SOL     OW31843   2.051   1.142   6.349  0.6696  0.1596 -0.3955
 6737SOL    HW131844   2.002   1.060   6.355  1.6052 -0.2781  1.3501
 6737SOL    HW231845   2.130   1.111   6.306  1.1255  0.1742  0.4162
 6738SOL     OW31846   0.045   2.487  13.338  0.8412 -0.0019 -0.1969
 6738SOL    HW131847   0.087   2.490  13.424 -0.4651 -0.1568  0.4456
 6738SOL    HW231848   4.739   2.404  13.352 -2.5371  1.8999 -0.4007
 6739SOL     OW31849   3.871   2.786   5.312  0.1823  0.5478  0.5535
 6739SOL    HW131850   3.895   2.845   5.383  1.1220  2.8887 -1.7155
 6739SOL    HW231851   3.944   2.726   5.330  1.9900  2.8008  0.7304
 6740SOL     OW31852   0.571   2.732  14.775  0.6532 -0.0936  0.1182
 6740SOL    HW131853   0.532   2.662  14.828 -0.5019 -0.0850 -0.7215
 6740SOL    HW231854   0.642   2.740  14.838  0.3323  0.7019  0.3746
 6741SOL     OW31855   0.531   1.288  10.957 -0.3511 -0.4326  0.1015
 6741SOL    HW131856   0.613   1.338  10.952 -0.9491  0.4403 -1.0869
 6741SOL    HW231857   0.465   1.351  10.928  1.8517  1.4200 -0.9151
 6742SOL     OW31858   2.648   2.755  10.547 -0.5268 -0.2772  0.1916
 6742SOL    HW131859   2.621   2.847  10.557 -1.8757 -0.3780 -2.4639
 6742SOL    HW231860   2.559   2.724  10.530  0.6490 -1.8603 -2.9031
 6743SOL     OW31861   0.014   4.413  10.815 -0.3384 -1.1403  0.1798
 6743SOL    HW131862   4.720   4.499  10.790 -1.6782 -1.4733  0.9712
 6743SOL    HW231863   0.103   4.429  10.844 -0.5314  0.6942 -0.2268
 6744SOL     OW31864   1.293   3.687   7.375 -0.1402 -0.5084 -0.3465
 6744SOL    HW131865   1.239   3.758   7.341 -1.9127 -1.6736  0.0603
 6744SOL    HW231866   1.226   3.626   7.405  2.3573 -2.7348  0.7233
 6745SOL     OW31867   4.034   2.854   6.018 -0.2371 -0.0192  0.1487
 6745SOL    HW131868   4.082   2.853   5.935 -0.0997 -1.8834  0.2374
 6745SOL    HW231869   4.091   2.800   6.072  1.0876  1.0080 -0.2337
 6746SOL     OW31870   1.890   0.962   6.596  0.4553  0.5609 -0.0556
 6746SOL    HW131871   1.888   1.007   6.680 -1.9463 -2.4787  1.5266
 6746SOL    HW231872   1.839   1.020   6.539 -0.4980  2.4600  2.7329
 6747SOL     OW31873   2.766   3.032   1.920 -0.1429  0.2919  0.3497
 6747SOL    HW131874   2.704   3.100   1.895 -1.3231 -0.6358  0.7529
 6747SOL    HW231875   2.821   3.021   1.842 -0.9948 -0.7309 -0.1012
 6748SOL     OW31876   1.196   2.588  10.109 -0.3104  0.3363  0.2443
 6748SOL    HW131877   1.188   2.564  10.016 -1.1648  0.4249  0.2895
 6748SOL    HW231878   1.111   2.630  10.123 -0.0488  1.1399 -0.6072
 6749SOL     OW31879   1.377   3.763   8.531  0.5271  0.3811 -0.0337
 6749SOL    HW131880   1.355   3.747   8.623  1.0924  1.3506  0.2753
 6749SOL    HW231881   1.346   3.852   8.513 -3.9655 -0.8473  1.6229
 6750SOL     OW31882   3.898   2.728   0.576  0.3447  0.2874 -0.8202
 6750SOL    HW131883   3.941   2.674   0.643 -0.0260  0.5517 -0.3717
 6750SOL    HW231884   3.834   2.667   0.540  2.0605 -2.5764  0.9572
 6751SOL     OW31885   0.384   4.345  13.105  0.5562 -0.0647 -0.3180
 6751SOL    HW131886   0.441   4.331  13.029 -1.4230  1.2568 -2.0585
 6751SOL    HW231887   0.300   4.308  13.076  0.2344  0.1254  0.3740
 6752SOL     OW31888   0.043   3.343   2.664 -0.3360  0.0621 -0.1907
 6752SOL    HW131889   4.735   3.306   2.591  0.0289 -1.3670  0.2790
 6752SOL    HW231890   4.736   3.420   2.691  0.1116  0.0554  0.6271
 6753SOL     OW31891   2.348   1.265   1.757  0.4317 -0.1584  1.2161
 6753SOL    HW131892   2.292   1.221   1.692  1.6763  2.9215 -1.8972
 6753SOL    HW231893   2.385   1.336   1.705 -0.6202 -0.4612  0.0502
 6754SOL     OW31894   0.557   0.577  11.633 -0.0756 -0.0665  0.1634
 6754SOL    HW131895   0.567   0.600  11.541 -2.1436  0.9447  0.1893
 6754SOL    HW231896   0.646   0.549  11.652  0.4191  2.3590  1.5373
 6755SOL     OW31897   1.697   2.299   7.450 -0.2169 -0.7117 -0.0022
 6755SOL    HW131898   1.637   2.350   7.504  0.7208 -0.0801  0.4429
 6755SOL    HW231899   1.657   2.282   7.365 -1.8009 -0.3903  0.6840
 6756SOL     OW31900   1.244   1.488   7.911  0.2234 -0.3092  0.2168
 6756SOL    HW131901   1.315   1.534   7.866 -0.5537  0.5859 -0.0943
 6756SOL    HW231902   1.206   1.442   7.837 -0.1631  0.9805 -0.3821
 6757SOL     OW31903   3.552   1.295  17.328  0.3806  0.5714 -0.2634
 6757SOL    HW131904   3.581   1.377  17.288  0.5672  0.8301  0.4057
 6757SOL    HW231905   3.485   1.287  17.259 -1.0322  0.5334  1.1088
 6758SOL     OW31906   3.652   2.870   2.454  0.6220  0.0395  0.9040
 6758SOL    HW131907   3.745   2.864   2.432 -0.0958  0.0141 -2.1197
 6758SOL    HW231908   3.624   2.889   2.364 -1.0100  0.7010  1.5528
 6759SOL     OW31909   2.792   0.538  15.735 -0.4052 -0.0177  0.1351
 6759SOL    HW131910   2.836   0.474  15.791 -2.0138  1.0194  2.5453
 6759SOL    HW231911   2.852   0.540  15.660 -2.8142 -2.3269 -1.8916
 6760SOL     OW31912   1.251   1.717   8.326  0.1634 -0.1813 -0.1795
 6760SOL    HW131913   1.195   1.678   8.259  0.8468  1.2243 -1.5738
 6760SOL    HW231914   1.249   1.653   8.397 -3.1849  1.6895  1.4108
 6761SOL     OW31915   2.341   0.691  10.237  0.6206  0.1127  0.3208
 6761SOL    HW131916   2.399   0.616  10.225 -0.5515 -0.9884  1.5256
 6761SOL    HW231917   2.285   0.660  10.308  0.1108  3.0960  1.2213
 6762SOL     OW31918   2.403   3.399   2.858 -0.0759  0.2141  0.1167
 6762SOL    HW131919   2.308   3.399   2.868 -0.1910 -0.3119 -0.9242
 6762SOL    HW231920   2.413   3.366   2.769  2.2455  0.8350  0.1386
 6763SOL     OW31921   4.472   3.701   0.717  0.9084  0.5843  0.9614
 6763SOL    HW131922   4.507   3.705   0.628 -1.2408  0.2964  0.0952
 6763SOL    HW231923   4.545   3.724   0.775  0.4714 -0.2886  1.8543
 6764SOL     OW31924   0.523   1.739  14.419 -0.0255  0.4800  0.5560
 6764SOL    HW131925   0.451   1.760  14.360  1.2133 -0.5452 -1.3245
 6764SOL    HW231926   0.588   1.700  14.359 -2.1353 -1.2289 -0.6127
 6765SOL     OW31927   1.206   1.440   0.676 -0.3439  0.1216 -0.5433
 6765SOL    HW131928   1.287   1.458   0.629 -0.2939  0.2538 -0.4063
 6765SOL    HW231929   1.210   1.509   0.742 -1.5356 -2.2804  2.0666
 6766SOL     OW31930   3.263   3.955  12.199  0.3046  0.1067  0.1352
 6766SOL    HW131931   3.253   3.924  12.289  1.1247  3.1113  1.2393
 6766SOL    HW231932   3.352   3.927  12.180 -0.7022 -2.6861 -0.5700
 6767SOL     OW31933   0.657   4.074   3.530  0.7554  0.2114 -0.1943
 6767SOL    HW131934   0.645   4.001   3.470 -1.7864 -0.9126  1.6866
 6767SOL    HW231935   0.582   4.130   3.507 -0.1398 -1.1603 -0.5813
 6768SOL     OW31936   1.667   1.363   8.344 -0.6899  0.1278  0.4678
 6768SOL    HW131937   1.591   1.316   8.378 -1.0898  0.8759  0.6227
 6768SOL    HW231938   1.643   1.456   8.342 -0.9493  0.0213 -1.3530
 6769SOL     OW31939   0.462   3.873   4.666 -0.2600  0.0053 -0.1610
 6769SOL    HW131940   0.521   3.940   4.632 -1.2591  0.8694 -0.1829
 6769SOL    HW231941   0.511   3.791   4.665 -2.2702 -1.2043  1.1005
 6770SOL     OW31942   0.357   4.499   3.098  0.2864 -0.3512  0.4761
 6770SOL    HW131943   0.433   4.446   3.123  0.7593  0.6522  1.1477
 6770SOL    HW231944   0.370   4.586   3.134 -0.9126 -0.5144  1.3007
 6771SOL     OW31945   3.317   0.575   2.365  0.0098 -0.0216  0.7993
 6771SOL    HW131946   3.332   0.568   2.459 -1.2810 -1.9242  0.8522
 6771SOL    HW231947   3.303   0.486   2.332 -3.1617 -0.0444  2.1970
 6772SOL     OW31948   3.227   2.965  16.428 -0.0822  0.1963 -0.3428
 6772SOL    HW131949   3.135   2.976  16.404 -0.4115 -2.1054 -0.1474
 6772SOL    HW231950   3.246   2.934  16.339 -0.7510 -1.3194  0.0303
 6773SOL     OW31951   2.673   0.661   6.923 -0.2750 -0.4943  0.5102
 6773SOL    HW131952   2.705   0.581   6.881 -1.0644  0.2788 -1.5189
 6773SOL    HW231953   2.749   0.688   6.974 -0.2212 -2.6460  1.5857
 6774SOL     OW31954   3.808   3.155  10.179  0.6004 -0.0035  0.1591
 6774SOL    HW131955   3.850   3.238  10.198  2.4244 -0.5565 -1.4630
 6774SOL    HW231956   3.724   3.180  10.139  0.3609  0.4581  0.9699
 6775SOL     OW31957   4.397   1.857   4.100 -0.3407  0.1481  0.0344
 6775SOL    HW131958   4.308   1.891   4.107 -0.8242 -1.2066  0.5579
 6775SOL    HW231959   4.426   1.850   4.190  2.3129 -2.7618 -1.0584
 6776SOL     OW31960   3.583   1.686   8.384  0.2962  0.2824 -0.1547
 6776SOL    HW131961   3.608   1.762   8.436 -1.8177  0.8909 -0.0160
 6776SOL    HW231962   3.672   1.652   8.375  0.4778  0.3371  1.3849
 6777SOL     OW31963   0.152   2.475  11.690  0.5096 -0.2305  0.1778
 6777SOL    HW131964   0.080   2.532  11.665 -0.6150 -1.4842  0.5479
 6777SOL    HW231965   0.221   2.513  11.635 -0.2454  0.1065 -0.5352
 6778SOL     OW31966   2.846   0.503  15.131  0.4434  0.3449 -0.1779
 6778SOL    HW131967   2.813   0.414  15.118  1.2166  0.0976 -0.4555
 6778SOL    HW231968   2.939   0.482  15.141  0.4171  0.3934  0.1914
 6779SOL     OW31969   2.757   2.044  17.717 -0.0968 -0.8467  0.1034
 6779SOL    HW131970   2.795   2.094  17.644 -0.8944  0.8912  0.8682
 6779SOL    HW231971   2.810   2.085   0.022 -0.2476 -1.3063  0.4914
 6780SOL     OW31972   2.022   4.276   2.509 -0.3740 -0.2531  0.4141
 6780SOL    HW131973   2.091   4.260   2.573  0.3297 -0.7606 -0.4629
 6780SOL    HW231974   1.944   4.301   2.559  0.8368  1.6076  1.3330
 6781SOL     OW31975   1.543   2.465   7.649 -0.6931 -0.2389  0.6781
 6781SOL    HW131976   1.474   2.401   7.666 -0.2170 -1.2215 -1.0042
 6781SOL    HW231977   1.550   2.509   7.733 -2.9215 -0.2544  0.8619
 6782SOL     OW31978   3.843   2.200  17.215  0.1390  0.0643  0.6168
 6782SOL    HW131979   3.796   2.255  17.276 -1.3240 -1.6321  1.0356
 6782SOL    HW231980   3.839   2.108  17.243 -0.2742  0.2809  1.2520
 6783SOL     OW31981   4.156   4.655   5.850 -0.5076 -0.3471  0.1790
 6783SOL    HW131982   4.155   4.623   5.940 -0.6900  1.5428  0.8396
 6783SOL    HW231983   4.068   4.690   5.839 -1.6097 -3.0374  0.3197
 6784SOL     OW31984   3.099   1.313   9.061  0.1178  0.2385 -0.4258
 6784SOL    HW131985   3.134   1.233   9.023  0.7407  0.1793  0.2641
 6784SOL    HW231986   3.140   1.381   9.008  1.1762 -0.7022 -0.8100
 6785SOL     OW31987   4.443   2.548   7.308  0.0497 -0.0126  0.0977
 6785SOL    HW131988   4.390   2.604   7.365 -0.5155  0.7814 -1.1990
 6785SOL    HW231989   4.462   2.483   7.376 -0.6083  1.9435  2.1354
 6786SOL     OW31990   1.439   4.346   6.762 -0.4236  0.0606  0.4321
 6786SOL    HW131991   1.451   4.415   6.827 -0.8639  0.0882  0.4856
 6786SOL    HW231992   1.427   4.398   6.683  1.0666 -0.2110  0.0241
 6787SOL     OW31993   4.093   3.536   0.563 -0.0419  0.5116 -0.2715
 6787SOL    HW131994   4.041   3.524   0.483 -1.0097  1.9197  0.1426
 6787SOL    HW231995   4.158   3.593   0.521  0.4662  0.6948  0.7683
 6788SOL     OW31996   2.858   4.310   5.146  0.0096  0.3577 -0.0644
 6788SOL    HW131997   2.776   4.262   5.133 -0.1241  0.8796 -1.1355
 6788SOL    HW231998   2.909   4.242   5.190  0.8508  1.4453  0.6175
 6789SOL     OW31999   4.462   1.511  16.227 -1.0845 -0.3692  0.2310
 6789SOL    HW132000   4.436   1.571  16.157  2.1413 -0.6105 -1.1684
 6789SOL    HW232001   4.386   1.510  16.285 -1.1958 -1.6188  0.0620
 6790SOL     OW32002   1.275   2.900  13.451 -0.0460  0.3465  0.2551
 6790SOL    HW132003   1.283   2.860  13.538 -1.7386 -1.4898 -0.4252
 6790SOL    HW232004   1.284   2.825  13.391  1.2418 -0.9849  2.1122
 6791SOL     OW32005   3.491   1.100  12.405 -0.0762 -0.9827  0.5325
 6791SOL    HW132006   3.475   1.137  12.492 -0.2301 -1.4076  0.6833
 6791SOL    HW232007   3.409   1.052  12.392 -0.3223 -0.8922  1.7749
 6792SOL     OW32008   4.214   4.323  14.892  0.3432 -0.1398 -0.2858
 6792SOL    HW132009   4.170   4.253  14.941 -1.9024  0.5428 -1.3068
 6792SOL    HW232010   4.290   4.272  14.865  1.0031  0.3484  0.6806
 6793SOL     OW32011   3.711   3.727   9.921  0.1938  0.0971 -0.2540
 6793SOL    HW132012   3.779   3.711   9.987 -2.0473  1.9572  2.4864
 6793SOL    HW232013   3.652   3.657   9.945  0.9906 -0.6961 -0.5964
 6794SOL     OW32014   2.127   2.834   1.166 -0.2668  0.0298  0.2037
 6794SOL    HW132015   2.068   2.809   1.237  0.0927  0.4119  0.6387
 6794SOL    HW232016   2.210   2.805   1.204  0.0623  2.2939  1.2159
 6795SOL     OW32017   1.171   0.900   1.415 -0.1208 -0.8739  0.3985
 6795SOL    HW132018   1.224   0.914   1.493 -0.0624  3.2290 -0.4216
 6795SOL    HW232019   1.223   0.946   1.349  2.1337 -1.6690  1.6457
 6796SOL     OW32020   1.626   3.283   8.393 -0.2286  0.2366 -0.1799
 6796SOL    HW132021   1.706   3.306   8.346  0.4459 -1.6545  0.0847
 6796SOL    HW232022   1.593   3.373   8.397  0.5264  0.5596 -1.1969
 6797SOL     OW32023   2.970   1.840  14.570  0.2362 -0.2598  0.2712
 6797SOL    HW132024   2.979   1.758  14.619 -0.0211  0.4777  1.5471
 6797SOL    HW232025   3.053   1.885  14.585  1.3878 -1.5375 -2.1634
 6798SOL     OW32026   0.710   1.965   5.470 -0.0753 -0.1519 -0.4958
 6798SOL    HW132027   0.718   1.904   5.543  2.7689 -0.1770 -0.8140
 6798SOL    HW232028   0.756   1.912   5.405  1.5041 -0.3784  0.7976
 6799SOL     OW32029   1.608   4.078  17.468 -0.0007  0.4410  0.8720
 6799SOL    HW132030   1.678   4.063  17.531 -0.1795 -0.5262  0.8548
 6799SOL    HW232031   1.643   4.053  17.382  0.3329 -1.3672  1.5234
 6800SOL     OW32032   1.252   4.429   5.825  0.3637  0.0239 -0.6625
 6800SOL    HW132033   1.299   4.461   5.901  0.3851  0.3442 -0.8092
 6800SOL    HW232034   1.206   4.357   5.868  0.1084  0.9281  0.5670
 6801SOL     OW32035   1.878   1.608  13.807  0.0752 -0.0035 -0.1953
 6801SOL    HW132036   1.919   1.673  13.863 -1.7694  0.1964  0.9030
 6801SOL    HW232037   1.806   1.578  13.862 -1.3218  1.6453 -1.1502
 6802SOL     OW32038   1.212   4.353   3.446 -0.1205  0.4099 -0.2678
 6802SOL    HW132039   1.125   4.333   3.482  0.7985 -1.7933  0.6586
 6802SOL    HW232040   1.220   4.289   3.376  0.9993 -0.7007  0.8736
 6803SOL     OW32041   2.011   3.303   9.040  0.2946 -0.8125 -0.0996
 6803SOL    HW132042   2.052   3.327   8.956 -0.4878 -0.6998 -0.4482
 6803SOL    HW232043   2.087   3.311   9.097  1.1215 -1.2369 -1.1306
 6804SOL     OW32044   2.070   2.478   8.563  0.3655 -0.5155 -0.2571
 6804SOL    HW132045   1.995   2.438   8.605  0.0002  1.0023  0.5434
 6804SOL    HW232046   2.034   2.546   8.506 -0.9013 -0.9514  0.0342
 6805SOL     OW32047   1.880   0.980   1.679 -0.9283  0.6115  0.1054
 6805SOL    HW132048   1.882   0.889   1.648  0.5786  0.7304 -0.1245
 6805SOL    HW232049   1.847   0.959   1.766 -1.2525 -0.5030 -0.2839
 6806SOL     OW32050   1.377   0.631   8.707 -0.2325  0.5404  0.3194
 6806SOL    HW132051   1.368   0.546   8.749  2.6796 -1.1852 -2.5858
 6806SOL    HW232052   1.473   0.637   8.708 -0.2480  0.7196  0.9670
 6807SOL     OW32053   2.768   1.893  16.746  0.6087  0.2693 -0.0825
 6807SOL    HW132054   2.734   1.921  16.661 -0.6505 -2.5656 -0.5128
 6807SOL    HW232055   2.707   1.937  16.805 -0.7662 -1.4622 -0.2066
 6808SOL     OW32056   0.690   1.262  11.180 -0.0453 -0.3430 -0.0128
 6808SOL    HW132057   0.753   1.319  11.135 -2.5142  1.8991 -0.6886
 6808SOL    HW232058   0.635   1.260  11.101 -0.0081  1.5876 -0.0928
 6809SOL     OW32059   2.195   3.880   4.869  0.5319  0.4922  0.5677
 6809SOL    HW132060   2.234   3.967   4.868 -2.1499  1.6703  1.0705
 6809SOL    HW232061   2.169   3.876   4.777 -0.3778  1.7204  0.7802
 6810SOL     OW32062   2.303   3.407   1.959 -0.4808  0.3122  0.5705
 6810SOL    HW132063   2.293   3.502   1.961 -2.0112  0.2052 -1.0373
 6810SOL    HW232064   2.353   3.380   2.036 -0.7662  2.7569  1.6216
 6811SOL     OW32065   1.191   1.321   2.649  0.5623  0.5562  0.4462
 6811SOL    HW132066   1.124   1.299   2.584 -2.4158  0.7613  3.5010
 6811SOL    HW232067   1.266   1.305   2.591 -0.2238 -3.3505  0.5166
 6812SOL     OW32068   3.322   4.366   8.249  0.5020  0.3046  0.3945
 6812SOL    HW132069   3.231   4.371   8.221  0.7106  1.2025 -0.1477
 6812SOL    HW232070   3.329   4.402   8.337  1.5135  1.0209  0.0294
 6813SOL     OW32071   3.737   3.655   7.859  0.4988 -0.2941  0.4358
 6813SOL    HW132072   3.820   3.609   7.872  0.4516 -0.4161  0.3029
 6813SOL    HW232073   3.692   3.658   7.944 -0.0919 -1.9085  0.1825
 6814SOL     OW32074   2.005   3.687   2.174  0.7265  0.0287 -0.2445
 6814SOL    HW132075   1.988   3.620   2.108  0.1668 -0.1876  0.1244
 6814SOL    HW232076   1.923   3.732   2.154 -1.1756 -2.4574  2.1406
 6815SOL     OW32077   0.375   3.673   4.284  0.3258  0.1874 -0.1675
 6815SOL    HW132078   0.304   3.730   4.254  0.2970  0.4459  0.3801
 6815SOL    HW232079   0.354   3.678   4.378 -3.0967  4.0586 -1.1150
 6816SOL     OW32080   0.056   4.257   2.896  0.1704  0.4317 -0.4390
 6816SOL    HW132081   0.103   4.194   2.841  1.3010 -0.6432  1.7570
 6816SOL    HW232082   0.125   4.280   2.958 -0.4643 -1.7970  1.0934
 6817SOL     OW32083   0.956   4.507   2.230  0.2160 -0.1499  0.1645
 6817SOL    HW132084   1.007   4.501   2.311  0.5059  0.3092  0.0132
 6817SOL    HW232085   0.902   4.586   2.234  0.2947 -0.2027  2.7583
 6818SOL     OW32086   3.910   0.156  11.979 -0.6074  0.5679 -0.0643
 6818SOL    HW132087   3.824   0.169  11.939 -0.3449  3.9022  0.4450
 6818SOL    HW232088   3.928   0.241  12.018 -1.0141  1.3703 -1.5986
 6819SOL     OW32089   0.785   3.146   7.459 -0.0968  0.1306 -0.3499
 6819SOL    HW132090   0.747   3.151   7.546  0.1819  1.2744 -0.2933
 6819SOL    HW232091   0.715   3.119   7.400 -2.4195  1.2347  1.9331
 6820SOL     OW32092   2.149   0.393  14.384 -0.4564 -0.2509 -0.5521
 6820SOL    HW132093   2.171   0.376  14.293 -2.9725  0.1944 -1.2577
 6820SOL    HW232094   2.232   0.395  14.431 -0.6287  0.0512 -0.2573
 6821SOL     OW32095   1.615   3.388   6.183  0.8177  0.0222  0.0379
 6821SOL    HW132096   1.614   3.431   6.268 -0.5854  0.5770 -0.2448
 6821SOL    HW232097   1.709   3.384   6.166  0.6482 -0.8859 -0.7252
 6822SOL     OW32098   3.338   1.207   8.967 -0.0820  0.5838  0.0033
 6822SOL    HW132099   3.360   1.260   8.890 -0.0569  2.0301  1.0166
 6822SOL    HW232100   3.323   1.120   8.930 -1.0072  0.6732  0.1716
 6823SOL     OW32101   2.037   4.316   5.614  0.1713 -0.0937  0.5459
 6823SOL    HW132102   2.074   4.258   5.548  0.5064  0.3134  0.3728
 6823SOL    HW232103   1.943   4.302   5.604  0.2590 -0.0004 -0.3956
 6824SOL     OW32104   4.384   2.846   9.902 -0.0557 -0.3546 -0.3382
 6824SOL    HW132105   4.386   2.941   9.887 -1.3977 -0.0795  1.2906
 6824SOL    HW232106   4.402   2.822   9.812 -0.2274  0.7466 -0.6734
 6825SOL     OW32107   4.654   3.422   9.113  0.1970  0.0642  0.5462
 6825SOL    HW132108   4.713   3.498   9.114  0.2687  0.0222 -0.2928
 6825SOL    HW232109   4.643   3.405   9.206 -0.0980 -0.7632  0.3598
 6826SOL     OW32110   2.359   0.996   8.384  0.7581  0.1310  0.0792
 6826SOL    HW132111   2.282   1.053   8.384  0.6075 -0.0719 -0.4157
 6826SOL    HW232112   2.330   0.919   8.432 -0.5861  0.5839 -0.0204
 6827SOL     OW32113   4.080   1.097   6.189  0.2408  0.4925 -0.6729
 6827SOL    HW132114   4.006   1.123   6.244 -0.5088 -1.1521 -0.8701
 6827SOL    HW232115   4.131   1.063   6.262  0.2306  0.1152 -0.8396
 6828SOL     OW32116   0.630   3.935   4.102 -0.7399 -0.2653 -0.0020
 6828SOL    HW132117   0.691   4.002   4.133 -0.9755 -0.0993  0.1078
 6828SOL    HW232118   0.697   3.874   4.072  1.9233  2.5919  0.1895
 6829SOL     OW32119   3.191   2.436   3.874  0.5385 -0.8186 -0.5910
 6829SOL    HW132120   3.233   2.514   3.909  1.3743 -1.1781 -0.7945
 6829SOL    HW232121   3.242   2.367   3.917  1.6413 -0.3045 -1.0764
 6830SOL     OW32122   2.738   1.021   6.566 -0.2163  0.3364 -0.0399
 6830SOL    HW132123   2.829   0.995   6.581 -0.1537  0.2589 -0.5506
 6830SOL    HW232124   2.754   1.055   6.477  0.4235  2.0955  0.7477
 6831SOL     OW32125   3.037   3.654   3.033 -0.4300  0.4138 -0.4122
 6831SOL    HW132126   3.052   3.742   3.068  0.0224  0.0710  0.2570
 6831SOL    HW232127   3.009   3.604   3.109  2.9726 -1.1525 -0.2185
 6832SOL     OW32128   2.464   1.153   7.343  0.2400  0.1556  0.1174
 6832SOL    HW132129   2.483   1.062   7.321  0.7054  0.5027 -0.9412
 6832SOL    HW232130   2.454   1.188   7.254  1.7995  2.2112  0.7409
 6833SOL     OW32131   1.606   0.116  14.610 -0.0032  0.0007 -0.0190
 6833SOL    HW132132   1.661   0.123  14.689  0.2359  3.6128 -0.4902
 6833SOL    HW232133   1.517   0.133  14.641  0.3370  3.6527 -1.1062
 6834SOL     OW32134   1.781   2.769   5.393 -0.0273  1.1375  0.1028
 6834SOL    HW132135   1.773   2.726   5.478  0.6074 -2.0598 -1.4546
 6834SOL    HW232136   1.695   2.811   5.390 -0.7446 -0.3904 -0.7242
 6835SOL     OW32137   3.295   0.263   2.681 -0.1950  0.1847 -0.3134
 6835SOL    HW132138   3.342   0.343   2.659 -0.6613  1.0893  2.0711
 6835SOL    HW232139   3.205   0.294   2.674 -1.1338 -2.4991 -0.3407
 6836SOL     OW32140   4.263   4.680   2.662 -0.2794  0.7506  0.3596
 6836SOL    HW132141   4.265   4.660   2.568 -0.2067 -0.1274  0.5544
 6836SOL    HW232142   4.198   4.616   2.691 -1.3686  1.4799 -0.4428
 6837SOL     OW32143   3.099   1.844   2.285 -0.1705 -0.4739 -0.1786
 6837SOL    HW132144   3.070   1.934   2.271 -0.8043 -0.6583 -0.0422
 6837SOL    HW232145   3.097   1.833   2.380  0.4951  0.1004 -0.0975
 6838SOL     OW32146   1.069   2.361  11.900 -0.3390  0.3493  0.0004
 6838SOL    HW132147   1.038   2.444  11.937  1.1955  0.9523 -0.0998
 6838SOL    HW232148   0.990   2.319  11.864 -0.6061  1.6671 -0.9081
 6839SOL     OW32149   0.487   3.950   5.500 -0.4282 -0.0885 -0.0669
 6839SOL    HW132150   0.404   3.968   5.456 -0.4428  1.5307  0.6341
 6839SOL    HW232151   0.486   4.018   5.568 -0.7512 -0.4035  0.2492
 6840SOL     OW32152   0.748   1.984   9.106  0.0203  0.1295  0.0300
 6840SOL    HW132153   0.736   1.889   9.117 -2.1584  0.3105 -0.8483
 6840SOL    HW232154   0.843   1.995   9.096  0.0851 -0.8293 -0.4534
 6841SOL     OW32155   0.825   1.123   2.106  0.3989 -0.4168 -0.4787
 6841SOL    HW132156   0.803   1.035   2.138 -0.7019  0.0687  0.0840
 6841SOL    HW232157   0.912   1.100   2.073 -0.4762 -2.4148 -1.4599
 6842SOL     OW32158   1.024   3.861  11.939 -0.2414  0.0107  0.7897
 6842SOL    HW132159   1.111   3.900  11.933 -0.9529  1.1298 -1.8363
 6842SOL    HW232160   1.014   3.838  12.032  1.0429 -1.8193  0.4802
 6843SOL     OW32161   3.772   0.244  11.637 -0.4746 -0.1397  0.6802
 6843SOL    HW132162   3.843   0.261  11.575  1.1208 -1.4505  2.1341
 6843SOL    HW232163   3.792   0.313  11.700 -0.8689  0.5091  0.0852
 6844SOL     OW32164   2.652   1.827  15.182 -0.3569 -0.6597  0.0524
 6844SOL    HW132165   2.674   1.751  15.236  0.1012 -0.3989  0.2361
 6844SOL    HW232166   2.669   1.898  15.244 -3.0963 -1.7100  1.9829
 6845SOL     OW32167   1.152   4.273   8.736 -0.2722 -0.5377  0.7930
 6845SOL    HW132168   1.132   4.323   8.815 -1.1548 -0.1832  0.3367
 6845SOL    HW232169   1.119   4.187   8.760  0.0646 -1.0626 -0.6502
 6846SOL     OW32170   4.171   1.842  12.351  0.4627  0.4482 -0.0839
 6846SOL    HW132171   4.096   1.884  12.308 -0.5069 -0.9043  0.2752
 6846SOL    HW232172   4.138   1.752  12.359 -0.8385  0.9362  0.0325
 6847SOL     OW32173   3.106   3.851   3.201 -0.1246  0.0157 -0.9757
 6847SOL    HW132174   3.141   3.929   3.243  0.9379 -0.6374 -0.6312
 6847SOL    HW232175   3.017   3.859   3.234  0.1765 -0.6792  0.0316
 6848SOL     OW32176   2.086   4.387   2.011 -0.0617 -0.1781  0.0905
 6848SOL    HW132177   2.060   4.398   2.103 -0.0099  1.9018 -0.1673
 6848SOL    HW232178   2.168   4.435   2.011 -0.5326  0.6066  2.3976
 6849SOL     OW32179   0.480   1.396   5.097 -0.2506 -0.5374 -0.1180
 6849SOL    HW132180   0.454   1.394   5.189 -0.1955 -2.2174 -0.1249
 6849SOL    HW232181   0.454   1.313   5.056  0.6903  0.2358 -2.2343
 6850SOL     OW32182   1.585   4.098  16.774 -0.3381  0.2162 -0.2312
 6850SOL    HW132183   1.620   4.020  16.732  1.1962  1.0541 -0.5291
 6850SOL    HW232184   1.523   4.117  16.705 -0.5704 -2.9469 -0.8872
 6851SOL     OW32185   4.104   1.425  12.634 -0.6501 -0.0305  0.7827
 6851SOL    HW132186   4.029   1.452  12.688 -1.5053  1.8152 -1.2916
 6851SOL    HW232187   4.116   1.334  12.659  4.1356  0.5969  0.7070
 6852SOL     OW32188   3.032   0.579   0.679  0.4069  0.0755 -0.4752
 6852SOL    HW132189   2.973   0.644   0.640 -3.0931 -1.9310  1.5686
 6852SOL    HW232190   3.034   0.605   0.771 -2.7345 -1.4209  0.0056
 6853SOL     OW32191   1.050   1.583   6.302  0.4298 -0.1993  1.0114
 6853SOL    HW132192   0.982   1.528   6.341 -0.4275 -0.2135 -0.4913
 6853SOL    HW232193   1.127   1.528   6.316  0.8329  0.2018  0.3615
 6854SOL     OW32194   0.386   1.969  12.756  0.2177  0.4289  0.2733
 6854SOL    HW132195   0.422   1.951  12.843  1.3470  3.0107  0.3400
 6854SOL    HW232196   0.336   1.888  12.740  1.4109 -0.1190 -0.6392
 6855SOL     OW32197   3.708   2.627   6.490 -0.2188 -0.0584  0.5528
 6855SOL    HW132198   3.724   2.690   6.419 -2.4843  0.7532  0.7533
 6855SOL    HW232199   3.762   2.667   6.558  0.4618  2.7943 -1.6467
 6856SOL     OW32200   3.396   0.021   7.080 -0.4671 -0.0978  0.0227
 6856SOL    HW132201   3.329   4.741   7.145 -0.0639  2.0938  1.1777
 6856SOL    HW232202   3.355   0.098   7.041 -1.4144 -0.9033 -0.5755
 6857SOL     OW32203   0.647   0.296   4.282 -0.3605  0.3384  0.1005
 6857SOL    HW132204   0.682   0.217   4.322 -2.1674  0.2711  1.5293
 6857SOL    HW232205   0.710   0.307   4.210 -0.1245 -0.9763  0.1138
 6858SOL     OW32206   0.416   3.449   9.290  0.1185  0.0105  0.5139
 6858SOL    HW132207   0.475   3.378   9.264 -0.6055 -1.4358  2.7900
 6858SOL    HW232208   0.351   3.406   9.346 -0.7918  2.8262  1.5689
 6859SOL     OW32209   3.973   0.780   9.247 -0.2366 -0.3530 -0.0089
 6859SOL    HW132210   4.054   0.745   9.285 -0.7253 -0.2067  1.1624
 6859SOL    HW232211   3.957   0.850   9.309 -1.1210  0.4875 -1.1891
 6860SOL     OW32212   0.015   3.249   7.112 -0.3616 -0.3265 -0.5886
 6860SOL    HW132213   4.666   3.280   7.106  0.1933  1.5600  0.6393
 6860SOL    HW232214   0.037   3.215   7.026  0.3457 -1.3771  0.0107
 6861SOL     OW32215   3.844   0.172   9.593 -0.1785  0.2336  0.3713
 6861SOL    HW132216   3.923   0.137   9.634  0.4110 -0.2945 -1.2073
 6861SOL    HW232217   3.830   0.129   9.508 -0.7444  0.8306  0.1625
 6862SOL     OW32218   2.986   4.072   7.249 -0.7130 -0.3974  0.9379
 6862SOL    HW132219   3.067   4.050   7.297 -0.6132 -2.4684 -0.1650
 6862SOL    HW232220   2.933   3.996   7.274 -2.0780  0.2210 -0.0911
 6863SOL     OW32221   3.490   0.947   2.796 -0.5115  0.3746  0.0375
 6863SOL    HW132222   3.397   0.924   2.801 -0.3495  0.0966  1.5604
 6863SOL    HW232223   3.485   1.014   2.727 -1.4904  0.1843 -0.0730
 6864SOL     OW32224   2.029   1.623   9.183 -0.2798  0.0148 -0.4976
 6864SOL    HW132225   2.029   1.637   9.278  0.1138  2.5996 -0.8725
 6864SOL    HW232226   2.107   1.676   9.167  0.2471 -1.1028 -1.6400
 6865SOL     OW32227   0.984   1.919   8.152  0.0280  0.3753 -0.2288
 6865SOL    HW132228   1.018   1.831   8.137  1.5466  1.1671 -1.4231
 6865SOL    HW232229   0.922   1.931   8.079 -1.9657 -2.5835  0.9804
 6866SOL     OW32230   2.743   4.382   2.834  0.5210  0.1145 -0.1895
 6866SOL    HW132231   2.677   4.371   2.767  1.1341  3.8929 -1.4096
 6866SOL    HW232232   2.683   4.419   2.898  0.1123  0.8261 -0.9914
 6867SOL     OW32233   1.577   1.752  13.743  0.4576 -0.6099 -0.2169
 6867SOL    HW132234   1.535   1.834  13.715  1.0079 -0.2016  0.1343
 6867SOL    HW232235   1.575   1.762  13.839 -1.0823  3.5118 -0.6422
 6868SOL     OW32236   1.506   3.600   8.317 -0.4570 -0.1007  0.4443
 6868SOL    HW132237   1.439   3.533   8.305  0.6680 -1.0633 -0.4450
 6868SOL    HW232238   1.500   3.616   8.411  2.0760  1.9448  0.2598
 6869SOL     OW32239   1.426   4.674  13.831 -0.2463  0.0312  0.3162
 6869SOL    HW132240   1.384   4.589  13.819  0.2066  0.1254 -1.9108
 6869SOL    HW232241   1.518   4.652  13.846 -0.0813  0.4758 -0.0603
 6870SOL     OW32242   4.670   2.482   3.000  0.5239  0.0446 -0.0114
 6870SOL    HW132243   4.657   2.574   3.025 -0.2440  0.4475 -1.9568
 6870SOL    HW232244   0.016   2.485   2.962 -0.5441  2.2025 -2.3036
 6871SOL     OW32245   2.248   4.443   3.823 -0.0465 -0.0577 -0.4091
 6871SOL    HW132246   2.243   4.432   3.918  0.0660  0.0801 -0.3866
 6871SOL    HW232247   2.155   4.464   3.812 -0.3155 -1.9481 -1.6926
 6872SOL     OW32248   0.526   0.732   9.000  0.5735 -0.3789 -0.0472
 6872SOL    HW132249   0.546   0.712   9.092 -2.2318  1.5276  0.9619
 6872SOL    HW232250   0.546   0.652   8.951  0.7930  0.3198 -1.1102
 6873SOL     OW32251   0.487   2.857   1.396  0.0690 -0.1591 -0.0403
 6873SOL    HW132252   0.569   2.902   1.377 -1.6128  2.9701  0.0653
 6873SOL    HW232253   0.531   2.774   1.414  0.3005 -0.0896 -0.2774
 6874SOL     OW32254   3.489   0.449   8.317  0.0041 -0.5194  0.2793
 6874SOL    HW132255   3.501   0.462   8.223 -0.0854 -1.5301  0.1324
 6874SOL    HW232256   3.395   0.432   8.313 -0.1884  0.1641  1.6195
 6875SOL     OW32257   2.672   0.990  16.977  0.4400  0.8838  0.2621
 6875SOL    HW132258   2.577   0.986  16.980  0.3809  2.5018  0.9516
 6875SOL    HW232259   2.695   0.901  16.950  2.1343  1.0040  1.2754
 6876SOL     OW32260   0.227   0.141   9.859  0.1005  0.0794  0.0766
 6876SOL    HW132261   0.320   0.141   9.881  0.0960  1.6357  0.1070
 6876SOL    HW232262   0.188   0.065   9.903 -0.1590  0.8167  1.1153
 6877SOL     OW32263   0.779   0.223   7.242  0.5427  0.0410  0.4888
 6877SOL    HW132264   0.813   0.310   7.220 -1.2005  0.3767 -0.8482
 6877SOL    HW232265   0.698   0.232   7.291  0.8073 -0.5802  1.0397
 6878SOL     OW32266   4.094   1.761  10.813 -0.2432 -0.4471  0.1108
 6878SOL    HW132267   4.114   1.760  10.906 -0.7531 -0.9935  0.2133
 6878SOL    HW232268   4.122   1.851  10.797 -1.2455 -0.3791 -1.3148
 6879SOL     OW32269   1.961   4.663   3.786 -0.4316 -0.2979 -0.0630
 6879SOL    HW132270   1.981   4.571   3.804 -1.0068 -0.2426  0.8729
 6879SOL    HW232271   2.049   4.697   3.768 -0.3828 -0.2945  0.1727
 6880SOL     OW32272   1.036   2.587   6.999 -0.1591  0.1856  0.2784
 6880SOL    HW132273   1.097   2.514   6.987 -0.5198 -0.1628  0.5830
 6880SOL    HW232274   0.969   2.533   7.041  0.2992  0.1088  0.9104
 6881SOL     OW32275   2.478   0.421   2.098  0.4420  0.0482 -0.2582
 6881SOL    HW132276   2.520   0.481   2.036  1.5348 -1.3455 -0.8626
 6881SOL    HW232277   2.499   0.333   2.068 -0.5276 -0.5351  0.7994
 6882SOL     OW32278   0.330   1.414  10.842  0.6907  0.4102  0.2976
 6882SOL    HW132279   0.284   1.483  10.889 -0.9259 -0.8152  0.5115
 6882SOL    HW232280   0.280   1.333  10.838  0.7041  0.2780  2.6380
 6883SOL     OW32281   0.472   0.014   2.822  0.4376  0.0353  0.0545
 6883SOL    HW132282   0.518   4.688   2.872  3.6954  1.5119 -1.0118
 6883SOL    HW232283   0.408   0.039   2.889 -0.4738 -1.0227 -0.4066
 6884SOL     OW32284   2.741   4.354  16.530  0.0505  0.3174  0.5291
 6884SOL    HW132285   2.776   4.275  16.489 -3.5272 -1.3500  0.6863
 6884SOL    HW232286   2.744   4.413  16.455  2.1489  0.4577  0.7133
 6885SOL     OW32287   2.859   0.027   8.729 -0.4542 -0.1676 -0.4273
 6885SOL    HW132288   2.775   0.069   8.749  0.3748  2.3439 -2.2564
 6885SOL    HW232289   2.901   0.108   8.702  1.8703 -1.0049  0.6273
 6886SOL     OW32290   3.467   2.947  11.717  0.3566  0.0386 -0.3834
 6886SOL    HW132291   3.480   2.975  11.807  2.5834  1.7847 -1.2468
 6886SOL    HW232292   3.391   2.889  11.717  1.1184 -0.9480 -0.3349
 6887SOL     OW32293   1.887   3.380   0.151 -0.2617  0.0769 -0.7850
 6887SOL    HW132294   1.863   3.317   0.082  1.1977 -1.5064  0.1537
 6887SOL    HW232295   1.981   3.386   0.134  0.0382 -0.6848  0.6268
 6888SOL     OW32296   2.448   2.462   8.131  0.0914 -0.4705  0.0942
 6888SOL    HW132297   2.536   2.496   8.117 -0.5896  1.1217 -0.3647
 6888SOL    HW232298   2.468   2.370   8.144 -0.4534 -0.5619  0.2737
 6889SOL     OW32299   1.967   3.083   2.273 -0.4669 -0.0030  0.2093
 6889SOL    HW132300   1.900   3.150   2.289  0.4636  1.1678 -0.8463
 6889SOL    HW232301   1.924   3.045   2.196 -1.8057 -1.2475  1.5459
 6890SOL     OW32302   0.861   0.526   1.402  0.1813  0.4514  0.1546
 6890SOL    HW132303   0.914   0.601   1.430  1.8306 -0.9754  0.8002
 6890SOL    HW232304   0.851   0.539   1.307  0.7081 -0.2893 -0.0085
 6891SOL     OW32305   1.848   1.933   2.559  0.2172 -0.1721  0.0444
 6891SOL    HW132306   1.872   1.908   2.470 -1.1164  1.0205 -0.6576
 6891SOL    HW232307   1.838   1.843   2.593  1.2018  0.2018  1.3354
 6892SOL     OW32308   3.431   4.205   7.024  0.4154  0.2613  0.1329
 6892SOL    HW132309   3.403   4.297   7.025  0.4694  0.2610  1.8851
 6892SOL    HW232310   3.419   4.174   6.934 -0.5013  0.7628  0.0812
 6893SOL     OW32311   1.764   0.213   8.395  0.3325  0.3446  0.0822
 6893SOL    HW132312   1.676   0.177   8.409  0.2246 -0.9789 -3.7435
 6893SOL    HW232313   1.815   0.147   8.347  0.7340  0.4437  0.3746
 6894SOL     OW32314   4.135   0.586  12.288  0.3590 -0.2772  0.1665
 6894SOL    HW132315   4.054   0.570  12.238 -0.3297 -0.0997  1.2279
 6894SOL    HW232316   4.196   0.543  12.229  0.6550 -1.5163  1.3839
 6895SOL     OW32317   3.505   3.841   6.316 -0.2168 -0.0028 -0.0229
 6895SOL    HW132318   3.489   3.844   6.410  0.8234 -2.2876  0.2139
 6895SOL    HW232319   3.561   3.765   6.303 -1.8157 -0.9715 -1.2584
 6896SOL     OW32320   4.568   2.761   8.549 -0.4701 -0.1970  0.1799
 6896SOL    HW132321   4.477   2.791   8.544 -1.3888 -2.6238  2.1636
 6896SOL    HW232322   4.575   2.701   8.624  0.3353 -1.0542 -0.5826
 6897SOL     OW32323   0.133   0.546   3.351  0.1188 -0.0032  0.4993
 6897SOL    HW132324   0.052   0.496   3.363 -0.4399  1.4217  2.5115
 6897SOL    HW232325   0.196   0.474   3.350 -1.0707 -1.0645  1.7825
 6898SOL     OW32326   2.074   2.367   4.465 -0.2598 -0.5938 -0.3846
 6898SOL    HW132327   1.981   2.354   4.484  0.0434 -2.8472 -0.5186
 6898SOL    HW232328   2.113   2.307   4.528 -1.8566  0.5904  1.7424
 6899SOL     OW32329   0.816   0.644   7.437  0.0614 -0.0001 -0.1591
 6899SOL    HW132330   0.826   0.555   7.470 -3.4195 -0.6153 -0.7851
 6899SOL    HW232331   0.858   0.695   7.507  0.4228  0.7611 -0.9301
 6900SOL     OW32332   2.358   3.817   2.022  0.5418  0.0520 -0.5296
 6900SOL    HW132333   2.301   3.760   1.970 -0.5995  0.0542  0.7255
 6900SOL    HW232334   2.295   3.859   2.081  2.8198  3.8640 -0.7911
 6901SOL     OW32335   1.201   2.814   4.215 -0.0208 -0.1146  0.3111
 6901SOL    HW132336   1.217   2.728   4.254  0.1815  0.6277  1.9011
 6901SOL    HW232337   1.105   2.809   4.219  0.0461 -0.8988  1.0468
 6902SOL     OW32338   3.523   4.701   0.055 -0.0920 -0.0610 -0.2019
 6902SOL    HW132339   3.560   0.046   0.036  0.1669 -0.1948 -0.3066
 6902SOL    HW232340   3.584   4.680   0.126  1.1645  0.3493 -1.1585
 6903SOL     OW32341   1.508   4.454   6.261 -0.0050  0.1972 -0.1438
 6903SOL    HW132342   1.573   4.521   6.237 -3.8945  4.0155 -0.0794
 6903SOL    HW232343   1.429   4.477   6.213  0.4180 -3.1436 -2.4434
 6904SOL     OW32344   0.123   3.986  15.618  0.4928  0.1415  0.5593
 6904SOL    HW132345   0.193   3.921  15.605  1.2064  1.0692 -0.1896
 6904SOL    HW232346   0.079   3.984  15.533 -0.5347  1.5176  1.0760
 6905SOL     OW32347   3.920   3.262  13.076  0.1531  0.3323 -0.3646
 6905SOL    HW132348   3.837   3.294  13.112 -0.3109 -1.3213  0.0470
 6905SOL    HW232349   3.978   3.296  13.144 -0.1835 -2.0488  1.0997
 6906SOL     OW32350   4.565   2.197   3.967  0.0791  0.1161  0.2387
 6906SOL    HW132351   4.564   2.289   3.942  1.3350  0.0559 -0.0145
 6906SOL    HW232352   4.527   2.225   4.051  0.6882  1.3074  0.1183
 6907SOL     OW32353   1.936   1.349   8.232  0.0822  0.3216 -0.1727
 6907SOL    HW132354   1.871   1.329   8.299 -0.4661 -0.6348 -0.9852
 6907SOL    HW232355   1.999   1.280   8.251  1.3281  0.5574 -3.3897
 6908SOL     OW32356   2.964   3.775   0.648  0.3572 -0.3313  0.2267
 6908SOL    HW132357   3.017   3.849   0.677 -3.4601  2.6538 -0.3801
 6908SOL    HW232358   3.024   3.706   0.676  0.2497 -0.6016 -0.2070
 6909SOL     OW32359   0.397   4.027   3.693  0.4148 -0.1953 -0.0719
 6909SOL    HW132360   0.412   4.077   3.612 -2.0110  2.4096  1.0909
 6909SOL    HW232361   0.316   4.072   3.716  0.2967  0.7646 -2.3984
 6910SOL     OW32362   4.520   0.436  12.482  0.3993  0.4864  0.3035
 6910SOL    HW132363   4.461   0.481  12.543 -1.5461  0.4595 -1.5449
 6910SOL    HW232364   4.487   0.347  12.489 -0.4617  0.8661  1.0477
 6911SOL     OW32365   3.959   0.948  15.435  0.6533 -0.6393  0.5097
 6911SOL    HW132366   4.023   0.998  15.486  0.6396  0.5925 -0.6837
 6911SOL    HW232367   4.016   0.876  15.409 -0.0549 -1.4571  1.2265
 6912SOL     OW32368   3.769   4.154  11.961 -0.0961  0.2623 -0.2042
 6912SOL    HW132369   3.710   4.169  12.034  0.1399 -0.3574  0.1159
 6912SOL    HW232370   3.828   4.226  11.984 -1.1911  2.0761 -3.0182
 6913SOL     OW32371   2.791   1.087   2.928 -0.0525  0.1494 -0.1567
 6913SOL    HW132372   2.702   1.105   2.957 -0.0578  0.5124 -0.4091
 6913SOL    HW232373   2.832   1.164   2.967 -2.8721  1.1412  0.8308
 6914SOL     OW32374   2.757   2.112   6.229  0.1812  0.1537  0.6848
 6914SOL    HW132375   2.773   2.052   6.302  0.2170  0.8107  1.2190
 6914SOL    HW232376   2.662   2.125   6.226  0.0253 -1.3943 -0.9952
 6915SOL     OW32377   4.050   4.161   4.412  0.0027  0.0816 -0.1055
 6915SOL    HW132378   4.016   4.180   4.325  1.3924  0.1898 -0.6373
 6915SOL    HW232379   4.025   4.069   4.420 -2.4174  1.0047  2.6156
 6916SOL     OW32380   0.605   2.006   5.801  0.8954 -0.2614  0.0535
 6916SOL    HW132381   0.661   1.964   5.867  0.9103  0.7158  0.6576
 6916SOL    HW232382   0.603   1.942   5.730  1.6605 -1.8680  1.4597
 6917SOL     OW32383   0.012   4.583   1.781  0.2061  0.3810 -0.0109
 6917SOL    HW132384   0.067   4.582   1.859 -1.3081  0.6576  1.0586
 6917SOL    HW232385   4.696   4.656   1.800  1.5665  0.6529  3.0372
 6918SOL     OW32386   3.584   4.049   3.921  0.3384  0.1130 -0.1285
 6918SOL    HW132387   3.531   3.984   3.876 -0.8728  0.3469  0.9749
 6918SOL    HW232388   3.611   3.999   3.998 -1.6142 -0.4899  0.1670
 6919SOL     OW32389   0.932   2.894   0.743 -0.1949 -0.2423 -0.8113
 6919SOL    HW132390   0.958   2.966   0.685 -0.4087 -1.1683 -2.0576
 6919SOL    HW232391   0.841   2.921   0.734  0.0658  0.1188 -2.4213
 6920SOL     OW32392   2.216   1.634   7.055  0.0002 -0.3714  0.0723
 6920SOL    HW132393   2.171   1.577   7.118 -0.5473  0.9970  0.9044
 6920SOL    HW232394   2.257   1.702   7.109 -0.6038 -0.5411  0.7520
 6921SOL     OW32395   3.004   3.108   3.311 -0.9591  0.7614  0.4046
 6921SOL    HW132396   3.021   3.152   3.394  0.8347  1.8828 -0.5293
 6921SOL    HW232397   2.929   3.160   3.283  0.2999  2.4052  0.0866
 6922SOL     OW32398   0.441   0.017   5.345 -0.2964 -0.5958 -0.5396
 6922SOL    HW132399   0.441   0.059   5.259  0.8532 -1.4351 -0.9458
 6922SOL    HW232400   0.426   0.097   5.396 -0.9805  0.2573 -2.0903
 6923SOL     OW32401   2.981   2.073  16.840  0.2866 -0.3927  0.2298
 6923SOL    HW132402   2.916   2.003  16.839  0.5493 -0.6543  1.0508
 6923SOL    HW232403   2.987   2.097  16.748  1.2409  0.9536  0.6514
 6924SOL     OW32404   1.706   1.155   3.807  0.1999  0.0567  0.5498
 6924SOL    HW132405   1.630   1.118   3.851  0.0833  0.1405  0.4172
 6924SOL    HW232406   1.672   1.173   3.719  2.1048 -1.6131 -0.5674
 6925SOL     OW32407   1.567   2.066   2.016 -0.7483  0.7860 -0.8350
 6925SOL    HW132408   1.585   2.144   2.068 -0.9041  0.0548  0.3107
 6925SOL    HW232409   1.518   2.006   2.072  0.1477  1.0334  0.2007
 6926SOL     OW32410   4.663   3.970   2.713  0.0349 -0.0161 -0.0425
 6926SOL    HW132411   4.675   4.054   2.668 -0.7840  0.6877  1.0598
 6926SOL    HW232412   4.583   3.936   2.674  1.5006 -0.9477 -2.2708
 6927SOL     OW32413   2.375   1.678  17.528  0.2237 -0.3588 -0.1408
 6927SOL    HW132414   2.386   1.684  17.433 -2.2158  0.4867 -0.3654
 6927SOL    HW232415   2.317   1.603  17.534  1.6920 -1.2940  2.7169
 6928SOL     OW32416   2.693   0.401  17.263 -0.4585  0.6011  0.2926
 6928SOL    HW132417   2.762   0.462  17.288  0.0462  0.9814 -2.0472
 6928SOL    HW232418   2.666   0.367  17.348  2.6733  1.0449  1.4900
 6929SOL     OW32419   3.162   3.456  11.906 -0.4914  0.3831  0.1067
 6929SOL    HW132420   3.072   3.488  11.905 -1.4528 -2.3428  0.0632
 6929SOL    HW232421   3.214   3.525  11.864  1.5184 -1.0157  0.2755
 6930SOL     OW32422   0.500   1.247  13.590 -0.5112  0.0138 -0.1050
 6930SOL    HW132423   0.519   1.189  13.664  4.4358 -1.3964 -2.4893
 6930SOL    HW232424   0.552   1.210  13.518  1.2276  2.0541  0.1050
 6931SOL     OW32425   4.105   1.374  16.102 -0.0986  0.0494  0.1492
 6931SOL    HW132426   4.096   1.411  16.190 -0.8041 -4.5429  2.0013
 6931SOL    HW232427   4.139   1.287  16.121 -0.3935  0.0898  0.8914
 6932SOL     OW32428   2.371   0.696   4.216  0.1139  0.0353 -0.3814
 6932SOL    HW132429   2.277   0.679   4.219 -0.2965  2.1348 -1.2269
 6932SOL    HW232430   2.411   0.616   4.249  1.0696  0.4494 -0.5534
 6933SOL     OW32431   1.517   1.133  14.669  0.1533  0.2040 -0.3832
 6933SOL    HW132432   1.499   1.133  14.575 -1.1844 -2.5987 -0.1401
 6933SOL    HW232433   1.574   1.210  14.670 -1.5367  1.4734 -1.6049
 6934SOL     OW32434   0.315   0.589  13.056 -0.5430  0.5302  0.3240
 6934SOL    HW132435   0.344   0.503  13.027 -2.7247  0.0363 -0.3650
 6934SOL    HW232436   0.371   0.608  13.131 -0.8846 -1.5017  1.0761
 6935SOL     OW32437   3.673   2.491   6.844 -0.0963 -0.4395  0.2211
 6935SOL    HW132438   3.757   2.481   6.889  0.1646  0.3373 -0.0923
 6935SOL    HW232439   3.670   2.586   6.848 -0.9341 -0.2910 -3.5730
 6936SOL     OW32440   2.299   4.741   5.891 -0.3955 -0.3907 -0.0371
 6936SOL    HW132441   2.371   0.061   5.881  0.0170 -1.1965 -1.8890
 6936SOL    HW232442   2.294   4.697   5.806  0.4487 -1.0814  0.2700
 6937SOL     OW32443   1.897   2.301   7.976  0.1725 -0.1758  0.3535
 6937SOL    HW132444   1.884   2.393   7.953 -0.3936 -0.4113 -0.2867
 6937SOL    HW232445   1.971   2.312   8.036  0.7821 -1.8716 -0.0770
 6938SOL     OW32446   3.275   4.193  16.239 -0.6775 -0.1925 -0.3525
 6938SOL    HW132447   3.245   4.201  16.148 -0.4225 -0.5084 -0.4636
 6938SOL    HW232448   3.348   4.255  16.229  1.7970 -2.9639  0.5063
 6939SOL     OW32449   2.391   0.790   2.619 -0.3132 -0.4990  0.2276
 6939SOL    HW132450   2.340   0.775   2.539  2.2395  0.9881 -1.6935
 6939SOL    HW232451   2.446   0.865   2.596  0.4210 -1.4214 -1.0500
 6940SOL     OW32452   2.851   2.582  10.635  0.1454  0.2360 -0.4475
 6940SOL    HW132453   2.861   2.620  10.722 -2.0656 -0.7233  0.2315
 6940SOL    HW232454   2.794   2.645  10.590 -2.0710 -0.3810  1.4937
 6941SOL     OW32455   0.741   2.164   4.491  0.2583 -0.0692 -0.0499
 6941SOL    HW132456   0.688   2.085   4.497 -0.5262  0.5460  1.0903
 6941SOL    HW232457   0.706   2.191   4.406 -0.3413  0.6980  0.4355
 6942SOL     OW32458   4.317   1.631   8.737 -0.8632  0.3913 -0.4912
 6942SOL    HW132459   4.381   1.573   8.780 -1.2694  2.1140  2.4107
 6942SOL    HW232460   4.297   1.589   8.653  1.0328  0.0919 -0.8062
 6943SOL     OW32461   3.127   3.440   6.107 -0.3936  0.7922  0.4534
 6943SOL    HW132462   3.167   3.478   6.028 -0.1352 -0.8655 -0.2142
 6943SOL    HW232463   3.035   3.444   6.082  0.0341  1.5217 -1.0331
 6944SOL     OW32464   2.185   2.691  15.480 -0.8429 -0.0898 -0.0056
 6944SOL    HW132465   2.226   2.774  15.505  1.2092 -1.5469  1.4559
 6944SOL    HW232466   2.097   2.706  15.515 -0.8044 -0.4270  0.2372
 6945SOL     OW32467   3.107   2.620   3.398  0.6365 -0.7203 -0.1439
 6945SOL    HW132468   3.148   2.555   3.341  1.0569 -0.6587  0.0844
 6945SOL    HW232469   3.086   2.682   3.328  1.7441 -0.2843 -0.0946
 6946SOL     OW32470   3.312   2.237   7.583 -0.0110  0.0530 -0.2075
 6946SOL    HW132471   3.265   2.314   7.613  0.4883  0.4200 -0.3635
 6946SOL    HW232472   3.264   2.171   7.632  1.0117 -1.7577 -1.6129
 6947SOL     OW32473   0.918   4.182   3.985 -0.0212 -0.2659 -0.0458
 6947SOL    HW132474   1.004   4.156   3.953 -0.2843  2.3339 -2.9007
 6947SOL    HW232475   0.866   4.179   3.904 -1.3525  0.8676  0.7536
 6948SOL     OW32476   3.268   0.635   9.434  0.0062  0.2985 -0.1783
 6948SOL    HW132477   3.183   0.639   9.392  0.4357  1.6533 -0.9311
 6948SOL    HW232478   3.331   0.631   9.362 -0.7207  3.4709 -0.9966
 6949SOL     OW32479   4.322   4.658  15.979 -0.2873 -0.1312 -0.1445
 6949SOL    HW132480   4.301   4.736  15.928 -2.1657 -0.7367 -0.3061
 6949SOL    HW232481   4.256   4.661  16.048  1.4548  0.2182  1.5035
 6950SOL     OW32482   2.892   3.433   2.390 -0.4589  0.3521 -0.6503
 6950SOL    HW132483   2.870   3.472   2.306 -0.5397 -0.5022 -1.0267
 6950SOL    HW232484   2.986   3.449   2.401  0.1685 -0.7287 -4.2127
 6951SOL     OW32485   4.727   3.131   7.342  0.4327  0.1504  0.3692
 6951SOL    HW132486   4.637   3.165   7.337  0.3524 -0.1843 -0.4688
 6951SOL    HW232487   0.016   3.159   7.256  1.4409 -1.1989  0.2960
 6952SOL     OW32488   3.578   0.504  13.868 -0.4086 -0.8083  0.4815
 6952SOL    HW132489   3.590   0.417  13.906 -0.9821 -0.9274  0.3892
 6952SOL    HW232490   3.664   0.547  13.872 -0.2318 -1.0410 -0.9274
 6953SOL     OW32491   0.863   3.315   3.667  0.0908 -0.0451 -0.0407
 6953SOL    HW132492   0.940   3.259   3.652  0.6223  0.3520  1.1523
 6953SOL    HW232493   0.800   3.252   3.703 -1.3958  0.3136 -2.0540
 6954SOL     OW32494   2.962   2.500   2.683 -0.7339 -0.3812  0.1477
 6954SOL    HW132495   3.051   2.498   2.648 -0.5512 -1.0228  0.6392
 6954SOL    HW232496   2.952   2.411   2.717 -0.6573 -0.9935 -1.4198
 6955SOL     OW32497   4.248   0.427  10.494  0.0666 -0.1112 -0.8660
 6955SOL    HW132498   4.200   0.504  10.526  0.0076 -1.7098  2.9451
 6955SOL    HW232499   4.300   0.458  10.421 -0.1853  0.9463 -0.5946
 6956SOL     OW32500   2.234   3.904  13.589 -0.2855 -0.5231 -0.3907
 6956SOL    HW132501   2.201   3.823  13.551 -1.5580 -0.6593  0.9926
 6956SOL    HW232502   2.162   3.932  13.646 -1.2553 -1.1585 -1.3104
 6957SOL     OW32503   2.635   1.133   3.626  0.1906 -0.0797 -0.0214
 6957SOL    HW132504   2.644   1.054   3.679 -2.0456 -0.9184 -0.9205
 6957SOL    HW232505   2.541   1.146   3.616  0.1770  0.9573  1.4563
 6958SOL     OW32506   2.490   4.456   5.780  0.0216  0.0014  0.3511
 6958SOL    HW132507   2.413   4.472   5.725  0.6414  2.4439  0.2037
 6958SOL    HW232508   2.557   4.472   5.714  0.5357 -0.5096  0.7538
 6959SOL     OW32509   2.344   0.984   5.853  0.2370  0.0875  0.1555
 6959SOL    HW132510   2.365   1.060   5.908  0.9300 -0.8412  1.1578
 6959SOL    HW232511   2.426   0.935   5.855  0.3667  0.4304  3.4399
 6960SOL     OW32512   3.608   1.551   7.456  0.3895  0.5290 -0.0662
 6960SOL    HW132513   3.606   1.646   7.453  0.1954  0.5579  0.9681
 6960SOL    HW232514   3.556   1.538   7.536 -1.5942  1.9020 -1.1326
 6961SOL     OW32515   1.278   2.228  15.922 -0.0769  0.4283  0.1914
 6961SOL    HW132516   1.336   2.304  15.919  0.4425  0.0948  1.4639
 6961SOL    HW232517   1.252   2.215  15.831 -2.6570 -0.3559  1.0589
 6962SOL     OW32518   1.330   3.645   6.325  0.4150 -0.6685  0.2110
 6962SOL    HW132519   1.425   3.655   6.316 -0.0102  2.1587 -1.1491
 6962SOL    HW232520   1.312   3.602   6.242  0.7953  0.9100 -0.6985
 6963SOL     OW32521   0.386   2.753   6.581  0.0477  0.3194  0.4486
 6963SOL    HW132522   0.319   2.813   6.614 -0.6570 -0.3280  0.1744
 6963SOL    HW232523   0.326   2.685   6.550  1.4584 -2.3702  3.7477
 6964SOL     OW32524   0.246   3.258   2.096 -0.3151 -0.2464 -0.3666
 6964SOL    HW132525   0.160   3.216   2.100 -0.3077 -0.3321 -1.1053
 6964SOL    HW232526   0.269   3.255   2.189  3.0262 -0.4083 -1.2103
 6965SOL     OW32527   2.547   0.050   7.858 -0.6859  0.0633 -0.0894
 6965SOL    HW132528   2.640   0.031   7.862 -1.1404 -1.7996  1.5323
 6965SOL    HW232529   2.530   0.095   7.940  0.2460  1.1619 -0.4957
 6966SOL     OW32530   4.412   3.156   3.486  0.0209  0.3218  0.1876
 6966SOL    HW132531   4.487   3.160   3.545 -0.2210  2.3581  0.3318
 6966SOL    HW232532   4.447   3.164   3.398 -1.4313  0.4755 -0.3675
 6967SOL     OW32533   3.371   2.808  13.373  0.4378 -0.0308  0.5522
 6967SOL    HW132534   3.399   2.895  13.403 -1.0205 -0.1092  2.1740
 6967SOL    HW232535   3.410   2.750  13.439 -1.2635 -0.2952  1.3285
 6968SOL     OW32536   3.917   2.003   2.647  0.8092  0.1301 -0.5206
 6968SOL    HW132537   3.823   2.016   2.658  0.7090 -0.3486 -0.8130
 6968SOL    HW232538   3.943   2.094   2.632 -0.3848  0.2888 -1.5931
 6969SOL     OW32539   0.929   2.168  12.298 -0.8937  0.4120  0.3115
 6969SOL    HW132540   0.837   2.160  12.325 -0.6708 -0.9435  0.6495
 6969SOL    HW232541   0.968   2.131  12.377  0.1532  0.4736 -0.1711
 6970SOL     OW32542   2.447   2.130   5.647 -0.5134  0.1627  0.5956
 6970SOL    HW132543   2.507   2.126   5.722 -0.2366  0.9229  0.4145
 6970SOL    HW232544   2.462   2.049   5.598  1.0771  2.1453 -2.1978
 6971SOL     OW32545   1.356   4.269  14.826  0.2379 -0.0834  0.2122
 6971SOL    HW132546   1.435   4.269  14.772  0.3102 -0.0238  0.3185
 6971SOL    HW232547   1.318   4.355  14.809  0.9001 -0.3483 -2.6114
 6972SOL     OW32548   1.387   1.805  17.618 -0.1850  0.4951  0.1295
 6972SOL    HW132549   1.340   1.845  17.545  0.0596 -0.0956 -0.3487
 6972SOL    HW232550   1.311   1.768  17.663  0.1438 -1.0005 -0.5509
 6973SOL     OW32551   3.810   2.555  16.241  0.1482  0.0830 -0.0345
 6973SOL    HW132552   3.844   2.511  16.319 -1.3509  0.4729  0.8548
 6973SOL    HW232553   3.887   2.606  16.216  0.1076  0.0771 -0.1732
 6974SOL     OW32554   2.203   0.683   5.483  0.9233 -0.5531 -0.5225
 6974SOL    HW132555   2.210   0.604   5.537  2.1788 -1.6940 -2.3555
 6974SOL    HW232556   2.121   0.673   5.437 -0.0908 -0.8283  1.3483
 6975SOL     OW32557   3.561   0.608   9.569 -0.1776  0.1157  0.4779
 6975SOL    HW132558   3.539   0.576   9.481  2.3008 -4.4294  1.5362
 6975SOL    HW232559   3.471   0.614   9.602 -0.3689  0.9751 -0.2013
 6976SOL     OW32560   1.220   2.379   4.527  0.0622  0.9765 -0.2791
 6976SOL    HW132561   1.175   2.300   4.557  0.1521  1.6079  1.5261
 6976SOL    HW232562   1.222   2.430   4.608 -1.9441 -0.3647  0.6185
 6977SOL     OW32563   1.811   2.485  12.926 -0.0762  0.5033 -0.1178
 6977SOL    HW132564   1.774   2.397  12.935  1.5816 -0.2162 -0.4491
 6977SOL    HW232565   1.858   2.491  12.843  2.8674  1.4610  1.6093
 6978SOL     OW32566   0.817   0.865   3.562 -0.4737 -0.1729 -0.5638
 6978SOL    HW132567   0.778   0.838   3.479  0.7023 -0.5469 -0.9834
 6978SOL    HW232568   0.876   0.791   3.577  1.8566  1.5971 -1.0936
 6979SOL     OW32569   2.275   3.088   9.353  0.6785 -0.2864 -0.1022
 6979SOL    HW132570   2.207   3.104   9.287  2.0138 -1.9486 -1.8889
 6979SOL    HW232571   2.237   3.016   9.404 -0.9567  0.0853 -0.8034
 6980SOL     OW32572   2.830   0.891   4.611 -0.3297  0.4673 -0.1788
 6980SOL    HW132573   2.914   0.871   4.569 -0.0251 -0.9927  1.1529
 6980SOL    HW232574   2.780   0.937   4.544  1.0394  0.2002 -1.3889
 6981SOL     OW32575   4.116   3.548   1.960  0.4840  0.4259 -0.3665
 6981SOL    HW132576   4.143   3.591   2.042 -0.3850 -0.5584  0.4373
 6981SOL    HW232577   4.116   3.612   1.889 -0.9549 -0.4103 -1.1093
 6982SOL     OW32578   3.602   4.591   5.093  0.0871 -0.1249  0.1591
 6982SOL    HW132579   3.583   4.674   5.137  2.1038  0.5571 -0.2483
 6982SOL    HW232580   3.515   4.582   5.052 -0.4585  1.6257  0.9217
 6983SOL     OW32581   3.868   3.388   0.677  0.0735 -0.2237  0.0368
 6983SOL    HW132582   3.956   3.416   0.702  0.4548 -1.7284  0.3866
 6983SOL    HW232583   3.872   3.408   0.584 -1.1548 -1.1552 -0.2200
 6984SOL     OW32584   0.788   2.302  11.375  0.3947 -1.3854 -0.2315
 6984SOL    HW132585   0.830   2.385  11.393 -1.8326 -0.3033 -0.0349
 6984SOL    HW232586   0.863   2.254  11.409  1.4525  0.3779 -0.0858
 6985SOL     OW32587   0.009   1.401   3.204 -0.4177  0.5380 -0.8511
 6985SOL    HW132588   0.039   1.387   3.114  2.7828 -2.2456  0.6520
 6985SOL    HW232589   4.656   1.404   3.190 -0.3179  0.8444 -1.4978
 6986SOL     OW32590   4.144   3.131   7.484  0.1982 -0.3518  0.0828
 6986SOL    HW132591   4.206   3.109   7.553  1.1925 -1.1400 -1.0618
 6986SOL    HW232592   4.066   3.081   7.507 -0.2446 -0.6057 -1.9104
 6987SOL     OW32593   0.007   4.585   5.304 -0.1107 -0.7166 -0.2904
 6987SOL    HW132594   4.660   4.617   5.287 -0.0507  0.7211  2.1238
 6987SOL    HW232595   0.030   4.628   5.387 -0.6627 -1.1925  0.1111
 6988SOL     OW32596   0.792   2.257   8.679 -0.0354  0.1958 -0.1250
 6988SOL    HW132597   0.868   2.296   8.634 -1.0488  1.5036 -0.7048
 6988SOL    HW232598   0.731   2.331   8.673 -2.3561 -1.4549  3.7581
 6989SOL     OW32599   2.606   0.448   2.356 -0.0199  0.1506  0.6883
 6989SOL    HW132600   2.583   0.362   2.392  1.0769 -0.9471 -1.2720
 6989SOL    HW232601   2.564   0.448   2.270 -1.4700  0.2429  1.3955
 6990SOL     OW32602   1.565   1.828   0.986  0.3487 -0.3786 -0.0844
 6990SOL    HW132603   1.540   1.761   0.922  0.4644 -1.5784  1.1122
 6990SOL    HW232604   1.584   1.905   0.933  0.8685 -0.6087 -0.2343
 6991SOL     OW32605   2.545   0.809   6.320 -0.1142 -0.3923 -0.6183
 6991SOL    HW132606   2.475   0.867   6.347 -1.4177 -1.8229 -0.9046
 6991SOL    HW232607   2.623   0.865   6.311 -0.4843  0.0060 -1.2813
 6992SOL     OW32608   4.305   2.818   8.032 -0.1570  0.2100 -0.2247
 6992SOL    HW132609   4.342   2.731   8.016 -4.0879 -1.4080 -0.2838
 6992SOL    HW232610   4.368   2.835   8.102 -0.4003 -0.3849  0.1347
 6993SOL     OW32611   0.389   0.945   6.120  0.0206  0.1322 -0.6278
 6993SOL    HW132612   0.327   0.942   6.193  1.8111 -0.2426  0.8726
 6993SOL    HW232613   0.403   1.039   6.108 -0.7494  0.4671  1.1063
 6994SOL     OW32614   3.716   0.821   7.092  0.1392 -0.1851  0.1199
 6994SOL    HW132615   3.805   0.838   7.063 -0.2714  0.0912 -1.0002
 6994SOL    HW232616   3.708   0.727   7.073  0.5560 -0.7659  2.9016
 6995SOL     OW32617   2.642   3.095  10.160  0.0132 -0.3766 -0.1200
 6995SOL    HW132618   2.643   3.158  10.232  0.0420  1.3205 -1.5757
 6995SOL    HW232619   2.704   3.033  10.196  1.8136  1.4199 -0.1142
 6996SOL     OW32620   1.936   0.426  16.019  0.3318  0.4955  0.0377
 6996SOL    HW132621   1.887   0.378  15.953 -2.1230  0.4700  1.8794
 6996SOL    HW232622   1.979   0.495  15.969  0.1526  1.0246  0.6049
 6997SOL     OW32623   1.140   2.322  14.853 -0.1957  0.2170 -0.6650
 6997SOL    HW132624   1.173   2.412  14.856 -2.2421  0.8995  1.2800
 6997SOL    HW232625   1.050   2.315  14.885  0.5758 -2.2344  0.9866
 6998SOL     OW32626   3.477   0.837   7.405 -0.4440  0.3023  0.0102
 6998SOL    HW132627   3.520   0.754   7.423  0.9651  0.9854 -0.2377
 6998SOL    HW232628   3.510   0.891   7.477  0.8837 -0.4098 -0.0824
 6999SOL     OW32629   3.026   0.318   9.612  0.2737 -0.5026  0.0243
 6999SOL    HW132630   3.114   0.336   9.646  0.7072  0.8752 -1.8434
 6999SOL    HW232631   2.978   0.393   9.647 -0.4282 -1.0927  0.3207
 7000SOL     OW32632   0.043   0.296  12.634 -0.7259  0.4148  0.3049
 7000SOL    HW132633   4.729   0.367  12.602  1.1307  1.0617 -1.4791
 7000SOL    HW232634   4.731   0.227  12.595 -0.7885  0.5742  0.1111
 7001SOL     OW32635   1.536   0.588   8.421  0.1037  0.5109 -0.4355
 7001SOL    HW132636   1.550   0.682   8.413  3.9955 -0.0999 -0.9358
 7001SOL    HW232637   1.621   0.554   8.450 -0.5786 -0.1060  0.8212
 7002SOL     OW32638   3.157   2.208  13.517 -0.4102 -0.0665  0.4258
 7002SOL    HW132639   3.216   2.218  13.592 -0.8039 -1.0817  0.8688
 7002SOL    HW232640   3.078   2.179  13.562 -1.0979  1.0595 -0.0679
 7003SOL     OW32641   4.498   4.625   1.913 -0.2947  0.7338 -0.3271
 7003SOL    HW132642   4.405   4.606   1.919  0.1031 -1.3506 -0.9254
 7003SOL    HW232643   4.530   4.537   1.894 -0.1016  1.1254 -1.8362
 7004SOL     OW32644   3.534   1.979   5.273  0.0474 -0.6626 -0.0648
 7004SOL    HW132645   3.487   1.949   5.351  2.1810 -0.4867  1.2706
 7004SOL    HW232646   3.583   1.898   5.256  0.7119 -0.6967  2.0803
 7005SOL     OW32647   4.029   3.627   7.409  0.0028  0.4872 -0.1560
 7005SOL    HW132648   3.951   3.630   7.355  0.9493  2.6759 -1.3950
 7005SOL    HW232649   3.984   3.658   7.488 -2.7256  0.0815 -1.5426
 7006SOL     OW32650   3.511   1.450  15.209  0.5904 -0.2605  0.5728
 7006SOL    HW132651   3.574   1.398  15.260 -0.3683 -1.1427  0.8648
 7006SOL    HW232652   3.533   1.539  15.237  0.0841 -0.2054  0.7976
 7007SOL     OW32653   0.028   2.721  13.213  0.4331 -0.0902 -0.2519
 7007SOL    HW132654   0.043   2.630  13.239 -0.2644  0.1720  1.0652
 7007SOL    HW232655   4.678   2.729  13.238  0.3254 -1.3995 -0.2265
 7008SOL     OW32656   1.331   0.341  15.487  0.1556  0.4039 -0.5126
 7008SOL    HW132657   1.258   0.280  15.493  0.9508 -0.7715 -2.7823
 7008SOL    HW232658   1.302   0.408  15.549  0.3021 -0.5736  0.5894
 7009SOL     OW32659   0.523   3.203   9.237  0.5944  0.8942 -0.2395
 7009SOL    HW132660   0.482   3.117   9.235  0.0974  1.0266  3.6884
 7009SOL    HW232661   0.549   3.207   9.145 -0.8884  3.8389 -0.5180
 7010SOL     OW32662   1.605   2.438  17.314 -0.2241  0.1925 -0.1439
 7010SOL    HW132663   1.633   2.347  17.303  2.1243  0.8872  0.0777
 7010SOL    HW232664   1.624   2.461  17.405  0.4455  0.0336 -0.2439
 7011SOL     OW32665   3.822   1.254   7.598 -0.1305 -0.1076 -0.4302
 7011SOL    HW132666   3.795   1.281   7.511 -0.5448 -2.0942 -0.9146
 7011SOL    HW232667   3.907   1.296   7.610  0.1372 -1.2319  1.6257
 7012SOL     OW32668   2.442   2.557  12.793 -0.3508 -0.1199  0.0405
 7012SOL    HW132669   2.506   2.495  12.828 -1.5591 -0.4097  1.7364
 7012SOL    HW232670   2.501   2.631  12.779 -0.4883  0.4808  2.6048
 7013SOL     OW32671   0.183   3.890  10.247  0.1084 -0.0418 -0.3542
 7013SOL    HW132672   0.278   3.877  10.256  0.1213  0.6725  0.5369
 7013SOL    HW232673   0.160   3.797  10.241  0.4471 -0.1549  0.1092
 7014SOL     OW32674   0.232   3.337   3.000  0.5361 -0.3054 -0.6493
 7014SOL    HW132675   0.290   3.362   3.073 -2.7466  1.8867  1.2293
 7014SOL    HW232676   0.168   3.408   3.002  1.2870  0.3565 -0.5270
 7015SOL     OW32677   3.936   2.153   1.957  0.3443 -0.1929 -0.0418
 7015SOL    HW132678   4.005   2.205   1.917 -0.8598  0.8648 -0.7355
 7015SOL    HW232679   3.965   2.152   2.048  1.5827  0.6716 -0.4312
 7016SOL     OW32680   3.407   4.250  17.294  0.1654 -0.4280 -0.1385
 7016SOL    HW132681   3.398   4.269  17.200  0.1667 -2.8520 -0.6454
 7016SOL    HW232682   3.320   4.213  17.309  1.1240 -1.8922  1.8138
 7017SOL     OW32683   3.393   4.397   6.625 -0.1681  0.0495  0.0323
 7017SOL    HW132684   3.485   4.414   6.647 -1.0391 -1.7050  4.9983
 7017SOL    HW232685   3.406   4.358   6.539 -0.7813  1.8438 -0.8884
 7018SOL     OW32686   2.128   2.891   9.477  0.1121 -0.1485  0.1598
 7018SOL    HW132687   2.060   2.833   9.442  0.2139 -0.4269  0.4180
 7018SOL    HW232688   2.185   2.828   9.522 -1.9053 -1.9319  0.2473
 7019SOL     OW32689   0.850   2.584   5.021  0.2433 -0.6651  0.2360
 7019SOL    HW132690   0.908   2.569   5.096 -0.0237  0.8166  0.7376
 7019SOL    HW232691   0.883   2.522   4.956 -0.6926 -0.7119 -0.1916
 7020SOL     OW32692   1.014   0.544   6.648  0.3046  0.0772 -0.5502
 7020SOL    HW132693   0.984   0.476   6.588  0.9064 -0.1793 -0.5657
 7020SOL    HW232694   1.030   0.488   6.724  0.8049 -1.2217 -1.6183
 7021SOL     OW32695   3.513   3.456   8.419  0.0559  0.2593 -0.0199
 7021SOL    HW132696   3.445   3.515   8.386 -0.6569 -0.3567  0.3429
 7021SOL    HW232697   3.467   3.425   8.497 -0.5598 -0.9109 -0.8482
 7022SOL     OW32698   0.134   0.462  13.311 -0.7447  0.4532  0.0757
 7022SOL    HW132699   0.202   0.429  13.371  1.4757 -1.8008 -3.7022
 7022SOL    HW232700   0.109   0.379  13.270  1.4730 -1.1724  1.9698
 7023SOL     OW32701   0.264   1.451   9.653 -0.1120  0.5586  0.9556
 7023SOL    HW132702   0.269   1.356   9.641  0.8529  1.0929 -2.7674
 7023SOL    HW232703   0.343   1.468   9.704 -0.2038  0.4535  1.1335
 7024SOL     OW32704   4.312   2.543   4.102  0.4967  0.5458 -0.1694
 7024SOL    HW132705   4.230   2.529   4.150 -0.6394 -1.4087 -2.6498
 7024SOL    HW232706   4.302   2.637   4.087 -2.4877  0.6807  2.8500
 7025SOL     OW32707   2.896   4.136  16.479 -0.5170  0.2703  0.5692
 7025SOL    HW132708   2.877   4.062  16.536 -1.4889  0.4973  0.5422
 7025SOL    HW232709   2.991   4.137  16.489 -0.4740  0.9357  0.0951
 7026SOL     OW32710   1.813   3.035  14.806 -0.0194 -0.0911 -0.2594
 7026SOL    HW132711   1.900   3.063  14.778  0.6170 -1.7928 -0.0107
 7026SOL    HW232712   1.756   3.046  14.730 -3.7360 -0.4417  2.4449
 7027SOL     OW32713   3.562   2.343   8.730 -0.1681  0.9589 -0.4859
 7027SOL    HW132714   3.509   2.377   8.801 -0.5579 -2.7119  0.9633
 7027SOL    HW232715   3.583   2.427   8.687  0.5777 -0.4814 -2.9537
 7028SOL     OW32716   3.116   2.599  14.685 -0.6113 -0.4566  0.2306
 7028SOL    HW132717   3.183   2.608  14.617 -2.6067  2.2780 -1.3373
 7028SOL    HW232718   3.131   2.511  14.719 -0.7108 -0.4279  0.3467
 7029SOL     OW32719   4.015   0.726   7.628  0.5110 -0.0797 -0.2052
 7029SOL    HW132720   3.981   0.756   7.712 -1.2511  2.4145 -1.7923
 7029SOL    HW232721   4.073   0.654   7.654  1.0867  0.9180  1.2566
 7030SOL     OW32722   2.761   3.658   4.558 -0.1391  0.4154  0.1911
 7030SOL    HW132723   2.756   3.596   4.630 -1.7767 -1.3605 -1.4813
 7030SOL    HW232724   2.807   3.608   4.490 -1.1861 -0.1501 -0.0875
 7031SOL     OW32725   4.148   0.535   7.774 -0.0392  0.3211 -0.3022
 7031SOL    HW132726   4.112   0.476   7.841 -0.9242  2.6517  1.2710
 7031SOL    HW232727   4.192   0.605   7.821  1.8431 -1.5673  0.7770
 7032SOL     OW32728   3.888   3.455   3.015 -0.1589 -0.2425 -0.3898
 7032SOL    HW132729   3.839   3.389   3.065  0.9819 -0.8252 -0.0275
 7032SOL    HW232730   3.963   3.410   2.978 -0.0948 -1.5894  1.3534
 7033SOL     OW32731   0.581   0.806   8.563 -0.3487 -0.1500 -0.3694
 7033SOL    HW132732   0.607   0.798   8.471  0.3177  2.5846 -0.4332
 7033SOL    HW232733   0.522   0.731   8.573  0.4468 -0.8568 -1.0262
 7034SOL     OW32734   3.927   0.849   9.801 -0.1897 -0.4815  0.1297
 7034SOL    HW132735   3.875   0.856   9.721  0.5331 -1.3069 -0.4058
 7034SOL    HW232736   4.010   0.818   9.765 -0.6224  0.9914 -2.1152
 7035SOL     OW32737   1.454   2.895  11.095 -0.0323  0.8430 -0.3663
 7035SOL    HW132738   1.544   2.863  11.104 -0.7984 -1.4517 -0.7441
 7035SOL    HW232739   1.440   2.920  11.186 -0.1829  2.3653 -0.8110
 7036SOL     OW32740   2.773   0.824   6.117  0.2744 -0.2858  0.0861
 7036SOL    HW132741   2.754   0.737   6.083  0.3891 -0.9526  1.7511
 7036SOL    HW232742   2.845   0.847   6.057 -0.1909  1.1975  0.0894
 7037SOL     OW32743   0.871   4.108   5.189 -0.1452  0.3887 -0.0479
 7037SOL    HW132744   0.781   4.114   5.220 -0.6709 -1.4410 -1.1725
 7037SOL    HW232745   0.893   4.018   5.216  0.0604  0.5629  0.3627
 7038SOL     OW32746   2.569   0.263   6.810  0.5274  0.3629  0.2432
 7038SOL    HW132747   2.511   0.323   6.857 -2.8628 -0.3643 -2.9551
 7038SOL    HW232748   2.628   0.228   6.876  1.7958 -0.3583 -1.2619
 7039SOL     OW32749   3.490   1.979   2.066 -0.1503  0.5129 -0.0291
 7039SOL    HW132750   3.545   1.921   2.013  0.7383  1.3828 -0.0525
 7039SOL    HW232751   3.505   1.931   2.148  0.1466  0.1676 -0.2885
 7040SOL     OW32752   0.163   2.787  10.713 -0.2776 -0.3901 -0.0111
 7040SOL    HW132753   0.212   2.709  10.687  1.3829  1.2367 -1.7635
 7040SOL    HW232754   0.126   2.749  10.793 -0.3990 -0.7126 -0.2184
 7041SOL     OW32755   0.276   4.558   6.544 -0.8307 -0.2893  0.0462
 7041SOL    HW132756   0.238   4.592   6.625  0.8128  1.3151  0.1415
 7041SOL    HW232757   0.199   4.561   6.487  0.5211  0.2082 -1.7597
 7042SOL     OW32758   1.817   2.888  14.385 -0.1896 -0.1220  0.3464
 7042SOL    HW132759   1.744   2.846  14.339  0.2318 -0.0521 -0.3880
 7042SOL    HW232760   1.808   2.844  14.469  0.7346  1.1669  1.1121
 7043SOL     OW32761   3.430   4.300   2.704  0.6302 -0.4775  0.0696
 7043SOL    HW132762   3.348   4.259   2.732 -0.3426  0.5089 -1.3181
 7043SOL    HW232763   3.484   4.296   2.783 -0.4764 -0.9022  0.7917
 7044SOL     OW32764   0.321   1.561  12.961 -0.5121 -0.1317 -0.5778
 7044SOL    HW132765   0.340   1.589  13.051  1.1309 -0.6863 -0.7419
 7044SOL    HW232766   0.257   1.501  12.998  0.0961  0.2323  1.0780
 7045SOL     OW32767   3.501   4.525   8.119  0.1985 -0.4326 -0.0149
 7045SOL    HW132768   3.497   4.468   8.042  1.9977 -0.4911 -0.0708
 7045SOL    HW232769   3.436   4.477   8.170  0.7627 -0.2450  0.8756
 7046SOL     OW32770   1.325   1.579   3.039 -0.2957 -1.3882 -0.3209
 7046SOL    HW132771   1.361   1.546   2.957 -2.0173 -2.8155 -0.4990
 7046SOL    HW232772   1.337   1.504   3.097  0.9366  0.0179  1.2474
 7047SOL     OW32773   4.328   3.994   4.901 -0.2190  0.3174  0.1427
 7047SOL    HW132774   4.323   4.046   4.981 -2.7049 -1.1797  0.9669
 7047SOL    HW232775   4.237   3.963   4.900  0.6303 -2.2313  2.6556
 7048SOL     OW32776   0.930   2.017   8.850 -0.2907 -0.2703  0.1565
 7048SOL    HW132777   0.988   2.074   8.800 -0.9958  0.0263 -0.3252
 7048SOL    HW232778   0.849   2.018   8.799  2.4405  1.5234 -4.1696
 7049SOL     OW32779   1.388   0.941   1.937  0.0795  0.0212 -0.1501
 7049SOL    HW132780   1.458   0.996   1.973 -0.5374  0.9802 -0.4071
 7049SOL    HW232781   1.437   0.860   1.926  3.6112  1.9838  1.0077
 7050SOL     OW32782   1.944   2.461  12.673  0.0150  0.1204  0.3539
 7050SOL    HW132783   1.957   2.484  12.581 -3.2207  0.0070 -0.1169
 7050SOL    HW232784   1.916   2.370  12.671  0.6073 -0.0387 -0.5462
 7051SOL     OW32785   0.106   3.276  10.540  0.3116  0.2002  0.5373
 7051SOL    HW132786   0.110   3.188  10.577  0.3400 -0.5821 -1.3201
 7051SOL    HW232787   0.070   3.319  10.618 -0.7346  1.2251 -0.5215
 7052SOL     OW32788   3.789   3.061   6.228  0.4329 -0.7538  0.3056
 7052SOL    HW132789   3.705   3.014   6.230  0.7211 -1.3293 -1.0415
 7052SOL    HW232790   3.797   3.090   6.319  0.9549  0.3011 -0.0784
 7053SOL     OW32791   4.023   4.284   1.237  0.5769  0.1014  0.4034
 7053SOL    HW132792   4.050   4.205   1.189  0.1218 -0.6414  1.3633
 7053SOL    HW232793   4.038   4.349   1.170 -0.3051  0.2117  0.3103
 7054SOL     OW32794   0.406   3.402   5.128  0.1576  0.0229  0.0250
 7054SOL    HW132795   0.361   3.482   5.158  2.3525  1.8233 -1.5108
 7054SOL    HW232796   0.366   3.378   5.045 -1.6119 -0.0399  0.8898
 7055SOL     OW32797   2.278   3.910   5.613 -0.1961 -0.9248 -0.3123
 7055SOL    HW132798   2.199   3.953   5.646  0.4566 -1.1289  1.5153
 7055SOL    HW232799   2.339   3.983   5.627 -1.8676  0.4055  0.0782
 7056SOL     OW32800   2.647   0.204   3.070  0.6461  0.5724 -0.2568
 7056SOL    HW132801   2.726   0.248   3.039  0.4995  1.5616  0.7515
 7056SOL    HW232802   2.621   0.172   2.984  1.3484 -0.4784 -0.0761
 7057SOL     OW32803   0.603   3.901  13.632 -0.4381  1.2480 -0.2511
 7057SOL    HW132804   0.542   3.971  13.608 -1.2603  0.6792  0.1756
 7057SOL    HW232805   0.580   3.890  13.724  3.0325 -1.8568  0.2047
 7058SOL     OW32806   1.423   1.137   2.983  0.0943 -0.1564  0.0078
 7058SOL    HW132807   1.517   1.146   2.973 -0.0022 -1.7002 -2.2827
 7058SOL    HW232808   1.419   1.050   2.942 -0.7392  0.6553 -1.6547
 7059SOL     OW32809   2.860   1.021  15.245  1.1227 -0.0156 -0.2357
 7059SOL    HW132810   2.813   1.077  15.306 -3.1406 -0.3152 -3.2640
 7059SOL    HW232811   2.907   1.095  15.208  1.0773 -0.5227 -1.3290
 7060SOL     OW32812   0.445   4.489   3.491  0.1818 -0.2347 -0.1691
 7060SOL    HW132813   0.494   4.503   3.572 -0.8978 -2.1444  0.8215
 7060SOL    HW232814   0.499   4.545   3.435  1.4714 -1.5443 -0.2261
 7061SOL     OW32815   2.726   0.450  16.238  0.0995 -0.2439  0.2615
 7061SOL    HW132816   2.679   0.487  16.312  0.5365 -0.6864  0.7579
 7061SOL    HW232817   2.666   0.450  16.163  1.4183 -1.7700 -0.8041
 7062SOL     OW32818   0.122   4.418  11.753  0.1980  0.3972  0.4274
 7062SOL    HW132819   0.098   4.511  11.756  0.2965  0.4141  0.6800
 7062SOL    HW232820   0.199   4.416  11.697 -0.4682 -0.6890 -0.4679
 7063SOL     OW32821   2.384   3.523  14.329 -0.4759  0.3896  0.0329
 7063SOL    HW132822   2.387   3.510  14.234  0.0310  1.8209 -0.1503
 7063SOL    HW232823   2.398   3.440  14.375  0.3228  0.6070  0.1778
 7064SOL     OW32824   0.057   0.727   6.749 -0.3477 -0.0187 -0.4551
 7064SOL    HW132825   0.089   0.712   6.660 -1.8778  1.9998 -1.3596
 7064SOL    HW232826   0.144   0.731   6.788  0.2791  0.7477 -1.9523
 7065SOL     OW32827   0.940   1.062   6.110  0.6020 -0.1186  0.5834
 7065SOL    HW132828   0.860   1.010   6.104 -0.1887  1.1014  0.5865
 7065SOL    HW232829   0.975   1.066   6.021 -0.1075 -2.3438  0.2246
 7066SOL     OW32830   1.612   4.606   5.218  0.6718 -0.3909 -0.3007
 7066SOL    HW132831   1.548   4.539   5.193  1.0593 -1.3561  1.2587
 7066SOL    HW232832   1.554   4.676   5.189  0.9131 -0.0715 -0.0016
 7067SOL     OW32833   4.149   0.513   3.852  0.4959 -0.0752  0.1390
 7067SOL    HW132834   4.062   0.510   3.892  0.3724 -2.5764 -0.3096
 7067SOL    HW232835   4.139   0.582   3.786  0.4434 -0.1390  0.0813
 7068SOL     OW32836   4.201   2.341   6.823  0.2273 -0.3425  0.1221
 7068SOL    HW132837   4.175   2.298   6.742 -0.4234 -0.3094  0.3111
 7068SOL    HW232838   4.130   2.405   6.833  0.4281  0.0251 -0.8274
 7069SOL     OW32839   2.524   1.026   2.143 -0.3278 -0.1176 -0.2100
 7069SOL    HW132840   2.566   1.049   2.060  0.1567  0.2136  0.1259
 7069SOL    HW232841   2.451   1.087   2.130  0.9956  1.4556 -0.2224
 7070SOL     OW32842   1.248   0.980   1.699 -0.1097 -0.0447  0.4647
 7070SOL    HW132843   1.208   1.066   1.715 -2.6831 -1.6463  2.6351
 7070SOL    HW232844   1.274   0.952   1.787  1.8123  1.5891  0.4245
 7071SOL     OW32845   2.706   3.318   3.683 -0.0511  0.1867 -0.2691
 7071SOL    HW132846   2.762   3.365   3.621  0.7567  0.3623  0.5971
 7071SOL    HW232847   2.723   3.364   3.765  1.8075  0.0483 -0.5811
 7072SOL     OW32848   2.240   1.231   5.702  0.0799  0.3386 -0.0039
 7072SOL    HW132849   2.252   1.215   5.796  0.7230 -0.6829 -0.2558
 7072SOL    HW232850   2.259   1.141   5.674 -0.4388 -0.0666  0.9566
 7073SOL     OW32851   0.021   0.554   2.876  0.0305 -0.0320 -0.0308
 7073SOL    HW132852   4.691   0.588   2.823  0.2005 -0.1326 -0.3285
 7073SOL    HW232853   4.711   0.504   2.939  1.0902 -2.8754 -1.3989
 7074SOL     OW32854   3.676   3.625  16.454 -0.1563  0.4776 -0.5564
 7074SOL    HW132855   3.722   3.575  16.522  0.2488  3.1347  1.0976
 7074SOL    HW232856   3.741   3.644  16.386  0.2053  0.6293 -0.1704
 7075SOL     OW32857   1.024   4.472   8.865 -0.5602  0.3244  0.2943
 7075SOL    HW132858   1.000   4.514   8.782  1.4350 -0.5090 -0.7095
 7075SOL    HW232859   1.034   4.546   8.925 -0.2560  0.3831  0.1743
 7076SOL     OW32860   2.456   3.991   7.691  1.1896 -0.0948  0.1161
 7076SOL    HW132861   2.499   3.982   7.776  1.1628  0.2634  0.1696
 7076SOL    HW232862   2.429   4.083   7.685  0.1562 -0.3471  0.9955
 7077SOL     OW32863   3.244   1.874   7.908  0.2770  0.4225  0.0453
 7077SOL    HW132864   3.303   1.882   7.833 -0.2406 -0.3730 -0.4482
 7077SOL    HW232865   3.273   1.790   7.943 -0.7617  0.3077  0.6428
 7078SOL     OW32866   3.551   3.817   7.701 -0.2856 -0.2384  1.0488
 7078SOL    HW132867   3.486   3.751   7.676  0.8236 -0.7150 -0.5585
 7078SOL    HW232868   3.594   3.760   7.765 -2.9814 -1.9641  1.3151
 7079SOL     OW32869   2.399   4.064   6.347  0.1109 -0.1027  0.0513
 7079SOL    HW132870   2.350   4.062   6.430 -1.8963 -0.2050 -1.1171
 7079SOL    HW232871   2.453   3.986   6.361  2.1384  1.4934  1.0971
 7080SOL     OW32872   1.221   2.222   7.947 -0.4455  0.1095 -0.2914
 7080SOL    HW132873   1.303   2.239   7.993  0.1899  0.5706 -1.5889
 7080SOL    HW232874   1.155   2.224   8.017 -1.5969 -2.4732 -1.3073
 7081SOL     OW32875   1.016   3.820   3.781 -0.0486  0.0581 -0.1085
 7081SOL    HW132876   1.065   3.871   3.715  0.2132 -3.1975 -2.4470
 7081SOL    HW232877   1.017   3.729   3.751  1.3695 -0.5105  1.6728
 7082SOL     OW32878   4.051   3.072   2.975 -0.1000 -0.0633  0.0844
 7082SOL    HW132879   3.969   3.042   2.935  0.1072  0.9429 -1.0746
 7082SOL    HW232880   4.027   3.063   3.068  1.0060 -0.7348  0.3092
 7083SOL     OW32881   3.569   2.921   5.953 -0.4200 -0.1595  0.3105
 7083SOL    HW132882   3.569   2.830   5.923  1.6630 -0.0774  0.0729
 7083SOL    HW232883   3.649   2.952   5.911 -0.9577 -1.4426 -1.6806
 7084SOL     OW32884   2.577   3.297   7.841  0.0431 -0.3827 -0.2088
 7084SOL    HW132885   2.586   3.228   7.906  3.1395 -2.3332 -2.6938
 7084SOL    HW232886   2.594   3.379   7.887  0.7818 -0.5830 -0.1119
 7085SOL     OW32887   3.377   1.724  13.101 -0.7483 -0.5459 -0.3363
 7085SOL    HW132888   3.460   1.687  13.070 -1.0338 -1.4477 -0.0367
 7085SOL    HW232889   3.348   1.780  13.029  1.6229 -0.3956 -1.1659
 7086SOL     OW32890   3.527   2.065  12.846  0.3890 -0.3299 -0.0805
 7086SOL    HW132891   3.500   2.134  12.785  0.5454  0.2727  0.5382
 7086SOL    HW232892   3.492   2.106  12.925  1.0035 -1.2013  0.6452
 7087SOL     OW32893   0.573   2.288  16.296 -0.6534 -0.1523  0.3662
 7087SOL    HW132894   0.529   2.373  16.302 -0.6214 -0.2074  1.3826
 7087SOL    HW232895   0.638   2.305  16.364 -1.1212 -0.7359  0.9517
 7088SOL     OW32896   0.870   2.429   6.739  0.3973  0.2743  0.0464
 7088SOL    HW132897   0.849   2.411   6.830  0.9579 -3.0469 -0.4618
 7088SOL    HW232898   0.965   2.416   6.739  0.2640 -0.5830  2.7295
 7089SOL     OW32899   0.968   1.006   4.146  0.1967 -0.1269 -0.1128
 7089SOL    HW132900   0.952   1.081   4.204  0.6636  0.5470 -0.8547
 7089SOL    HW232901   0.960   1.054   4.063 -1.8601  1.8315  1.1845
 7090SOL     OW32902   3.541   4.597   4.345  0.9553 -0.1110  0.4337
 7090SOL    HW132903   3.613   4.656   4.368  1.0654  0.3441 -1.1002
 7090SOL    HW232904   3.590   4.536   4.290  2.5642  1.0622  0.5526
 7091SOL     OW32905   1.885   2.759   4.718  0.3197 -0.0558  0.1625
 7091SOL    HW132906   1.918   2.765   4.629  1.1769 -3.3344  0.2558
 7091SOL    HW232907   1.798   2.719   4.708 -0.0277  0.4877  1.0163
 7092SOL     OW32908   3.888   3.465   4.800 -0.1198  0.6476  0.6263
 7092SOL    HW132909   3.880   3.519   4.878  1.3160  1.5261  0.1584
 7092SOL    HW232910   3.911   3.527   4.731  0.9081  1.1324  1.4157
 7093SOL     OW32911   3.170   3.298   9.512  0.2790 -0.3285  0.4843
 7093SOL    HW132912   3.081   3.290   9.478  1.5046 -2.7956 -2.1667
 7093SOL    HW232913   3.219   3.260   9.439 -0.4943  0.9414 -0.6832
 7094SOL     OW32914   2.261   1.215  10.201 -0.4667  0.5761 -0.6378
 7094SOL    HW132915   2.277   1.121  10.197  1.2050  0.7740  1.8925
 7094SOL    HW232916   2.196   1.223  10.271  0.9144 -0.9521  0.8120
 7095SOL     OW32917   0.383   3.261   1.777  0.0674  0.1797  0.8949
 7095SOL    HW132918   0.465   3.296   1.743 -0.6613  0.2510 -0.7971
 7095SOL    HW232919   0.351   3.341   1.819  1.7527 -0.3979  3.3198
 7096SOL     OW32920   0.633   0.570  13.334 -0.4151 -0.4021  0.0358
 7096SOL    HW132921   0.605   0.571  13.425 -1.3025 -0.2192 -0.2327
 7096SOL    HW232922   0.722   0.536  13.346 -0.3333 -0.3945 -0.5211
 7097SOL     OW32923   0.301   2.230  13.908  0.8965  0.1963  0.1602
 7097SOL    HW132924   0.287   2.158  13.970 -0.9603  0.5835  0.1849
 7097SOL    HW232925   0.378   2.279  13.939 -0.2921  1.8683  0.5104
 7098SOL     OW32926   3.638   1.216  13.907 -0.3947  0.4999  0.1451
 7098SOL    HW132927   3.565   1.235  13.848 -0.4927  0.2067  0.1753
 7098SOL    HW232928   3.603   1.257  13.986 -2.7721 -2.4362  0.5858
 7099SOL     OW32929   0.442   1.742  15.558 -0.4574 -0.4482  0.1508
 7099SOL    HW132930   0.380   1.699  15.500 -0.1472 -0.7727  0.0588
 7099SOL    HW232931   0.411   1.713  15.644  0.1902  0.9041  0.8437
 7100SOL     OW32932   4.199   2.462   2.538 -0.0322  0.0379  0.3546
 7100SOL    HW132933   4.277   2.496   2.582  1.0424  0.8270 -2.1348
 7100SOL    HW232934   4.241   2.446   2.454  1.3109  0.9978  0.8443
 7101SOL     OW32935   1.822   1.572   1.103  0.0839  0.2228  0.2866
 7101SOL    HW132936   1.793   1.662   1.120  1.4558  0.8345 -0.6177
 7101SOL    HW232937   1.781   1.542   1.184  0.0336 -1.6082 -0.4123
 7102SOL     OW32938   3.969   3.852   9.461  0.7525  0.5558  0.8845
 7102SOL    HW132939   3.882   3.849   9.502  0.3485  0.3390  0.0155
 7102SOL    HW232940   4.011   3.923   9.510  0.5776  0.2755  1.4363
 7103SOL     OW32941   0.649   1.690  14.672  0.4210  0.0059 -0.1618
 7103SOL    HW132942   0.614   1.726  14.590  1.5552 -1.2817 -1.2027
 7103SOL    HW232943   0.714   1.631  14.634 -1.4947 -1.2527 -1.5281
 7104SOL     OW32944   0.596   3.956   8.499  0.3927 -0.4640 -0.3819
 7104SOL    HW132945   0.524   3.946   8.561  1.5253  2.4388  1.4078
 7104SOL    HW232946   0.547   3.962   8.418  0.3632 -2.3153 -0.4968
 7105SOL     OW32947   3.145   4.430  13.845 -0.2746 -0.2646  0.1057
 7105SOL    HW132948   3.172   4.341  13.823 -1.8170 -1.0984  1.5113
 7105SOL    HW232949   3.158   4.413  13.939  0.1029  0.6672  0.2182
 7106SOL     OW32950   0.656   4.555   2.881 -1.0016 -0.4855  0.2578
 7106SOL    HW132951   0.738   4.534   2.835  0.5452 -0.0593  2.8182
 7106SOL    HW232952   0.628   4.464   2.892 -2.6585 -0.0645 -0.5280
 7107SOL     OW32953   2.521   2.714   6.904 -0.0423  0.5305  0.5312
 7107SOL    HW132954   2.585   2.645   6.919 -1.5993 -1.1327 -0.5789
 7107SOL    HW232955   2.437   2.672   6.923  0.1799 -0.3150 -0.3891
 7108SOL     OW32956   2.748   1.623   5.805 -0.1773 -0.3218  0.3561
 7108SOL    HW132957   2.777   1.703   5.762 -1.9412 -0.5172 -1.2113
 7108SOL    HW232958   2.680   1.657   5.863  2.1232  0.5099  2.5613
 7109SOL     OW32959   0.491   2.716  16.088  0.0261 -0.5328 -0.2882
 7109SOL    HW132960   0.439   2.654  16.140 -0.0234  0.6540  1.0504
 7109SOL    HW232961   0.532   2.763  16.160 -2.4559  0.3873  0.5195
 7110SOL     OW32962   1.830   3.344   0.783 -0.1303 -0.0750 -0.8250
 7110SOL    HW132963   1.736   3.363   0.784 -0.2989 -0.9096 -0.7672
 7110SOL    HW232964   1.853   3.318   0.872  1.1434  1.1584 -0.7992
 7111SOL     OW32965   3.062   4.243   6.590 -0.6309 -0.2325  0.2922
 7111SOL    HW132966   3.041   4.268   6.500  2.0851  3.0238  0.5874
 7111SOL    HW232967   3.095   4.323   6.632 -1.4484 -0.5082  1.4761
 7112SOL     OW32968   2.704   0.987   8.697  0.0551  0.3989  0.1561
 7112SOL    HW132969   2.799   0.988   8.693  0.1118  0.4594  1.7415
 7112SOL    HW232970   2.695   1.060   8.759 -1.8952 -1.6583  2.2732
 7113SOL     OW32971   0.167   0.759   6.497 -0.1833  0.3658 -0.0276
 7113SOL    HW132972   0.191   0.834   6.443  1.8856  0.9364  1.6493
 7113SOL    HW232973   0.258   0.730   6.512 -1.4396 -2.5648  1.9179
 7114SOL     OW32974   0.649   2.197   0.278 -0.5873 -0.1449 -0.0417
 7114SOL    HW132975   0.565   2.237   0.252 -0.7323 -0.6878 -0.4068
 7114SOL    HW232976   0.700   2.275   0.298  1.9393 -1.9997  0.6067
 7115SOL     OW32977   1.737   2.220  12.998 -0.1238 -0.1272 -0.0982
 7115SOL    HW132978   1.782   2.219  13.082 -1.6713  0.9882  0.7305
 7115SOL    HW232979   1.798   2.157  12.959  0.6475  0.4431  0.1698
 7116SOL     OW32980   0.510   1.458  15.580 -0.0073 -0.3405  0.3996
 7116SOL    HW132981   0.601   1.482  15.598 -0.7465  1.7879  1.3343
 7116SOL    HW232982   0.490   1.517  15.506 -2.2658 -0.6355  0.7856
 7117SOL     OW32983   3.803   2.558   8.762 -0.2384  0.4950 -0.4515
 7117SOL    HW132984   3.856   2.509   8.825  2.3564  0.5192 -2.5757
 7117SOL    HW232985   3.873   2.603   8.715  0.6504 -1.6094 -1.1638
 7118SOL     OW32986   1.141   3.608   6.578 -0.8754 -0.0743  0.5337
 7118SOL    HW132987   1.208   3.677   6.574  1.3641 -2.2059  2.0771
 7118SOL    HW232988   1.115   3.603   6.670 -0.3809 -1.0954  0.6116
 7119SOL     OW32989   2.625   1.044   8.429  0.5433  0.0352 -0.1742
 7119SOL    HW132990   2.530   1.044   8.419  0.6847  0.8684 -1.5094
 7119SOL    HW232991   2.636   1.026   8.522  0.1991 -1.7388 -0.4798
 7120SOL     OW32992   4.029   1.421  12.131  0.5033 -0.7128 -0.0938
 7120SOL    HW132993   4.112   1.448  12.093 -1.2419  1.2466 -2.5531
 7120SOL    HW232994   4.054   1.371  12.208  1.4112  1.8661  1.2722
 7121SOL     OW32995   2.719   3.409  10.639  0.0128  0.0486 -0.2817
 7121SOL    HW132996   2.675   3.494  10.627 -0.1642  0.0789  0.6342
 7121SOL    HW232997   2.654   3.371  10.698 -0.2236  0.6699 -0.1436
 7122SOL     OW32998   2.693   2.104   2.691 -0.3044  0.4519 -0.3220
 7122SOL    HW132999   2.721   2.073   2.604 -2.4152 -1.1515 -0.4348
 7122SOL    HW233000   2.598   2.101   2.679 -0.0915 -0.3771 -1.8406
 7123SOL     OW33001   4.338   3.929   7.620  0.4589  0.6091 -0.8766
 7123SOL    HW133002   4.262   3.901   7.671 -0.6044  3.2017 -1.0340
 7123SOL    HW233003   4.322   3.875   7.542 -2.0276  0.9692 -0.6090
 7124SOL     OW33004   4.326   4.463   3.412  0.1913  0.8908  0.2739
 7124SOL    HW133005   4.331   4.475   3.317  1.5198 -1.6137  0.0210
 7124SOL    HW233006   4.260   4.530   3.431  0.8837  1.6660 -0.0222
 7125SOL     OW33007   0.707   4.001   2.959  0.6015  0.2697 -0.6697
 7125SOL    HW133008   0.697   3.952   2.878 -0.4347 -0.0840 -0.3235
 7125SOL    HW233009   0.746   3.932   3.012  1.5009  2.6261  1.7416
 7126SOL     OW33010   2.139   1.869  16.712  0.0278 -0.5748 -0.8394
 7126SOL    HW133011   2.121   1.897  16.801  0.9280 -0.0064 -0.8284
 7126SOL    HW233012   2.231   1.847  16.730 -0.1618  0.8460  1.6861
 7127SOL     OW33013   3.664   2.691  10.507 -0.0537  0.4269 -0.0004
 7127SOL    HW133014   3.697   2.642  10.432 -0.4657  0.2581 -0.0728
 7127SOL    HW233015   3.712   2.774  10.502 -2.0226  1.5672  0.1915
 7128SOL     OW33016   3.194   0.153  11.984 -0.1432 -0.0382 -0.4291
 7128SOL    HW133017   3.272   0.193  12.022 -0.3854  0.2204 -0.1967
 7128SOL    HW233018   3.227   0.065  11.970 -0.8066 -0.3922  0.2169
 7129SOL     OW33019   0.104   3.744  15.817  0.2663  0.1404 -0.2590
 7129SOL    HW133020   0.042   3.676  15.788 -1.1452  1.2304  0.1831
 7129SOL    HW233021   0.054   3.823  15.799  0.6830  0.4846  0.0991
 7130SOL     OW33022   0.356   0.658  11.813  0.1275  0.5709 -0.1217
 7130SOL    HW133023   0.415   0.623  11.746 -0.2446 -1.5969  0.6676
 7130SOL    HW233024   0.424   0.709  11.857  2.0184 -0.9274 -1.3084
 7131SOL     OW33025   4.645   3.387   3.183  0.3507 -0.2812 -0.2378
 7131SOL    HW133026   4.702   3.395   3.259 -0.3855 -1.7559  0.4767
 7131SOL    HW233027   4.644   3.479   3.157 -2.9886 -0.3337 -0.3291
 7132SOL     OW33028   1.865   3.792   1.071  0.5219 -0.4553  0.1903
 7132SOL    HW133029   1.940   3.739   1.044  2.1379  2.0458 -0.2455
 7132SOL    HW233030   1.797   3.774   1.006  1.1772 -2.7008  0.1111
 7133SOL     OW33031   2.855   1.094   7.631  0.4876  0.2481 -0.3891
 7133SOL    HW133032   2.811   1.010   7.621 -0.7242  1.0472 -1.6703
 7133SOL    HW233033   2.820   1.114   7.718  0.0940 -0.1135 -0.4641
 7134SOL     OW33034   3.397   0.056   2.833  0.4667 -0.0322 -0.6804
 7134SOL    HW133035   3.404   0.111   2.911  0.7117 -0.8622 -0.1190
 7134SOL    HW233036   3.370   0.114   2.761  0.9073  0.8635 -0.1213
 7135SOL     OW33037   1.297   4.011   5.550  0.2667 -0.4137 -0.1376
 7135SOL    HW133038   1.374   3.957   5.566  0.4027 -0.1208  0.2009
 7135SOL    HW233039   1.302   4.068   5.627 -0.3621  0.9541 -1.1076
 7136SOL     OW33040   3.451   3.045  13.591  0.7110  0.3365  0.1968
 7136SOL    HW133041   3.448   2.956  13.626 -2.4154  0.2564 -0.2689
 7136SOL    HW233042   3.379   3.081  13.642  1.2311  0.0593  1.1295
 7137SOL     OW33043   0.553   0.580  13.584 -0.2983 -0.5476  0.0586
 7137SOL    HW133044   0.558   0.512  13.651  0.7399 -0.8577 -0.3339
 7137SOL    HW233045   0.580   0.656  13.636 -3.3115 -1.0549  2.3820
 7138SOL     OW33046   0.664   3.419   2.597  0.6202  0.6821  0.6098
 7138SOL    HW133047   0.700   3.416   2.508  1.1404  0.8904  0.8107
 7138SOL    HW233048   0.625   3.333   2.611  2.0794  0.5250  3.8281
 7139SOL     OW33049   2.516   1.981   7.461 -0.5097 -0.1924 -0.2730
 7139SOL    HW133050   2.489   2.064   7.502 -0.4765 -0.9126  1.1981
 7139SOL    HW233051   2.436   1.937   7.434 -0.5598  0.5807 -1.4020
 7140SOL     OW33052   2.029   1.023   0.311 -0.2063  0.3348  0.0889
 7140SOL    HW133053   2.000   1.093   0.253 -1.5381  0.2705  0.6897
 7140SOL    HW233054   2.107   0.999   0.260 -1.1624 -0.4341 -1.0072
 7141SOL     OW33055   1.196   0.879   2.641  0.1505 -0.5985  0.7986
 7141SOL    HW133056   1.272   0.899   2.694 -0.0312  1.3521  0.3071
 7141SOL    HW233057   1.172   0.802   2.692  2.1961 -2.1845 -0.6418
 7142SOL     OW33058   4.172   1.997   4.132 -0.3399 -0.3694 -0.1572
 7142SOL    HW133059   4.156   2.091   4.125  0.9089 -0.2050 -0.7559
 7142SOL    HW233060   4.115   1.966   4.061 -0.1619  0.5479 -0.6973
 7143SOL     OW33061   2.821   3.629   2.780  0.1440 -0.0045 -0.6010
 7143SOL    HW133062   2.897   3.599   2.829 -0.6335  0.8490  1.1596
 7143SOL    HW233063   2.750   3.621   2.845 -0.9239  1.8371 -1.5492
 7144SOL     OW33064   1.606   3.029  16.120  0.0971  0.1243 -0.0552
 7144SOL    HW133065   1.639   3.014  16.208 -0.1718  2.0690  0.3718
 7144SOL    HW233066   1.532   3.090  16.125 -3.5547 -4.3957  0.8490
 7145SOL     OW33067   0.627   1.327  10.022 -0.2901 -0.1059  0.0472
 7145SOL    HW133068   0.582   1.391  10.077  0.9762  0.6968  0.1649
 7145SOL    HW233069   0.555   1.271   9.993 -0.2559  0.2887 -0.8140
 7146SOL     OW33070   0.340   0.638   0.958 -0.2804 -0.5236  0.0833
 7146SOL    HW133071   0.286   0.716   0.950 -1.4626 -1.1024  2.5915
 7146SOL    HW233072   0.273   0.582   0.919 -1.9550  1.2837  0.4176
 7147SOL     OW33073   4.190   1.598   3.005  0.5706 -0.3896 -0.2141
 7147SOL    HW133074   4.132   1.554   3.067 -0.3646 -0.8988 -1.4494
 7147SOL    HW233075   4.271   1.547   3.007  1.0074  0.2423 -1.7274
 7148SOL     OW33076   2.726   4.462   4.801 -1.5455 -0.6297 -0.2313
 7148SOL    HW133077   2.794   4.398   4.777 -0.7790  0.4016 -0.8238
 7148SOL    HW233078   2.781   4.522   4.853 -1.0404 -1.2225 -0.0737
 7149SOL     OW33079   2.213   2.652  12.681 -0.6004 -0.1341 -0.1917
 7149SOL    HW133080   2.201   2.604  12.599  0.4819 -0.1799 -0.3271
 7149SOL    HW233081   2.289   2.610  12.721 -1.1574  0.3901  1.4204
 7150SOL     OW33082   0.014   2.206   8.307  0.6511 -0.2614  0.3312
 7150SOL    HW133083   4.671   2.248   8.294  1.6617  1.0271 -2.1031
 7150SOL    HW233084   0.069   2.266   8.357 -2.9161  3.5742 -0.3914
 7151SOL     OW33085   1.294   0.410   8.826  0.1288 -0.2503 -0.2635
 7151SOL    HW133086   1.301   0.358   8.906  0.3778  0.4845  0.1892
 7151SOL    HW233087   1.225   0.473   8.843 -0.0036  0.0368 -1.8957
 7152SOL     OW33088   1.384   0.430  11.797  0.1050  0.6525 -0.7399
 7152SOL    HW133089   1.405   0.348  11.841 -0.6580 -0.2090 -1.9895
 7152SOL    HW233090   1.422   0.493  11.858 -0.9346  1.0431 -0.4904
 7153SOL     OW33091   1.044   3.199   3.097 -0.7366 -0.1681  0.5645
 7153SOL    HW133092   1.096   3.225   3.173  0.4563  0.6094 -0.5241
 7153SOL    HW233093   1.111   3.188   3.030 -0.7705 -1.2417  0.6943
 7154SOL     OW33094   0.998   1.204  10.510  0.3611 -0.4127  0.4630
 7154SOL    HW133095   0.997   1.287  10.462  2.7116 -1.5740 -1.5948
 7154SOL    HW233096   0.945   1.158  10.445 -1.7682  0.8447  1.3119
 7155SOL     OW33097   0.922   3.637   2.806  0.0218 -0.0917  0.1049
 7155SOL    HW133098   0.963   3.553   2.785 -0.8900 -0.4850 -0.1032
 7155SOL    HW233099   0.838   3.598   2.832  0.9996 -1.5927  1.0343
 7156SOL     OW33100   4.391   2.967   5.676  0.1999 -0.5984 -0.0733
 7156SOL    HW133101   4.305   2.936   5.702  0.0983 -0.4520 -0.2341
 7156SOL    HW233102   4.394   3.049   5.725 -0.7045 -1.0089  0.6557
 7157SOL     OW33103   1.006   0.676  14.755 -0.0738 -0.2588  0.6330
 7157SOL    HW133104   0.994   0.735  14.680 -0.1940 -0.2322  0.6734
 7157SOL    HW233105   0.981   0.730  14.830 -1.0706  0.2224 -0.0537
 7158SOL     OW33106   3.950   4.527   1.711  0.1629  0.3468 -0.5968
 7158SOL    HW133107   3.922   4.594   1.648 -2.6472  0.2854  0.5658
 7158SOL    HW233108   3.956   4.454   1.650 -0.9352 -0.5461  0.3673
 7159SOL     OW33109   3.015   3.092   4.594 -0.7644  0.4535 -0.0086
 7159SOL    HW133110   2.999   3.020   4.655 -1.3181  0.1458 -0.5192
 7159SOL    HW233111   2.928   3.113   4.563 -1.3553 -1.4626  0.3009
 7160SOL     OW33112   0.727   0.272   3.793  0.3028  0.2346  0.3711
 7160SOL    HW133113   0.663   0.333   3.830 -0.5926 -0.4371 -0.0529
 7160SOL    HW233114   0.718   0.300   3.703 -1.8233  0.2971  0.5921
 7161SOL     OW33115   2.311   4.304   8.728 -0.0540 -0.4465  0.1340
 7161SOL    HW133116   2.405   4.302   8.712  0.1196  0.8333  1.0133
 7161SOL    HW233117   2.287   4.393   8.700  3.9908  0.3885 -0.6230
 7162SOL     OW33118   0.343   3.637  13.099 -0.1750  0.4823 -0.0993
 7162SOL    HW133119   0.374   3.693  13.170 -0.7091  0.0751  0.4586
 7162SOL    HW233120   0.275   3.692  13.059 -0.1331  0.0661 -0.7500
 7163SOL     OW33121   1.951   3.112   9.453  0.6433  0.7627 -0.1698
 7163SOL    HW133122   1.993   3.030   9.476 -1.1501 -0.6625 -1.9882
 7163SOL    HW233123   1.969   3.107   9.359  0.4043 -1.0392 -0.1185
 7164SOL     OW33124   1.108   3.057   8.619 -0.1769 -0.1190 -0.4720
 7164SOL    HW133125   1.123   3.152   8.628  0.3724 -0.2103 -0.4116
 7164SOL    HW233126   1.146   3.040   8.533 -6.5735  1.9486 -3.7131
 7165SOL     OW33127   2.725   1.517   8.189  0.1387  0.1170 -0.1356
 7165SOL    HW133128   2.680   1.590   8.145  0.6156 -0.1854 -1.1391
 7165SOL    HW233129   2.746   1.565   8.269 -0.5344  1.0306 -0.5032
 7166SOL     OW33130   4.674   2.033  13.980 -0.3120 -0.0668 -0.4459
 7166SOL    HW133131   0.012   1.980  13.989  0.7964  2.1338  2.9186
 7166SOL    HW233132   4.683   2.050  13.886 -1.1183  2.4568 -0.0624
 7167SOL     OW33133   3.069   0.009  17.221 -0.5170 -0.3929  0.5482
 7167SOL    HW133134   3.033   4.679  17.168 -0.1393 -0.0335 -0.2004
 7167SOL    HW233135   3.144   0.031  17.166 -1.1715  0.1415 -0.1243
 7168SOL     OW33136   2.883   1.481   3.741 -0.9210  0.7011 -0.0465
 7168SOL    HW133137   2.790   1.464   3.724 -0.8633  0.5706 -0.2320
 7168SOL    HW233138   2.870   1.541   3.814  0.0290 -0.5501  1.1543
 7169SOL     OW33139   1.133   1.612   4.201 -0.0738  0.1139 -0.0957
 7169SOL    HW133140   1.090   1.641   4.120  0.0232  1.8743  0.4823
 7169SOL    HW233141   1.185   1.691   4.218  1.0058 -0.7170  0.4309
 7170SOL     OW33142   0.095   0.285   6.164  0.4208  0.1082 -0.2405
 7170SOL    HW133143   0.064   0.294   6.074 -0.7676 -1.2507  0.0324
 7170SOL    HW233144   0.062   0.366   6.203 -2.3312 -0.0073 -2.3098
 7171SOL     OW33145   4.152   4.579   3.735  0.0690  0.1037 -0.2418
 7171SOL    HW133146   4.110   4.614   3.813  1.2804  0.7087  0.1401
 7171SOL    HW233147   4.202   4.654   3.703 -1.2470  0.6084 -1.1143
 7172SOL     OW33148   2.221   3.958   5.983 -0.0152 -0.2112  0.0302
 7172SOL    HW133149   2.297   3.989   5.934  1.0152  0.0251  1.7779
 7172SOL    HW233150   2.259   3.875   6.011  1.7262  0.2608 -0.9718
 7173SOL     OW33151   3.774   3.006   7.069 -0.0931  0.0133  0.0862
 7173SOL    HW133152   3.788   3.069   7.140  0.6898  0.3311 -0.3527
 7173SOL    HW233153   3.684   3.028   7.043 -0.2158 -1.5961 -0.8252
 7174SOL     OW33154   4.213   1.366   7.035  0.2471 -0.2152  0.2044
 7174SOL    HW133155   4.236   1.279   7.068 -0.1222 -0.5989 -0.5411
 7174SOL    HW233156   4.120   1.360   7.015  0.5267 -0.8137 -0.9223
 7175SOL     OW33157   0.512   2.296  15.306 -0.2345  0.3797 -0.2281
 7175SOL    HW133158   0.484   2.256  15.223  1.0316  0.8614 -0.8844
 7175SOL    HW233159   0.533   2.209  15.342 -2.0967  0.8552  1.9739
 7176SOL     OW33160   1.621   2.584  10.695 -0.4210 -0.6105  0.2340
 7176SOL    HW133161   1.546   2.548  10.649 -1.8168  1.9169  0.5295
 7176SOL    HW233162   1.593   2.592  10.786  1.7220  1.2718  0.7413
 7177SOL     OW33163   4.617   4.313   8.365 -0.4418 -0.3537  0.3325
 7177SOL    HW133164   4.605   4.397   8.409  0.1017 -0.3106  0.4002
 7177SOL    HW233165   4.695   4.285   8.413  0.1032 -0.6647 -0.7290
 7178SOL     OW33166   1.292   0.968   8.458 -0.5248  0.2589 -0.0342
 7178SOL    HW133167   1.266   0.877   8.471  1.6712 -0.7008 -2.5359
 7178SOL    HW233168   1.375   0.950   8.413 -0.0781 -0.7879  1.2103
 7179SOL     OW33169   2.454   1.762   8.515  0.3272  0.3090 -0.0779
 7179SOL    HW133170   2.521   1.809   8.564 -2.0641  1.3474  2.2054
 7179SOL    HW233171   2.376   1.755   8.569  0.9940 -1.4450  0.6488
 7180SOL     OW33172   0.802   4.459   5.931  0.3687  0.8176  0.3080
 7180SOL    HW133173   0.852   4.380   5.912 -0.3288  0.7223 -1.1941
 7180SOL    HW233174   0.716   4.440   5.893  1.3544 -1.7682 -0.6159
 7181SOL     OW33175   0.390   1.255   4.746 -0.3028  0.0390  0.1307
 7181SOL    HW133176   0.396   1.273   4.840 -2.1022 -2.7982  0.7847
 7181SOL    HW233177   0.356   1.166   4.747 -0.6933  0.1955  1.1167
 7182SOL     OW33178   0.216   1.863   1.141  0.8034  0.2454  0.0562
 7182SOL    HW133179   0.172   1.947   1.136 -0.1878 -0.4417 -3.1713
 7182SOL    HW233180   0.218   1.846   1.235 -5.7338 -1.1024 -0.0531
 7183SOL     OW33181   4.046   4.300   4.893  0.3084  0.4027  0.1771
 7183SOL    HW133182   4.112   4.294   4.962 -0.0466 -2.6006  0.2507
 7183SOL    HW233183   3.979   4.362   4.923 -1.1487 -1.5420  0.9212
 7184SOL     OW33184   1.046   1.676   2.551  0.6552 -0.0650  0.5019
 7184SOL    HW133185   0.951   1.689   2.553  0.6949  0.0503  1.6951
 7184SOL    HW233186   1.068   1.769   2.543  0.4466 -0.1093 -0.5043
 7185SOL     OW33187   2.772   0.609   2.921 -0.8183 -0.3488  0.2210
 7185SOL    HW133188   2.822   0.688   2.945 -1.2503  0.0371 -0.1397
 7185SOL    HW233189   2.742   0.637   2.834  1.0720 -4.2886 -1.6558
 7186SOL     OW33190   3.156   1.431   3.732  0.6616 -0.0473 -0.5660
 7186SOL    HW133191   3.063   1.449   3.741  1.1754  1.9143  0.7850
 7186SOL    HW233192   3.175   1.479   3.651 -0.2822 -0.3906 -0.9813
 7187SOL     OW33193   0.170   2.847   5.997  0.5868  0.0388 -0.6248
 7187SOL    HW133194   0.120   2.767   5.978 -0.5057  1.3300 -3.0944
 7187SOL    HW233195   0.214   2.848   5.912 -1.4827  0.3845 -1.7047
 7188SOL     OW33196   3.757   1.167   2.231 -0.6229  0.5604  0.6669
 7188SOL    HW133197   3.736   1.203   2.317 -2.0485  2.4757 -0.5061
 7188SOL    HW233198   3.852   1.161   2.242 -0.8340  0.4307  2.4939
 7189SOL     OW33199   0.283   2.823   9.141 -0.6433 -0.3766 -0.1255
 7189SOL    HW133200   0.324   2.785   9.063 -0.1990 -2.9656  1.3747
 7189SOL    HW233201   0.195   2.785   9.138 -0.9736  0.3938 -0.0354
 7190SOL     OW33202   4.372   4.666   2.916  0.6343 -0.2146 -0.1828
 7190SOL    HW133203   4.341   4.665   2.826  1.5481  0.1929 -0.5085
 7190SOL    HW233204   4.420   0.008   2.919  0.8064 -0.3037 -0.4741
 7191SOL     OW33205   2.204   2.842   1.517 -0.1304  0.5797 -0.7828
 7191SOL    HW133206   2.251   2.817   1.596 -1.4714 -0.0620 -0.1963
 7191SOL    HW233207   2.112   2.825   1.533  0.1526  2.0544  2.2435
 7192SOL     OW33208   3.275   1.283   4.800  0.4221 -0.2646 -0.2908
 7192SOL    HW133209   3.355   1.234   4.779 -0.1005 -1.6935  1.0668
 7192SOL    HW233210   3.295   1.359   4.745  2.0011  0.0820  0.7723
 7193SOL     OW33211   4.422   2.541   5.613 -0.4182  0.1864 -0.5858
 7193SOL    HW133212   4.514   2.517   5.624 -0.7315 -0.4215  0.6850
 7193SOL    HW233213   4.405   2.488   5.535  0.8952 -1.8963  0.5446
 7194SOL     OW33214   1.548   2.491   3.562 -0.5223 -0.3314  0.3569
 7194SOL    HW133215   1.641   2.512   3.554 -0.4643 -0.7355 -0.0037
 7194SOL    HW233216   1.539   2.477   3.657 -1.2686 -1.7258  0.0807
 7195SOL     OW33217   0.400   1.467   5.795  0.0967  0.0352 -0.7269
 7195SOL    HW133218   0.307   1.455   5.811 -0.2556  0.8282 -2.1311
 7195SOL    HW233219   0.421   1.550   5.838 -0.2194 -0.1002 -0.3130
 7196SOL     OW33220   3.487   2.203   5.441 -0.5044 -0.2083  0.4039
 7196SOL    HW133221   3.415   2.260   5.414  0.0790  0.7503  0.8679
 7196SOL    HW233222   3.471   2.200   5.535  1.3628 -1.4016  0.6961
 7197SOL     OW33223   1.015   0.335  12.661 -0.1373 -0.0113 -0.1573
 7197SOL    HW133224   0.996   0.263  12.601  0.6041 -1.3635  1.2290
 7197SOL    HW233225   1.045   0.291  12.741  1.6249  1.6105  0.0701
 7198SOL     OW33226   3.695   4.328  16.474  0.2655 -0.4776 -0.3950
 7198SOL    HW133227   3.765   4.271  16.506 -0.1798 -1.9259 -2.0371
 7198SOL    HW233228   3.632   4.295  16.538  2.1865  0.0777  1.7831
 7199SOL     OW33229   2.134   3.559  10.730 -0.3097 -0.3870 -0.1049
 7199SOL    HW133230   2.051   3.568  10.683 -1.4947  0.8187  2.2286
 7199SOL    HW233231   2.112   3.585  10.820  1.5527 -1.6546  0.7244
 7200SOL     OW33232   0.856   2.248   5.143  0.3167 -0.0019 -0.2494
 7200SOL    HW133233   0.937   2.238   5.095 -0.2218 -1.0291 -0.9354
 7200SOL    HW233234   0.876   2.226   5.234  0.8658  1.2537 -0.0616
 7201SOL     OW33235   1.177   2.229   3.097  0.0697 -0.6085  0.0176
 7201SOL    HW133236   1.200   2.221   3.004 -1.9105  0.9400 -0.6098
 7201SOL    HW233237   1.179   2.323   3.112  3.1365 -0.4898 -1.2789
 7202SOL     OW33238   2.311   2.028   6.726 -0.6309 -0.0674  0.9400
 7202SOL    HW133239   2.360   2.108   6.706 -0.0610 -1.1579 -2.1138
 7202SOL    HW233240   2.310   1.992   6.637  1.1234  0.1178  0.8464
 7203SOL     OW33241   3.159   1.026  14.454  0.4803  0.4161 -0.2972
 7203SOL    HW133242   3.224   0.986  14.397 -1.3385 -0.3788 -1.8350
 7203SOL    HW233243   3.086   0.977  14.416  0.7953 -0.4051  0.1710
 7204SOL     OW33244   4.064   0.024   7.852 -0.2327  0.2169 -0.1089
 7204SOL    HW133245   4.117   4.727   7.782  1.5668  2.4383  0.0138
 7204SOL    HW233246   3.982   0.024   7.804 -0.7214  0.5372  0.7362
 7205SOL     OW33247   2.803   0.770   0.685 -0.5459 -0.0446 -0.2483
 7205SOL    HW133248   2.792   0.730   0.771  0.8029 -1.5123 -0.7627
 7205SOL    HW233249   2.720   0.818   0.679 -1.7579 -2.1436 -0.5088
 7206SOL     OW33250   0.560   2.852   4.369  0.3513  0.0247  0.6598
 7206SOL    HW133251   0.579   2.759   4.356 -0.3540 -0.3642  2.4187
 7206SOL    HW233252   0.566   2.859   4.464  1.1125  1.6522  0.4770
 7207SOL     OW33253   3.307   0.249   6.919 -0.1521 -0.0015  0.7532
 7207SOL    HW133254   3.305   0.335   6.960  2.9695 -0.0363  0.9648
 7207SOL    HW233255   3.247   0.262   6.846 -0.3738 -2.6649  0.4455
 7208SOL     OW33256   3.187   1.602   7.724 -0.7691  0.1690 -0.2370
 7208SOL    HW133257   3.178   1.514   7.761  0.1167  0.6359  1.0523
 7208SOL    HW233258   3.096   1.629   7.710 -0.9475 -0.3581 -0.0951
 7209SOL     OW33259   2.698   1.787   4.590 -0.5377 -0.2612  0.5610
 7209SOL    HW133260   2.705   1.708   4.536 -2.4086  1.1462 -1.7453
 7209SOL    HW233261   2.684   1.852   4.522 -1.8036 -0.4708  0.6159
 7210SOL     OW33262   2.618   1.314  13.597  0.2834  0.2243 -0.2590
 7210SOL    HW133263   2.697   1.368  13.590  0.8427 -0.5560  0.0719
 7210SOL    HW233264   2.613   1.270  13.512  2.2559 -0.8150  0.1732
 7211SOL     OW33265   2.275   3.296  12.036 -0.0518  0.0389  0.1454
 7211SOL    HW133266   2.233   3.290  11.950  0.0987  4.1542 -0.1943
 7211SOL    HW233267   2.225   3.362  12.085 -0.3391  1.8928 -2.6656
 7212SOL     OW33268   3.154   4.460  14.903  0.2371  0.1996 -0.3326
 7212SOL    HW133269   3.072   4.438  14.947  1.3686 -0.3525  1.4948
 7212SOL    HW233270   3.165   4.551  14.929  1.2925  0.2184 -0.8136
 7213SOL     OW33271   2.581   1.338   4.113 -0.0427 -0.3108  0.2160
 7213SOL    HW133272   2.569   1.263   4.171  1.1956 -0.5362  0.1933
 7213SOL    HW233273   2.620   1.302   4.033  0.7963 -0.6387  0.7646
 7214SOL     OW33274   0.447   4.036   8.234  0.4788  0.6861 -0.8477
 7214SOL    HW133275   0.423   3.979   8.160  0.9663 -0.3584 -0.2127
 7214SOL    HW233276   0.540   4.051   8.217  0.3554  1.7019 -0.5947
 7215SOL     OW33277   0.882   3.261   4.940 -0.3447 -0.2894  0.3661
 7215SOL    HW133278   0.889   3.318   5.016 -0.8788  2.0885 -1.3512
 7215SOL    HW233279   0.903   3.323   4.870  0.4125 -1.8567 -0.7858
 7216SOL     OW33280   4.420   0.586   5.467 -0.5371 -0.6951 -0.3668
 7216SOL    HW133281   4.416   0.681   5.470 -0.0626 -0.6843  0.0637
 7216SOL    HW233282   4.329   0.562   5.483 -1.5771  2.6529 -1.3373
 7217SOL     OW33283   1.658   4.403   3.101 -0.4025  0.3780  0.1604
 7217SOL    HW133284   1.602   4.465   3.148 -0.8168 -0.1411  0.3522
 7217SOL    HW233285   1.742   4.410   3.147  0.5338 -1.9678 -1.2209
 7218SOL     OW33286   2.142   4.188   8.436 -0.2479  1.0648  0.1162
 7218SOL    HW133287   2.227   4.231   8.452 -0.7716  0.9642  3.1248
 7218SOL    HW233288   2.088   4.258   8.401  0.4929  0.6531 -1.8533
 7219SOL     OW33289   1.483   0.738   6.657 -0.1265  0.2891 -0.6137
 7219SOL    HW133290   1.476   0.647   6.685  3.4513 -0.7139 -3.0347
 7219SOL    HW233291   1.390   0.761   6.648 -0.2165  0.1066 -0.1386
 7220SOL     OW33292   3.990   2.059   5.556  0.0686  0.7487 -0.3807
 7220SOL    HW133293   3.907   2.079   5.513 -0.3009 -1.3687 -0.6810
 7220SOL    HW233294   4.059   2.071   5.490 -1.1969  0.0831 -1.8225
 7221SOL     OW33295   3.498   3.736   5.737  0.0840  0.1499  0.1995
 7221SOL    HW133296   3.497   3.723   5.642  1.4305 -1.4256  0.3915
 7221SOL    HW233297   3.408   3.764   5.754  0.3236  1.0555 -0.0387
 7222SOL     OW33298   2.484   1.342   2.668 -0.5177 -0.0856 -0.6760
 7222SOL    HW133299   2.480   1.330   2.763  0.0385  2.5121 -0.3293
 7222SOL    HW233300   2.571   1.313   2.640  0.7556  1.8862  1.1879
 7223SOL     OW33301   1.443   1.339  16.996  0.5211 -0.4031 -0.0683
 7223SOL    HW133302   1.353   1.311  16.978 -0.2996  1.6232  0.9407
 7223SOL    HW233303   1.489   1.270  17.045  2.1039 -0.1722 -1.2227
 7224SOL     OW33304   3.242   4.476   5.054  0.0712  0.7981  0.2741
 7224SOL    HW133305   3.153   4.463   5.022 -0.0018  0.8386  0.4632
 7224SOL    HW233306   3.299   4.433   4.990 -0.1231  0.6771  0.1849
 7225SOL     OW33307   3.528   2.297   1.827  0.0933 -0.6874 -0.4785
 7225SOL    HW133308   3.494   2.328   1.743  0.9830 -1.9483 -1.3018
 7225SOL    HW233309   3.441   2.281   1.863  0.4388  0.8806  1.0194
 7226SOL     OW33310   1.790   2.281   3.357  0.3750  0.2395 -0.5142
 7226SOL    HW133311   1.715   2.246   3.405 -0.3880 -1.0062 -2.5838
 7226SOL    HW233312   1.781   2.375   3.373  2.9836  0.1845  1.3855
 7227SOL     OW33313   0.080   3.448  13.085 -0.0538  0.0266  0.4840
 7227SOL    HW133314   0.128   3.448  13.168 -2.0140 -0.2741  1.6110
 7227SOL    HW233315   0.151   3.421  13.027  0.2510  0.4193  0.6659
 7228SOL     OW33316   2.279   3.247   7.103  0.2915  0.1732  0.9959
 7228SOL    HW133317   2.344   3.238   7.033 -1.7680  0.8889 -1.0159
 7228SOL    HW233318   2.222   3.318   7.075 -0.9391 -0.6244  1.4588
 7229SOL     OW33319   3.771   0.255   2.876 -0.1788 -0.2813 -0.1227
 7229SOL    HW133320   3.709   0.255   2.803 -1.3453  0.2987  0.8736
 7229SOL    HW233321   3.784   0.160   2.888  3.3749  0.4485  1.8186
 7230SOL     OW33322   4.613   2.306   2.429 -0.3639  0.0148 -0.2674
 7230SOL    HW133323   4.572   2.374   2.482 -1.0645  0.2688 -1.1300
 7230SOL    HW233324   4.546   2.238   2.431 -0.6361  0.3172  0.7434
 7231SOL     OW33325   3.880   2.157  14.219  0.3826  0.4496  0.5714
 7231SOL    HW133326   3.951   2.216  14.243  1.2546 -0.2822 -0.1928
 7231SOL    HW233327   3.922   2.072  14.204  3.2637  2.0282 -0.3527
 7232SOL     OW33328   0.010   4.508   5.991  0.1207  0.3918  0.2114
 7232SOL    HW133329   0.106   4.506   5.992  0.0611 -2.2719 -0.5692
 7232SOL    HW233330   4.731   4.529   5.900 -0.6324 -2.5141 -0.2873
 7233SOL     OW33331   2.367   0.882  15.340 -0.3503 -0.3000  0.0720
 7233SOL    HW133332   2.324   0.847  15.261 -0.6704 -3.1605  1.5295
 7233SOL    HW233333   2.424   0.811  15.370  1.2764  0.5086 -1.0569
 7234SOL     OW33334   1.316   0.405   8.394  0.1400  0.4774  0.1811
 7234SOL    HW133335   1.387   0.374   8.451 -1.2839 -3.0883  0.0266
 7234SOL    HW233336   1.354   0.486   8.359  1.0799  0.3390  0.8952
 7235SOL     OW33337   4.084   1.119  16.182 -0.5517 -0.0160 -0.0444
 7235SOL    HW133338   4.128   1.040  16.212  1.3254  1.1476  0.2634
 7235SOL    HW233339   3.991   1.096  16.192 -0.4183 -1.3583 -1.9673
 7236SOL     OW33340   1.567   1.911   7.185  0.0783 -0.5649 -0.0324
 7236SOL    HW133341   1.514   1.907   7.106 -1.0858  0.8002  0.6808
 7236SOL    HW233342   1.652   1.896   7.143  0.2971  1.2467 -0.2251
 7237SOL     OW33343   0.851   1.545   8.566 -0.4402  0.3689 -0.2050
 7237SOL    HW133344   0.885   1.521   8.653  0.8519 -1.1629 -1.1402
 7237SOL    HW233345   0.829   1.457   8.537 -2.0958  0.8336 -0.3595
 7238SOL     OW33346   2.050   0.986   5.500  0.0354 -0.3004  0.1008
 7238SOL    HW133347   2.018   1.056   5.443 -0.2441 -0.8456 -0.4176
 7238SOL    HW233348   2.142   1.008   5.491  0.0970 -0.8699 -0.6473
 7239SOL     OW33349   1.182   2.709  17.174  0.5323  0.4315 -0.2712
 7239SOL    HW133350   1.259   2.762  17.151  0.0821  0.8716 -0.7646
 7239SOL    HW233351   1.222   2.628  17.205  1.3143  0.5097 -1.0669
 7240SOL     OW33352   1.593   2.479   1.327 -0.3193 -0.0146 -0.2293
 7240SOL    HW133353   1.599   2.563   1.282 -0.1564  0.3068  0.4031
 7240SOL    HW233354   1.509   2.486   1.372  0.5092  0.0008  1.2850
 7241SOL     OW33355   0.318   4.429   8.524  0.2454 -0.0929 -0.2125
 7241SOL    HW133356   0.286   4.482   8.452 -0.5975  0.9158  0.8952
 7241SOL    HW233357   0.412   4.411   8.513  0.2522  0.4273 -0.9666
 7242SOL     OW33358   0.916   4.005  10.885  0.6178 -0.7997 -0.0659
 7242SOL    HW133359   0.884   4.069  10.948 -1.5472 -3.2275  1.2945
 7242SOL    HW233360   0.871   3.925  10.914 -1.4865 -1.0715 -4.1297
 7243SOL     OW33361   1.103   3.229   9.671  0.5538 -0.0142 -0.1295
 7243SOL    HW133362   1.018   3.234   9.627  1.2696 -1.3746 -1.6576
 7243SOL    HW233363   1.135   3.140   9.659 -0.4617 -0.4890  0.7517
 7244SOL     OW33364   3.260   2.130   5.165 -0.8468  0.2215  0.5613
 7244SOL    HW133365   3.274   2.199   5.231 -0.3710  0.4282  0.2468
 7244SOL    HW233366   3.340   2.137   5.113 -0.7972 -2.4061  0.2805
 7245SOL     OW33367   4.716   0.303   1.352  0.0956  0.1996  0.6653
 7245SOL    HW133368   4.719   0.398   1.339 -2.6947  0.3276  0.8577
 7245SOL    HW233369   0.060   0.274   1.382 -0.1900 -0.7831  0.5362
 7246SOL     OW33370   0.623   2.469   8.117  0.5931  0.3808  0.2058
 7246SOL    HW133371   0.547   2.525   8.105  1.5595  1.6759  0.1216
 7246SOL    HW233372   0.626   2.457   8.212  0.8891 -0.2203  0.1229
 7247SOL     OW33373   0.443   2.442   3.786 -0.4411 -0.2783 -0.2625
 7247SOL    HW133374   0.515   2.498   3.814  0.2723 -0.1926 -2.2739
 7247SOL    HW233375   0.367   2.477   3.832 -0.1221  0.0434  0.0186
 7248SOL     OW33376   1.254   1.774  15.743  0.0824 -0.2669  0.4888
 7248SOL    HW133377   1.222   1.688  15.772 -0.7412  0.2751  1.1779
 7248SOL    HW233378   1.294   1.805  15.824 -1.9754 -2.5284  2.4045
 7249SOL     OW33379   3.819   3.356  16.942  0.1394 -0.0038 -0.2653
 7249SOL    HW133380   3.828   3.297  16.867 -1.4070 -0.8933  0.2599
 7249SOL    HW233381   3.909   3.390  16.946  0.8403 -2.5864  5.1766
 7250SOL     OW33382   4.549   0.242  14.024  0.2677 -0.6561  0.0289
 7250SOL    HW133383   4.567   0.182  14.096 -0.7699  0.7329  1.4481
 7250SOL    HW233384   4.567   0.322  14.074  0.7542 -0.7219 -0.0416
 7251SOL     OW33385   0.335   4.520  11.537 -0.1447 -0.1172 -0.2733
 7251SOL    HW133386   0.421   4.540  11.573 -0.5299  0.4363  0.3348
 7251SOL    HW233387   0.295   4.604  11.558  0.9692 -0.2057  2.1774
 7252SOL     OW33388   2.247   3.649  11.951 -0.3183  0.1681  0.1087
 7252SOL    HW133389   2.328   3.603  11.929 -0.3946  1.0327 -1.9910
 7252SOL    HW233390   2.175   3.610  11.902 -0.8670  0.8440  0.3860
 7253SOL     OW33391   2.479   1.368   7.140  0.0133  0.2883  0.2399
 7253SOL    HW133392   2.520   1.455   7.141 -0.1008  0.3602 -0.7173
 7253SOL    HW233393   2.531   1.340   7.065 -0.3932 -2.3521  0.9617
 7254SOL     OW33394   3.057   0.392  10.700 -0.3638 -0.0503  0.5842
 7254SOL    HW133395   3.104   0.309  10.712  0.3658  0.0788 -1.5075
 7254SOL    HW233396   3.076   0.433  10.784 -0.7837 -2.0644  1.6780
 7255SOL     OW33397   1.036   1.594   1.276  0.0631 -0.3009  0.1661
 7255SOL    HW133398   0.971   1.659   1.250  0.0080  0.0676  1.2443
 7255SOL    HW233399   1.102   1.607   1.208 -0.5901 -1.6481 -0.7240
 7256SOL     OW33400   4.130   1.731   8.290 -0.1466 -0.2038 -0.3289
 7256SOL    HW133401   4.042   1.704   8.317  0.8110 -1.9134  1.1026
 7256SOL    HW233402   4.162   1.663   8.231 -0.0286  0.4155 -0.9809
 7257SOL     OW33403   1.452   2.626   7.451 -0.1459  0.1134  0.0917
 7257SOL    HW133404   1.476   2.555   7.511  1.0542 -0.2662 -0.8320
 7257SOL    HW233405   1.487   2.707   7.487  2.8631  0.3186 -3.3176
 7258SOL     OW33406   1.833   2.454   1.453 -0.4658  0.5716  0.2713
 7258SOL    HW133407   1.795   2.421   1.535  0.2841 -2.4513 -0.6261
 7258SOL    HW233408   1.747   2.466   1.412 -0.4010 -1.9235 -0.5841
 7259SOL     OW33409   0.365   4.497  15.268 -0.4481 -0.2264 -0.3567
 7259SOL    HW133410   0.370   4.402  15.281  1.8793 -0.0380  0.0473
 7259SOL    HW233411   0.279   4.520  15.305 -0.0238 -0.2123  0.6329
 7260SOL     OW33412   3.843   3.876  10.744  0.3563 -0.5436 -0.2970
 7260SOL    HW133413   3.868   3.812  10.677  1.9358  1.4042 -1.5426
 7260SOL    HW233414   3.905   3.850  10.812  1.4628 -1.9817 -1.8556
 7261SOL     OW33415   0.408   0.416   7.918 -0.4847  0.4945 -0.6313
 7261SOL    HW133416   0.395   0.323   7.901 -0.1978  0.0893  1.3699
 7261SOL    HW233417   0.392   0.426   8.012 -2.2055  0.0595 -0.8642
 7262SOL     OW33418   1.430   2.124  13.483 -0.7588 -0.4934  0.2866
 7262SOL    HW133419   1.417   2.144  13.391 -0.0251  0.9313  0.4938
 7262SOL    HW233420   1.378   2.044  13.491 -0.0818 -0.7460  2.2798
 7263SOL     OW33421   3.019   4.309   8.385  0.2882 -0.4294 -0.0674
 7263SOL    HW133422   3.011   4.383   8.445 -1.8492 -0.5978 -0.1383
 7263SOL    HW233423   3.016   4.236   8.447 -3.4533 -0.7804 -0.6978
 7264SOL     OW33424   3.603   3.196   3.505  0.6939 -0.2049 -0.2493
 7264SOL    HW133425   3.596   3.124   3.442  2.0137 -0.1705 -0.4421
 7264SOL    HW233426   3.660   3.253   3.453  0.9996 -0.6126 -0.3664
 7265SOL     OW33427   0.118   0.710   5.025  0.2710 -0.2543  0.0567
 7265SOL    HW133428   0.189   0.773   5.038  0.0265  0.0709 -0.1616
 7265SOL    HW233429   0.082   0.743   4.942 -0.9434 -2.6574 -0.3724
 7266SOL     OW33430   2.861   3.644  14.810  0.5393  0.2665  0.3874
 7266SOL    HW133431   2.813   3.630  14.728 -0.6587  0.1715  1.1085
 7266SOL    HW233432   2.899   3.731  14.796 -1.9704  1.0044 -1.7313
 7267SOL     OW33433   2.680   4.054   6.926  0.4640  0.0359  0.1502
 7267SOL    HW133434   2.712   4.102   6.850 -0.0536 -0.3866 -0.3394
 7267SOL    HW233435   2.586   4.067   6.919  0.9825  2.2953 -2.3919
 7268SOL     OW33436   3.035   2.087   2.215 -0.0527  0.2230  0.4596
 7268SOL    HW133437   2.962   2.066   2.157  0.0007 -1.0112  0.8430
 7268SOL    HW233438   3.037   2.183   2.216  0.6930  0.2221 -1.3778
 7269SOL     OW33439   2.036   1.501   7.286 -0.3764  0.2823  0.0471
 7269SOL    HW133440   1.964   1.513   7.224  1.4654  2.8557 -1.5731
 7269SOL    HW233441   1.990   1.481   7.367 -1.5011  0.9094 -0.4405
 7270SOL     OW33442   2.262   1.522   9.420  0.0564 -0.1577 -0.8281
 7270SOL    HW133443   2.185   1.578   9.426 -0.3955 -1.0716  2.1068
 7270SOL    HW233444   2.331   1.587   9.412  0.8976 -1.1138 -1.3348
 7271SOL     OW33445   2.819   3.181   2.449 -0.2805 -0.1089  0.4900
 7271SOL    HW133446   2.830   3.274   2.425 -1.4996 -0.1891 -0.3449
 7271SOL    HW233447   2.755   3.144   2.389 -0.2250  0.0355  0.3398
 7272SOL     OW33448   3.544   4.007   5.858  0.2294 -0.2823  0.1378
 7272SOL    HW133449   3.551   3.926   5.808  0.6235 -0.8156  1.0444
 7272SOL    HW233450   3.619   3.998   5.918 -0.6527  1.1477  1.4587
 7273SOL     OW33451   2.649   2.819   7.146 -0.1629  0.3409  0.1318
 7273SOL    HW133452   2.610   2.853   7.227  0.9287  1.4125  0.2259
 7273SOL    HW233453   2.572   2.803   7.092  1.4852 -0.9400 -1.8457
 7274SOL     OW33454   0.709   2.132   7.372  0.5267  0.2984 -0.2470
 7274SOL    HW133455   0.640   2.090   7.321  1.9509  1.7489 -3.4206
 7274SOL    HW233456   0.783   2.076   7.348  0.8331  1.1683 -1.3497
 7275SOL     OW33457   2.932   3.369   7.194  0.0133 -0.4179  0.1720
 7275SOL    HW133458   2.875   3.444   7.210  0.6636  0.4996 -1.7556
 7275SOL    HW233459   2.863   3.315   7.156 -0.9616  0.1182  1.1818
 7276SOL     OW33460   0.908   1.014   6.468 -0.4723 -0.1269  0.2423
 7276SOL    HW133461   0.823   1.013   6.424 -0.0321  0.5279 -0.6286
 7276SOL    HW233462   0.899   0.927   6.507 -0.5398  0.3816  1.3568
 7277SOL     OW33463   0.531   0.482   4.452  0.2398 -0.6047 -0.0468
 7277SOL    HW133464   0.567   0.440   4.374  0.0003  0.8969 -0.9634
 7277SOL    HW233465   0.611   0.490   4.504  0.3813  1.2205 -0.5389
 7278SOL     OW33466   2.809   3.891  17.744  0.3330 -0.1194 -0.3452
 7278SOL    HW133467   2.786   3.853   0.065 -1.5156 -0.1852 -0.8880
 7278SOL    HW233468   2.805   3.819  17.681 -0.8919 -0.1860 -0.1791
 7279SOL     OW33469   3.123   1.058   1.633 -0.1763 -0.1145 -0.1055
 7279SOL    HW133470   3.096   0.983   1.580  1.7587 -0.8001 -0.1270
 7279SOL    HW233471   3.218   1.054   1.622 -0.4806  0.0871 -2.7323
 7280SOL     OW33472   4.048   0.419   4.556 -0.2188 -0.0197 -0.2147
 7280SOL    HW133473   3.969   0.372   4.531 -0.5833 -0.4730  1.7976
 7280SOL    HW233474   4.075   0.449   4.469 -1.8923 -0.3721 -0.8472
 7281SOL     OW33475   4.500   1.472   2.356  0.4741 -0.2393 -0.7503
 7281SOL    HW133476   4.438   1.402   2.339 -1.2753  1.5518 -1.7748
 7281SOL    HW233477   4.555   1.420   2.415 -1.3006 -0.1899  0.9449
 7282SOL     OW33478   2.604   3.530   4.916  0.1793 -0.8319 -0.0873
 7282SOL    HW133479   2.559   3.472   4.855 -0.5160 -0.0511 -0.3370
 7282SOL    HW233480   2.639   3.468   4.979 -3.8956 -1.5445  1.4445
 7283SOL     OW33481   2.230   3.572   6.858 -0.3129 -0.6347  0.3432
 7283SOL    HW133482   2.306   3.558   6.801 -0.2014 -0.7353  0.5185
 7283SOL    HW233483   2.279   3.608   6.931  0.0967 -0.7098  0.1100
 7284SOL     OW33484   0.416   2.335   2.128  0.0285 -0.0734 -0.0980
 7284SOL    HW133485   0.328   2.353   2.096 -0.9173 -1.4281  1.8181
 7284SOL    HW233486   0.395   2.332   2.221  2.0552  1.3819  0.4175
 7285SOL     OW33487   3.667   1.980   9.115 -0.5639  0.2099  0.1186
 7285SOL    HW133488   3.692   2.070   9.092  0.0407 -0.1472 -0.6005
 7285SOL    HW233489   3.726   1.948   9.183 -1.3063 -0.6560  0.3498
 7286SOL     OW33490   0.376   3.829  15.379  0.3075  0.1897  0.0279
 7286SOL    HW133491   0.407   3.900  15.435 -0.4856 -0.6329  1.5234
 7286SOL    HW233492   0.329   3.777  15.445  0.9201 -0.3332  0.0488
 7287SOL     OW33493   2.840   1.944   6.430 -0.6465 -0.0300  0.3291
 7287SOL    HW133494   2.910   1.882   6.409 -0.7422  0.1921 -0.6418
 7287SOL    HW233495   2.851   1.966   6.523 -1.0915  2.5970 -0.2505
 7288SOL     OW33496   1.117   2.869   7.686 -0.5991 -0.0649  0.4889
 7288SOL    HW133497   1.095   2.921   7.609  2.4129  3.4217  2.0170
 7288SOL    HW233498   1.072   2.785   7.673 -2.1225  0.7440  0.4885
 7289SOL     OW33499   1.745   4.117   5.730 -0.2715 -0.8646  0.1501
 7289SOL    HW133500   1.672   4.062   5.704 -2.6241  0.7850  3.2587
 7289SOL    HW233501   1.801   4.121   5.653  0.0019 -0.3607  0.3677
 7290SOL     OW33502   2.676   0.877  11.488  0.0227  0.0160 -0.4682
 7290SOL    HW133503   2.608   0.860  11.423  0.8382  0.4316 -1.4482
 7290SOL    HW233504   2.651   0.822  11.562  2.3487 -1.1897 -0.5448
 7291SOL     OW33505   0.642   1.767  15.813  0.8885 -0.0536  0.0201
 7291SOL    HW133506   0.637   1.673  15.795  0.5921  0.3678 -2.1536
 7291SOL    HW233507   0.553   1.787  15.841  0.7663  2.9123 -2.4633
 7292SOL     OW33508   2.599   2.733  14.349  0.2940  0.5816  0.0364
 7292SOL    HW133509   2.570   2.814  14.308  2.3111  0.9048 -0.7252
 7292SOL    HW233510   2.673   2.767  14.398  2.2718  0.1389 -2.6548
 7293SOL     OW33511   4.351   0.748   2.097  0.0141 -0.1480 -0.7192
 7293SOL    HW133512   4.344   0.670   2.042  0.9605 -0.1846 -0.7936
 7293SOL    HW233513   4.436   0.733   2.139 -1.1528 -1.8379  0.9966
 7294SOL     OW33514   0.640   4.724   3.112  0.4330 -0.4243 -0.0672
 7294SOL    HW133515   0.682   4.668   3.178  0.3325 -1.4507 -0.8668
 7294SOL    HW233516   0.640   4.656   3.044  1.7558 -0.8313  0.3424
 7295SOL     OW33517   4.413   4.646   6.666 -0.4271  0.0142 -0.6791
 7295SOL    HW133518   4.406   4.565   6.615  0.6340 -2.1539  2.6005
 7295SOL    HW233519   4.392   4.720   6.609  0.7399  1.4805  0.7849
 7296SOL     OW33520   2.304   4.605   7.122 -0.5065  0.2378  0.5334
 7296SOL    HW133521   2.222   4.599   7.073  0.1532 -0.4819 -0.4724
 7296SOL    HW233522   2.360   4.548   7.070 -0.5875  1.6203 -1.0501
 7297SOL     OW33523   3.555   1.784   6.515 -0.3957 -0.3424 -0.0182
 7297SOL    HW133524   3.616   1.727   6.562 -0.6021 -0.1782  0.4385
 7297SOL    HW233525   3.508   1.838   6.577  0.2282 -1.1260  1.1385
 7298SOL     OW33526   3.544   2.760  11.221 -0.0105  0.1099  0.1597
 7298SOL    HW133527   3.587   2.739  11.304  1.3852  1.4140 -0.2361
 7298SOL    HW233528   3.457   2.722  11.232  0.6631 -0.7803  2.4123
 7299SOL     OW33529   2.050   0.214   2.107  0.0415  0.5260  0.8672
 7299SOL    HW133530   2.020   0.125   2.126 -0.5110  1.1740  3.0427
 7299SOL    HW233531   2.036   0.217   2.012 -0.4049  1.8072  0.9775
 7300SOL     OW33532   4.559   4.403   2.828 -0.2298 -0.1827 -0.0695
 7300SOL    HW133533   4.601   4.485   2.804 -0.9922 -0.3148 -1.8579
 7300SOL    HW233534   4.632   4.342   2.829 -0.8343 -0.9185 -0.1894
 7301SOL     OW33535   4.028   2.521   4.917 -0.2807 -0.0482  0.1100
 7301SOL    HW133536   4.010   2.474   4.836  0.1759  1.6849 -1.0051
 7301SOL    HW233537   4.015   2.610   4.882  0.9567  0.2586  0.4563
 7302SOL     OW33538   1.313   1.772   1.424  0.6667 -0.3198  0.6670
 7302SOL    HW133539   1.344   1.792   1.336 -1.0396  2.7405  0.7494
 7302SOL    HW233540   1.225   1.809   1.420  0.5475 -0.7238 -0.4063
 7303SOL     OW33541   3.413   3.898   9.804  0.0902 -0.2186  0.3025
 7303SOL    HW133542   3.342   3.893   9.868  1.1758  0.0912  1.5455
 7303SOL    HW233543   3.476   3.959   9.842  1.9183 -1.3632 -0.8593
 7304SOL     OW33544   4.446   1.729   3.488 -0.3037  0.2807  0.6941
 7304SOL    HW133545   4.512   1.776   3.437  0.2865  0.1628  1.3602
 7304SOL    HW233546   4.498   1.738   3.568  1.6485  0.2166 -0.5477
 7305SOL     OW33547   1.392   2.010  17.307 -0.0416  0.0652 -0.0425
 7305SOL    HW133548   1.320   2.071  17.290 -0.0012 -0.1252 -0.8709
 7305SOL    HW233549   1.349   1.928  17.280 -0.1691  0.5570 -1.3388
 7306SOL     OW33550   1.045   2.398   5.674  0.2688  0.0087  0.0450
 7306SOL    HW133551   0.981   2.462   5.705  2.4116  1.1344  2.0863
 7306SOL    HW233552   1.017   2.408   5.583  1.8536 -1.6382 -0.6244
 7307SOL     OW33553   0.855   0.426   6.114  0.5266 -0.5465 -0.1847
 7307SOL    HW133554   0.776   0.448   6.163  0.4725 -2.1088  0.4568
 7307SOL    HW233555   0.916   0.492   6.146 -1.7258  0.7273  1.4609
 7308SOL     OW33556   4.586   3.688  17.750  0.2865  0.2611 -0.3810
 7308SOL    HW133557   4.647   3.677  17.677  0.5354  2.2020 -0.4572
 7308SOL    HW233558   4.654   3.736   0.034  0.6523 -1.0291  0.3941
 7309SOL     OW33559   4.632   0.190   3.391 -0.5370 -0.2807  0.1441
 7309SOL    HW133560   4.668   0.122   3.448  1.8403 -0.3663 -1.4565
 7309SOL    HW233561   4.593   0.143   3.317  0.0765 -0.4982 -0.0443
 7310SOL     OW33562   2.793   4.361   3.278 -0.5583  0.0154 -0.3134
 7310SOL    HW133563   2.699   4.362   3.292 -0.6846 -0.5709 -1.1245
 7310SOL    HW233564   2.823   4.369   3.368 -0.4544 -1.9754 -0.1659
 7311SOL     OW33565   3.356   2.278   2.969  0.3141  0.5229 -0.1462
 7311SOL    HW133566   3.398   2.263   2.884  0.0650  1.9446 -0.5220
 7311SOL    HW233567   3.400   2.360   2.989  0.0689  0.8152 -0.7944
 7312SOL     OW33568   2.387   4.638   9.539  0.5225  0.2484 -0.3704
 7312SOL    HW133569   2.369   4.582   9.614  1.0245 -0.3125 -0.6759
 7312SOL    HW233570   2.298   4.674   9.533  0.2311 -0.4617 -0.3350
 7313SOL     OW33571   0.865   1.319  10.728 -0.1818 -0.8827  0.3703
 7313SOL    HW133572   0.794   1.281  10.677 -0.8199 -1.4657  1.6856
 7313SOL    HW233573   0.924   1.324  10.653  0.6693  0.8048  1.1456
 7314SOL     OW33574   2.831   1.999  12.829  0.3508  0.1648  0.0183
 7314SOL    HW133575   2.758   2.038  12.781 -1.0639 -1.1469  1.1000
 7314SOL    HW233576   2.788   1.989  12.914  0.6260  0.5179  0.1973
 7315SOL     OW33577   2.474   1.504  11.004  0.1722 -0.0050  0.2464
 7315SOL    HW133578   2.483   1.409  11.009  0.1783 -0.0519 -0.6573
 7315SOL    HW233579   2.475   1.523  11.097 -0.6776 -3.3781  0.9553
 7316SOL     OW33580   3.753   2.424   4.987  0.0612 -0.0575 -0.3598
 7316SOL    HW133581   3.845   2.447   4.991 -0.4271  1.5138  1.4949
 7316SOL    HW233582   3.741   2.360   5.057  0.0685  0.9501  0.5624
 7317SOL     OW33583   2.937   3.963   3.638  0.2158  0.1000 -0.4446
 7317SOL    HW133584   2.874   3.891   3.631 -0.3306  0.7166 -1.7015
 7317SOL    HW233585   3.013   3.912   3.666  0.0925  2.1016  3.4678
 7318SOL     OW33586   0.721   3.368   6.424  0.3831 -0.1973 -0.0645
 7318SOL    HW133587   0.782   3.441   6.437  0.1261  0.0239 -0.1000
 7318SOL    HW233588   0.638   3.414   6.434  0.5138  0.2937 -1.2119
 7319SOL     OW33589   2.431   2.608   5.697 -0.2866  0.0515  0.0340
 7319SOL    HW133590   2.346   2.629   5.737  0.2158 -1.5993  1.9797
 7319SOL    HW233591   2.443   2.681   5.637  0.0903  1.0967  1.3768
 7320SOL     OW33592   2.456   1.049  13.582 -0.0725  0.4417  0.0631
 7320SOL    HW133593   2.386   1.115  13.588 -1.7906 -1.5270  1.6049
 7320SOL    HW233594   2.522   1.088  13.525  0.5208 -0.3475  0.2156
 7321SOL     OW33595   2.893   3.011   1.672  0.3226 -0.4831 -0.2021
 7321SOL    HW133596   2.971   2.957   1.670  1.1069  0.6840 -1.5554
 7321SOL    HW233597   2.879   3.025   1.578  2.4641 -1.3833 -0.6515
 7322SOL     OW33598   0.543   2.752  15.574 -0.2084  0.2112  0.2020
 7322SOL    HW133599   0.485   2.699  15.518  1.6425 -1.4565 -0.1432
 7322SOL    HW233600   0.507   2.838  15.555 -2.1136 -0.6836 -0.3040
 7323SOL     OW33601   0.267   0.659   9.262 -0.0267  0.2044 -0.0652
 7323SOL    HW133602   0.360   0.639   9.247 -0.6989 -1.7647 -1.7012
 7323SOL    HW233603   0.256   0.611   9.344  2.1850 -0.0120  0.1134
 7324SOL     OW33604   1.739   2.083   9.483  0.2346  0.1790  0.4993
 7324SOL    HW133605   1.808   2.036   9.435 -0.0985 -0.7733  0.9395
 7324SOL    HW233606   1.768   2.173   9.467 -0.0163  0.2014  0.1778
 7325SOL     OW33607   2.679   0.920   9.028 -0.9788  0.0033 -0.0579
 7325SOL    HW133608   2.743   0.989   9.008 -1.3389  0.6924  1.1657
 7325SOL    HW233609   2.603   0.976   9.042 -0.4523  0.1699  2.2151
 7326SOL     OW33610   1.906   3.568   7.696  0.3198 -0.3094 -0.6850
 7326SOL    HW133611   1.952   3.521   7.627 -0.1958  0.4718 -1.5579
 7326SOL    HW233612   1.955   3.651   7.692  1.0544 -0.8122 -2.1471
 7327SOL     OW33613   0.894   0.049   9.499 -0.2160 -0.0738 -0.1018
 7327SOL    HW133614   0.918   0.113   9.566  1.7088 -1.2065  0.3017
 7327SOL    HW233615   0.942   4.710   9.521 -3.7002 -2.7137 -2.1601
 7328SOL     OW33616   4.617   2.936  12.646 -0.2848  0.1721 -0.2296
 7328SOL    HW133617   4.641   2.952  12.555 -1.3515  3.3185  0.0238
 7328SOL    HW233618   4.558   2.861  12.641  0.2781 -0.2030 -1.1035
 7329SOL     OW33619   1.309   1.855   2.829  0.4857 -0.4512  0.8470
 7329SOL    HW133620   1.225   1.810   2.820 -0.0121  0.5922  0.1428
 7329SOL    HW233621   1.300   1.840   2.923 -0.5356  1.3036  1.0434
 7330SOL     OW33622   2.560   0.641   0.751 -0.2152 -0.3624 -0.1340
 7330SOL    HW133623   2.637   0.584   0.746  0.5986  0.6592  0.7088
 7330SOL    HW233624   2.531   0.636   0.660 -0.1621 -0.3859 -0.1498
 7331SOL     OW33625   1.052   0.914   6.813 -0.1555  0.3070 -0.2600
 7331SOL    HW133626   0.962   0.884   6.830  0.3676 -1.2001 -0.0792
 7331SOL    HW233627   1.101   0.872   6.884 -0.3656  2.5427  1.2117
 7332SOL     OW33628   3.627   2.026  13.983 -0.3278 -0.0491  0.4995
 7332SOL    HW133629   3.605   1.945  14.030 -2.1506 -2.2993 -4.2275
 7332SOL    HW233630   3.713   2.007  13.945 -1.0169  1.9406 -2.0212
 7333SOL     OW33631   0.263   4.558  17.066 -0.1223 -0.2809  0.3048
 7333SOL    HW133632   0.206   4.491  17.028  0.3097 -0.2851 -0.3489
 7333SOL    HW233633   0.313   4.587  16.990  0.9829 -1.1100  0.7066
 7334SOL     OW33634   2.800   2.910   3.851  0.4587 -0.1980 -0.2071
 7334SOL    HW133635   2.749   2.871   3.923 -2.0713  1.5386 -1.0820
 7334SOL    HW233636   2.819   2.833   3.797 -1.4826 -1.8436  1.4351
 7335SOL     OW33637   2.081   2.682   0.293 -0.0732 -0.0426 -0.5609
 7335SOL    HW133638   2.092   2.715   0.383 -2.3591 -2.5633  0.6519
 7335SOL    HW233639   2.171   2.654   0.274  0.7773  3.0059 -1.0128
 7336SOL     OW33640   3.266   1.090  10.034 -0.1202 -0.0526  0.6886
 7336SOL    HW133641   3.326   1.155  10.069  0.0038  0.1209  0.1617
 7336SOL    HW233642   3.178   1.129  10.035 -0.6811 -1.2665 -1.9955
 7337SOL     OW33643   0.998   0.041  15.058  0.0460  0.2201 -0.5200
 7337SOL    HW133644   0.938   0.109  15.088 -1.8347 -2.1074  0.9892
 7337SOL    HW233645   0.968   0.020  14.970 -0.8054  1.0386 -0.4196
 7338SOL     OW33646   0.052   3.867   2.110 -0.0942 -0.0168  0.1937
 7338SOL    HW133647   0.142   3.900   2.112 -0.3269  0.6972 -1.0640
 7338SOL    HW233648   0.064   3.772   2.101 -0.9074 -0.0278 -0.8941
 7339SOL     OW33649   2.327   3.656   6.446  0.4707  0.4507  0.4223
 7339SOL    HW133650   2.315   3.565   6.421  0.9432  0.5559 -0.1974
 7339SOL    HW233651   2.250   3.693   6.402 -0.2571 -0.3355  1.0618
 7340SOL     OW33652   0.367   2.549   5.745 -0.4093 -0.4520  0.2429
 7340SOL    HW133653   0.348   2.623   5.687  0.7115  2.5794  3.7629
 7340SOL    HW233654   0.450   2.517   5.710  0.0927  0.8583  0.2095
 7341SOL     OW33655   2.615   2.842   2.317 -0.9890  0.2110  0.6978
 7341SOL    HW133656   2.660   2.876   2.239 -2.3994  3.3392  1.2138
 7341SOL    HW233657   2.534   2.809   2.279  0.5917 -2.5119 -0.2935
 7342SOL     OW33658   3.981   2.371   8.085 -0.5853 -0.2761  0.0296
 7342SOL    HW133659   3.990   2.379   7.990 -0.3686  1.0087  0.1682
 7342SOL    HW233660   3.886   2.371   8.082 -0.5897 -0.9409  0.1641
 7343SOL     OW33661   3.015   3.847   4.238  0.4546 -0.1314 -0.5083
 7343SOL    HW133662   3.039   3.848   4.331 -0.1774  0.1384 -0.3499
 7343SOL    HW233663   3.005   3.939   4.215  2.9402  0.2407 -0.1208
 7344SOL     OW33664   0.396   4.083  16.028 -0.0324 -0.1805 -0.2250
 7344SOL    HW133665   0.375   3.995  16.060 -2.5733  0.6649  0.4280
 7344SOL    HW233666   0.308   4.114  16.008 -0.7238 -1.4993  0.7685
 7345SOL     OW33667   4.371   1.159   5.822 -0.1039 -0.4739 -0.4906
 7345SOL    HW133668   4.281   1.143   5.850 -0.2508 -1.4674 -1.5723
 7345SOL    HW233669   4.372   1.248   5.858  0.2804 -0.4333 -0.5938
 7346SOL     OW33670   4.604   1.727   3.699  0.1525 -0.5772 -0.4087
 7346SOL    HW133671   4.588   1.762   3.787  0.7076 -1.5928  0.0908
 7346SOL    HW233672   4.688   1.684   3.709  1.6810  2.0539 -1.8422
 7347SOL     OW33673   1.945   1.506   6.162 -0.1494  0.7573 -0.5987
 7347SOL    HW133674   1.860   1.523   6.122 -0.0690 -0.7846 -1.4259
 7347SOL    HW233675   1.989   1.581   6.123  1.1006  0.5954  0.4958
 7348SOL     OW33676   1.265   4.144   2.016 -0.0531 -0.4626 -0.0178
 7348SOL    HW133677   1.208   4.079   1.976  0.4487 -0.9758  0.0915
 7348SOL    HW233678   1.213   4.215   2.053  1.4425  1.0490 -0.8519
 7349SOL     OW33679   3.723   1.609  16.872  0.3235  0.8712 -0.2878
 7349SOL    HW133680   3.788   1.647  16.813 -1.6685  1.9860 -1.7573
 7349SOL    HW233681   3.732   1.666  16.949  1.3327  0.1317  0.1456
 7350SOL     OW33682   1.608   3.335   5.710  0.1227  0.1692 -0.3280
 7350SOL    HW133683   1.540   3.391   5.749 -1.1817 -1.7115  0.1130
 7350SOL    HW233684   1.593   3.261   5.770  1.5447 -0.9980 -1.4376
 7351SOL     OW33685   1.976   2.945   4.454 -0.0936 -0.3959 -0.0369
 7351SOL    HW133686   1.884   2.968   4.442 -0.5205 -3.1963 -1.9050
 7351SOL    HW233687   2.011   2.920   4.369 -1.6946 -0.6981 -0.6142
 7352SOL     OW33688   2.428   0.622   4.794 -0.1888  0.5560 -0.0302
 7352SOL    HW133689   2.473   0.543   4.824  1.1860  1.2267 -0.3498
 7352SOL    HW233690   2.366   0.590   4.728  1.3388 -1.5646 -0.4062
 7353SOL     OW33691   4.543   0.283  13.744 -0.4185  0.1612 -0.4721
 7353SOL    HW133692   4.536   0.271  13.839 -1.2399  2.0448 -0.3003
 7353SOL    HW233693   4.456   0.316  13.724 -1.3820 -3.1005 -1.6922
 7354SOL     OW33694   4.407   2.248   1.754  0.0033  0.2439  0.8065
 7354SOL    HW133695   4.485   2.293   1.787  1.1574  0.2989 -1.9331
 7354SOL    HW233696   4.429   2.157   1.774 -0.9889  0.2232  1.8241
 7355SOL     OW33697   3.918   2.761   6.608 -0.1117  0.5271  0.2009
 7355SOL    HW133698   3.989   2.804   6.560  1.6619 -1.4427  1.0602
 7355SOL    HW233699   3.903   2.826   6.676  0.8213  0.0647  0.8620
 7356SOL     OW33700   4.237   2.996   0.334  0.1300  0.1018 -0.0992
 7356SOL    HW133701   4.178   2.991   0.409  0.2480 -0.9961 -0.0803
 7356SOL    HW233702   4.243   3.090   0.320  2.6400  0.1967  1.5853
 7357SOL     OW33703   3.732   1.803   5.169 -0.0848  0.5842 -0.3488
 7357SOL    HW133704   3.738   1.825   5.076  1.9545 -0.3404 -0.4299
 7357SOL    HW233705   3.794   1.732   5.184  0.2436  0.4294 -2.3876
 7358SOL     OW33706   1.203   1.047   5.042 -0.3321 -0.4014 -0.8840
 7358SOL    HW133707   1.277   1.055   4.983 -1.0906 -1.3293 -1.9485
 7358SOL    HW233708   1.215   0.962   5.085  1.5070  0.8893  1.1692
 7359SOL     OW33709   2.735   4.538   2.559 -0.1190 -0.1911  0.5956
 7359SOL    HW133710   2.784   4.485   2.496 -1.5413 -2.4287  1.3400
 7359SOL    HW233711   2.645   4.513   2.538  0.0797 -1.5352  1.3141
 7360SOL     OW33712   1.295   4.252   4.798  0.6692  0.1329  0.1149
 7360SOL    HW133713   1.349   4.201   4.858  0.3663 -0.2046  0.0978
 7360SOL    HW233714   1.368   4.304   4.766  1.2821  0.3827  1.9426
 7361SOL     OW33715   2.354   1.884  14.809  0.3638  0.2657 -0.2941
 7361SOL    HW133716   2.364   1.838  14.892  1.6719  3.1837  1.1537
 7361SOL    HW233717   2.418   1.836  14.756  2.3450  0.8628  1.5363
 7362SOL     OW33718   4.351   0.186   9.513 -0.0041 -0.0334 -0.1747
 7362SOL    HW133719   4.306   0.111   9.475  0.3049 -0.7006  0.7866
 7362SOL    HW233720   4.390   0.152   9.594  0.2297 -3.0472 -1.5441
 7363SOL     OW33721   2.400   4.240  11.462  0.3927  0.5172  0.4071
 7363SOL    HW133722   2.409   4.306  11.393  2.3959 -0.0323  0.1614
 7363SOL    HW233723   2.489   4.207  11.470 -0.1759 -1.0030  0.4943
 7364SOL     OW33724   1.743   2.741  12.233  0.1189  0.0900  0.2422
 7364SOL    HW133725   1.674   2.682  12.264 -1.1996  0.7447 -1.4225
 7364SOL    HW233726   1.750   2.814  12.294  1.5169 -0.5503  0.8323
 7365SOL     OW33727   2.374   3.354   2.228 -0.2171  0.1240 -0.7965
 7365SOL    HW133728   2.399   3.270   2.266  3.3991  0.3822 -2.6562
 7365SOL    HW233729   2.416   3.413   2.290  0.5372 -1.3361  0.0821
 7366SOL     OW33730   4.534   3.885   4.063  0.2960  0.3811 -0.2413
 7366SOL    HW133731   4.617   3.863   4.022  0.9357  0.9225  0.7626
 7366SOL    HW233732   4.569   3.934   4.138 -0.9724  1.2982 -0.2394
 7367SOL     OW33733   2.212   4.524   3.471 -0.4429  0.2187  0.1982
 7367SOL    HW133734   2.230   4.430   3.477  1.9914  0.6902  0.0064
 7367SOL    HW233735   2.303   4.550   3.482 -0.2521 -0.2135 -0.3851
 7368SOL     OW33736   3.546   2.869   6.933 -0.5764  0.5837  0.2694
 7368SOL    HW133737   3.526   2.806   6.864  0.6108 -0.4253  0.8521
 7368SOL    HW233738   3.541   2.953   6.887  1.0853 -0.1056 -1.1661
 7369SOL     OW33739   1.304   3.041   4.063 -0.0598 -0.6395 -0.3891
 7369SOL    HW133740   1.270   2.972   4.121 -2.1878  0.0674 -0.7839
 7369SOL    HW233741   1.283   3.006   3.976  0.7256 -1.4019 -0.2668
 7370SOL     OW33742   0.616   3.526   8.074 -0.3224 -0.1189  0.0332
 7370SOL    HW133743   0.523   3.505   8.061  0.0224 -1.9650  0.6380
 7370SOL    HW233744   0.646   3.479   8.151 -0.3365  0.4060  0.3631
 7371SOL     OW33745   2.885   0.514  14.011 -0.2295 -0.3408 -0.2796
 7371SOL    HW133746   2.865   0.428  14.047  2.8722 -0.1340  1.9902
 7371SOL    HW233747   2.946   0.498  13.939 -0.0500 -0.6501 -0.0555
 7372SOL     OW33748   0.385   0.504   1.729 -0.1551  0.0972 -0.1719
 7372SOL    HW133749   0.408   0.558   1.804  0.0085 -0.7140  0.3621
 7372SOL    HW233750   0.291   0.498   1.746 -0.0363  0.8194  0.7152
 7373SOL     OW33751   2.393   4.474  16.274 -0.0697  0.2723  0.0382
 7373SOL    HW133752   2.399   4.407  16.342 -0.3455 -0.7680 -0.9719
 7373SOL    HW233753   2.301   4.453  16.264 -0.3978  3.3620 -3.3041
 7374SOL     OW33754   3.321   1.304  12.008 -0.2378  0.0311  0.5893
 7374SOL    HW133755   3.385   1.290  12.078  0.0815  1.5240  0.5807
 7374SOL    HW233756   3.359   1.370  11.951 -2.3733  0.0884 -0.7494
 7375SOL     OW33757   1.765   3.090   3.348 -0.1142 -0.5013 -0.4876
 7375SOL    HW133758   1.827   3.017   3.358 -1.2344 -1.0941  2.0849
 7375SOL    HW233759   1.828   3.162   3.339 -2.7154  1.5661 -1.9185
 7376SOL     OW33760   3.693   2.813   4.466 -0.5206  0.2720  0.1792
 7376SOL    HW133761   3.653   2.900   4.452  0.7563  1.0109  1.1857
 7376SOL    HW233762   3.655   2.757   4.398  0.9032 -0.8474  0.3114
 7377SOL     OW33763   1.629   4.457   7.085  0.1467  0.5613  0.6960
 7377SOL    HW133764   1.547   4.467   7.037  1.6377  1.9852 -1.5644
 7377SOL    HW233765   1.672   4.382   7.044  0.9668  0.4832  1.6921
 7378SOL     OW33766   3.762   1.800   8.872  0.0129 -0.2763  0.6520
 7378SOL    HW133767   3.858   1.804   8.876 -0.0121  0.8247  0.2617
 7378SOL    HW233768   3.737   1.846   8.952  1.6955  0.1648  0.9263
 7379SOL     OW33769   2.888   0.365   2.982 -0.2650  0.1512  0.3500
 7379SOL    HW133770   2.976   0.396   3.005 -0.2606  1.5300 -1.4662
 7379SOL    HW233771   2.838   0.445   2.968  0.9106  0.9394  0.6434
 7380SOL     OW33772   4.690   2.901   7.506 -0.0871 -0.3930  0.0802
 7380SOL    HW133773   4.695   2.977   7.448  0.6508 -0.1971  0.4116
 7380SOL    HW233774   0.041   2.880   7.519  0.1928  2.4266  2.6557
 7381SOL     OW33775   4.685   0.353   6.992  0.0470  0.5018 -0.4381
 7381SOL    HW133776   4.641   0.357   7.077 -0.0386 -1.7455 -0.3823
 7381SOL    HW233777   0.012   0.418   7.010  0.0197  0.9687 -1.9855
 7382SOL     OW33778   4.393   3.902  12.436 -0.1409  0.3221  0.0158
 7382SOL    HW133779   4.471   3.880  12.384 -1.6244 -2.1602 -1.1890
 7382SOL    HW233780   4.363   3.813  12.457 -1.8499  0.8392 -0.2680
 7383SOL     OW33781   2.650   3.518   2.977  0.0998  0.0887 -0.1546
 7383SOL    HW133782   2.570   3.469   2.960  0.9254 -1.3216  0.0303
 7383SOL    HW233783   2.707   3.450   2.941  0.8477  0.8326 -0.3795
 7384SOL     OW33784   2.719   1.171   2.654 -0.0855 -0.2205  0.3120
 7384SOL    HW133785   2.753   1.174   2.743 -1.5216 -0.8228  0.8774
 7384SOL    HW233786   2.800   1.178   2.604 -1.5301 -2.6987 -2.4126
 7385SOL     OW33787   2.742   2.215   7.206  0.2707 -0.1550 -0.2321
 7385SOL    HW133788   2.755   2.180   7.294  1.2557  1.2793  0.1752
 7385SOL    HW233789   2.690   2.291   7.232  0.1174  0.0971 -1.2536
 7386SOL     OW33790   2.678   2.774  11.808 -0.1817  0.2078 -0.6365
 7386SOL    HW133791   2.767   2.752  11.837 -0.4969 -0.2542  0.0022
 7386SOL    HW233792   2.655   2.841  11.872 -2.8670 -0.2159 -1.1411
 7387SOL     OW33793   0.064   0.238   4.033 -0.4273 -0.5701 -0.2551
 7387SOL    HW133794   0.065   0.292   3.954 -2.4929 -1.8032 -1.1164
 7387SOL    HW233795   4.735   0.176   4.016 -1.3187  0.5625 -0.6628
 7388SOL     OW33796   2.748   1.332   7.479  0.1533 -0.1545  0.1525
 7388SOL    HW133797   2.786   1.270   7.541  1.9355  2.3058  1.5336
 7388SOL    HW233798   2.732   1.279   7.401  1.3776 -1.1262  0.5864
 7389SOL     OW33799   0.754   0.073   7.869  0.1862  0.1105  0.4408
 7389SOL    HW133800   0.821   0.142   7.868  0.3407 -0.0351  0.8914
 7389SOL    HW233801   0.730   0.077   7.777  1.1922  2.1369  0.2658
 7390SOL     OW33802   4.034   0.378   7.953 -0.4114  0.2745 -0.4051
 7390SOL    HW133803   4.025   0.320   8.029 -0.8102 -0.2549 -0.8559
 7390SOL    HW233804   3.946   0.413   7.935 -1.1082 -1.5503 -0.5262
 7391SOL     OW33805   3.988   1.103   8.613  0.3955 -0.0608  0.3837
 7391SOL    HW133806   4.057   1.037   8.628 -0.9639 -1.9508 -1.6129
 7391SOL    HW233807   4.039   1.182   8.630 -0.7099  1.0777 -1.6386
 7392SOL     OW33808   1.050   1.801   8.942  0.1831  0.9249 -0.0326
 7392SOL    HW133809   1.060   1.817   9.036 -1.9320 -0.0207  0.3516
 7392SOL    HW233810   1.006   1.882   8.917 -1.4083  0.4208  1.0955
 7393SOL     OW33811   0.014   4.117   0.195 -0.0790  0.1165 -0.1614
 7393SOL    HW133812   4.696   4.185   0.163  1.6251  1.9608  0.5881
 7393SOL    HW233813   4.716   4.102   0.280 -1.3192 -0.0337 -0.7606
 7394SOL     OW33814   3.277   3.244   9.756 -0.2218 -0.2351  0.2331
 7394SOL    HW133815   3.317   3.330   9.768  1.0476 -0.5839 -1.5826
 7394SOL    HW233816   3.234   3.270   9.675  2.0078  2.6318  0.0117
 7395SOL     OW33817   1.269   2.095   2.728  0.0693  0.1396  0.0079
 7395SOL    HW133818   1.298   2.011   2.764  0.3506 -0.7942 -2.3911
 7395SOL    HW233819   1.354   2.138   2.725  1.1752 -1.9465  1.0678
 7396SOL     OW33820   2.454   0.809   6.636  0.1016 -0.1072  0.2255
 7396SOL    HW133821   2.384   0.744   6.629 -0.1022 -0.2879  4.0004
 7396SOL    HW233822   2.427   0.874   6.572 -0.5596 -1.5466 -0.9638
 7397SOL     OW33823   3.829   2.196   9.014  0.4020  0.2456  0.0630
 7397SOL    HW133824   3.896   2.165   9.075 -1.3576 -0.1942  1.7709
 7397SOL    HW233825   3.877   2.233   8.940  0.6429  1.8224  1.0224
 7398SOL     OW33826   0.079   1.229   8.306 -0.9653 -0.2036 -0.4993
 7398SOL    HW133827   0.057   1.137   8.288  1.5028 -0.7936 -0.4461
 7398SOL    HW233828   0.044   1.247   8.393 -1.5626  1.4833 -1.1026
 7399SOL     OW33829   0.367   1.360   0.171 -0.1230  0.0516 -0.5542
 7399SOL    HW133830   0.461   1.345   0.161 -0.0769 -0.2336  0.2882
 7399SOL    HW233831   0.351   1.434   0.112  1.5405  0.6394 -0.2588
 7400SOL     OW33832   3.875   1.656  12.121 -0.4164 -0.0539  0.0288
 7400SOL    HW133833   3.926   1.578  12.144 -1.1338 -0.0334  1.6509
 7400SOL    HW233834   3.803   1.621  12.068  1.4165  2.2598 -4.0340
 7401SOL     OW33835   4.527   4.581  12.822  0.7460 -0.8239 -0.1151
 7401SOL    HW133836   4.615   4.612  12.846  0.0666  1.7238 -0.9875
 7401SOL    HW233837   4.536   4.494  12.782  0.1847  0.1739 -2.3812
 7402SOL     OW33838   2.156   0.646  16.494 -0.1667  0.0958  0.5842
 7402SOL    HW133839   2.177   0.701  16.570  0.1256  1.3205 -0.3812
 7402SOL    HW233840   2.180   0.700  16.419  2.0348 -0.4953  0.8770
 7403SOL     OW33841   1.881   1.635   7.637  0.5921  0.0176 -0.2694
 7403SOL    HW133842   1.860   1.667   7.725 -0.3344  1.1029 -0.8800
 7403SOL    HW233843   1.873   1.713   7.582  0.1318  0.8221  0.9422
 7404SOL     OW33844   1.465   0.701  16.007  0.1539  0.0046  0.6888
 7404SOL    HW133845   1.482   0.651  15.927 -0.4975  2.8830 -1.2148
 7404SOL    HW233846   1.516   0.647  16.068 -1.7853 -1.6221  0.8896
 7405SOL     OW33847   4.642   4.077   9.551 -0.2476 -0.4847 -0.0572
 7405SOL    HW133848   4.628   4.044   9.640 -0.6823  1.1210  0.4736
 7405SOL    HW233849   4.671   3.996   9.509 -0.3198 -1.0485  0.9939
 7406SOL     OW33850   0.129   4.669   1.485  0.0534 -0.1828 -0.1417
 7406SOL    HW133851   0.129   4.668   1.581 -1.5526 -0.3565 -0.1511
 7406SOL    HW233852   0.168   0.013   1.466 -0.0669 -0.3858 -1.2840
 7407SOL     OW33853   3.336   3.784   7.188  0.7471 -0.1272  0.2855
 7407SOL    HW133854   3.395   3.742   7.124 -0.2407 -2.0770  0.6528
 7407SOL    HW233855   3.391   3.835   7.247  0.0757  2.0258 -0.9658
 7408SOL     OW33856   4.166   1.459   8.566 -0.0689 -0.0917  0.4729
 7408SOL    HW133857   4.072   1.468   8.576 -0.0764  2.6412 -2.0943
 7408SOL    HW233858   4.182   1.400   8.640  1.6748  0.0303  0.2139
 7409SOL     OW33859   2.838   1.745   8.329 -0.5538  0.1528  0.0045
 7409SOL    HW133860   2.874   1.834   8.330  1.9965 -0.8656 -0.9677
 7409SOL    HW233861   2.813   1.727   8.420  1.0490  0.0739  0.4421
 7410SOL     OW33862   2.207   1.086   6.690  0.0532  0.5353  0.6309
 7410SOL    HW133863   2.152   1.165   6.680 -0.7082 -0.0270  0.3321
 7410SOL    HW233864   2.235   1.069   6.600  0.6366 -2.3159  1.3547
 7411SOL     OW33865   3.395   1.871   5.464  0.2293  0.2177 -0.3576
 7411SOL    HW133866   3.393   1.895   5.556 -1.1517  0.4179 -0.4383
 7411SOL    HW233867   3.317   1.911   5.426  0.6022 -0.5745 -1.9846
 7412SOL     OW33868   4.541   0.920  17.595  0.2832  0.1178 -0.1160
 7412SOL    HW133869   4.484   0.909  17.672  2.1456 -1.5829  1.0251
 7412SOL    HW233870   4.496   0.984  17.540  0.3215  1.7751  1.7810
 7413SOL     OW33871   3.025   4.188   3.789 -0.3278 -0.0897 -0.3313
 7413SOL    HW133872   2.970   4.130   3.737 -1.5931  1.0157 -0.1988
 7413SOL    HW233873   2.997   4.270   3.748 -1.4257 -0.6119 -0.6095
 7414SOL     OW33874   2.080   1.702   4.437 -0.1499  0.7916  0.5988
 7414SOL    HW133875   2.142   1.668   4.502  1.1754  0.7185 -0.7058
 7414SOL    HW233876   2.118   1.781   4.399 -2.1008  2.1490  1.4714
 7415SOL     OW33877   2.626   3.962   7.944 -0.1072 -0.1996 -0.4430
 7415SOL    HW133878   2.720   3.948   7.928 -0.5441 -1.6397 -1.8056
 7415SOL    HW233879   2.598   3.882   7.989  0.0792  0.9643  1.6958
 7416SOL     OW33880   2.711   2.000   8.954 -0.0316  0.1358  0.2487
 7416SOL    HW133881   2.739   1.964   9.038  1.3723  1.6335  0.4413
 7416SOL    HW233882   2.794   1.993   8.905  0.4139 -0.2040  1.0535
 7417SOL     OW33883   3.838   3.268   3.211  0.0692  0.0113 -0.6089
 7417SOL    HW133884   3.762   3.216   3.185 -0.0621  0.9307 -2.0633
 7417SOL    HW233885   3.895   3.202   3.249  0.5921 -1.1592 -3.3761
 7418SOL     OW33886   3.445   2.951   4.078  0.0493  0.0008 -0.4195
 7418SOL    HW133887   3.473   3.042   4.072  0.5614 -0.1502 -0.3946
 7418SOL    HW233888   3.358   2.950   4.038  0.0501 -0.2028 -0.4187
 7419SOL     OW33889   1.845   4.170  14.534  0.1921 -0.1724  0.0296
 7419SOL    HW133890   1.789   4.136  14.464  0.2343  2.2962 -1.1755
 7419SOL    HW233891   1.817   4.108  14.602 -0.9798 -1.6558 -1.7877
 7420SOL     OW33892   3.385   4.222   8.976  0.1831 -0.0658  0.1974
 7420SOL    HW133893   3.390   4.313   9.005 -0.6416  0.9652 -2.8573
 7420SOL    HW233894   3.362   4.171   9.054 -0.0467 -0.4653 -0.1316
 7421SOL     OW33895   2.749   0.820  10.921  0.0929 -0.3248  0.5013
 7421SOL    HW133896   2.838   0.836  10.890 -0.7257  1.8036 -0.7767
 7421SOL    HW233897   2.711   0.907  10.931  0.1192 -0.2235 -0.2679
 7422SOL     OW33898   2.051   0.884  17.630  0.1270  0.5368 -0.1988
 7422SOL    HW133899   2.021   0.805  17.674 -1.9030  1.2005 -0.4035
 7422SOL    HW233900   2.147   0.876  17.628  0.2055  1.6175 -1.0851
 7423SOL     OW33901   3.816   3.289  16.644  1.0242  0.0050  0.4136
 7423SOL    HW133902   3.780   3.281  16.555  0.7695 -0.1032  0.5269
 7423SOL    HW233903   3.849   3.203  16.669 -1.1862 -0.9147  0.2147
 7424SOL     OW33904   2.853   2.951   6.780 -0.2773 -0.2705  0.1050
 7424SOL    HW133905   2.898   2.989   6.855  2.3452 -0.6635 -1.2809
 7424SOL    HW233906   2.891   2.993   6.703 -1.7869  0.0326 -0.4903
 7425SOL     OW33907   0.097   4.051   6.094  0.1214  0.2862 -0.0172
 7425SOL    HW133908   0.137   4.122   6.143 -1.8869  1.3903  0.0381
 7425SOL    HW233909   0.065   3.998   6.168 -0.0883 -0.0940 -0.3843
 7426SOL     OW33910   1.999   1.256   1.822 -0.1284  0.2955 -0.0697
 7426SOL    HW133911   1.990   1.160   1.818  1.0475  0.1676  0.2495
 7426SOL    HW233912   2.003   1.280   1.730 -0.8444 -2.0525 -0.7179
 7427SOL     OW33913   0.857   4.578   7.108  0.1632  0.2404 -0.2620
 7427SOL    HW133914   0.823   4.495   7.142 -1.8194  0.4982 -1.6084
 7427SOL    HW233915   0.941   4.577   7.152  0.3472 -1.2262 -0.6567
 7428SOL     OW33916   3.085   2.189  17.065  0.2446  0.4559  0.2352
 7428SOL    HW133917   3.076   2.167  16.973  0.6572 -1.0438  0.5597
 7428SOL    HW233918   3.145   2.119  17.090  0.1759  0.0501 -0.7454
 7429SOL     OW33919   0.676   4.646   5.421  0.0652 -0.4727  0.4908
 7429SOL    HW133920   0.729   4.693   5.485  1.6209 -1.5563 -0.0154
 7429SOL    HW233921   0.604   4.707   5.402  1.8103  2.1232  2.2521
 7430SOL     OW33922   2.242   3.028   3.938 -0.3654 -0.1951  0.4908
 7430SOL    HW133923   2.269   3.061   3.852  2.6641 -2.6096  0.4686
 7430SOL    HW233924   2.221   3.108   3.986 -1.1287  0.6375 -1.2529
 7431SOL     OW33925   3.983   4.674   1.079 -0.3703 -0.4571  0.0647
 7431SOL    HW133926   4.043   4.603   1.056  0.0569 -0.3303  0.8128
 7431SOL    HW233927   4.033   0.013   1.087 -1.5031 -0.0098  2.4587
 7432SOL     OW33928   4.133   0.733   2.485 -0.3703  0.5380  0.2057
 7432SOL    HW133929   4.163   0.822   2.506  2.5883 -0.4794  0.3526
 7432SOL    HW233930   4.085   0.758   2.406  0.6736  0.2671 -0.5232
 7433SOL     OW33931   0.198   4.512   7.005  0.4860  0.7644 -0.1134
 7433SOL    HW133932   0.246   4.571   7.063  1.8651  0.6794 -1.1557
 7433SOL    HW233933   0.178   4.435   7.058  3.2098  0.1457  0.0181
 7434SOL     OW33934   2.881   4.282   8.154 -0.0849  0.4402 -0.6155
 7434SOL    HW133935   2.822   4.253   8.224 -0.8833  0.1256 -1.4166
 7434SOL    HW233936   2.946   4.310   8.219  1.6270 -0.0333 -2.1523
 7435SOL     OW33937   1.551   2.765  14.675  0.2854 -0.6513  0.2183
 7435SOL    HW133938   1.588   2.770  14.763 -1.6828 -0.8836  1.0624
 7435SOL    HW233939   1.631   2.778  14.625  0.2684 -0.9002  0.1304
 7436SOL     OW33940   2.964   4.459   4.291  0.2504 -0.4452 -0.4723
 7436SOL    HW133941   2.889   4.421   4.247 -1.0519 -0.4145  1.7362
 7436SOL    HW233942   2.996   4.508   4.214  1.2830  0.0237  0.2483
 7437SOL     OW33943   1.317   4.255   1.176 -0.0964 -0.0144  0.3037
 7437SOL    HW133944   1.299   4.269   1.083  0.2062 -0.3471  0.1956
 7437SOL    HW233945   1.231   4.252   1.218  0.0780  0.0628  0.6643
 7438SOL     OW33946   2.075   1.907  16.971 -0.0498 -0.2079 -0.0252
 7438SOL    HW133947   2.005   1.971  16.957  0.5115  0.9440  2.4308
 7438SOL    HW233948   2.027   1.831  17.003  1.2217 -1.1839 -0.4274
 7439SOL     OW33949   3.111   1.468  12.579 -0.1427  0.3293  0.0328
 7439SOL    HW133950   3.116   1.384  12.625  0.3587  0.5786  0.4425
 7439SOL    HW233951   3.123   1.536  12.646 -0.5761 -1.6927  2.1551
 7440SOL     OW33952   3.908   0.016   8.505 -0.1085 -0.2030 -0.2953
 7440SOL    HW133953   3.816   0.013   8.533 -0.0481 -0.1971 -0.0946
 7440SOL    HW233954   3.924   4.663   8.503  1.8365  0.1891 -2.5212
 7441SOL     OW33955   2.486   3.569   2.387 -0.5252 -0.0083  0.3362
 7441SOL    HW133956   2.570   3.576   2.434 -1.2835  1.2604  1.5122
 7441SOL    HW233957   2.451   3.655   2.411 -1.1610  0.3575 -1.9243
 7442SOL     OW33958   3.911   0.400   9.193  0.4551  0.6318  0.6406
 7442SOL    HW133959   3.860   0.319   9.183  0.1013  0.8894  0.3027
 7442SOL    HW233960   3.923   0.406   9.287  1.0305 -0.5404  0.6333
 7443SOL     OW33961   3.009   0.771   7.879 -0.0319 -0.1676  0.0961
 7443SOL    HW133962   2.983   0.856   7.913  0.5972 -0.4995  1.3855
 7443SOL    HW233963   3.083   0.794   7.823  0.3466 -0.7889  0.3403
 7444SOL     OW33964   0.890   2.763  17.437  0.4631  0.2177  0.3361
 7444SOL    HW133965   0.901   2.694  17.372 -0.6239  0.3044  0.0691
 7444SOL    HW233966   0.795   2.764  17.434  0.4194  0.5303  1.9054
 7445SOL     OW33967   0.925   2.808   1.233  0.4542  0.0244  0.2357
 7445SOL    HW133968   0.981   2.759   1.293  1.3299  1.3097  0.4571
 7445SOL    HW233969   0.980   2.858   1.174 -0.5098  0.5290 -0.2457
 7446SOL     OW33970   0.378   4.308   6.823 -0.5229 -0.0669  0.5551
 7446SOL    HW133971   0.309   4.373   6.835 -0.6917 -0.4471  1.6019
 7446SOL    HW233972   0.403   4.328   6.732 -0.4479 -0.4949  0.4775
 7447SOL     OW33973   2.823   4.543   7.232  0.0434  0.0754 -0.1180
 7447SOL    HW133974   2.752   4.586   7.184 -1.8046 -0.2741  2.3313
 7447SOL    HW233975   2.898   4.599   7.212 -0.7260  1.1860  0.0673
 7448SOL     OW33976   1.866   0.789   2.989 -0.6263  0.3608 -0.3796
 7448SOL    HW133977   1.892   0.850   3.058 -0.2725  0.1556 -0.3317
 7448SOL    HW233978   1.781   0.750   3.011 -0.4793  0.1095 -0.2671
 7449SOL     OW33979   3.051   2.586  12.166 -0.2490 -0.0829 -0.3511
 7449SOL    HW133980   3.061   2.537  12.248  4.2513 -0.8621 -1.3393
 7449SOL    HW233981   2.960   2.613  12.172 -1.0008 -2.4166 -0.8983
 7450SOL     OW33982   4.231   0.598   4.832  0.1592 -0.1345  0.5558
 7450SOL    HW133983   4.231   0.620   4.739  2.2578 -2.6638 -0.0768
 7450SOL    HW233984   4.139   0.576   4.841  0.6789 -1.9867  1.4624
 7451SOL     OW33985   2.651   2.191   1.639 -0.2970 -0.5077  0.0674
 7451SOL    HW133986   2.646   2.099   1.667  0.5712 -1.2839 -2.3473
 7451SOL    HW233987   2.744   2.211   1.652 -0.9662  0.7488  2.8933
 7452SOL     OW33988   1.075   0.994  16.934  0.2308 -0.2523 -0.0401
 7452SOL    HW133989   1.124   0.993  16.852  2.0600  1.9474  1.0468
 7452SOL    HW233990   0.991   0.971  16.894 -0.2209  0.6728  0.3558
 7453SOL     OW33991   1.451   1.040   3.768 -0.1537 -0.5790 -0.1405
 7453SOL    HW133992   1.358   1.047   3.746 -0.1129 -0.0798 -0.1659
 7453SOL    HW233993   1.476   0.951   3.744  1.5930 -0.2952  0.5791
 7454SOL     OW33994   4.385   4.542   7.705  0.3808  0.3453 -0.4035
 7454SOL    HW133995   4.363   4.486   7.779 -0.0689  0.2815 -0.5872
 7454SOL    HW233996   4.430   4.475   7.654 -0.5385 -0.2598 -0.4240
 7455SOL     OW33997   1.585   3.680   3.102 -0.8102  0.5822  0.1719
 7455SOL    HW133998   1.503   3.727   3.113 -1.5050 -0.2537 -1.4629
 7455SOL    HW233999   1.553   3.608   3.156 -0.4723  2.1583  2.4982
 7456SOL     OW34000   3.364   4.065  10.135 -0.2511 -0.7389 -0.2076
 7456SOL    HW134001   3.445   4.018  10.153  0.6126 -0.1238 -2.4978
 7456SOL    HW234002   3.321   4.044  10.218  1.0383 -1.6175  0.2350
 7457SOL     OW34003   0.069   2.117   1.708 -0.0121 -0.2469 -0.0970
 7457SOL    HW134004   0.104   2.028   1.719 -1.1296 -0.5209  1.2173
 7457SOL    HW234005   4.733   2.101   1.653 -0.3613  0.6097  0.1573
 7458SOL     OW34006   0.676   4.708   6.016 -0.0778 -0.2220  0.3119
 7458SOL    HW134007   0.684   4.741   5.927  3.7140 -2.2265 -0.0820
 7458SOL    HW234008   0.719   4.624   6.000 -0.4431 -0.5410  1.0135
 7459SOL     OW34009   2.102   4.409  16.232  0.3313  0.3760 -0.0355
 7459SOL    HW134010   2.087   4.445  16.145  0.9239  0.1119 -0.2489
 7459SOL    HW234011   2.014   4.384  16.260  0.2602  0.3110 -0.3169
 7460SOL     OW34012   3.460   4.418   3.835  0.2486 -0.5127 -0.8313
 7460SOL    HW134013   3.554   4.414   3.848  0.4050  0.3495 -1.7251
 7460SOL    HW234014   3.442   4.512   3.839 -0.8531 -0.6806 -1.5700
 7461SOL     OW34015   0.848   4.649  10.964 -0.3362 -0.0237 -0.4909
 7461SOL    HW134016   0.806   4.641  10.879 -0.0040 -0.4463 -0.6197
 7461SOL    HW234017   0.886   4.736  10.948 -0.1974 -0.2920 -1.6200
 7462SOL     OW34018   0.596   4.651   9.277 -0.5460 -0.3072 -0.4892
 7462SOL    HW134019   0.651   4.717   9.320 -0.1345 -0.3077 -1.0228
 7462SOL    HW234020   0.659   4.582   9.256  2.2322  1.5784  1.6011
 7463SOL     OW34021   3.934   0.061  14.417 -0.0182 -0.4970  0.3301
 7463SOL    HW134022   3.936   0.155  14.399  1.1375 -0.4018  0.9825
 7463SOL    HW234023   3.991   0.030  14.346 -0.7708 -1.9462  0.3692
 7464SOL     OW34024   4.150   2.611   6.066  0.2371  0.1461 -0.5055
 7464SOL    HW134025   4.150   2.603   5.971  1.4071 -2.2241 -0.3119
 7464SOL    HW234026   4.088   2.540   6.084 -0.9941  0.9124 -1.7760
 7465SOL     OW34027   2.556   3.243   9.708  0.5127 -0.0525 -0.0865
 7465SOL    HW134028   2.503   3.164   9.702  0.1708  0.1268  0.5696
 7465SOL    HW234029   2.560   3.251   9.803 -1.6355  0.0693 -0.0046
 7466SOL     OW34030   1.447   3.358  14.505 -0.0551  0.1484  0.5440
 7466SOL    HW134031   1.433   3.270  14.469 -1.4632  0.1177  1.1727
 7466SOL    HW234032   1.523   3.385  14.453  0.9139  1.1903  2.4862
 7467SOL     OW34033   0.813   1.278   2.709  0.4074  0.6245 -0.4970
 7467SOL    HW134034   0.867   1.339   2.760 -0.5068  0.8635  0.1741
 7467SOL    HW234035   0.870   1.276   2.632  0.3280 -0.1179 -0.5356
 7468SOL     OW34036   4.689   0.231  12.915  0.0913  0.2892 -0.0137
 7468SOL    HW134037   4.662   0.256  13.003 -0.7473 -1.1827  0.1418
 7468SOL    HW234038   4.691   0.136  12.929  1.4212  0.4888  1.1597
 7469SOL     OW34039   4.677   3.107   7.711  0.4112 -0.2476 -0.4429
 7469SOL    HW134040   4.679   3.015   7.687 -0.9226 -1.3655  3.6467
 7469SOL    HW234041   4.724   3.156   7.643  1.9814 -0.3437  0.5803
 7470SOL     OW34042   2.696   1.732   5.331  0.3867  0.0415 -0.0523
 7470SOL    HW134043   2.785   1.697   5.340  0.1444 -0.5709 -0.0098
 7470SOL    HW234044   2.648   1.681   5.396  1.0848 -1.5387 -0.7469
 7471SOL     OW34045   1.761   2.120   2.380  0.2417 -0.0949 -0.3929
 7471SOL    HW134046   1.836   2.120   2.320  1.8636  1.3321  1.6673
 7471SOL    HW234047   1.794   2.068   2.453  0.1526  0.6020  0.1399
 7472SOL     OW34048   2.887   0.188   2.755 -0.6735  0.2778  0.2819
 7472SOL    HW134049   2.945   0.239   2.699  0.4902 -0.4147  0.8695
 7472SOL    HW234050   2.865   0.251   2.824 -0.3800  1.6317 -0.8673
 7473SOL     OW34051   4.532   2.650   7.994  0.3205 -0.1108 -0.5463
 7473SOL    HW134052   4.569   2.624   8.078 -2.3741  1.3627  1.0796
 7473SOL    HW234053   4.563   2.582   7.934  1.6023 -0.2772  0.2889
 7474SOL     OW34054   1.430   0.791   7.728  0.0401  0.6237  0.2271
 7474SOL    HW134055   1.473   0.786   7.813 -0.9289  0.6001  0.7131
 7474SOL    HW234056   1.406   0.883   7.730  3.5885  1.5830 -0.4328
 7475SOL     OW34057   1.066   3.501   6.805 -0.1396  0.3941  0.1072
 7475SOL    HW134058   1.058   3.424   6.862 -2.1021  0.5621  0.0467
 7475SOL    HW234059   1.116   3.552   6.870 -1.6313  1.1298  0.6772
 7476SOL     OW34060   0.144   2.650   4.416  0.1576  0.1161 -1.3429
 7476SOL    HW134061   0.228   2.635   4.374  0.8462 -1.1126  0.5222
 7476SOL    HW234062   0.113   2.737   4.389 -0.2622  0.0593 -1.0470
 7477SOL     OW34063   0.753   3.586  16.456 -0.3882 -0.0107  0.3258
 7477SOL    HW134064   0.733   3.616  16.367  1.1138 -0.4714 -0.1594
 7477SOL    HW234065   0.819   3.520  16.439 -0.5630  0.3105 -1.6430
 7478SOL     OW34066   2.065   3.576  14.807  0.1221 -0.6690 -0.3069
 7478SOL    HW134067   2.144   3.571  14.753  1.2748  0.1886  1.3473
 7478SOL    HW234068   2.065   3.495  14.859  0.9812 -1.9143 -2.2271
 7479SOL     OW34069   2.602   2.904   9.481 -0.1744  0.1240 -0.3143
 7479SOL    HW134070   2.590   2.929   9.573 -0.7406 -1.5965  0.0784
 7479SOL    HW234071   2.688   2.938   9.456 -0.1390 -0.5531 -1.0988
 7480SOL     OW34072   0.665   4.419   1.794 -0.3324 -0.0908 -0.1076
 7480SOL    HW134073   0.589   4.470   1.824 -1.3101 -1.0709 -0.9295
 7480SOL    HW234074   0.715   4.413   1.876  0.4640 -1.2066 -0.6838
 7481SOL     OW34075   1.270   0.522  15.027 -0.0599 -0.0268  0.3254
 7481SOL    HW134076   1.197   0.547  15.084 -0.0244  3.1204 -0.9975
 7481SOL    HW234077   1.299   0.606  14.992 -2.2333  1.0927  1.2405
 7482SOL     OW34078   0.235   3.855  15.149 -0.1882  0.2405 -0.2559
 7482SOL    HW134079   0.282   3.845  15.232 -2.9721 -2.1475  1.0356
 7482SOL    HW234080   0.214   3.762  15.134 -0.1612  0.2157 -0.1427
 7483SOL     OW34081   0.407   1.975   1.472 -0.4105 -0.2329 -0.1132
 7483SOL    HW134082   0.471   1.913   1.437 -0.7837  0.1355 -1.4347
 7483SOL    HW234083   0.333   1.964   1.413 -2.0245  1.6487  1.5997
 7484SOL     OW34084   1.510   3.195   0.062 -0.1513  0.3362 -0.1838
 7484SOL    HW134085   1.465   3.219   0.143 -0.0374 -1.0446  0.2766
 7484SOL    HW234086   1.441   3.203  17.760  0.2237  1.5649 -0.4332
 7485SOL     OW34087   2.653   2.959   2.630  0.3451  0.3992  0.5744
 7485SOL    HW134088   2.670   2.938   2.539 -1.2928  0.5911  0.2299
 7485SOL    HW234089   2.703   2.888   2.671 -0.0205  0.1711  0.6202
 7486SOL     OW34090   0.989   4.390   4.410  0.1835 -0.1806 -0.4286
 7486SOL    HW134091   0.978   4.295   4.405  1.7724 -0.2495 -2.5308
 7486SOL    HW234092   0.901   4.409   4.442  0.2322 -0.5592 -0.0678
 7487SOL     OW34093   1.507   3.178   9.467  0.5047  0.3003 -0.1076
 7487SOL    HW134094   1.596   3.210   9.486  0.5067  1.2012 -1.6107
 7487SOL    HW234095   1.521   3.138   9.381  0.4473  0.0712 -0.0088
 7488SOL     OW34096   1.210   4.058   1.454 -0.4942  0.2243 -0.6896
 7488SOL    HW134097   1.128   4.012   1.438 -1.0206  0.1020  2.2717
 7488SOL    HW234098   1.181   4.149   1.454  0.8759  0.6750  0.5398
 7489SOL     OW34099   3.668   0.809   6.018  0.2366 -0.8891  0.4652
 7489SOL    HW134100   3.575   0.822   5.997  0.1572 -0.3530  1.1511
 7489SOL    HW234101   3.670   0.726   5.970 -1.2129 -0.8434  0.3275
 7490SOL     OW34102   4.479   4.441  17.654  0.1733  0.1711 -0.0483
 7490SOL    HW134103   4.424   4.472  17.726  1.5513 -1.8822  1.8864
 7490SOL    HW234104   4.539   4.385  17.704 -0.8951 -1.8808 -1.0563
 7491SOL     OW34105   2.976   0.623   6.160  0.1220  0.0038  0.1017
 7491SOL    HW134106   2.892   0.593   6.125  0.8613 -0.0767 -1.6100
 7491SOL    HW234107   2.941   0.688   6.222  0.6076  1.2375 -0.9051
 7492SOL     OW34108   2.780   3.280  17.328  0.2786  0.0106 -0.1034
 7492SOL    HW134109   2.818   3.291  17.241 -0.0487  0.6461 -0.1613
 7492SOL    HW234110   2.809   3.190  17.342 -1.0555  0.0320  2.7798
 7493SOL     OW34111   1.269   4.361   4.405 -0.5436 -0.5868  0.3845
 7493SOL    HW134112   1.296   4.273   4.430  1.4463 -0.6650 -2.0571
 7493SOL    HW234113   1.173   4.362   4.415 -0.5085 -1.5238  0.8582
 7494SOL     OW34114   2.299   3.310   7.475  0.1678  0.4177 -0.4460
 7494SOL    HW134115   2.368   3.311   7.409 -1.1911 -0.7367 -1.8967
 7494SOL    HW234116   2.246   3.232   7.456  0.1423  0.2157  0.4482
 7495SOL     OW34117   2.279   4.490   9.831  0.2983  0.0318  1.2591
 7495SOL    HW134118   2.367   4.456   9.819 -0.4312 -1.3550 -0.1553
 7495SOL    HW234119   2.223   4.413   9.821  0.3196  0.4790 -2.1192
 7496SOL     OW34120   0.462   0.496   5.918  0.0096 -0.0253  0.2426
 7496SOL    HW134121   0.371   0.468   5.916 -1.4390  4.5643  0.2940
 7496SOL    HW234122   0.456   0.591   5.928 -1.5973 -0.1655  0.5323
 7497SOL     OW34123   0.613   0.591  11.359 -0.1849  0.4759  0.1256
 7497SOL    HW134124   0.564   0.661  11.316  1.3873  1.1222 -0.6270
 7497SOL    HW234125   0.706   0.614  11.349 -0.2352  0.3112 -0.7324
 7498SOL     OW34126   0.181   4.251   6.254  0.1268  0.4581  0.3570
 7498SOL    HW134127   0.250   4.313   6.235  0.6787  0.4135  2.1652
 7498SOL    HW234128   0.100   4.302   6.249 -0.2559 -0.1643  0.1117
 7499SOL     OW34129   3.264   4.323   3.186 -0.0050  0.2377  0.7367
 7499SOL    HW134130   3.178   4.322   3.143  1.0582 -1.8595 -1.3397
 7499SOL    HW234131   3.288   4.413   3.161 -1.4467 -0.0414 -1.6272
 7500SOL     OW34132   3.250   1.474   1.903  0.0647  0.2260 -0.2807
 7500SOL    HW134133   3.224   1.388   1.872 -0.7887 -0.1974  1.6025
 7500SOL    HW234134   3.271   1.462   1.996  0.9404  0.3791 -0.4524
 7501SOL     OW34135   2.872   3.122   7.624 -0.2003 -0.1409  0.2117
 7501SOL    HW134136   2.944   3.156   7.571 -1.4349  2.1901  0.0584
 7501SOL    HW234137   2.864   3.036   7.582 -1.7850 -0.3665  0.9616
 7502SOL     OW34138   2.698   4.502   3.506  0.1482 -0.4464 -0.0895
 7502SOL    HW134139   2.726   4.586   3.471  0.3236 -0.1488  0.7631
 7502SOL    HW234140   2.623   4.531   3.558  1.1282  1.2521  0.3586
 7503SOL     OW34141   0.940   3.291   5.842 -0.1368 -0.2844 -0.0380
 7503SOL    HW134142   0.968   3.381   5.826  1.0340 -0.6322  0.0441
 7503SOL    HW234143   0.925   3.260   5.753 -1.0353  0.3067 -0.0812
 7504SOL     OW34144   3.598   4.662   6.252  0.9503  0.0847  0.1997
 7504SOL    HW134145   3.637   4.625   6.331 -0.0034  2.4179  1.7693
 7504SOL    HW234146   3.571   0.004   6.290  0.8203  0.3148 -0.3992
 7505SOL     OW34147   1.970   4.464  15.653  0.0210 -0.2862 -0.0092
 7505SOL    HW134148   1.994   4.456  15.745 -1.2607  2.0336  0.5080
 7505SOL    HW234149   2.054   4.456  15.609 -0.3067 -1.6056 -0.4174
 7506SOL     OW34150   1.283   0.442  14.300 -0.1815 -0.2486  0.5012
 7506SOL    HW134151   1.253   0.358  14.266  1.8564  0.1016 -2.1166
 7506SOL    HW234152   1.201   0.489  14.317 -0.7499 -1.3441  0.8692
 7507SOL     OW34153   0.170   0.756   1.293 -0.9101 -0.8409  0.3536
 7507SOL    HW134154   0.258   0.786   1.315 -0.0876 -1.4163 -2.1609
 7507SOL    HW234155   0.125   0.793   1.369  1.5826 -0.0862  1.4668
 7508SOL     OW34156   0.716   3.891  12.163  0.1373  0.7356 -0.0070
 7508SOL    HW134157   0.677   3.819  12.114 -0.3986  0.7056  0.4660
 7508SOL    HW234158   0.804   3.858  12.180  0.1895  0.7952 -0.1619
 7509SOL     OW34159   3.719   0.565  12.238 -0.4476  0.0641  0.1903
 7509SOL    HW134160   3.785   0.597  12.177  1.2179 -0.6273  1.6279
 7509SOL    HW234161   3.648   0.618  12.203 -0.9401 -1.0643 -0.5109
 7510SOL     OW34162   2.311   0.299   3.211 -0.1035  0.1098  0.2549
 7510SOL    HW134163   2.344   0.308   3.122 -0.8333 -0.4369 -0.0645
 7510SOL    HW234164   2.217   0.292   3.194 -0.1696 -1.4325  1.2366
 7511SOL     OW34165   0.161   2.787   5.224  0.3599 -0.0277  0.1981
 7511SOL    HW134166   0.121   2.705   5.194  1.4942  0.5964 -3.0459
 7511SOL    HW234167   0.086   2.826   5.268 -0.1339  0.1653 -0.7942
 7512SOL     OW34168   4.383   1.077  12.547 -0.4576  0.0611 -0.9918
 7512SOL    HW134169   4.317   1.121  12.600  0.8250  0.5620  0.1833
 7512SOL    HW234170   4.442   1.148  12.523  0.4646 -0.3432  0.0698
 7513SOL     OW34171   2.537   0.001  10.288  0.5323 -0.3912 -0.6247
 7513SOL    HW134172   2.459   0.024  10.337 -0.6548 -0.6937 -2.3662
 7513SOL    HW234173   2.584   4.679  10.343 -0.0671 -1.3823 -1.2609
 7514SOL     OW34174   1.403   1.031   9.240 -0.3094 -0.3023  0.2217
 7514SOL    HW134175   1.358   0.951   9.213  1.0295 -1.6825  2.0852
 7514SOL    HW234176   1.378   1.078   9.160 -1.3162  1.5805  1.6221
 7515SOL     OW34177   4.012   1.538   4.294  0.2768 -0.2801  0.0822
 7515SOL    HW134178   3.931   1.508   4.334 -0.4527  0.5533 -0.7592
 7515SOL    HW234179   4.032   1.615   4.347 -1.0993  1.1777 -1.5060
 7516SOL     OW34180   2.633   1.286   1.242  0.7700 -0.3641 -0.8211
 7516SOL    HW134181   2.544   1.321   1.238  0.9498  0.3315  1.2798
 7516SOL    HW234182   2.642   1.295   1.337 -0.4390 -2.5161 -0.5003
 7517SOL     OW34183   1.781   3.613   6.831 -0.1718  0.0701 -0.4360
 7517SOL    HW134184   1.815   3.689   6.878  1.6186 -1.1669  0.2519
 7517SOL    HW234185   1.798   3.543   6.893  0.4120  0.3184 -0.3134
 7518SOL     OW34186   1.427   1.145   5.304  0.7937 -0.1754  0.2526
 7518SOL    HW134187   1.442   1.058   5.266  1.6541  0.7671 -1.5170
 7518SOL    HW234188   1.514   1.173   5.330  0.6980 -2.3228  2.8991
 7519SOL     OW34189   1.900   0.435   2.553  0.0135 -0.7367 -0.3855
 7519SOL    HW134190   1.850   0.360   2.585 -1.0217  0.4419  0.7681
 7519SOL    HW234191   1.868   0.440   2.463  1.1691  1.6993 -0.6681
 7520SOL     OW34192   0.556   3.609   2.009  0.1335 -0.3221 -0.3732
 7520SOL    HW134193   0.626   3.668   1.984  1.3953 -1.7565 -0.2208
 7520SOL    HW234194   0.599   3.572   2.085  0.0689 -1.1079 -0.7154
 7521SOL     OW34195   1.793   3.099   0.660  0.3760 -0.3606 -0.5181
 7521SOL    HW134196   1.837   3.046   0.727  0.0192  1.8239  1.4390
 7521SOL    HW234197   1.825   3.187   0.681  0.3353 -0.4311 -0.1567
 7522SOL     OW34198   2.794   2.571  11.147 -0.0977  0.0915  0.1201
 7522SOL    HW134199   2.863   2.591  11.210  1.9773  1.5803 -2.6443
 7522SOL    HW234200   2.714   2.590  11.197 -0.9159 -0.5559 -0.9412
 7523SOL     OW34201   2.499   2.666   3.919 -0.3010  0.3411  0.0783
 7523SOL    HW134202   2.514   2.572   3.914 -1.2456  0.1660  0.4889
 7523SOL    HW234203   2.506   2.685   3.826 -1.7526  0.3747 -0.0277
 7524SOL     OW34204   4.552   0.976   5.785 -0.1680  0.0010 -0.5575
 7524SOL    HW134205   4.495   1.047   5.816 -1.1723 -0.9468 -0.2196
 7524SOL    HW234206   4.500   0.898   5.808  2.1086 -1.3989 -0.1563
 7525SOL     OW34207   3.478   1.198  12.684  0.4801  0.6595 -0.4562
 7525SOL    HW134208   3.441   1.170  12.767 -0.1273 -0.7089 -1.1784
 7525SOL    HW234209   3.439   1.285  12.684  1.3093  1.0272  0.2831
 7526SOL     OW34210   0.949   3.702   8.073 -0.0153  0.2663 -0.2015
 7526SOL    HW134211   0.863   3.741   8.056 -0.1364  0.5165  1.0009
 7526SOL    HW234212   1.002   3.753   8.012 -1.8009 -0.4607 -2.3594
 7527SOL     OW34213   4.074   1.386   7.350  0.1627  0.6754 -0.1561
 7527SOL    HW134214   4.168   1.403   7.349  0.0062  1.5470 -0.0871
 7527SOL    HW234215   4.053   1.401   7.442  1.7467  2.0861 -0.0242
 7528SOL     OW34216   0.255   2.125   5.995  0.0886 -0.2272 -0.3676
 7528SOL    HW134217   0.283   2.177   5.920 -0.5253 -0.7167 -0.9300
 7528SOL    HW234218   0.186   2.181   6.031  0.4624 -1.5435  2.4046
 7529SOL     OW34219   0.623   1.066   6.404  0.2186 -0.1172  0.4351
 7529SOL    HW134220   0.640   1.157   6.429  0.6839  0.3234 -1.5328
 7529SOL    HW234221   0.538   1.055   6.448  0.5923 -2.4780  0.5533
 7530SOL     OW34222   4.225   2.827  10.307  0.1564 -0.0068  0.0294
 7530SOL    HW134223   4.194   2.756  10.362  0.8328 -0.0172  0.3964
 7530SOL    HW234224   4.311   2.843  10.345  0.5789 -1.4801 -0.2992
 7531SOL     OW34225   2.643   4.454  12.375 -0.0095 -0.4892  0.0641
 7531SOL    HW134226   2.649   4.373  12.325 -0.5770 -1.1583  1.0890
 7531SOL    HW234227   2.549   4.463  12.394 -0.2868 -0.8967 -1.1358
 7532SOL     OW34228   3.192   3.823  10.257  0.2358  0.2019  0.2437
 7532SOL    HW134229   3.141   3.894  10.297 -1.1511 -1.5349  1.5687
 7532SOL    HW234230   3.275   3.853  10.294 -1.6025  2.3756  2.6005
 7533SOL     OW34231   3.891   0.317   6.537  0.0276  0.0572  0.2696
 7533SOL    HW134232   3.847   0.254   6.480  2.3435 -0.9650 -0.4162
 7533SOL    HW234233   3.976   0.275   6.552  0.7592  0.5017 -2.6409
 7534SOL     OW34234   2.423   2.826   8.578 -0.7030 -0.7408 -0.2506
 7534SOL    HW134235   2.330   2.834   8.556 -0.2791 -1.7187 -2.3946
 7534SOL    HW234236   2.450   2.768   8.506 -2.8573 -0.8353 -0.9821
 7535SOL     OW34237   2.554   3.337   6.639  0.1157  0.2180 -1.1541
 7535SOL    HW134238   2.503   3.417   6.649  1.1297  0.6265  0.8482
 7535SOL    HW234239   2.645   3.368   6.642  1.1836 -2.9677 -0.6412
 7536SOL     OW34240   3.120   3.568   4.938  0.4585  0.7451 -0.2894
 7536SOL    HW134241   3.149   3.504   4.874 -0.9916 -0.6564  0.4550
 7536SOL    HW234242   3.203   3.610   4.962  0.2442 -0.2814  2.2416
 7537SOL     OW34243   2.912   2.427  12.356 -0.2082  0.6129 -0.2052
 7537SOL    HW134244   2.855   2.375  12.299 -2.0072  3.4722 -1.0338
 7537SOL    HW234245   2.898   2.390  12.444  1.2798 -0.4649 -0.4281
 7538SOL     OW34246   2.989   3.834   5.438 -0.3390 -0.2167  0.0829
 7538SOL    HW134247   3.030   3.825   5.351 -0.2829  0.4404  0.0434
 7538SOL    HW234248   3.002   3.747   5.476  2.3307 -0.7744 -2.0357
 7539SOL     OW34249   4.149   4.050   1.118 -0.3247 -0.4560 -0.3083
 7539SOL    HW134250   4.120   3.975   1.066  2.5531 -0.7268 -1.4938
 7539SOL    HW234251   4.237   4.025   1.144 -0.0330  1.6993  0.7696
 7540SOL     OW34252   2.222   2.776   9.816  0.4488  0.1144 -0.2371
 7540SOL    HW134253   2.148   2.740   9.865 -0.4561 -1.3514 -2.6923
 7540SOL    HW234254   2.237   2.694   9.770  0.0286 -2.0151  3.4349
 7541SOL     OW34255   2.269   1.960   8.175 -0.6274 -0.2726 -0.0288
 7541SOL    HW134256   2.271   1.864   8.183  3.4763 -0.2316 -0.3499
 7541SOL    HW234257   2.361   1.980   8.155 -1.1863  2.1895 -0.1348
 7542SOL     OW34258   0.563   0.584   5.202  0.4487 -0.3298 -0.0270
 7542SOL    HW134259   0.580   0.561   5.111  0.1089  1.1546 -0.4747
 7542SOL    HW234260   0.468   0.587   5.210  0.5767  0.0938  1.4307
 7543SOL     OW34261   0.325   0.189   2.219  0.0496  0.1720 -0.4187
 7543SOL    HW134262   0.257   0.235   2.270  0.4642 -0.7123  0.9309
 7543SOL    HW234263   0.368   0.134   2.285  0.7460 -0.5584 -1.4925
 7544SOL     OW34264   3.768   4.609   7.326  0.3227 -0.5388  0.0002
 7544SOL    HW134265   3.706   4.682   7.330  1.2985  0.2888  0.2755
 7544SOL    HW234266   3.722   4.538   7.282  2.6214 -1.7288 -0.5093
 7545SOL     OW34267   4.486   2.034   8.905 -0.0210  0.2085 -0.0924
 7545SOL    HW134268   4.538   2.070   8.977 -0.4900  1.8582 -0.5884
 7545SOL    HW234269   4.557   2.008   8.846  1.0844  0.8292  0.9702
 7546SOL     OW34270   1.520   0.909  10.490 -0.2513  0.3692 -0.2815
 7546SOL    HW134271   1.499   0.913  10.583  0.1797 -0.1541 -0.1623
 7546SOL    HW234272   1.444   0.944  10.444 -0.8528  1.6081  1.6748
 7547SOL     OW34273   4.315   3.573   0.867 -0.1373 -0.5865  0.0316
 7547SOL    HW134274   4.374   3.615   0.803 -1.1651  0.4944 -0.2012
 7547SOL    HW234275   4.382   3.540   0.927 -1.0020 -1.4252  0.5262
 7548SOL     OW34276   2.270   0.440   9.109  0.0750 -0.3899 -0.2032
 7548SOL    HW134277   2.329   0.498   9.157 -1.3910  2.1005 -1.4280
 7548SOL    HW234278   2.220   0.502   9.056 -0.7075 -1.1898 -0.4075
 7549SOL     OW34279   0.652   4.189   4.673  0.6534 -0.3838 -0.2919
 7549SOL    HW134280   0.604   4.263   4.711  1.1561 -0.6800  0.9387
 7549SOL    HW234281   0.703   4.243   4.613 -0.7450 -1.3338 -2.3546
 7550SOL     OW34282   4.548   2.888   5.962 -0.2077 -0.5859 -0.4043
 7550SOL    HW134283   4.545   2.794   5.944 -1.5610 -1.1376  2.6586
 7550SOL    HW234284   4.508   2.901   6.049  1.8435 -0.1928  0.4784
 7551SOL     OW34285   1.786   2.192   5.054 -0.1646 -0.4586 -0.3853
 7551SOL    HW134286   1.798   2.099   5.037 -0.8972 -0.6251  0.0386
 7551SOL    HW234287   1.760   2.188   5.146 -0.8349 -0.0018 -0.5554
 7552SOL     OW34288   0.231   3.260   4.098  0.2339  0.0909  0.1140
 7552SOL    HW134289   0.267   3.179   4.061 -0.0264  0.2420 -0.4621
 7552SOL    HW234290   0.307   3.315   4.080 -0.2351  0.3590 -1.0002
 7553SOL     OW34291   3.424   0.889   8.813  0.2189  0.0807 -0.2865
 7553SOL    HW134292   3.447   0.852   8.898  1.0966 -1.3969 -1.1507
 7553SOL    HW234293   3.476   0.833   8.754  1.4839  2.4919 -1.4688
 7554SOL     OW34294   2.805   4.319  10.218  0.7697 -0.1971 -0.0597
 7554SOL    HW134295   2.791   4.355  10.306 -0.5986 -0.1474 -0.2916
 7554SOL    HW234296   2.793   4.398  10.165 -1.5046 -0.7769 -0.4105
 7555SOL     OW34297   1.804   3.965   0.405  0.0763  0.6884 -0.3507
 7555SOL    HW134298   1.863   3.891   0.418  0.4046  0.9679 -0.2589
 7555SOL    HW234299   1.836   4.032   0.465  3.1695 -1.2747  0.1971
 7556SOL     OW34300   4.186   0.952  12.809 -0.1888 -0.4051 -0.4798
 7556SOL    HW134301   4.107   0.898  12.818 -1.3978  1.8485  2.4252
 7556SOL    HW234302   4.254   0.885  12.801 -0.4923 -0.7277 -0.3678
 7557SOL     OW34303   1.188   0.610   1.926  0.2678 -0.0007 -0.0065
 7557SOL    HW134304   1.235   0.637   2.005 -3.1682  1.3573  1.6078
 7557SOL    HW234305   1.145   0.531   1.959  0.4374  0.4231  1.2484
 7558SOL     OW34306   2.944   1.260   8.269  0.6608 -0.3003  0.3828
 7558SOL    HW134307   2.941   1.166   8.252 -0.4884 -0.0744 -0.6742
 7558SOL    HW234308   2.863   1.289   8.226  1.6224  1.4560 -0.2581
 7559SOL     OW34309   3.080   1.605   7.259  0.3051 -0.4192 -0.1939
 7559SOL    HW134310   3.070   1.526   7.312  0.1228 -1.3580 -1.6200
 7559SOL    HW234311   3.169   1.608   7.222  0.0890  0.1751 -0.6575
 7560SOL     OW34312   0.961   1.038   8.852 -0.4968  0.0894 -0.9457
 7560SOL    HW134313   0.876   0.996   8.862 -0.0373 -0.2886  1.3387
 7560SOL    HW234314   1.006   0.973   8.799  0.9454  1.2484 -1.1310
 7561SOL     OW34315   1.006   1.613   0.506 -0.2123  0.4774  0.5986
 7561SOL    HW134316   1.069   1.590   0.573 -1.5383 -1.2499  1.2329
 7561SOL    HW234317   1.058   1.678   0.458  0.0596 -1.3295 -1.5537
 7562SOL     OW34318   0.448   1.622   4.748  0.2631 -0.3351 -0.1095
 7562SOL    HW134319   0.415   1.712   4.750 -3.4123 -1.6959  0.6420
 7562SOL    HW234320   0.371   1.566   4.739 -0.9493  0.9125  2.3877
 7563SOL     OW34321   2.587   0.311   5.168  0.1961  0.3510  0.3244
 7563SOL    HW134322   2.665   0.341   5.215  1.0291 -1.2757 -0.0359
 7563SOL    HW234323   2.522   0.298   5.236 -0.0343 -1.5430 -0.2774
 7564SOL     OW34324   4.585   0.422  14.239 -0.2080  0.3967  0.0381
 7564SOL    HW134325   4.596   0.383  14.325 -0.5005 -1.6134 -0.8274
 7564SOL    HW234326   4.651   0.491  14.240  0.5357 -0.3141  0.3377
 7565SOL     OW34327   0.622   0.111  11.533 -0.6695  0.1246  0.1314
 7565SOL    HW134328   0.693   0.153  11.485 -1.2947 -1.2084 -1.9186
 7565SOL    HW234329   0.552   0.177  11.526 -1.1223 -0.5171 -1.2400
 7566SOL     OW34330   1.241   3.223   8.000  0.1824  0.5846  0.5967
 7566SOL    HW134331   1.234   3.188   7.911 -2.1888 -2.1414  1.8410
 7566SOL    HW234332   1.284   3.307   7.985 -1.1226  1.0559 -0.4828
 7567SOL     OW34333   1.016   2.842   3.248  0.4354 -0.3706  0.1431
 7567SOL    HW134334   1.009   2.803   3.161 -2.7417 -0.5947  0.5204
 7567SOL    HW234335   0.926   2.828   3.275 -0.7781  1.1434 -3.1366
 7568SOL     OW34336   0.796   1.028   3.188 -0.6761 -0.4611  0.3351
 7568SOL    HW134337   0.852   1.047   3.113 -0.1112  1.1117  1.1411
 7568SOL    HW234338   0.809   0.936   3.211  0.2850 -0.3883  0.0641
 7569SOL     OW34339   2.893   2.767   8.830  0.7761  0.2283 -1.1001
 7569SOL    HW134340   2.831   2.745   8.899  2.1229 -0.1454  0.0011
 7569SOL    HW234341   2.962   2.807   8.883 -2.3570  0.3155  2.9308
 7570SOL     OW34342   3.936   3.541  11.147  0.2577 -0.1259  0.1329
 7570SOL    HW134343   3.932   3.519  11.054  0.3935  0.6341 -0.0527
 7570SOL    HW234344   4.018   3.499  11.173 -1.2963 -3.1217  0.2188
 7571SOL     OW34345   3.823   2.014   1.450  0.0240  0.0819  0.1577
 7571SOL    HW134346   3.895   1.954   1.470  0.4720  1.2511  2.1319
 7571SOL    HW234347   3.816   2.010   1.355  1.5232 -0.8565  0.0829
 7572SOL     OW34348   0.965   2.081   6.146 -0.4520 -0.5706  0.4167
 7572SOL    HW134349   0.991   2.170   6.123 -2.3813  0.1104  0.8537
 7572SOL    HW234350   0.983   2.070   6.240 -0.5334 -0.3982  0.4517
 7573SOL     OW34351   0.619   1.211  10.700  0.0626 -0.1378 -0.2961
 7573SOL    HW134352   0.567   1.238  10.776 -0.2548 -0.3031 -0.4527
 7573SOL    HW234353   0.547   1.219  10.636 -0.3861  0.1323  0.2395
 7574SOL     OW34354   2.461   3.824   1.322 -0.4586  0.5662 -0.0829
 7574SOL    HW134355   2.428   3.766   1.392 -2.3445  0.9462 -0.6462
 7574SOL    HW234356   2.545   3.843   1.363  0.2478 -2.3919 -0.1069
 7575SOL     OW34357   2.633   1.023   1.388  0.3314  0.2316 -0.4728
 7575SOL    HW134358   2.548   0.990   1.360  1.1020 -1.4554 -0.8986
 7575SOL    HW234359   2.605   1.103   1.430  0.6041  0.5679 -0.9281
 7576SOL     OW34360   4.414   3.082   9.818  0.0573  0.2225  0.0873
 7576SOL    HW134361   4.504   3.113   9.809 -0.0749  0.5409 -0.1274
 7576SOL    HW234362   4.381   3.171   9.805 -1.2124  0.1198  2.5478
 7577SOL     OW34363   3.475   1.190   9.225 -0.1692  0.7573  0.0194
 7577SOL    HW134364   3.431   1.203   9.309  1.3565 -0.5890  1.0156
 7577SOL    HW234365   3.423   1.206   9.146 -0.2088  0.2736 -0.0497
 7578SOL     OW34366   1.682   3.027   8.024  0.5067 -0.1571  0.1481
 7578SOL    HW134367   1.587   3.018   8.022  0.5014 -0.0516 -0.0325
 7578SOL    HW234368   1.702   3.100   7.965  1.4101  0.2193  0.9189
 7579SOL     OW34369   1.396   1.046   1.186 -0.1125 -0.2981  0.2102
 7579SOL    HW134370   1.338   0.986   1.140 -0.4647 -0.8702  1.4002
 7579SOL    HW234371   1.336   1.109   1.226  0.6080  1.0190 -0.7797
 7580SOL     OW34372   1.629   3.387   1.485  0.3436 -0.2898  0.0298
 7580SOL    HW134373   1.633   3.378   1.580 -2.9052 -0.8939  0.1356
 7580SOL    HW234374   1.534   3.387   1.469  0.5067 -1.8354 -0.9485
 7581SOL     OW34375   0.606   1.325   0.672 -0.2613 -0.0776  0.1442
 7581SOL    HW134376   0.669   1.376   0.621 -0.9741 -1.1145 -1.7405
 7581SOL    HW234377   0.605   1.373   0.755  1.6358 -0.0950  0.1856
 7582SOL     OW34378   0.850   1.441   7.628  0.0677 -0.3331 -0.4674
 7582SOL    HW134379   0.755   1.454   7.635  0.1224 -0.4986  0.5440
 7582SOL    HW234380   0.878   1.401   7.710  1.3414 -2.5774 -2.0075
 7583SOL     OW34381   3.080   3.845   5.094  0.6426  0.3255  0.3630
 7583SOL    HW134382   3.155   3.811   5.047  0.2396 -0.5920  0.3838
 7583SOL    HW234383   3.117   3.902   5.162 -1.2443  0.7948  1.0064
 7584SOL     OW34384   3.736   1.177   9.349 -0.5354 -0.1562 -0.0145
 7584SOL    HW134385   3.653   1.208   9.312 -1.4328 -2.8729 -0.3049
 7584SOL    HW234386   3.776   1.263   9.358 -0.5615 -0.3022  1.4271
 7585SOL     OW34387   1.440   2.161   5.354  0.3648  0.0123  0.2390
 7585SOL    HW134388   1.418   2.243   5.398 -2.4928 -0.0304 -1.0630
 7585SOL    HW234389   1.528   2.185   5.327  1.0587 -0.2860  2.2824
 7586SOL     OW34390   3.109   1.480   2.414  0.1375  0.3939 -0.4243
 7586SOL    HW134391   3.026   1.528   2.407  0.8319  1.7764  0.6674
 7586SOL    HW234392   3.165   1.522   2.349 -1.4198 -0.0581 -2.0390
 7587SOL     OW34393   2.849   2.322   3.343 -0.2845 -0.2940 -0.6261
 7587SOL    HW134394   2.846   2.408   3.299 -0.3251  0.6050  1.1284
 7587SOL    HW234395   2.918   2.324   3.409  0.6696 -0.8192 -1.6029
 7588SOL     OW34396   2.606   0.183   4.725 -0.1135 -0.0329  0.5915
 7588SOL    HW134397   2.628   0.096   4.694  1.5050 -0.0897  1.8802
 7588SOL    HW234398   2.586   0.243   4.653  1.9994 -0.2402 -0.1519
 7589SOL     OW34399   0.734   1.905   6.024  0.3389  0.5918 -0.6032
 7589SOL    HW134400   0.791   1.832   6.047 -0.2090 -0.0228 -1.1909
 7589SOL    HW234401   0.788   1.977   6.056  0.4232 -0.4238  1.5698
 7590SOL     OW34402   0.737   0.519   4.626  0.1253 -0.3388  0.0864
 7590SOL    HW134403   0.745   0.551   4.716  0.0434 -1.1689  0.3875
 7590SOL    HW234404   0.792   0.441   4.635  2.1883  0.7171 -3.5687
 7591SOL     OW34405   4.582   3.634   5.024  0.3287  0.5013  0.7433
 7591SOL    HW134406   4.617   3.576   4.956  0.0555  1.7652 -0.4533
 7591SOL    HW234407   4.664   3.656   5.069 -0.2667  1.6293  1.2662
 7592SOL     OW34408   0.865   0.301   9.666  0.5510 -0.3113 -0.2451
 7592SOL    HW134409   0.838   0.298   9.757 -1.6390  2.0945 -0.8134
 7592SOL    HW234410   0.775   0.319   9.638  1.0117  1.1272 -0.8281
 7593SOL     OW34411   0.520   1.035   4.523  0.2069  0.6419 -0.6715
 7593SOL    HW134412   0.433   1.004   4.494  0.5457  1.0396 -2.1451
 7593SOL    HW234413   0.510   1.130   4.513 -0.5143  0.4657 -1.7224
 7594SOL     OW34414   2.639   0.944   4.111 -0.1668  0.3769  0.2913
 7594SOL    HW134415   2.718   0.898   4.141  0.8153  1.0365 -1.2631
 7594SOL    HW234416   2.632   1.003   4.186  0.0609  0.4042  0.2921
 7595SOL     OW34417   0.295   1.649   2.513  0.1439 -0.5685 -0.5757
 7595SOL    HW134418   0.280   1.613   2.425 -0.6190  2.7928 -1.8004
 7595SOL    HW234419   0.372   1.703   2.501  0.6681 -1.1180  0.2727
 7596SOL     OW34420   4.297   0.423   2.994  0.2058 -0.3986 -0.5640
 7596SOL    HW134421   4.209   0.386   2.988 -0.0430  0.2626 -1.1135
 7596SOL    HW234422   4.295   0.481   2.918 -0.4163 -0.0224 -0.2621
 7597SOL     OW34423   3.335   2.033   1.061  0.1918  0.1474  0.3882
 7597SOL    HW134424   3.271   2.071   1.000  0.5990  0.2639  0.0409
 7597SOL    HW234425   3.401   2.099   1.080  0.5586  0.2515 -1.3098
 7598SOL     OW34426   2.892   3.429   9.672 -0.2233  0.3664  0.6649
 7598SOL    HW134427   2.900   3.497   9.605 -0.6506  0.1059  0.3435
 7598SOL    HW234428   2.828   3.366   9.637 -0.6299  1.3897 -0.4391
 7599SOL     OW34429   0.627   4.421   8.766 -0.0027 -0.0182  0.1653
 7599SOL    HW134430   0.549   4.390   8.812  0.1624 -1.9238 -0.8571
 7599SOL    HW234431   0.642   4.353   8.701 -0.2927 -1.5778  1.7394
 7600SOL     OW34432   2.855   2.176   5.967  0.2634  0.3335  0.2777
 7600SOL    HW134433   2.840   2.116   6.040  1.1322 -0.1300  0.0681
 7600SOL    HW234434   2.896   2.253   6.008 -0.0494  1.1659 -0.9824
 7601SOL     OW34435   1.356   0.764  14.937 -0.6229 -0.2549 -0.3921
 7601SOL    HW134436   1.361   0.730  14.848  1.1718 -0.4662 -0.2023
 7601SOL    HW234437   1.374   0.857  14.919 -3.7517  0.1687 -1.3910
 7602SOL     OW34438   3.683   3.590   8.671  0.3514 -0.0352 -0.0177
 7602SOL    HW134439   3.644   3.669   8.634 -1.2309 -1.9164 -2.3079
 7602SOL    HW234440   3.709   3.626   8.756 -1.4827 -0.7337  0.8254
 7603SOL     OW34441   4.412   1.184   5.111  0.3944 -0.4625  0.1252
 7603SOL    HW134442   4.477   1.252   5.129 -0.8621  0.8400 -0.2029
 7603SOL    HW234443   4.334   1.223   5.151 -0.2336 -2.1716  0.5544
 7604SOL     OW34444   2.774   4.214   0.460 -0.3429 -0.2183  0.1186
 7604SOL    HW134445   2.806   4.158   0.390 -0.1515 -0.1280  0.1346
 7604SOL    HW234446   2.691   4.238   0.419 -0.7733 -1.6539  0.1490
 7605SOL     OW34447   0.585   2.195  17.199 -0.0050  0.4133  0.0381
 7605SOL    HW134448   0.553   2.105  17.204 -1.2132  0.8030 -0.7304
 7605SOL    HW234449   0.619   2.183  17.110 -1.1977 -1.9258 -0.1061
 7606SOL     OW34450   0.149   2.395   5.635 -0.6919  0.2332  0.8667
 7606SOL    HW134451   0.217   2.430   5.692 -2.2001  2.4029  1.2970
 7606SOL    HW234452   0.187   2.415   5.549  0.7078  1.7695  1.8697
 7607SOL     OW34453   1.557   3.605  11.016  0.2246 -0.1203  0.2018
 7607SOL    HW134454   1.488   3.556  10.971  0.6816  0.5550 -1.2369
 7607SOL    HW234455   1.601   3.524  11.042  0.1537  0.1021  1.0043
 7608SOL     OW34456   1.523   3.938   0.719 -0.3052  0.4666  0.5597
 7608SOL    HW134457   1.475   3.911   0.640 -2.1988 -1.3988  2.3698
 7608SOL    HW234458   1.605   3.892   0.697 -2.4366 -3.5725  1.1019
 7609SOL     OW34459   3.992   2.879   2.696  0.4120 -0.4676  0.7252
 7609SOL    HW134460   3.982   2.931   2.616 -0.8828 -1.1577  0.4350
 7609SOL    HW234461   4.064   2.929   2.734 -0.0735  1.1922 -0.5024
 7610SOL     OW34462   3.451   2.387   7.230 -0.2991 -0.0710  0.1164
 7610SOL    HW134463   3.395   2.454   7.190  1.5591 -0.1986 -2.7705
 7610SOL    HW234464   3.393   2.328   7.276  2.9145 -0.8249  3.2073
 7611SOL     OW34465   1.007   3.514   5.491  0.3042  0.4017  0.6425
 7611SOL    HW134466   1.024   3.499   5.584  2.1517 -0.2922  0.1843
 7611SOL    HW234467   1.039   3.602   5.469 -0.3750  0.3583 -0.5304
 7612SOL     OW34468   1.745   0.160   3.691  0.2111  0.0348 -0.0127
 7612SOL    HW134469   1.824   0.207   3.719  0.1542 -0.4589  0.9791
 7612SOL    HW234470   1.760   0.159   3.596  1.2116  0.3096  0.1403
 7613SOL     OW34471   3.649   4.187   4.330  0.2847 -0.0145  0.1488
 7613SOL    HW134472   3.558   4.216   4.321 -0.0078 -0.8934  0.3489
 7613SOL    HW234473   3.660   4.113   4.272  1.7742 -0.9838  1.6827
 7614SOL     OW34474   1.158   4.117   0.450  0.2487 -0.5807 -0.0254
 7614SOL    HW134475   1.197   4.030   0.444  0.4738 -0.5176  0.4615
 7614SOL    HW234476   1.229   4.182   0.448 -0.7192  0.4740 -0.3953
 7615SOL     OW34477   1.156   1.034  14.830 -0.0994 -0.5856  0.0371
 7615SOL    HW134478   1.090   0.977  14.870  0.2465 -0.6116  0.5654
 7615SOL    HW234479   1.134   1.121  14.863  0.0189 -0.3764 -0.4326
 7616SOL     OW34480   2.549   0.204   1.905  0.5766  0.3121 -0.0380
 7616SOL    HW134481   2.643   0.220   1.911  0.7597 -0.1304 -1.6772
 7616SOL    HW234482   2.524   0.268   1.838  0.3223  0.3606  0.1037
 7617SOL     OW34483   3.569   3.318   5.887 -0.2352  0.5147  0.1709
 7617SOL    HW134484   3.517   3.270   5.823  0.6954  0.9164 -0.8806
 7617SOL    HW234485   3.619   3.371   5.825 -3.0023  0.7119 -1.8811
 7618SOL     OW34486   3.488   4.490  17.612 -0.4833 -0.2474  0.1517
 7618SOL    HW134487   3.463   4.556  17.549  0.9045 -0.8340 -1.0204
 7618SOL    HW234488   3.519   4.551  17.679  1.2561 -2.5681  1.4699
 7619SOL     OW34489   2.723   3.467   3.913  0.0741  0.2675 -0.4813
 7619SOL    HW134490   2.803   3.423   3.942  0.2714  0.4970 -0.6785
 7619SOL    HW234491   2.743   3.560   3.906 -0.2430  0.4698  1.2095
 7620SOL     OW34492   1.421   0.896   2.813 -0.2079 -0.5377  0.2520
 7620SOL    HW134493   1.482   0.867   2.745  0.5407  0.6688  0.4101
 7620SOL    HW234494   1.443   0.851   2.895 -0.8221  0.3896  0.9224
 7621SOL     OW34495   1.586   0.812   2.585 -0.3489  0.0823  0.0317
 7621SOL    HW134496   1.631   0.762   2.653 -0.1515  0.0495 -0.1238
 7621SOL    HW234497   1.662   0.858   2.549 -0.4127  2.7885  3.2557
 7622SOL     OW34498   1.529   3.607   6.744 -0.4453 -0.5847 -0.2604
 7622SOL    HW134499   1.512   3.551   6.820 -1.1400 -1.1210 -0.8094
 7622SOL    HW234500   1.618   3.631   6.769 -1.8139  4.1064  0.0869
 7623SOL     OW34501   2.071   4.481   7.051 -0.0083 -0.2395  0.1756
 7623SOL    HW134502   2.016   4.539   6.999  0.6428 -0.0974 -0.3482
 7623SOL    HW234503   2.054   4.397   7.008 -0.6651  0.6941 -1.3685
 7624SOL     OW34504   1.927   2.036   4.848  0.4483  0.2637  0.0908
 7624SOL    HW134505   1.933   2.114   4.792  0.4884  0.8152  0.8626
 7624SOL    HW234506   1.991   1.979   4.806 -0.3575  0.0170 -0.8023
 7625SOL     OW34507   3.138   0.665   2.761  0.4474  0.3659  0.1393
 7625SOL    HW134508   3.183   0.731   2.813  0.5257  1.2445 -1.0485
 7625SOL    HW234509   3.051   0.705   2.757 -0.0536 -0.6190  1.3048
 7626SOL     OW34510   3.571   3.250  14.991  0.0444 -0.3859 -0.0168
 7626SOL    HW134511   3.512   3.315  14.953  1.9842  0.9589 -0.7635
 7626SOL    HW234512   3.621   3.222  14.914  3.2384  0.6624  1.6590
 7627SOL     OW34513   4.149   2.171   6.600 -0.0072  0.2329 -0.7548
 7627SOL    HW134514   4.190   2.089   6.629 -0.2455 -0.1449 -1.4858
 7627SOL    HW234515   4.147   2.161   6.505  0.7720 -0.8972 -0.6564
 7628SOL     OW34516   0.153   3.135  16.952 -0.0063 -0.0625  0.1459
 7628SOL    HW134517   0.171   3.049  16.990 -0.1958 -0.7332 -1.2978
 7628SOL    HW234518   0.113   3.184  17.024  0.8914  0.9259 -0.0196
 7629SOL     OW34519   0.707   2.217   4.764 -0.0198 -0.0036  0.2674
 7629SOL    HW134520   0.724   2.202   4.671 -0.8111 -1.8656  0.4209
 7629SOL    HW234521   0.648   2.291   4.746 -0.3912  0.0301  1.6576
 7630SOL     OW34522   4.151   4.498   9.565  0.1531  0.5766  0.6939
 7630SOL    HW134523   4.223   4.449   9.525  0.2593  1.7280 -0.5005
 7630SOL    HW234524   4.129   4.425   9.623  2.7838  0.5549  1.6579
 7631SOL     OW34525   1.919   0.029   1.515 -0.2724  0.1851 -0.6143
 7631SOL    HW134526   1.976   4.694   1.512 -2.6691 -1.7121  2.7476
 7631SOL    HW234527   1.830   4.735   1.515 -0.9823  1.9614 -1.6029
 7632SOL     OW34528   1.559   1.853  13.998  0.1867  0.5257  0.6937
 7632SOL    HW134529   1.526   1.798  14.069 -0.3189 -1.3660 -1.0119
 7632SOL    HW234530   1.489   1.918  13.986 -0.7055 -0.2981  1.4263
 7633SOL     OW34531   2.544   1.780   2.424 -0.1611  0.0487 -0.1535
 7633SOL    HW134532   2.487   1.831   2.483 -2.5599 -0.6778 -1.8265
 7633SOL    HW234533   2.568   1.708   2.482 -0.6092 -1.5789 -1.9897
 7634SOL     OW34534   2.235   3.308   7.756  0.2582  0.4296  0.4104
 7634SOL    HW134535   2.268   3.319   7.667 -0.3736 -0.7118  0.0331
 7634SOL    HW234536   2.293   3.369   7.800  1.9549  0.6504 -2.1719
 7635SOL     OW34537   3.046   0.386   0.896 -0.0392  0.3279 -0.3376
 7635SOL    HW134538   3.085   0.406   0.981 -0.5091  0.4837 -0.1582
 7635SOL    HW234539   3.127   0.366   0.849 -0.7273 -0.0689 -1.3459
 7636SOL     OW34540   2.484   2.372   3.150 -0.2393 -1.1430 -0.3936
 7636SOL    HW134541   2.411   2.315   3.175  1.0687 -3.1146 -1.0787
 7636SOL    HW234542   2.534   2.309   3.098  0.8034  0.0166 -0.7723
 7637SOL     OW34543   2.890   4.592   7.586  0.5451  0.0801 -0.2619
 7637SOL    HW134544   2.803   4.572   7.552  0.8696  0.0869 -1.0991
 7637SOL    HW234545   2.925   4.504   7.593 -0.5842 -0.3031  0.5632
 7638SOL     OW34546   1.198   0.985   9.469 -0.3618 -0.3730  0.7517
 7638SOL    HW134547   1.265   1.049   9.444 -0.5150 -0.2339  0.6999
 7638SOL    HW234548   1.205   0.978   9.564  3.0488  1.7914  0.6394
 7639SOL     OW34549   3.764   3.861  14.231 -0.0714  0.0447 -0.1074
 7639SOL    HW134550   3.814   3.871  14.311 -0.3835 -0.3198  0.1335
 7639SOL    HW234551   3.837   3.865  14.168 -1.0218  0.0468 -1.2075
 7640SOL     OW34552   4.254   3.674  12.531 -0.1688  0.3138  0.6991
 7640SOL    HW134553   4.215   3.649  12.447 -0.8105 -0.5301  1.2442
 7640SOL    HW234554   4.255   3.594  12.583 -0.0731 -0.3291 -0.2890
 7641SOL     OW34555   4.142   2.243   4.622  0.2663 -0.0625 -0.1097
 7641SOL    HW134556   4.209   2.200   4.569  0.2385 -0.0018 -0.1933
 7641SOL    HW234557   4.140   2.328   4.577  1.1711  0.9460  1.7759
 7642SOL     OW34558   3.707   4.637   1.129  0.5472  0.1769 -0.2378
 7642SOL    HW134559   3.717   4.598   1.216  0.8625 -0.4009 -0.5351
 7642SOL    HW234560   3.793   4.650   1.088  1.1203 -1.8156  0.3219
 7643SOL     OW34561   0.393   1.976   3.534  0.8134  0.5184  0.0294
 7643SOL    HW134562   0.422   1.895   3.492  1.5175  1.5475 -1.4545
 7643SOL    HW234563   0.313   1.954   3.581 -0.2651 -2.0187 -3.0097
 7644SOL     OW34564   4.347   1.996   7.915 -0.3684 -0.4979  0.2661
 7644SOL    HW134565   4.384   2.074   7.955  1.0067 -2.9109  3.6889
 7644SOL    HW234566   4.298   1.963   7.991  1.5485 -1.6700  0.9985
 7645SOL     OW34567   1.057   3.090  13.431 -0.3394 -0.3447  0.6486
 7645SOL    HW134568   1.120   3.019  13.445  0.6978  0.5039  0.2608
 7645SOL    HW234569   1.113   3.138  13.370  1.3923 -1.2741  1.5066
 7646SOL     OW34570   4.400   0.450  12.218 -0.4190  0.3090  0.2641
 7646SOL    HW134571   4.375   0.359  12.205  0.8590  0.0204 -0.1694
 7646SOL    HW234572   4.440   0.435  12.303 -0.8629  0.0596  0.4260
 7647SOL     OW34573   3.771   2.989   9.106  0.5455  0.1422  0.3968
 7647SOL    HW134574   3.839   2.985   9.173  2.0979  1.8732 -1.0361
 7647SOL    HW234575   3.755   3.083   9.112 -3.5673 -0.4038 -2.0234
 7648SOL     OW34576   1.414   3.125  14.387 -0.4748  0.1157 -0.2088
 7648SOL    HW134577   1.319   3.121  14.374 -0.5264 -1.3603  0.7344
 7648SOL    HW234578   1.454   3.050  14.343  0.5336  0.5364 -0.0030
 7649SOL     OW34579   1.296   0.017  14.809  0.3176 -0.3443  0.5520
 7649SOL    HW134580   1.374   4.723  14.851  0.5526  0.5650  0.8986
 7649SOL    HW234581   1.324   0.093  14.757  2.3136 -1.6407 -0.2866
 7650SOL     OW34582   3.176   1.223   2.471  0.9172  0.2011 -0.2671
 7650SOL    HW134583   3.145   1.308   2.439 -0.6078  0.2314  1.2522
 7650SOL    HW234584   3.145   1.157   2.410 -1.9377  2.8980 -1.7369
 7651SOL     OW34585   1.607   2.076   8.877 -0.2105 -0.0800 -0.3846
 7651SOL    HW134586   1.622   1.981   8.873  0.6156  0.1294 -2.4509
 7651SOL    HW234587   1.648   2.113   8.799  0.6329 -2.2797 -1.0103
 7652SOL     OW34588   3.164   3.518  16.186 -0.2278  0.1734  0.1953
 7652SOL    HW134589   3.192   3.492  16.273  0.8381  0.4763 -0.0484
 7652SOL    HW234590   3.215   3.456  16.134  3.0727  2.1572  1.0400
 7653SOL     OW34591   1.117   4.126  12.521 -0.2081 -0.0622  0.3407
 7653SOL    HW134592   1.107   4.168  12.606 -0.3235 -1.2721  0.9206
 7653SOL    HW234593   1.204   4.164  12.506 -1.9724  3.8338 -0.2040
 7654SOL     OW34594   1.125   2.520  13.564 -0.4271 -0.4048  0.1796
 7654SOL    HW134595   1.202   2.531  13.619 -0.2215 -0.6502 -0.0615
 7654SOL    HW234596   1.178   2.520  13.484 -0.0532 -0.6732  0.4322
 7655SOL     OW34597   3.635   3.933   8.310 -0.1742  0.0005  0.0322
 7655SOL    HW134598   3.592   3.950   8.226 -0.1627 -2.2905 -0.4394
 7655SOL    HW234599   3.701   4.002   8.316 -0.1737  0.1535 -1.8206
 7656SOL     OW34600   0.267   0.610   4.188  0.1553 -0.5058 -0.7427
 7656SOL    HW134601   0.335   0.677   4.197 -0.4215 -0.2644  2.0269
 7656SOL    HW234602   0.318   0.537   4.153  0.2596 -0.3266 -0.9607
 7657SOL     OW34603   0.072   2.266   0.727  0.6928 -0.5730  1.0377
 7657SOL    HW134604   0.070   2.187   0.672 -0.6503  0.2450 -0.1087
 7657SOL    HW234605   0.164   2.292   0.733  0.7679  0.2526 -3.3606
 7658SOL     OW34606   0.343   3.641   8.200 -0.2262  0.3349 -0.0969
 7658SOL    HW134607   0.341   3.710   8.133 -1.3945  1.3399  0.9681
 7658SOL    HW234608   0.276   3.679   8.257 -0.7179 -0.6990  0.0081
 7659SOL     OW34609   1.645   2.693   6.241 -0.6255  0.1568 -0.0329
 7659SOL    HW134610   1.627   2.787   6.241  0.2233  0.3223 -1.1432
 7659SOL    HW234611   1.590   2.677   6.164 -0.4359  0.5578 -0.2568
 7660SOL     OW34612   0.300   1.631   1.046  0.0354 -0.9186  0.3166
 7660SOL    HW134613   0.250   1.594   1.119 -3.2152 -0.6497 -1.7961
 7660SOL    HW234614   0.298   1.724   1.071  0.7773 -1.2174  1.5069
 7661SOL     OW34615   3.920   4.087   3.003 -0.8744 -1.1363 -0.3523
 7661SOL    HW134616   3.907   4.027   3.076  1.4707 -3.3261 -1.7083
 7661SOL    HW234617   3.943   4.015   2.944 -1.8704 -1.9834  0.2911
 7662SOL     OW34618   0.022   1.295  11.043  0.0514 -0.0517 -0.4525
 7662SOL    HW134619   0.077   1.251  10.979  1.6415  1.9532 -0.4220
 7662SOL    HW234620   0.015   1.378  10.997 -0.5658 -1.1310 -2.2875
 7663SOL     OW34621   1.373   4.284   9.917 -0.0363  0.1045 -0.2860
 7663SOL    HW134622   1.423   4.350   9.965  1.0865 -0.1368 -1.1398
 7663SOL    HW234623   1.373   4.211   9.979  1.4540 -0.6863 -1.2176
 7664SOL     OW34624   2.864   2.807  12.306 -0.7650  0.2436 -0.5798
 7664SOL    HW134625   2.945   2.828  12.353 -0.7744  0.3090 -0.5931
 7664SOL    HW234626   2.802   2.871  12.340  1.5716  0.6929  2.8409
 7665SOL     OW34627   4.164   1.534   2.706  0.4920  0.1410 -0.1573
 7665SOL    HW134628   4.231   1.603   2.706 -1.1927  1.7485 -2.5395
 7665SOL    HW234629   4.133   1.536   2.796  0.2850 -1.7093 -0.1891
 7666SOL     OW34630   1.694   4.154   7.951  0.3627 -0.1008 -0.7957
 7666SOL    HW134631   1.700   4.249   7.961  2.3122 -0.2338 -0.8359
 7666SOL    HW234632   1.781   4.139   7.916 -1.3176  0.6343 -5.2619
 7667SOL     OW34633   1.153   4.173   2.678 -0.1690 -0.1438  0.0245
 7667SOL    HW134634   1.112   4.129   2.604  0.1500  1.7176 -1.2577
 7667SOL    HW234635   1.078   4.193   2.734  0.1709 -1.1650  0.8457
 7668SOL     OW34636   1.017   2.633   6.055  0.0875 -0.3643  0.2354
 7668SOL    HW134637   0.987   2.650   6.144 -0.2809  3.0640 -0.5115
 7668SOL    HW234638   1.046   2.719   6.024 -1.2713  0.2422  0.6633
 7669SOL     OW34639   4.418   1.772  12.203  0.1400  0.0977  0.0414
 7669SOL    HW134640   4.446   1.794  12.292 -1.1416  1.1100  0.1908
 7669SOL    HW234641   4.345   1.719  12.235 -0.3131 -0.3504 -1.7422
 7670SOL     OW34642   1.712   4.414   6.010  0.1701 -0.2787  0.0613
 7670SOL    HW134643   1.692   4.485   6.070 -0.4064 -1.4990  1.3047
 7670SOL    HW234644   1.744   4.350   6.074  0.7239  0.5854  0.6463
 7671SOL     OW34645   2.536   0.492  10.413  0.5664  0.4825 -0.4177
 7671SOL    HW134646   2.534   0.587  10.421  2.9356  0.6625 -1.9408
 7671SOL    HW234647   2.604   0.470  10.477  0.8844  0.4084 -0.7754
 7672SOL     OW34648   3.672   3.230   7.328 -0.1963 -0.2549 -0.2402
 7672SOL    HW134649   3.663   3.179   7.409 -0.9943  0.3853  0.0740
 7672SOL    HW234650   3.582   3.263   7.325  0.0362  0.3483 -0.4691
 7673SOL     OW34651   3.086   3.158   2.454  0.3388 -0.2670 -0.3516
 7673SOL    HW134652   2.991   3.164   2.440  0.4155  0.8145 -0.3956
 7673SOL    HW234653   3.103   3.252   2.455 -0.5147 -0.0990 -0.8472
 7674SOL     OW34654   2.576   0.770  13.525  0.4242  0.2699  0.0474
 7674SOL    HW134655   2.569   0.865  13.532 -0.1875  0.2200  0.1121
 7674SOL    HW234656   2.482   0.762  13.506  0.3669 -0.3571  0.6081
 7675SOL     OW34657   4.269   4.307  12.560  0.2291  0.4263  0.4252
 7675SOL    HW134658   4.237   4.301  12.650  2.6027 -0.3804  1.2136
 7675SOL    HW234659   4.358   4.338  12.579  0.6888  0.9701 -2.6037
 7676SOL     OW34660   0.746   4.698  16.624 -0.2893  0.3558 -0.2052
 7676SOL    HW134661   0.681   0.025  16.618 -1.9557 -1.0663  1.4792
 7676SOL    HW234662   0.817   4.724  16.565  0.5922 -1.6925 -0.0769
 7677SOL     OW34663   3.275   0.754   4.501 -0.4184 -0.2051 -0.2088
 7677SOL    HW134664   3.301   0.813   4.431 -3.4423  2.1437  0.6607
 7677SOL    HW234665   3.335   0.779   4.572 -1.7728  2.7713 -0.1070
 7678SOL     OW34666   2.320   1.062   5.446  0.1799  0.0798  1.0273
 7678SOL    HW134667   2.342   0.969   5.444  1.0156  0.2911  0.6521
 7678SOL    HW234668   2.341   1.078   5.355 -0.4246 -2.9673  0.3541
 7679SOL     OW34669   1.105   1.800  12.336 -0.7838 -0.0361  0.5054
 7679SOL    HW134670   1.122   1.727  12.396  1.1184 -0.8384 -1.0210
 7679SOL    HW234671   1.038   1.838  12.392 -0.9824  1.3793 -0.7075
 7680SOL     OW34672   4.725   4.047   3.495 -0.0127  0.1420  0.5105
 7680SOL    HW134673   0.033   3.967   3.478  1.8086  1.2367  0.7766
 7680SOL    HW234674   4.680   4.045   3.411 -0.9749 -2.3650  1.0812
 7681SOL     OW34675   2.946   0.741   6.874  0.2974 -0.0529 -0.0108
 7681SOL    HW134676   2.918   0.766   6.786  0.0690 -0.3219 -0.0149
 7681SOL    HW234677   3.024   0.687   6.861  0.5560  0.3133  0.0121
 7682SOL     OW34678   0.217   3.036   5.099  0.5010  0.0891  0.0561
 7682SOL    HW134679   0.166   2.966   5.138  1.1694 -0.0686  0.6609
 7682SOL    HW234680   0.309   3.012   5.116  0.7443 -0.0428 -1.4719
 7683SOL     OW34681   1.863   0.481   7.227 -0.4912  0.1485 -0.2936
 7683SOL    HW134682   1.867   0.498   7.321  1.8201 -0.3651 -0.3037
 7683SOL    HW234683   1.892   0.390   7.224 -0.0993  0.3597 -2.5597
 7684SOL     OW34684   1.466   3.149   7.568 -0.4506 -0.9454 -0.4955
 7684SOL    HW134685   1.471   3.155   7.663 -0.5827  0.4773 -0.5931
 7684SOL    HW234686   1.381   3.193   7.561 -1.4728 -2.5205  2.1045
 7685SOL     OW34687   4.308   3.888  15.918  0.7155  0.1256  0.5781
 7685SOL    HW134688   4.315   3.983  15.931 -0.7005  0.1921  0.8631
 7685SOL    HW234689   4.235   3.875  15.979  0.1542 -0.3271 -0.1911
 7686SOL     OW34690   0.843   2.671   8.225 -0.0562  0.4680 -0.3962
 7686SOL    HW134691   0.896   2.707   8.153 -0.1169  1.8034  0.2162
 7686SOL    HW234692   0.861   2.580   8.203 -1.1019  0.4856 -1.3187
 7687SOL     OW34693   2.709   1.335   0.821 -0.3085 -0.1793  0.2889
 7687SOL    HW134694   2.710   1.406   0.758  0.9383 -0.2245  0.2579
 7687SOL    HW234695   2.626   1.292   0.801  0.0737 -0.3537 -0.8963
 7688SOL     OW34696   0.675   2.555  12.890  0.2566  1.0131 -0.0077
 7688SOL    HW134697   0.716   2.500  12.956 -2.4352 -0.7209  0.2120
 7688SOL    HW234698   0.601   2.498  12.869  1.1212  0.0610 -0.4905
 7689SOL     OW34699   4.320   3.055  11.557 -0.5558  0.1235  0.3895
 7689SOL    HW134700   4.322   3.017  11.469 -1.2394 -0.3953  0.6052
 7689SOL    HW234701   4.394   3.007  11.595 -0.5335  0.0905  0.3040
 7690SOL     OW34702   3.156   0.042   8.770 -0.5404  0.0139  0.2236
 7690SOL    HW134703   3.122   4.727   8.701 -0.7840  1.2141 -0.6427
 7690SOL    HW234704   3.140   4.732   8.849 -0.8077 -0.2185  0.0210
 7691SOL     OW34705   3.261   3.718   3.487  0.2333 -0.2452 -0.1982
 7691SOL    HW134706   3.223   3.682   3.407  0.5483 -0.0959 -0.4193
 7691SOL    HW234707   3.337   3.772   3.464  1.6062 -1.0409  2.3935
 7692SOL     OW34708   2.326   1.315  17.021 -0.2736  0.0439  0.0676
 7692SOL    HW134709   2.300   1.404  16.998  0.0823  0.4352  1.1597
 7692SOL    HW234710   2.275   1.270  16.954 -2.4125  3.9549 -0.9019
 7693SOL     OW34711   2.432   2.236   1.151 -0.3564 -0.4455  0.7431
 7693SOL    HW134712   2.481   2.271   1.226  1.1972 -1.2398  0.0687
 7693SOL    HW234713   2.460   2.145   1.154 -0.1077 -0.3500  1.4355
 7694SOL     OW34714   2.402   1.111   6.968  0.3336 -0.2058  0.8237
 7694SOL    HW134715   2.460   1.036   6.957 -0.2343 -0.6820  1.0694
 7694SOL    HW234716   2.323   1.062   6.991 -0.0381  0.0384  0.0630
 7695SOL     OW34717   1.268   2.690   9.035 -0.3821  0.0693  0.3575
 7695SOL    HW134718   1.308   2.745   9.102 -1.0945 -0.2473  1.0399
 7695SOL    HW234719   1.238   2.755   8.971  0.8107  2.2490  2.0068
 7696SOL     OW34720   3.762   3.052   6.510  0.5834 -0.3092  0.0494
 7696SOL    HW134721   3.777   3.076   6.602  1.3475 -0.0699 -0.1333
 7696SOL    HW234722   3.680   3.004   6.521  0.3318  0.4095  1.3171
 7697SOL     OW34723   4.103   0.168   1.086 -0.0216  0.2559 -0.1712
 7697SOL    HW134724   4.071   0.202   1.169  1.8812 -2.9646  1.8693
 7697SOL    HW234725   4.079   0.245   1.033 -1.0939 -0.9690 -1.4591
 7698SOL     OW34726   3.561   2.215  16.422  0.4484  0.1963 -0.0443
 7698SOL    HW134727   3.562   2.292  16.365 -0.9013  0.5615  0.4371
 7698SOL    HW234728   3.496   2.234  16.489 -0.2347  2.8998 -1.4754
 7699SOL     OW34729   3.735   2.075   5.452 -0.2418 -0.4284  0.1739
 7699SOL    HW134730   3.699   2.023   5.380 -1.8266  0.1256  0.5641
 7699SOL    HW234731   3.671   2.145   5.448  0.3756  0.1320  0.0741
 7700SOL     OW34732   2.457   3.500  11.840 -0.3532 -0.2573  0.3554
 7700SOL    HW134733   2.517   3.434  11.875 -0.0394  0.2040  0.6733
 7700SOL    HW234734   2.392   3.443  11.798 -0.6536 -0.0351  0.5267
 7701SOL     OW34735   2.522   2.435  12.437 -0.0469 -0.2998  0.0573
 7701SOL    HW134736   2.441   2.472  12.403 -1.0061 -1.7312  0.8033
 7701SOL    HW234737   2.579   2.512  12.436 -2.1408  1.2305 -1.4803
 7702SOL     OW34738   1.800   0.511   8.864 -0.4756  0.3760 -0.7853
 7702SOL    HW134739   1.818   0.418   8.846  0.7603  0.1194  1.7090
 7702SOL    HW234740   1.870   0.551   8.812  0.2429  0.3396  0.1508
 7703SOL     OW34741   4.269   3.690   4.592  0.0633  0.3492  0.1095
 7703SOL    HW134742   4.311   3.677   4.676 -1.4447  0.3327  0.8641
 7703SOL    HW234743   4.248   3.784   4.597 -1.1088  0.1032 -0.2212
 7704SOL     OW34744   2.040   3.167   3.023 -0.1208 -0.0965 -0.8691
 7704SOL    HW134745   2.087   3.084   3.035 -0.7819  0.0325  2.5904
 7704SOL    HW234746   2.023   3.190   3.115  0.0820  0.4347 -0.9664
 7705SOL     OW34747   3.499   1.629  17.450  0.2856  0.0759  0.1416
 7705SOL    HW134748   3.453   1.581  17.519 -1.3997 -3.1147 -3.1808
 7705SOL    HW234749   3.589   1.604  17.471 -0.0046 -1.7359 -0.7795
 7706SOL     OW34750   0.969   1.429  14.005  0.6782  0.9652 -0.4374
 7706SOL    HW134751   1.004   1.429  14.094  1.0198 -0.4000 -0.5674
 7706SOL    HW234752   1.021   1.363  13.959  2.1659  1.1301  1.0311
 7707SOL     OW34753   2.886   3.829   9.484  0.0775  0.0954 -0.0922
 7707SOL    HW134754   2.884   3.744   9.441 -0.2765 -0.2683  0.6453
 7707SOL    HW234755   2.813   3.828   9.546  0.0740  0.7120 -0.0909
 7708SOL     OW34756   2.325   1.208   2.061 -0.1983  0.4020  0.0287
 7708SOL    HW134757   2.332   1.238   1.970 -1.2488  1.4719  0.2995
 7708SOL    HW234758   2.231   1.196   2.071 -0.2498 -0.2392 -1.2377
 7709SOL     OW34759   2.403   2.976  11.591  0.3280  0.3719 -0.0583
 7709SOL    HW134760   2.437   2.942  11.509 -1.1139 -1.0842 -0.0365
 7709SOL    HW234761   2.312   2.985  11.564 -0.2891 -1.9431  1.2808
 7710SOL     OW34762   2.317   3.572   5.099  0.2308  0.8495 -0.5072
 7710SOL    HW134763   2.333   3.521   5.020 -0.6810  1.7072 -1.2402
 7710SOL    HW234764   2.235   3.618   5.085  0.2775 -0.3271 -4.5266
 7711SOL     OW34765   4.173   0.968   2.954  0.6667  0.3905 -0.0419
 7711SOL    HW134766   4.090   0.980   2.909 -0.2396 -0.2842  1.4436
 7711SOL    HW234767   4.160   1.033   3.023  0.5430 -1.1212  1.3616
 7712SOL     OW34768   3.875   4.404   5.257 -0.1651 -0.2956  0.2047
 7712SOL    HW134769   3.859   4.452   5.338  0.1456 -1.0798  0.7365
 7712SOL    HW234770   3.886   4.484   5.206  3.1650  0.2552  1.7397
 7713SOL     OW34771   0.586   3.378   5.506 -1.2270 -0.4239  0.3758
 7713SOL    HW134772   0.531   3.300   5.504  0.2892 -1.4884 -0.3535
 7713SOL    HW234773   0.540   3.434   5.568 -3.0695  0.9210 -2.2271
 7714SOL     OW34774   1.321   0.198   8.216  0.4243  0.2587  0.5629
 7714SOL    HW134775   1.311   0.285   8.255 -1.3008  0.2941  0.0532
 7714SOL    HW234776   1.279   0.153   8.289 -0.6909  0.6893  0.1874
 7715SOL     OW34777   1.284   4.198  12.160 -0.5569 -0.3469 -0.4381
 7715SOL    HW134778   1.320   4.267  12.105  0.1854  1.0215  1.7608
 7715SOL    HW234779   1.202   4.227  12.201 -1.3891 -1.4461 -1.3135
 7716SOL     OW34780   1.104   0.690  15.188 -0.8418  0.5188 -0.1590
 7716SOL    HW134781   1.175   0.746  15.219  0.8954 -1.8604  0.1759
 7716SOL    HW234782   1.095   0.639  15.268  1.4346 -0.1783 -0.3420
 7717SOL     OW34783   3.621   0.499   6.804  0.5515  0.3193 -0.7294
 7717SOL    HW134784   3.708   0.460   6.808  0.1101 -0.6068 -0.0720
 7717SOL    HW234785   3.633   0.587   6.768  0.7470  0.3547 -0.5768
 7718SOL     OW34786   2.881   4.512   8.642 -0.6269 -0.1920  0.1398
 7718SOL    HW134787   2.971   4.529   8.613 -1.4758  0.8678 -1.8243
 7718SOL    HW234788   2.852   4.599   8.669 -0.2772 -0.4139  1.2181
 7719SOL     OW34789   1.179   1.229   1.249 -0.2520  0.2553  0.5903
 7719SOL    HW134790   1.090   1.255   1.273 -0.5877  0.2022 -0.6157
 7719SOL    HW234791   1.238   1.278   1.307  0.6358 -0.7158  0.5256
 7720SOL     OW34792   1.062   2.161   4.467 -0.2484  0.1771 -0.5464
 7720SOL    HW134793   1.026   2.076   4.442  0.9711 -0.5966  0.3010
 7720SOL    HW234794   0.993   2.223   4.443 -1.1720  0.1490  1.9651
 7721SOL     OW34795   2.724   0.514   1.633  0.0702  0.8015 -0.2036
 7721SOL    HW134796   2.643   0.516   1.581  1.8173  1.2269 -2.8947
 7721SOL    HW234797   2.791   0.552   1.578  1.4268  1.7653  2.1113
 7722SOL     OW34798   0.745   4.524   6.861  0.5193  0.0406 -0.0613
 7722SOL    HW134799   0.754   4.429   6.850  1.2088  0.2569 -1.3250
 7722SOL    HW234800   0.813   4.542   6.926 -0.1214  4.5282 -0.6160
 7723SOL     OW34801   3.049   1.782   6.354 -0.2931 -0.1960 -0.4879
 7723SOL    HW134802   3.002   1.740   6.282 -0.2912 -2.0404  0.5953
 7723SOL    HW234803   3.113   1.840   6.312  0.6658 -0.7891  0.1511
 7724SOL     OW34804   1.796   3.214  14.500 -0.2158 -0.0199 -0.2227
 7724SOL    HW134805   1.733   3.143  14.517 -2.8698  2.8226  1.7047
 7724SOL    HW234806   1.852   3.192  14.574  0.5655  0.9700 -0.5334
 7725SOL     OW34807   2.472   3.534   5.877  0.1453 -0.5643  0.1751
 7725SOL    HW134808   2.397   3.474   5.877  1.3977 -2.1220  0.3746
 7725SOL    HW234809   2.452   3.570   5.790  0.8864 -1.6028 -0.4336
 7726SOL     OW34810   0.030   4.194  12.445  0.1291 -0.6851 -0.5431
 7726SOL    HW134811   0.108   4.139  12.445  1.5510  1.3555  1.4314
 7726SOL    HW234812   0.029   4.249  12.367 -1.8311 -4.3262 -3.1202
 7727SOL     OW34813   4.453   2.628  12.446 -0.5916 -0.1153  0.2926
 7727SOL    HW134814   4.483   2.710  12.407  1.5386  0.1283  2.4255
 7727SOL    HW234815   4.430   2.663  12.532  0.1183  1.8464 -0.3151
 7728SOL     OW34816   1.307   2.283   1.873 -0.6854 -0.6116  1.0891
 7728SOL    HW134817   1.295   2.363   1.822 -1.6775  1.1460  4.0755
 7728SOL    HW234818   1.399   2.260   1.866 -0.8435 -0.5033 -1.1778
 7729SOL     OW34819   1.609   4.319   5.495 -0.8888 -0.4287 -0.0755
 7729SOL    HW134820   1.518   4.304   5.521 -1.4434  1.0854 -1.1377
 7729SOL    HW234821   1.655   4.346   5.575 -0.7537  1.1251 -0.6865
 7730SOL     OW34822   3.657   3.118   7.564  0.2650 -0.7418 -0.3676
 7730SOL    HW134823   3.578   3.066   7.549 -0.5813  0.4544 -0.1195
 7730SOL    HW234824   3.629   3.194   7.616  1.4407 -1.5584  1.4539
 7731SOL     OW34825   2.215   3.116   2.144 -0.3208 -0.3107 -0.1856
 7731SOL    HW134826   2.246   3.206   2.148  0.1746 -0.4514 -1.0614
 7731SOL    HW234827   2.145   3.126   2.209 -0.5579  0.4309 -0.5585
 7732SOL     OW34828   3.899   3.338   8.151 -0.8103 -0.4133 -0.6176
 7732SOL    HW134829   3.811   3.376   8.151  0.1293  1.6909 -1.7250
 7732SOL    HW234830   3.885   3.287   8.232 -0.6903  0.8781  0.2108
 7733SOL     OW34831   1.136   3.236  14.894  0.1224 -0.0503 -0.3128
 7733SOL    HW134832   1.187   3.179  14.836 -1.1214 -1.3755 -0.0878
 7733SOL    HW234833   1.145   3.318  14.846  4.0530 -0.6868 -0.7084
 7734SOL     OW34834   1.146   2.590   3.408  0.0492  0.7656 -0.3282
 7734SOL    HW134835   1.203   2.514   3.418 -0.8534  0.3227  1.3696
 7734SOL    HW234836   1.079   2.558   3.347  1.1061  0.2313 -1.2084
 7735SOL     OW34837   2.898   2.850   4.676 -0.4547  0.0615 -0.2870
 7735SOL    HW134838   2.811   2.876   4.646 -0.3299  2.6343  1.6358
 7735SOL    HW234839   2.873   2.782   4.739  0.1298  0.0338 -0.0836
 7736SOL     OW34840   2.919   2.892   9.174 -0.6576  0.0880  0.2018
 7736SOL    HW134841   2.920   2.805   9.134  0.2725 -0.3839  1.2555
 7736SOL    HW234842   2.937   2.950   9.100 -1.4770 -0.3414 -0.3434
 7737SOL     OW34843   0.999   3.534   8.293 -0.1187  0.4513  0.0649
 7737SOL    HW134844   0.992   3.597   8.365 -1.3599  0.5261 -0.1327
 7737SOL    HW234845   0.991   3.600   8.224 -2.2920  0.1924  0.0774
 7738SOL     OW34846   2.012   1.118  16.637 -0.1438 -0.0638 -0.6937
 7738SOL    HW134847   1.948   1.140  16.705 -0.8692  0.9947 -1.7234
 7738SOL    HW234848   1.967   1.152  16.559 -1.2947  0.2228  0.0957
 7739SOL     OW34849   2.888   3.968   9.825 -0.3040  0.0501 -0.1606
 7739SOL    HW134850   2.979   3.996   9.816 -0.4706  0.0263 -1.7627
 7739SOL    HW234851   2.885   3.952   9.920 -1.0397  0.4923 -0.1033
 7740SOL     OW34852   1.226   3.009   2.319 -0.0553 -0.0223 -0.4515
 7740SOL    HW134853   1.232   3.066   2.396 -0.5229  0.3950 -0.7208
 7740SOL    HW234854   1.167   2.945   2.359 -0.6813 -1.1008 -3.1440
 7741SOL     OW34855   3.692   1.772   4.521  0.6114 -0.7667 -0.0430
 7741SOL    HW134856   3.623   1.733   4.574 -1.8759  2.2588 -1.0904
 7741SOL    HW234857   3.767   1.723   4.555  0.8674 -0.0380  0.4605
 7742SOL     OW34858   1.502   3.077  14.850  0.1279  0.6028  0.2759
 7742SOL    HW134859   1.503   3.055  14.943 -0.6836 -0.0067  0.1332
 7742SOL    HW234860   1.522   3.171  14.853  3.1522 -0.0111 -0.7429
 7743SOL     OW34861   2.067   4.375   5.910  0.5966 -0.5950  0.2422
 7743SOL    HW134862   2.137   4.427   5.870  0.7488 -0.9399  0.0566
 7743SOL    HW234863   1.999   4.378   5.842  1.6487  0.0365 -0.7832
 7744SOL     OW34864   0.786   4.448   2.037 -0.5925 -0.2691  0.0149
 7744SOL    HW134865   0.706   4.499   2.049 -0.1767  0.0656  1.3609
 7744SOL    HW234866   0.838   4.475   2.113 -0.2973  0.9349 -0.6166
 7745SOL     OW34867   0.630   2.205   5.536 -0.3677  0.1462 -0.2915
 7745SOL    HW134868   0.612   2.157   5.616 -0.1389  0.5732  0.0147
 7745SOL    HW234869   0.672   2.129   5.495 -2.1054  0.5665 -2.8572
 7746SOL     OW34870   1.406   1.618   1.681 -0.4295  0.1564  0.0958
 7746SOL    HW134871   1.334   1.580   1.631  1.4882 -2.5759 -0.6058
 7746SOL    HW234872   1.385   1.594   1.771 -1.8779  0.0331 -0.2674
 7747SOL     OW34873   1.916   3.099   8.623  0.7513 -0.5047  0.3610
 7747SOL    HW134874   1.948   3.153   8.551 -0.9265 -0.7007 -0.5531
 7747SOL    HW234875   1.848   3.162   8.649 -1.5963 -2.5688 -0.7668
 7748SOL     OW34876   0.053   2.876   4.717  0.2800 -0.3717 -0.5333
 7748SOL    HW134877   0.089   2.791   4.742  0.0460 -0.7808 -1.5752
 7748SOL    HW234878   0.135   2.924   4.713  1.7631 -3.0437 -1.9462
 7749SOL     OW34879   2.073   4.053   3.999 -0.1174 -0.3302  0.1867
 7749SOL    HW134880   1.995   4.042   3.945 -0.3292  2.1534 -0.0303
 7749SOL    HW234881   2.052   4.129   4.054  0.1662  0.4386 -0.7592
 7750SOL     OW34882   2.882   2.963   8.610  0.0821  0.0541  0.1643
 7750SOL    HW134883   2.912   2.956   8.519 -2.5518 -0.2052 -0.6999
 7750SOL    HW234884   2.876   2.874   8.645 -1.8935 -0.4042 -1.3148
 7751SOL     OW34885   1.800   2.093   9.079 -0.3777  0.3578 -0.4267
 7751SOL    HW134886   1.714   2.100   9.037 -1.6174  3.0874  2.5327
 7751SOL    HW234887   1.844   2.053   9.004  1.3389  1.1369  0.1633
 7752SOL     OW34888   0.510   3.179   2.580  0.5688  0.3826  0.0359
 7752SOL    HW134889   0.478   3.109   2.524  1.8517  1.2829 -1.8242
 7752SOL    HW234890   0.427   3.225   2.594  0.3646  0.0356 -0.0404
 7753SOL     OW34891   3.235   1.619  12.114 -0.2203 -0.1395  0.0497
 7753SOL    HW134892   3.284   1.552  12.065 -0.5595  0.3070 -0.8857
 7753SOL    HW234893   3.143   1.594  12.118 -0.1064 -0.5791 -0.0014
 7754SOL     OW34894   0.793   0.530   4.124  0.6037  0.2180  0.5098
 7754SOL    HW134895   0.795   0.533   4.220 -0.2254 -3.0820  0.6445
 7754SOL    HW234896   0.829   0.617   4.106 -0.0646 -0.1312 -2.4525
 7755SOL     OW34897   1.323   1.244   7.083  0.1567  0.3080  0.1105
 7755SOL    HW134898   1.240   1.291   7.076 -0.3921 -0.3558  2.2807
 7755SOL    HW234899   1.310   1.156   7.047  0.5387 -0.0757  0.9226
 7756SOL     OW34900   2.079   1.831  15.363  0.5167 -0.1175 -0.1550
 7756SOL    HW134901   1.999   1.850  15.411  1.0514  2.5867 -0.3250
 7756SOL    HW234902   2.078   1.893  15.290 -2.4895  3.1808  2.7210
 7757SOL     OW34903   0.686   3.185   3.830 -0.0732 -0.1625  0.3434
 7757SOL    HW134904   0.649   3.103   3.797 -1.2870  0.1887  0.8330
 7757SOL    HW234905   0.676   3.167   3.924 -3.3732  2.7758  0.5662
 7758SOL     OW34906   1.187   4.535   3.157 -0.0202 -0.0236  0.0527
 7758SOL    HW134907   1.139   4.587   3.222 -0.1563 -0.2197  0.1104
 7758SOL    HW234908   1.250   4.482   3.206 -0.8305 -1.4362 -0.4358
 7759SOL     OW34909   1.538   2.597   5.782  0.9893 -0.1872 -0.3215
 7759SOL    HW134910   1.471   2.533   5.804  0.7252  0.3462  0.4152
 7759SOL    HW234911   1.505   2.624   5.696  0.3717  0.9756  0.2755
 7760SOL     OW34912   4.533   3.934  17.145  0.1175  0.2671  0.2334
 7760SOL    HW134913   4.496   3.861  17.096  0.0408 -0.2614  1.0721
 7760SOL    HW234914   4.521   3.904  17.235 -0.8618  1.9386  0.6666
 7761SOL     OW34915   0.181   2.901   4.111  0.3541 -0.1769  0.0066
 7761SOL    HW134916   0.152   2.907   4.202 -2.4812 -0.4725 -0.8602
 7761SOL    HW234917   0.100   2.934   4.073 -0.5753 -0.6033  1.5981
 7762SOL     OW34918   1.241   2.242  17.344 -0.1993 -0.0031 -0.2861
 7762SOL    HW134919   1.271   2.318  17.295  2.7902 -1.1062 -0.2263
 7762SOL    HW234920   1.268   2.256  17.435 -1.1827 -0.1326  0.0211
 7763SOL     OW34921   2.067   3.430   5.172 -0.2769  0.2249  0.1941
 7763SOL    HW134922   2.160   3.412   5.163 -0.1496  0.7933  0.3814
 7763SOL    HW234923   2.043   3.443   5.080  0.7772  0.2051 -0.0850
 7764SOL     OW34924   3.968   0.636   2.687 -0.2968  0.6615 -0.7298
 7764SOL    HW134925   3.894   0.627   2.628 -0.2080 -1.3748 -0.5256
 7764SOL    HW234926   4.025   0.669   2.618 -0.5582 -0.2430 -1.3771
 7765SOL     OW34927   1.491   2.381  13.595 -0.4668 -0.0438  0.3155
 7765SOL    HW134928   1.429   2.327  13.546 -0.2451  0.1905 -0.2185
 7765SOL    HW234929   1.429   2.448  13.620  1.8689  1.1725  2.9258
 7766SOL     OW34930   4.216   4.708   9.396 -0.4280 -0.2502  0.1943
 7766SOL    HW134931   4.174   4.634   9.440 -0.3528 -0.7070 -0.4904
 7766SOL    HW234932   4.276   4.657   9.340  0.7851  1.1087  0.2445
 7767SOL     OW34933   1.307   0.736  13.367 -0.1608 -0.1555  0.5495
 7767SOL    HW134934   1.326   0.753  13.460 -0.4317 -1.2061  0.7914
 7767SOL    HW234935   1.367   0.803  13.334 -0.0273 -0.2740  0.5510
 7768SOL     OW34936   3.231   3.238   1.711  0.6902  0.4962  0.3046
 7768SOL    HW134937   3.273   3.205   1.790  2.0861 -1.3000 -1.1784
 7768SOL    HW234938   3.304   3.235   1.650  1.1425  2.1397  0.7604
 7769SOL     OW34939   1.144   1.892   7.696 -0.3017 -0.3765  0.6124
 7769SOL    HW134940   1.127   1.914   7.604  2.8467  0.9876  0.3632
 7769SOL    HW234941   1.237   1.869   7.690 -0.4657 -0.5279 -1.5799
 7770SOL     OW34942   0.661   1.215   3.377  0.3428  0.3069 -0.0589
 7770SOL    HW134943   0.659   1.167   3.460 -1.4716 -0.5283 -0.5806
 7770SOL    HW234944   0.718   1.168   3.317  1.9841 -0.8828  2.4486
 7771SOL     OW34945   4.128   2.922  10.079 -0.5285  0.2138 -0.0730
 7771SOL    HW134946   4.160   2.905  10.168  0.6120 -3.8460 -1.2246
 7771SOL    HW234947   4.202   2.902  10.021  0.5186  2.1622  0.6029
 7772SOL     OW34948   2.345   2.720   9.492 -0.5447  0.4130  0.4307
 7772SOL    HW134949   2.352   2.638   9.542  3.3652 -0.3861 -1.4757
 7772SOL    HW234950   2.437   2.734   9.469 -1.2202  0.5808 -2.1116
 7773SOL     OW34951   2.573   4.675   1.949 -0.2304 -0.5792 -0.1429
 7773SOL    HW134952   2.575   0.027   1.930 -2.1090 -0.4812  0.1368
 7773SOL    HW234953   2.628   4.645   1.877  1.4492 -0.5362  1.1340
 7774SOL     OW34954   1.373   4.402   8.592  0.0173  0.0962 -0.6853
 7774SOL    HW134955   1.348   4.365   8.507 -0.2877  0.7020 -0.8608
 7774SOL    HW234956   1.328   4.345   8.655 -0.7041 -0.0951 -1.3717
 7775SOL     OW34957   3.693   3.715   4.357 -0.2437  0.0600 -0.1341
 7775SOL    HW134958   3.604   3.683   4.343  0.0162 -0.1027 -1.3859
 7775SOL    HW234959   3.704   3.685   4.448 -3.4893  0.7735  0.4952
 7776SOL     OW34960   1.393   2.018   7.389  0.4703 -0.1875  0.2141
 7776SOL    HW134961   1.456   1.995   7.320  0.7757 -1.1026  0.8041
 7776SOL    HW234962   1.445   2.084   7.435 -0.4281 -0.4113  1.5290
 7777SOL     OW34963   1.647   2.161  14.978 -0.5849 -0.0770  0.8394
 7777SOL    HW134964   1.554   2.165  14.956  0.1925 -1.2002 -2.6397
 7777SOL    HW234965   1.688   2.184  14.895  0.9048 -0.3203  1.4957
 7778SOL     OW34966   4.650   0.026  17.047 -0.0943  0.5104 -0.4867
 7778SOL    HW134967   4.696   0.049  17.127  0.3887 -0.4229 -0.4934
 7778SOL    HW234968   4.604   4.688  17.074  1.0832  0.6031  1.7200
 7779SOL     OW34969   3.606   1.689  15.291 -0.3909  0.8383  0.6112
 7779SOL    HW134970   3.588   1.781  15.270  0.1495  0.4338 -1.6280
 7779SOL    HW234971   3.624   1.700  15.385 -2.1574 -1.3362  1.2067
 7780SOL     OW34972   3.370   2.133   6.564 -0.1339  0.0068 -0.3106
 7780SOL    HW134973   3.375   2.062   6.628  0.3159 -1.3195 -1.8260
 7780SOL    HW234974   3.277   2.141   6.587 -0.1112  0.2347 -0.2943
 7781SOL     OW34975   1.280   2.637  17.561 -0.5208  0.4651 -0.1117
 7781SOL    HW134976   1.300   2.724  17.594 -0.6186  0.6995 -0.6716
 7781SOL    HW234977   1.207   2.616  17.620  2.1129  1.0207  3.3001
 7782SOL     OW34978   0.407   3.528  17.323  0.3024 -0.1852 -0.1476
 7782SOL    HW134979   0.401   3.503  17.230 -0.5973  1.7188 -0.5986
 7782SOL    HW234980   0.314   3.540  17.340 -0.2082 -4.3020  0.0440
 7783SOL     OW34981   1.681   1.824   2.182 -0.1650  0.1766  0.8587
 7783SOL    HW134982   1.600   1.860   2.219 -0.3789 -1.7792  2.2973
 7783SOL    HW234983   1.654   1.735   2.159  3.0543 -0.7899  0.8178
 7784SOL     OW34984   3.478   4.009   5.024 -0.3321 -0.6260 -0.6297
 7784SOL    HW134985   3.469   4.081   4.961 -2.0094 -0.0644  0.2344
 7784SOL    HW234986   3.545   3.952   4.986  1.5864  0.3230  1.3062
 7785SOL     OW34987   1.007   3.972   8.157  0.1574 -0.1393  0.1124
 7785SOL    HW134988   0.920   3.988   8.192 -0.5478  0.4293 -1.9068
 7785SOL    HW234989   0.979   3.954   8.068 -1.0602 -2.1907  0.9069
 7786SOL     OW34990   4.075   4.490   6.629 -0.2385  0.0305 -0.6257
 7786SOL    HW134991   4.099   4.554   6.562  0.5925 -0.4632 -0.7995
 7786SOL    HW234992   4.050   4.545   6.702 -0.8489  1.3803 -1.8616
 7787SOL     OW34993   3.003   1.779   3.575  0.1417  0.3584 -0.3223
 7787SOL    HW134994   3.043   1.858   3.613  2.9551 -1.3030  0.1340
 7787SOL    HW234995   2.985   1.816   3.488  3.3488  1.4683 -0.5060
 7788SOL     OW34996   3.085   3.858  17.422 -0.4560 -0.1036  0.2848
 7788SOL    HW134997   3.110   3.793  17.487  2.5674 -1.0375 -1.8169
 7788SOL    HW234998   3.037   3.920  17.478  1.1676 -0.4741  2.0887
 7789SOL     OW34999   1.302   0.916   5.453  0.3763 -0.3510 -0.0031
 7789SOL    HW135000   1.306   1.011   5.442  2.4460 -0.5378 -0.9956
 7789SOL    HW235001   1.383   0.905   5.504  1.9465 -1.3465 -2.7003
 7790SOL     OW35002   2.275   1.976   6.171  0.0199 -0.3509  0.4582
 7790SOL    HW135003   2.253   2.017   6.087 -0.8163 -2.1013 -0.1656
 7790SOL    HW235004   2.197   1.924   6.192  1.3899 -2.2470  0.8116
 7791SOL     OW35005   3.667   0.236   9.165 -0.6178  0.1597 -0.1829
 7791SOL    HW135006   3.578   0.222   9.197 -0.3479  0.2184  0.5930
 7791SOL    HW235007   3.650   0.233   9.071  0.8114  0.7255 -0.4678
 7792SOL     OW35008   1.186   1.599  11.791  0.0043 -0.6758  0.4381
 7792SOL    HW135009   1.128   1.656  11.741  1.5260  1.7257  1.3984
 7792SOL    HW235010   1.246   1.662  11.831 -2.4680  1.2209  1.1561
 7793SOL     OW35011   1.834   2.504  12.432 -0.0948  0.3266  0.8494
 7793SOL    HW135012   1.747   2.539  12.412  0.3796 -0.5703 -2.9567
 7793SOL    HW235013   1.849   2.441  12.361 -0.8196  0.3836  0.6465
 7794SOL     OW35014   4.039   1.955   2.188 -0.3494  0.1243 -0.1941
 7794SOL    HW135015   4.011   1.913   2.107  1.9920 -0.4380 -0.7134
 7794SOL    HW235016   3.980   1.928   2.258 -1.5785  2.2660 -0.3971
 7795SOL     OW35017   2.577   4.131   4.571  0.0494 -0.0420  0.0588
 7795SOL    HW135018   2.669   4.113   4.556 -0.0150 -1.2869  1.0969
 7795SOL    HW235019   2.571   4.097   4.660  0.2603 -0.7436 -0.1915
 7796SOL     OW35020   0.526   0.147   6.170 -0.3851 -0.5193 -0.0198
 7796SOL    HW135021   0.558   0.090   6.101 -0.3627 -0.9895  0.3788
 7796SOL    HW235022   0.437   0.113   6.185 -0.3274 -0.6881 -0.0574
 7797SOL     OW35023   2.892   0.356  12.566  0.6625  0.2410  0.5689
 7797SOL    HW135024   2.856   0.414  12.498 -2.5548 -3.0363 -0.5389
 7797SOL    HW235025   2.856   0.268  12.560  0.5812  0.3132 -0.0643
 7798SOL     OW35026   1.680   3.113   1.295  0.0997  0.6219 -0.3832
 7798SOL    HW135027   1.621   3.100   1.369 -0.1434  2.6572 -0.2096
 7798SOL    HW235028   1.699   3.205   1.312 -2.4794  1.2098 -0.7513
 7799SOL     OW35029   2.569   0.751  16.056 -0.4168 -0.3689  0.1886
 7799SOL    HW135030   2.482   0.788  16.069 -0.3600 -0.2889  0.3391
 7799SOL    HW235031   2.547   0.695  15.982 -0.4123 -0.2169  0.0732
 7800SOL     OW35032   3.082   1.484   7.983  0.0700 -0.1314 -0.3041
 7800SOL    HW135033   3.062   1.569   8.021  0.1009 -0.7688  1.1111
 7800SOL    HW235034   2.995   1.453   7.959 -0.7833 -0.1303  2.7895
 7801SOL     OW35035   2.467   0.280   9.553 -0.1185  0.4173  0.6226
 7801SOL    HW135036   2.536   0.215   9.562 -0.9003 -0.5186 -0.1622
 7801SOL    HW235037   2.399   0.216   9.532 -0.0531  0.5603 -0.0429
 7802SOL     OW35038   1.115   0.988   7.995 -0.4163 -0.2335 -0.2110
 7802SOL    HW135039   1.097   0.987   8.089 -0.4739 -0.9686 -0.2328
 7802SOL    HW235040   1.100   0.896   7.978  2.4896 -0.5856 -0.8272
 7803SOL     OW35041   4.166   4.677  12.192  0.2112 -0.6182 -0.4515
 7803SOL    HW135042   4.097   4.663  12.127  0.1209  0.8548 -0.6811
 7803SOL    HW235043   4.211   4.593  12.191  0.5076 -0.4517 -0.7285
 7804SOL     OW35044   2.280   2.542  10.070 -0.0899 -0.2047 -0.6315
 7804SOL    HW135045   2.329   2.461  10.086 -1.3040 -0.9897 -0.9325
 7804SOL    HW235046   2.194   2.518  10.105 -0.1662  0.0778 -0.6277
 7805SOL     OW35047   4.364   2.200   6.162  0.4880  0.3080 -0.0497
 7805SOL    HW135048   4.286   2.161   6.122 -0.0943 -0.5129  1.9041
 7805SOL    HW235049   4.347   2.213   6.255 -0.6439  0.5686 -0.2872
 7806SOL     OW35050   2.356   1.874   5.017  0.0019 -0.0019 -0.0909
 7806SOL    HW135051   2.333   1.966   5.004 -0.6514 -0.0651  0.6432
 7806SOL    HW235052   2.451   1.858   5.008 -0.1678 -0.8282 -0.4255
 7807SOL     OW35053   1.976   2.879  14.966  0.9731 -0.1322 -0.4087
 7807SOL    HW135054   1.897   2.908  14.920 -1.1406 -0.6447  2.8311
 7807SOL    HW235055   1.943   2.812  15.026 -1.3126  1.3060 -0.0458
 7808SOL     OW35056   4.517   1.793  15.967  0.2013  0.3324  0.0052
 7808SOL    HW135057   4.527   1.803  15.872 -1.3397 -0.8195 -0.2820
 7808SOL    HW235058   4.431   1.834  15.977  0.0656  0.2796 -0.9676
 7809SOL     OW35059   4.591   1.528   7.542 -0.0367 -0.6338  0.2451
 7809SOL    HW135060   4.588   1.622   7.561  1.9545 -0.6135  0.4709
 7809SOL    HW235061   4.649   1.502   7.614  0.8086 -0.4375 -0.3628
 7810SOL     OW35062   2.171   2.607   4.708  0.0247  0.0213  0.4395
 7810SOL    HW135063   2.142   2.572   4.624  0.3112  0.4304  0.1702
 7810SOL    HW235064   2.182   2.701   4.690 -4.1433  0.2564 -0.9235
 7811SOL     OW35065   1.301   0.561   9.120 -0.0680  0.5229 -0.1435
 7811SOL    HW135066   1.385   0.534   9.082 -0.3121 -1.4399  0.7009
 7811SOL    HW235067   1.295   0.656   9.111  2.2110  0.6252 -0.6159
 7812SOL     OW35068   1.730   3.452  12.406 -0.3320  0.2385 -0.5962
 7812SOL    HW135069   1.651   3.495  12.438  0.1041  1.7231 -1.5475
 7812SOL    HW235070   1.691   3.410  12.330 -2.7486  0.8099  0.3436
 7813SOL     OW35071   4.188   0.927   6.856  0.7214  0.1936 -0.3172
 7813SOL    HW135072   4.149   0.988   6.793  0.7111  0.4815 -0.0293
 7813SOL    HW235073   4.280   0.950   6.849  0.2415  2.1683 -0.1742
 7814SOL     OW35074   1.928   2.530   6.808 -0.0268 -0.0682  0.0904
 7814SOL    HW135075   1.984   2.461   6.844  1.7904  2.0149  1.2323
 7814SOL    HW235076   1.944   2.595   6.876  0.4368  0.8963 -0.9413
 7815SOL     OW35077   3.574   1.740   5.948  0.1565  0.2376  0.1838
 7815SOL    HW135078   3.625   1.659   5.956 -2.8329 -1.5513  1.2436
 7815SOL    HW235079   3.647   1.801   5.947 -1.7958  2.5121 -1.9348
 7816SOL     OW35080   4.211   3.832   0.883  0.2513  0.1631 -0.5553
 7816SOL    HW135081   4.208   3.848   0.789 -1.8938 -0.8815 -0.6595
 7816SOL    HW235082   4.244   3.743   0.890 -1.9528 -0.4821  1.6552
 7817SOL     OW35083   0.902   1.005  16.152 -0.1319  0.0380 -0.0260
 7817SOL    HW135084   0.980   1.051  16.120  0.3855 -0.5463  0.4102
 7817SOL    HW235085   0.835   1.065  16.117  1.8678  2.0948 -0.3513
 7818SOL     OW35086   4.672   0.535  10.421 -0.6268 -0.3402  0.1463
 7818SOL    HW135087   4.586   0.550  10.380 -1.1605  1.7820  1.9979
 7818SOL    HW235088   4.682   0.624  10.456  0.4509 -0.8986  1.2605
 7819SOL     OW35089   1.812   2.292   4.522  0.6694 -0.5680 -0.0261
 7819SOL    HW135090   1.818   2.278   4.617  2.0356  0.3207  0.0264
 7819SOL    HW235091   1.738   2.353   4.520  0.6040 -0.6493 -0.0670
 7820SOL     OW35092   4.581   4.318   0.128  0.2344 -0.5370  0.2796
 7820SOL    HW135093   4.522   4.271   0.187  0.2386  1.6381  2.0290
 7820SOL    HW235094   4.606   4.392   0.183  1.2095 -1.0047  0.4772
 7821SOL     OW35095   0.585   2.459   7.792  0.5170 -0.3698 -0.3390
 7821SOL    HW135096   0.609   2.519   7.863 -0.6444  2.0893 -2.0440
 7821SOL    HW235097   0.559   2.386   7.848 -0.6718 -1.0656 -1.8171
 7822SOL     OW35098   0.492   4.075   6.514 -0.6960  0.0743 -0.0084
 7822SOL    HW135099   0.452   4.158   6.542  1.4656  1.2861 -0.5345
 7822SOL    HW235100   0.454   4.067   6.426 -0.2448  0.2671 -0.2172
 7823SOL     OW35101   4.343   3.683   3.436  0.2220 -0.2510 -0.1571
 7823SOL    HW135102   4.332   3.767   3.393  0.0890 -0.2539 -0.1276
 7823SOL    HW235103   4.298   3.629   3.371  1.1467 -2.2139  0.8158
 7824SOL     OW35104   1.866   1.285   8.526  0.5287  0.4825 -0.5288
 7824SOL    HW135105   1.870   1.352   8.594  0.0368 -0.8077  0.7798
 7824SOL    HW235106   1.793   1.318   8.474 -0.7454  2.3885  2.4223
 7825SOL     OW35107   3.433   2.180   5.729 -0.1800 -0.0175  0.1405
 7825SOL    HW135108   3.452   2.203   5.820 -2.9872  1.2572  0.4212
 7825SOL    HW235109   3.418   2.086   5.734 -3.0609  0.4315  0.3952
 7826SOL     OW35110   0.892   1.891   3.814 -0.6676 -0.2408  0.0915
 7826SOL    HW135111   0.830   1.844   3.758 -0.8238 -0.3633  0.3603
 7826SOL    HW235112   0.905   1.973   3.767  1.3006 -0.2753  0.5835
 7827SOL     OW35113   4.612   0.595   1.903  0.4973  0.1028  0.3474
 7827SOL    HW135114   4.636   0.606   1.995 -1.0703  1.5301  0.5903
 7827SOL    HW235115   4.525   0.555   1.914  0.6224  0.1937  1.5668
 7828SOL     OW35116   4.113   3.356   7.338 -0.0164 -0.2440  0.7744
 7828SOL    HW135117   4.123   3.277   7.391 -0.5996  1.0942  2.8674
 7828SOL    HW235118   4.085   3.424   7.400  0.5603  2.8390 -2.2969
 7829SOL     OW35119   2.509   2.154  17.740 -0.7869 -0.4440  0.1768
 7829SOL    HW135120   2.530   2.235  17.693 -1.3046  0.0762  0.8501
 7829SOL    HW235121   2.586   2.099  17.734 -1.6543 -1.5490 -0.8004
 7830SOL     OW35122   2.232   2.662   8.217  0.3113 -0.3456 -0.4718
 7830SOL    HW135123   2.243   2.608   8.138 -0.4709 -0.8340 -0.2553
 7830SOL    HW235124   2.321   2.679   8.247 -0.5257  2.1555  0.5671
 7831SOL     OW35125   1.944   3.730  16.225 -0.1082  0.0095  0.3421
 7831SOL    HW135126   1.906   3.643  16.215 -0.7151  0.3186 -0.0687
 7831SOL    HW235127   1.996   3.748  16.147  1.5228  0.4555  1.5423
 7832SOL     OW35128   2.551   4.091   5.214  0.0725 -0.4088 -0.0091
 7832SOL    HW135129   2.566   4.017   5.155  1.2549  1.7805 -2.4453
 7832SOL    HW235130   2.613   4.062   5.281  0.1229  2.1269  1.0278
 7833SOL     OW35131   3.732   4.447   2.386 -0.1758  0.4725 -0.3602
 7833SOL    HW135132   3.682   4.504   2.445 -0.0320 -1.1726  1.3553
 7833SOL    HW235133   3.682   4.463   2.306 -0.0328  0.2349 -0.4954
 7834SOL     OW35134   1.440   2.513   8.131 -0.2326  0.8368 -0.0496
 7834SOL    HW135135   1.433   2.426   8.093  2.5557 -0.1575  1.7403
 7834SOL    HW235136   1.355   2.551   8.107 -0.6476 -1.1043 -1.5920
 7835SOL     OW35137   0.629   2.741  15.845 -0.4678  0.2175  0.7950
 7835SOL    HW135138   0.562   2.762  15.910 -3.0289 -3.0488 -0.8116
 7835SOL    HW235139   0.581   2.753  15.764 -2.3608 -2.6423  1.5038
 7836SOL     OW35140   4.738   1.309   8.863  0.4812 -0.3421 -0.8594
 7836SOL    HW135141   0.046   1.246   8.916  0.6461 -0.1856 -0.8259
 7836SOL    HW235142   0.071   1.338   8.811  1.7027  0.4684  1.3146
 7837SOL     OW35143   1.553   1.047  13.658 -0.6479 -0.3844  0.7691
 7837SOL    HW135144   1.623   1.023  13.720 -0.5258  0.2499  0.8763
 7837SOL    HW235145   1.580   1.139  13.652  0.3805 -0.8725 -2.0487
 7838SOL     OW35146   2.073   1.684  15.975  0.6901  0.0648 -0.3891
 7838SOL    HW135147   2.041   1.726  16.054 -2.4933  1.2778 -2.3500
 7838SOL    HW235148   2.143   1.627  16.008  1.0928  0.9871  0.3270
 7839SOL     OW35149   0.683   2.038   8.565  0.2086 -0.4757  0.0278
 7839SOL    HW135150   0.622   1.997   8.626 -0.6715 -0.9166 -1.1321
 7839SOL    HW235151   0.717   2.117   8.609  0.9921  0.2841 -1.9293
 7840SOL     OW35152   0.731   1.286   8.868  0.2058  0.7218  0.0125
 7840SOL    HW135153   0.687   1.368   8.844 -0.0513  1.1406  1.8781
 7840SOL    HW235154   0.809   1.316   8.914  0.7507  0.2572 -0.6087
 7841SOL     OW35155   4.359   0.808   5.821  0.0492 -0.8128 -0.5400
 7841SOL    HW135156   4.268   0.820   5.849  0.6616 -0.1765  1.1072
 7841SOL    HW235157   4.342   0.714   5.815 -0.6947 -0.9260  3.4503
 7842SOL     OW35158   1.456   3.010   2.157  0.1446 -0.1083 -0.0178
 7842SOL    HW135159   1.484   3.090   2.201 -0.3404 -0.1137  0.3001
 7842SOL    HW235160   1.386   2.986   2.218 -1.4105  1.1282 -1.3273
 7843SOL     OW35161   0.159   1.225   7.711 -0.0686 -0.0380 -0.2693
 7843SOL    HW135162   0.166   1.131   7.697 -2.2950 -0.2233 -0.0996
 7843SOL    HW235163   0.185   1.256   7.624  0.6083  1.8683  0.5886
 7844SOL     OW35164   3.157   3.238   2.868 -0.4782  0.0511  0.1762
 7844SOL    HW135165   3.237   3.189   2.891 -1.6810 -1.0961  1.9489
 7844SOL    HW235166   3.162   3.318   2.919 -2.8019  0.7026 -0.6466
 7845SOL     OW35167   0.621   0.500  14.449  0.1990 -0.3338 -0.0190
 7845SOL    HW135168   0.664   0.431  14.500  2.7246  1.7359  0.6482
 7845SOL    HW235169   0.656   0.588  14.466  0.0862 -0.5131  1.1354
 7846SOL     OW35170   1.451   3.465   0.481  0.3541 -0.4628  0.3880
 7846SOL    HW135171   1.532   3.506   0.450  0.9155 -1.1028  0.9960
 7846SOL    HW235172   1.442   3.520   0.559 -3.8342 -0.9657  0.2624
 7847SOL     OW35173   4.304   0.623   6.072 -0.0637 -0.1220 -0.4387
 7847SOL    HW135174   4.279   0.699   6.019  0.5782  0.9558  0.8147
 7847SOL    HW235175   4.230   0.563   6.059 -0.2749 -0.1350  0.8319
 7848SOL     OW35176   3.673   1.714   3.728  0.0433  0.0788  0.0111
 7848SOL    HW135177   3.727   1.780   3.685 -0.5261  1.3462  1.2667
 7848SOL    HW235178   3.583   1.745   3.727 -0.1033 -0.3631 -0.8265
 7849SOL     OW35179   2.426   4.290   2.227 -0.7558  0.0821  0.4634
 7849SOL    HW135180   2.405   4.329   2.143 -0.0365 -2.1198 -0.7543
 7849SOL    HW235181   2.493   4.230   2.193 -1.6519 -0.9343  0.5128
 7850SOL     OW35182   1.037   2.303   0.078 -0.9319 -0.0877  0.6851
 7850SOL    HW135183   1.055   2.222   0.030 -0.0415  0.4389  0.1086
 7850SOL    HW235184   1.002   2.360   0.009  0.5891 -0.8502 -0.7499
 7851SOL     OW35185   2.490   3.354   2.584 -0.3378 -0.0252 -0.4617
 7851SOL    HW135186   2.439   3.292   2.533 -0.2283  0.5306 -1.2374
 7851SOL    HW235187   2.503   3.429   2.526  1.5966  0.2327  0.2914
 7852SOL     OW35188   1.254   0.533   7.383 -0.6369 -0.0081  0.1612
 7852SOL    HW135189   1.288   0.614   7.421  1.5206 -0.4713 -0.7868
 7852SOL    HW235190   1.161   0.549   7.366 -0.4240  0.0603 -0.9500
 7853SOL     OW35191   2.889   0.822   1.825 -0.3388  0.0886 -0.0963
 7853SOL    HW135192   2.861   0.852   1.738  0.4802 -1.9199 -1.0588
 7853SOL    HW235193   2.811   0.847   1.874 -0.3349  0.8589 -0.4911
 7854SOL     OW35194   0.617   2.665   1.588  0.2508  0.0816  0.2318
 7854SOL    HW135195   0.648   2.735   1.645  0.9015 -0.3513  0.4140
 7854SOL    HW235196   0.701   2.623   1.569 -0.3599 -0.5348 -1.1185
 7855SOL     OW35197   4.495   4.626   4.720 -0.0477 -0.4079 -0.6269
 7855SOL    HW135198   4.474   4.682   4.645  1.0624 -0.8969 -1.2974
 7855SOL    HW235199   4.587   4.650   4.724 -0.6858  1.8610  0.4147
 7856SOL     OW35200   2.626   3.101   6.830  0.5001  0.3192  0.1071
 7856SOL    HW135201   2.628   3.117   6.736 -0.3255  2.0660  0.3775
 7856SOL    HW235202   2.697   3.038   6.842  0.8268  0.9719  1.5610
 7857SOL     OW35203   3.438   0.545   8.695 -0.1630 -0.4635  0.1316
 7857SOL    HW135204   3.429   0.539   8.790 -0.9255  0.8673  0.1398
 7857SOL    HW235205   3.353   0.578   8.668 -0.0471 -0.7232 -0.5319
 7858SOL     OW35206   4.504   0.849   4.704  0.2441 -0.2716  0.5159
 7858SOL    HW135207   4.468   0.932   4.675 -0.3194 -0.1536  1.5654
 7858SOL    HW235208   4.480   0.854   4.797  0.1086 -0.6464  0.5001
 7859SOL     OW35209   2.623   3.697   5.155  0.0668  0.0438  0.6463
 7859SOL    HW135210   2.595   3.616   5.111 -1.7432 -0.2186  2.2735
 7859SOL    HW235211   2.716   3.699   5.135  0.1886 -1.9264  1.0364
 7860SOL     OW35212   3.000   3.405   3.919  0.2184  0.4124  0.2284
 7860SOL    HW135213   3.063   3.350   3.966 -0.5152 -1.5418 -1.0750
 7860SOL    HW235214   3.046   3.409   3.835 -1.4453  0.4360 -0.6806
 7861SOL     OW35215   2.528   0.909   3.265  0.5325  0.3731 -0.1468
 7861SOL    HW135216   2.570   0.832   3.228  0.5601  1.0980 -1.6557
 7861SOL    HW235217   2.609   0.933   3.309 -1.2456  2.6498  1.9146
 7862SOL     OW35218   0.572   1.521   7.526 -0.2447 -0.1735 -0.5685
 7862SOL    HW135219   0.638   1.529   7.457 -0.7527 -1.8695 -1.2627
 7862SOL    HW235220   0.524   1.604   7.524 -0.4248 -0.3053 -1.4936
 7863SOL     OW35221   4.715   4.230  15.242  0.2455  0.6317 -0.4068
 7863SOL    HW135222   4.651   4.279  15.189  1.4130 -0.1239 -2.5093
 7863SOL    HW235223   0.007   4.175  15.172 -2.9279 -3.0419  0.9595
 7864SOL     OW35224   3.550   0.513   4.387 -0.1145 -0.4264  0.4194
 7864SOL    HW135225   3.616   0.578   4.364 -0.5903 -0.8378 -2.1531
 7864SOL    HW235226   3.527   0.533   4.478 -0.3633  1.1057  0.0135
 7865SOL     OW35227   2.468   0.577   1.536  0.4554 -0.4986 -0.9160
 7865SOL    HW135228   2.385   0.609   1.502  0.4321  1.8460  1.3345
 7865SOL    HW235229   2.517   0.656   1.509 -2.2858  0.9128 -1.7287
 7866SOL     OW35230   2.194   1.031   8.112 -0.4263 -0.4143 -0.5319
 7866SOL    HW135231   2.286   1.037   8.136  0.2722 -1.9856 -2.8608
 7866SOL    HW235232   2.144   1.038   8.194 -0.2917  2.0241 -0.6755
 7867SOL     OW35233   1.103   1.061   6.313 -0.5586  0.1749  0.5278
 7867SOL    HW135234   1.031   1.044   6.373 -0.2640 -0.1018  0.8050
 7867SOL    HW235235   1.046   1.074   6.237 -0.6933  1.5566  0.8661
 7868SOL     OW35236   1.061   4.552   7.281  0.1939  0.8891  0.4245
 7868SOL    HW135237   1.100   4.495   7.348  1.4737  0.8095 -0.3999
 7868SOL    HW235238   1.032   4.627   7.333  1.5233  1.1251  0.8187
 7869SOL     OW35239   3.762   1.947   1.176  0.4246 -0.2242  0.0662
 7869SOL    HW135240   3.793   1.945   1.086  0.0243 -0.1169 -0.0728
 7869SOL    HW235241   3.781   1.858   1.207 -1.2961 -0.6480 -0.0853
 7870SOL     OW35242   2.660   1.217   8.814 -0.3784  0.4882 -0.3173
 7870SOL    HW135243   2.575   1.260   8.819 -0.0932  0.7208  2.7862
 7870SOL    HW235244   2.703   1.286   8.864 -0.2872 -0.9829  1.6425
 7871SOL     OW35245   2.370   0.966   1.340  0.1053 -0.0782 -0.4333
 7871SOL    HW135246   2.309   0.898   1.311  0.2406 -0.5128  0.3001
 7871SOL    HW235247   2.315   1.044   1.334 -2.5404 -1.6959  2.2641
 7872SOL     OW35248   0.969   1.829  15.676  0.0003  0.4531 -0.4490
 7872SOL    HW135249   1.061   1.850  15.693 -0.7617  2.9286  0.6203
 7872SOL    HW235250   0.971   1.791  15.588  0.4205 -1.4178  0.3641
 7873SOL     OW35251   4.669   1.920   2.314 -0.1519  0.0155 -0.1334
 7873SOL    HW135252   4.579   1.947   2.332 -0.6024 -1.0783 -0.7781
 7873SOL    HW235253   4.697   1.898   2.403  2.4952  1.0875 -0.6834
 7874SOL     OW35254   0.870   1.113  10.311 -0.1160 -0.2232 -0.1515
 7874SOL    HW135255   0.886   1.145  10.222  0.8230  0.5128  0.2886
 7874SOL    HW235256   0.789   1.064  10.295  0.1351 -0.2966 -1.2204
 7875SOL     OW35257   2.788   4.430  13.165  0.8739  0.2887  0.2531
 7875SOL    HW135258   2.836   4.488  13.105  1.1430 -0.2205 -0.0233
 7875SOL    HW235259   2.853   4.421  13.235  0.2668  2.3155  1.0788
 7876SOL     OW35260   0.361   1.540   2.277 -0.3817 -0.4485 -0.0727
 7876SOL    HW135261   0.284   1.485   2.288 -0.5166 -0.4607 -1.0411
 7876SOL    HW235262   0.335   1.586   2.197  1.0505  1.8522  0.7904
 7877SOL     OW35263   1.287   2.343  15.603 -0.4312 -0.3758 -0.3822
 7877SOL    HW135264   1.200   2.364  15.637 -0.6709  0.2693 -1.3986
 7877SOL    HW235265   1.287   2.248  15.609 -0.1310 -0.3554 -0.0184
 7878SOL     OW35266   1.092   0.591  15.447 -0.0262  0.5383 -0.5951
 7878SOL    HW135267   1.144   0.552  15.517  1.4024  1.0146 -1.3972
 7878SOL    HW235268   1.030   0.641  15.501  0.1655 -1.1039  1.1672
 7879SOL     OW35269   4.081   3.468  16.944  0.1222 -0.2307  0.3501
 7879SOL    HW135270   4.168   3.504  16.926 -1.2080  3.0891  0.5575
 7879SOL    HW235271   4.063   3.498  17.034 -1.0377 -0.2695  0.1324
 7880SOL     OW35272   0.596   4.357  10.100  0.0275  0.1260  1.1637
 7880SOL    HW135273   0.621   4.305  10.023 -0.9792  0.5778  0.5387
 7880SOL    HW235274   0.502   4.342  10.091  0.1469 -0.5458  1.0523
 7881SOL     OW35275   0.325   3.399   3.253  0.4958 -0.5534 -0.0141
 7881SOL    HW135276   0.358   3.329   3.310  0.3970  1.1496  2.1195
 7881SOL    HW235277   0.279   3.458   3.312  0.7048  1.8803 -2.2797
 7882SOL     OW35278   0.927   3.377   4.689 -0.2015 -0.0517 -0.1967
 7882SOL    HW135279   0.969   3.463   4.695  1.2415 -0.7266 -0.6062
 7882SOL    HW235280   0.892   3.391   4.601  0.3529  0.1050 -0.3973
 7883SOL     OW35281   2.253   3.194  12.283  0.2409 -0.3963 -0.3780
 7883SOL    HW135282   2.187   3.250  12.324  0.7908 -1.9781  2.6603
 7883SOL    HW235283   2.254   3.225  12.192  1.9777 -2.0746 -0.9265
 7884SOL     OW35284   0.928   1.724   6.102  1.1136  0.2297 -0.0676
 7884SOL    HW135285   0.963   1.674   6.029 -1.4316  2.9352 -3.1305
 7884SOL    HW235286   0.977   1.693   6.179  0.4812 -2.6798 -0.8826
 7885SOL     OW35287   1.228   0.491   0.805 -0.5505  0.4980 -0.0130
 7885SOL    HW135288   1.155   0.497   0.743 -0.2786 -1.3597 -0.4922
 7885SOL    HW235289   1.192   0.544   0.876 -3.3591 -1.7868  0.2686
 7886SOL     OW35290   3.233   2.191   2.463  0.2874 -0.2910  0.0869
 7886SOL    HW135291   3.196   2.234   2.540  1.5911  0.0907  0.5022
 7886SOL    HW235292   3.179   2.244   2.403  0.2826  0.9664  1.1995
 7887SOL     OW35293   3.845   3.183   8.364 -0.2094  0.4507 -0.4244
 7887SOL    HW135294   3.853   3.089   8.347 -0.6582  0.1646  0.9513
 7887SOL    HW235295   3.888   3.186   8.450  1.0363 -0.0380 -1.0409
 7888SOL     OW35296   3.011   3.199   8.524 -0.3010 -0.4817 -0.9619
 7888SOL    HW135297   3.012   3.103   8.531 -0.2677 -0.3200  1.1301
 7888SOL    HW235298   3.029   3.225   8.614  1.1597 -0.3327 -1.2924
 7889SOL     OW35299   2.494   2.397   3.949  0.1482  0.2368 -0.1316
 7889SOL    HW135300   2.401   2.411   3.935  0.3761  1.7771 -0.0572
 7889SOL    HW235301   2.520   2.359   3.865 -1.3999 -1.1598  0.0151
 7890SOL     OW35302   2.815   0.044   5.315  0.2279  0.4955 -0.0948
 7890SOL    HW135303   2.832   4.717   5.251  0.8037  0.3508  0.2143
 7890SOL    HW235304   2.848   0.002   5.395 -3.5595  0.9664  1.7375
 7891SOL     OW35305   0.721   1.581   1.049 -0.2552  0.2475  0.0318
 7891SOL    HW135306   0.676   1.623   0.975 -1.2746 -2.2626 -0.7579
 7891SOL    HW235307   0.738   1.498   1.006 -1.0041  0.3744 -0.4999
 7892SOL     OW35308   3.159   1.536   5.985 -0.0628 -0.1884 -0.3050
 7892SOL    HW135309   3.097   1.504   6.051 -0.4273  1.0615 -0.0523
 7892SOL    HW235310   3.241   1.506   6.024 -0.5553 -1.1888 -0.0330
 7893SOL     OW35311   2.937   2.146   4.803 -0.2874 -0.8025  0.0344
 7893SOL    HW135312   2.957   2.173   4.713  0.8952  0.0836  0.5756
 7893SOL    HW235313   2.944   2.225   4.856 -0.1191 -1.6591  1.2954
 7894SOL     OW35314   4.739   1.414   2.750  0.2594  0.6517 -0.0576
 7894SOL    HW135315   4.695   1.374   2.825  0.9172  1.3297  0.6843
 7894SOL    HW235316   0.089   1.427   2.773  0.6385  1.1968 -1.8586
 7895SOL     OW35317   2.707   3.373   5.164 -0.9571 -0.0893  0.1335
 7895SOL    HW135318   2.798   3.349   5.144 -1.4773 -0.2505 -2.0863
 7895SOL    HW235319   2.675   3.288   5.193  1.6873 -1.5409 -1.1284
 7896SOL     OW35320   1.121   3.046   1.021  0.3852 -0.6058  0.0419
 7896SOL    HW135321   1.140   2.954   1.037  1.1231 -0.4345  0.1171
 7896SOL    HW235322   1.119   3.048   0.925 -0.0424  0.1524  0.0648
 7897SOL     OW35323   1.582   0.960  15.397 -0.8316  0.0051  0.9764
 7897SOL    HW135324   1.603   0.949  15.489  0.3601 -1.1827  0.5508
 7897SOL    HW235325   1.634   0.897  15.346 -0.0929  1.7786 -0.4661
 7898SOL     OW35326   3.762   2.877   8.562  0.2461  0.3382 -0.3507
 7898SOL    HW135327   3.790   2.899   8.651 -0.2516  0.4645 -0.2194
 7898SOL    HW235328   3.668   2.861   8.576  0.1689  0.8871 -0.2191
 7899SOL     OW35329   3.582   3.760   4.890  0.1538  0.0577  0.8656
 7899SOL    HW135330   3.586   3.665   4.879  1.0095  0.3312 -1.1318
 7899SOL    HW235331   3.668   3.779   4.853  0.5728  0.3005  1.9579
 7900SOL     OW35332   0.297   0.613   7.250  0.4125  0.3964 -0.3378
 7900SOL    HW135333   0.346   0.664   7.315 -0.3721  0.9321 -0.1671
 7900SOL    HW235334   0.358   0.549   7.213 -1.5174 -1.4516 -0.3572
 7901SOL     OW35335   0.049   0.365   7.463  0.7705 -0.3749 -0.9820
 7901SOL    HW135336   0.001   0.425   7.520  1.5987 -1.1373  0.5363
 7901SOL    HW235337   4.725   0.296   7.455  0.3010 -0.2780  2.1163
 7902SOL     OW35338   2.875   0.622   8.748 -0.2468 -0.5494  0.7021
 7902SOL    HW135339   2.836   0.593   8.831  1.1601 -2.2970  0.7445
 7902SOL    HW235340   2.942   0.682   8.780 -0.0403 -0.2054 -0.3892
 7903SOL     OW35341   1.643   4.068  14.351  0.3671  0.1451  0.1632
 7903SOL    HW135342   1.595   4.130  14.406  0.8965  1.6612 -1.0967
 7903SOL    HW235343   1.570   4.012  14.325  0.6413 -0.6110  1.0144
 7904SOL     OW35344   3.370   2.373   8.952 -0.4576 -0.0418  0.0417
 7904SOL    HW135345   3.431   2.352   9.023 -3.6154  0.1066  2.7850
 7904SOL    HW235346   3.376   2.468   8.947 -0.1464 -0.0584  0.0749
 7905SOL     OW35347   3.544   3.867   8.552  0.5730  0.1993  0.0664
 7905SOL    HW135348   3.605   3.920   8.602 -0.5254  2.7537 -1.3174
 7905SOL    HW235349   3.566   3.896   8.464  0.1059 -0.1260 -0.1595
 7906SOL     OW35350   2.925   4.397   7.925 -0.2043  0.6610 -0.1179
 7906SOL    HW135351   2.938   4.489   7.949 -2.4102  0.7799  0.6571
 7906SOL    HW235352   2.907   4.365   8.013  1.0119  0.0146 -0.1008
 7907SOL     OW35353   0.156   2.439   2.096 -0.8534 -0.1463  0.1264
 7907SOL    HW135354   0.152   2.405   2.006 -0.3513  2.1958 -0.8008
 7907SOL    HW235355   0.090   2.384   2.137 -2.0039  0.5398 -0.7724
 7908SOL     OW35356   0.662   2.591   7.523 -0.6434  0.1541  0.3294
 7908SOL    HW135357   0.632   2.520   7.466  0.3906  0.4933 -0.6309
 7908SOL    HW235358   0.598   2.567   7.591  0.1435 -1.1216  0.6279
 7909SOL     OW35359   2.383   3.164  10.041  0.3899  0.3609  0.0765
 7909SOL    HW135360   2.456   3.163  10.102 -0.3858  1.4706  1.0060
 7909SOL    HW235361   2.333   3.093  10.080 -1.6649  1.9708  0.3980
 7910SOL     OW35362   3.790   0.029   6.716  0.2500 -0.0404 -0.0325
 7910SOL    HW135363   3.724   0.086   6.756 -0.1044 -0.9611  0.6846
 7910SOL    HW235364   3.848   0.013   6.791 -1.6162  1.4037  1.7006
 7911SOL     OW35365   0.155   3.403   8.129 -0.2503  0.2963  0.4647
 7911SOL    HW135366   0.185   3.487   8.164 -0.0596  2.1507 -4.1698
 7911SOL    HW235367   0.093   3.379   8.198  0.3061  2.0582  1.5767
 7912SOL     OW35368   2.590   0.762   7.878  0.1743 -0.0940 -0.1707
 7912SOL    HW135369   2.613   0.805   7.960 -0.0039 -0.2292 -0.0483
 7912SOL    HW235370   2.500   0.728   7.876  0.8060 -1.6175 -2.3660
 7913SOL     OW35371   2.798   4.372   2.236  0.1891  0.9059  0.2787
 7913SOL    HW135372   2.876   4.343   2.189 -1.0604  1.2734 -1.9910
 7913SOL    HW235373   2.804   4.324   2.319 -2.1307 -1.8813 -1.1577
 7914SOL     OW35374   4.580   0.579   3.364 -0.0153 -0.1805 -0.0839
 7914SOL    HW135375   4.500   0.603   3.317 -0.6614 -1.8222  0.1589
 7914SOL    HW235376   4.558   0.600   3.455  1.5432  0.1121  0.2136
 7915SOL     OW35377   0.283   1.981   1.944  0.1032  0.7892  0.3613
 7915SOL    HW135378   0.238   1.927   1.879  1.4493  0.5020 -0.3455
 7915SOL    HW235379   0.265   2.070   1.917  1.9275  1.4593  1.3585
 7916SOL     OW35380   3.911   4.520  17.591  0.5065  0.1001  0.6538
 7916SOL    HW135381   3.837   4.534  17.532  1.8029  0.2214 -0.9286
 7916SOL    HW235382   3.870   4.477  17.667  2.2972  0.6726  1.9341
 7917SOL     OW35383   3.299   4.291  13.629 -0.5543 -0.9328  0.2904
 7917SOL    HW135384   3.297   4.384  13.605  1.3062 -0.2403  2.7818
 7917SOL    HW235385   3.208   4.271  13.652 -0.5571  0.1167  1.2192
 7918SOL     OW35386   0.140   0.110   5.826  0.9214 -0.1100 -0.2342
 7918SOL    HW135387   0.048   0.098   5.801  1.1462  0.9448 -1.5693
 7918SOL    HW235388   0.120   0.155   5.908  2.3522 -0.5651  0.3557
 7919SOL     OW35389   4.299   4.645   8.439 -0.1878  0.9490  0.7443
 7919SOL    HW135390   4.331   4.718   8.386  2.1357 -0.3596  0.3354
 7919SOL    HW235391   4.230   4.604   8.388 -1.3585  2.5119  1.0887
 7920SOL     OW35392   3.169   1.251   0.048  0.2209 -0.5194  0.0753
 7920SOL    HW135393   3.179   1.250  17.717  1.0565 -1.7773  0.1858
 7920SOL    HW235394   3.239   1.304   0.086 -0.2649 -0.6430  1.1494
 7921SOL     OW35395   0.588   1.478   4.255  0.0924 -0.1368  0.0037
 7921SOL    HW135396   0.623   1.465   4.343 -1.6017  1.7816  0.9608
 7921SOL    HW235397   0.650   1.416   4.216 -3.2678 -3.1733 -0.4798
 7922SOL     OW35398   4.569   2.305   8.590 -1.0092  0.5561 -0.1408
 7922SOL    HW135399   4.487   2.275   8.629 -0.9143  0.4158 -0.0523
 7922SOL    HW235400   4.610   2.225   8.559 -0.3895  0.6337  0.4860
 7923SOL     OW35401   0.166   0.405   2.324  0.0089  0.5067  0.7067
 7923SOL    HW135402   0.209   0.376   2.404  2.3640 -0.8944 -1.0485
 7923SOL    HW235403   0.182   0.499   2.329 -0.6312  0.6580 -0.1529
 7924SOL     OW35404   2.611   2.818  17.413 -0.0953 -0.4530 -0.7346
 7924SOL    HW135405   2.649   2.763  17.481 -0.8779 -0.9477 -0.6993
 7924SOL    HW235406   2.630   2.768  17.334 -0.1689 -1.1873 -0.2875
 7925SOL     OW35407   1.793   4.135  11.201 -0.6625 -0.5639  0.1029
 7925SOL    HW135408   1.799   4.101  11.111  0.6342  0.5962 -0.2410
 7925SOL    HW235409   1.819   4.226  11.189 -0.4743 -0.4719  1.2597
 7926SOL     OW35410   0.353   3.774   1.651  0.6876  0.2050  0.7608
 7926SOL    HW135411   0.348   3.861   1.690  0.8222  1.4444 -1.9791
 7926SOL    HW235412   0.403   3.793   1.571  2.4412 -0.5360  1.6673
 7927SOL     OW35413   1.126   0.196  12.913  0.3829 -0.3677 -0.6265
 7927SOL    HW135414   1.213   0.172  12.882 -0.0287 -0.5444 -1.6611
 7927SOL    HW235415   1.144   0.280  12.955 -1.1807 -0.3349 -0.0169
 7928SOL     OW35416   3.982   0.114   9.801  0.3055 -0.1606  0.7409
 7928SOL    HW135417   3.933   0.037   9.828 -0.6383  0.0854 -0.2631
 7928SOL    HW235418   3.916   0.177   9.829 -0.8351 -0.5185 -1.1566
 7929SOL     OW35419   3.803   4.436   7.870  0.4590 -0.2225 -0.0806
 7929SOL    HW135420   3.710   4.460   7.862  0.4062 -0.3038  0.2657
 7929SOL    HW235421   3.835   4.456   7.782  1.4990 -1.8430 -0.0658
 7930SOL     OW35422   2.154   2.935   3.079  0.1268 -0.1307 -0.6505
 7930SOL    HW135423   2.130   2.845   3.101 -1.6892  1.0001  2.0450
 7930SOL    HW235424   2.243   2.932   3.114  0.3418 -0.1969 -1.2107
 7931SOL     OW35425   2.659   3.868  13.396 -0.1129 -0.2729 -0.1329
 7931SOL    HW135426   2.638   3.961  13.406  0.0376 -0.5861  3.1332
 7931SOL    HW235427   2.670   3.865  13.301  0.4691  0.1177 -0.0747
 7932SOL     OW35428   0.081   4.379  12.242  0.1770 -0.0113  0.2088
 7932SOL    HW135429   0.158   4.419  12.282  0.1195  1.4740 -1.1833
 7932SOL    HW235430   0.120   4.332  12.169 -2.1039 -1.0155 -0.3807
 7933SOL     OW35431   4.315   0.431   6.367 -0.1021 -0.1227 -0.4319
 7933SOL    HW135432   4.287   0.495   6.302  0.7132  1.2821  0.6179
 7933SOL    HW235433   4.254   0.427   6.441 -0.6888  1.0253 -0.8509
 7934SOL     OW35434   2.378   2.939   2.590 -0.4921  0.6841 -0.6245
 7934SOL    HW135435   2.463   2.899   2.611 -1.5356  0.7242  3.5968
 7934SOL    HW235436   2.334   2.944   2.674  0.6080 -0.9218  0.0481
 7935SOL     OW35437   4.529   4.697  11.796  0.0096  0.0266  0.0152
 7935SOL    HW135438   4.506   0.028  11.737 -0.8955  2.1965  3.0298
 7935SOL    HW235439   4.443   4.656  11.808  0.6472 -1.1277  0.5530
 7936SOL     OW35440   3.864   2.924  14.222 -0.4804  0.5234 -0.0826
 7936SOL    HW135441   3.946   2.972  14.208  0.2229 -0.2944  1.2952
 7936SOL    HW235442   3.859   2.890  14.132  2.1147 -0.2710  0.0655
 7937SOL     OW35443   1.929   2.912   2.063 -0.0560  0.2760  0.5056
 7937SOL    HW135444   1.897   2.873   2.145  0.4741 -2.6525 -0.7112
 7937SOL    HW235445   1.980   2.834   2.044 -0.0607  0.0807  1.3005
 7938SOL     OW35446   3.394   4.456   9.494 -0.0548  0.5052 -0.2309
 7938SOL    HW135447   3.334   4.525   9.466  0.0535 -1.0590 -4.3253
 7938SOL    HW235448   3.338   4.383   9.520 -0.6262  0.2879 -2.0452
 7939SOL     OW35449   1.888   2.813  10.984  0.3502 -0.7340 -0.1288
 7939SOL    HW135450   1.837   2.867  11.045 -0.8997 -1.0263 -0.9254
 7939SOL    HW235451   1.837   2.802  10.904 -1.1384  0.5428  0.6209
 7940SOL     OW35452   0.464   3.803   9.870 -0.3544  0.3021  0.4350
 7940SOL    HW135453   0.479   3.897   9.861  0.1260  0.0749 -1.0765
 7940SOL    HW235454   0.372   3.805   9.843 -0.0516 -1.3060 -0.7023
 7941SOL     OW35455   2.579   0.824  12.233 -0.2271  0.1330 -0.3310
 7941SOL    HW135456   2.624   0.811  12.317  0.5467  0.1179 -0.7429
 7941SOL    HW235457   2.498   0.865  12.264 -0.1584  0.2364 -0.2874
 7942SOL     OW35458   4.092   0.182   8.377  0.0350  0.2779 -0.5452
 7942SOL    HW135459   4.113   0.139   8.294 -4.5983  1.5307 -2.3520
 7942SOL    HW235460   4.039   0.113   8.415 -0.5617  1.4772  0.7832
 7943SOL     OW35461   2.520   1.603   1.337 -0.5190  0.0368 -0.3488
 7943SOL    HW135462   2.494   1.687   1.374  0.7164 -0.0746  0.7740
 7943SOL    HW235463   2.461   1.537   1.372 -1.9273  0.0602 -2.6822
 7944SOL     OW35464   3.173   0.889   9.070  0.3848  0.2630  0.0990
 7944SOL    HW135465   3.194   0.828   9.141  0.2424  1.0386  0.8078
 7944SOL    HW235466   3.260   0.929   9.062  0.2646  0.5013 -0.0112
 7945SOL     OW35467   0.520   2.379   3.401 -0.4801 -0.1879  0.0352
 7945SOL    HW135468   0.478   2.459   3.432 -0.0208 -0.2707  0.8505
 7945SOL    HW235469   0.453   2.353   3.337  0.1517 -0.9123 -0.3268
 7946SOL     OW35470   2.698   2.463   8.923  0.4216 -0.0783  0.6977
 7946SOL    HW135471   2.773   2.409   8.950  0.4842 -0.2117  0.2530
 7946SOL    HW235472   2.627   2.399   8.925  0.6729 -0.3527  0.7159
 7947SOL     OW35473   4.519   2.662   8.805  0.5984 -0.1894  0.6306
 7947SOL    HW135474   4.610   2.658   8.835  0.8013 -1.4782 -0.1309
 7947SOL    HW235475   4.481   2.644   8.891  1.4019 -1.6377  0.6929
 7948SOL     OW35476   1.096   3.284  16.585  0.3017 -0.3057 -0.3480
 7948SOL    HW135477   1.118   3.196  16.554  0.6338 -0.4850  0.4098
 7948SOL    HW235478   1.061   3.311  16.500  1.6103 -1.1816 -1.1585
 7949SOL     OW35479   0.673   3.284   5.945  0.0515  0.2222  0.2997
 7949SOL    HW135480   0.762   3.250   5.941 -0.2686 -0.5769  0.1099
 7949SOL    HW235481   0.629   3.221   5.887  3.4234 -1.8712  0.0282
 7950SOL     OW35482   2.844   2.147   6.958  0.3848  0.2169 -0.1555
 7950SOL    HW135483   2.812   2.144   7.048  0.0896  0.1320 -0.2620
 7950SOL    HW235484   2.939   2.145   6.966  0.3808 -0.1613 -0.2075
 7951SOL     OW35485   2.885   3.656   5.109 -0.3209 -0.4783  0.2309
 7951SOL    HW135486   2.970   3.698   5.102  0.1649 -1.4674  0.1992
 7951SOL    HW235487   2.873   3.625   5.019 -0.6670 -1.2090  0.5256
 7952SOL     OW35488   3.500   3.020   4.460 -0.4037  0.3735  0.5329
 7952SOL    HW135489   3.491   3.069   4.542  1.1900  2.8500 -0.7633
 7952SOL    HW235490   3.417   2.974   4.457 -0.0253 -0.2132 -0.9774
 7953SOL     OW35491   0.725   2.660   2.692 -0.1017  0.5823 -0.1446
 7953SOL    HW135492   0.781   2.583   2.701 -1.2043  0.2040  3.2405
 7953SOL    HW235493   0.764   2.710   2.620 -0.6305  0.7084 -0.3459
 7954SOL     OW35494   4.636   3.466   9.495 -0.3300  0.3780  0.1950
 7954SOL    HW135495   4.587   3.519   9.433  0.5685  0.4661 -0.4434
 7954SOL    HW235496   4.584   3.386   9.493 -1.3228  1.0400 -0.1389
 7955SOL     OW35497   0.140   1.177   4.068 -0.0840 -0.3828  0.4225
 7955SOL    HW135498   0.052   1.215   4.074 -0.3093 -0.8123 -0.1061
 7955SOL    HW235499   0.189   1.252   4.101 -0.5969  0.0945  0.1066
 7956SOL     OW35500   4.286   0.447  12.943 -0.0003  0.4349  0.2867
 7956SOL    HW135501   4.336   0.372  12.911 -0.7730  1.5150 -3.5398
 7956SOL    HW235502   4.268   0.496  12.862  1.9036 -1.7080 -1.4076
 7957SOL     OW35503   4.138   0.666   3.392 -0.1235 -0.5881 -0.0689
 7957SOL    HW135504   4.173   0.749   3.359  1.9551 -1.4505 -0.0438
 7957SOL    HW235505   4.199   0.599   3.361  0.4095 -0.0833 -0.1066
 7958SOL     OW35506   0.343   3.354   8.445 -0.1860  0.3983 -0.4227
 7958SOL    HW135507   0.311   3.439   8.475  0.6521  0.7356 -0.4942
 7958SOL    HW235508   0.412   3.384   8.386  0.6928  0.5242  0.6708
 7959SOL     OW35509   4.570   2.425   3.408  0.7477  0.1022  0.2681
 7959SOL    HW135510   4.515   2.381   3.343  0.2361  1.7068 -0.4024
 7959SOL    HW235511   4.642   2.365   3.426 -0.3989 -1.6118 -0.9046
 7960SOL     OW35512   1.261   2.811  12.398  0.3038 -0.1274  0.0997
 7960SOL    HW135513   1.321   2.787  12.469  0.2627 -1.3235 -0.2691
 7960SOL    HW235514   1.310   2.881  12.356  0.2262 -0.3684 -0.3952
 7961SOL     OW35515   3.316   2.480   6.114 -0.5919 -0.2778  0.2833
 7961SOL    HW135516   3.386   2.501   6.176 -0.2041 -1.9875  0.4107
 7961SOL    HW235517   3.238   2.497   6.166 -0.8953 -2.4883  0.5419
 7962SOL     OW35518   0.544   1.175   6.146  0.2554 -0.3069  0.5333
 7962SOL    HW135519   0.558   1.234   6.073  1.5826 -0.4125  0.6991
 7962SOL    HW235520   0.610   1.207   6.208  0.0325 -0.0851  0.6564
 7963SOL     OW35521   2.712   4.370   1.110  0.4412  0.4587  0.1558
 7963SOL    HW135522   2.758   4.430   1.051 -0.6654 -2.0063 -3.1373
 7963SOL    HW235523   2.748   4.411   1.189  1.2817 -0.1877  0.1083
 7964SOL     OW35524   2.610   4.594   8.778  0.5893  0.5864  0.3698
 7964SOL    HW135525   2.551   4.667   8.758  0.0635 -0.2597 -1.1635
 7964SOL    HW235526   2.572   4.563   8.861 -0.0338  1.5846  0.4557
 7965SOL     OW35527   2.783   3.944   3.970 -0.0303  0.0503 -0.2593
 7965SOL    HW135528   2.864   3.936   3.921 -0.3389  0.3557 -0.8172
 7965SOL    HW235529   2.718   3.926   3.902 -1.3241 -0.1153  1.0062
 7966SOL     OW35530   4.246   0.394  14.062 -0.2127  0.0071 -0.5826
 7966SOL    HW135531   4.283   0.374  14.148  0.0373  1.7300 -0.2924
 7966SOL    HW235532   4.290   0.476  14.040 -2.2071  1.4512  0.8850
 7967SOL     OW35533   1.543   3.468   3.258  0.8934  0.5715 -0.3676
 7967SOL    HW135534   1.540   3.448   3.352 -0.3085  2.4670  0.0052
 7967SOL    HW235535   1.529   3.386   3.211  0.7587  0.1770  0.3563
 7968SOL     OW35536   1.715   0.740   7.363  0.1033  0.5015 -0.2649
 7968SOL    HW135537   1.805   0.766   7.382 -0.2479  0.4655  1.5026
 7968SOL    HW235538   1.680   0.739   7.452 -1.6761 -2.5084 -1.0017
 7969SOL     OW35539   4.283   1.454  12.023 -0.1078  0.2038  0.1443
 7969SOL    HW135540   4.335   1.459  12.103 -2.0668  0.5993  1.4039
 7969SOL    HW235541   4.336   1.395  11.970  0.8221  1.1225  0.0659
 7970SOL     OW35542   0.253   4.105   7.433 -0.1867 -0.3612 -0.5213
 7970SOL    HW135543   0.331   4.116   7.378  0.9012 -2.0391  0.7133
 7970SOL    HW235544   0.174   4.117   7.380  0.7605  0.7339 -1.6830
 7971SOL     OW35545   0.378   1.490   1.463 -0.0349 -0.0258  0.0684
 7971SOL    HW135546   0.319   1.485   1.388 -0.9223  1.6724  0.6601
 7971SOL    HW235547   0.438   1.418   1.442 -0.5283 -0.5194  0.3567
 7972SOL     OW35548   1.642   0.041  15.131  0.6860 -0.4450 -0.3761
 7972SOL    HW135549   1.625   0.129  15.100  1.4634  0.6428  2.2525
 7972SOL    HW235550   1.627   0.040  15.226  1.9749 -0.7246 -0.1639
 7973SOL     OW35551   0.255   0.364   9.389 -0.0258  0.1610 -0.4064
 7973SOL    HW135552   0.193   0.337   9.457 -0.1494  0.8386 -0.2421
 7973SOL    HW235553   0.220   0.309   9.318 -2.8045 -1.4466  2.1862
 7974SOL     OW35554   1.696   0.754   3.215  0.7958  0.3411 -0.0191
 7974SOL    HW135555   1.688   0.802   3.298  2.8110 -0.0959  0.4200
 7974SOL    HW235556   1.780   0.716   3.242 -0.1130 -0.9602  1.0379
 7975SOL     OW35557   2.306   0.846  17.705 -0.8536  0.2620 -0.6928
 7975SOL    HW135558   2.384   0.853  17.760 -1.4035 -1.8225  0.3493
 7975SOL    HW235559   2.331   0.787  17.633 -1.6683 -0.1603 -0.6292
 7976SOL     OW35560   2.000   0.894  11.080 -0.2628 -0.3321  0.5968
 7976SOL    HW135561   1.962   0.807  11.070  1.9517 -1.1353 -0.9519
 7976SOL    HW235562   1.925   0.951  11.099  0.1978  0.9430 -1.3158
 7977SOL     OW35563   2.240   4.164   9.989 -0.1483  0.2257 -0.4793
 7977SOL    HW135564   2.215   4.074  10.011  2.3804 -0.5524 -0.7920
 7977SOL    HW235565   2.334   4.152   9.973 -0.1954  0.3405 -0.8618
 7978SOL     OW35566   4.527   3.008   6.868  0.3979  0.3546 -0.4290
 7978SOL    HW135567   4.524   2.943   6.798  0.2708  0.3191 -0.3920
 7978SOL    HW235568   4.615   2.993   6.902 -0.3192 -2.5353  0.1052
 7979SOL     OW35569   2.720   1.688  13.278 -0.0942  0.0278  0.2286
 7979SOL    HW135570   2.713   1.767  13.332 -1.4812 -0.0059  0.0836
 7979SOL    HW235571   2.776   1.624  13.322  1.9707  1.7274  0.0909
 7980SOL     OW35572   2.521   2.156  12.135  0.1965  0.0794 -0.0117
 7980SOL    HW135573   2.521   2.147  12.230  1.7656  0.4015  0.0160
 7980SOL    HW235574   2.612   2.181  12.119 -0.1994 -0.5849 -3.3292
 7981SOL     OW35575   0.869   3.453   9.824  0.2074 -0.0353  0.1565
 7981SOL    HW135576   0.806   3.524   9.812  0.1433  0.2350  2.0031
 7981SOL    HW235577   0.822   3.379   9.786 -1.0925 -0.7437  3.1181
 7982SOL     OW35578   0.010   4.614  11.888 -0.2208  0.3878 -0.0815
 7982SOL    HW135579   4.691   4.579  11.953 -0.0267  0.7277  0.2832
 7982SOL    HW235580   4.679   4.654  11.840 -0.3197 -0.1352 -0.3559
 7983SOL     OW35581   0.194   2.851  12.533  0.4985  0.1780 -0.8423
 7983SOL    HW135582   0.118   2.857  12.476 -1.3893  0.1082  1.6441
 7983SOL    HW235583   0.262   2.822  12.472 -1.6489 -0.3624 -2.9926
 7984SOL     OW35584   2.427   0.022  12.206 -0.1543 -0.1013  0.0309
 7984SOL    HW135585   2.497   0.041  12.269 -1.2190 -0.8651  1.4211
 7984SOL    HW235586   2.474   0.044  12.125  0.8325  0.4788  0.7627
 7985SOL     OW35587   1.105   2.226  14.620  0.7549  0.3180  0.2203
 7985SOL    HW135588   1.108   2.309  14.573 -0.7359  1.1660  1.6085
 7985SOL    HW235589   1.128   2.255  14.708 -0.0602  0.3199  0.4337
 7986SOL     OW35590   2.482   3.089  13.171  0.1039 -0.1040  0.1147
 7986SOL    HW135591   2.416   3.127  13.113 -1.1695  0.2944  1.8098
 7986SOL    HW235592   2.433   3.026  13.224 -0.2707 -0.6069 -0.8322
 7987SOL     OW35593   3.315   0.575   0.705 -0.1156  0.5347 -0.1864
 7987SOL    HW135594   3.307   0.643   0.771  2.6104  0.1688  0.5275
 7987SOL    HW235595   3.226   0.541   0.699  0.4154 -1.2518  2.2448
 7988SOL     OW35596   4.523   3.731   5.475  0.0732 -0.2897  0.1458
 7988SOL    HW135597   4.510   3.800   5.410  2.7634  0.2950  0.2214
 7988SOL    HW235598   4.617   3.735   5.493  0.0373  2.9794 -0.5368
 7989SOL     OW35599   0.778   2.395   6.326  0.4812  0.0156 -0.7214
 7989SOL    HW135600   0.759   2.415   6.418  1.8132  0.0280 -0.4565
 7989SOL    HW235601   0.697   2.351   6.298 -1.7342  0.9675  4.1285
 7990SOL     OW35602   1.865   0.445   8.233 -0.2267 -0.1524  0.5281
 7990SOL    HW135603   1.945   0.455   8.284  3.0647 -4.4870 -3.8074
 7990SOL    HW235604   1.824   0.377   8.285 -1.5969  0.0624 -0.2703
 7991SOL     OW35605   4.086   3.642   4.938 -0.1655 -0.1034  0.0788
 7991SOL    HW135606   4.174   3.612   4.915 -0.7945 -0.3046 -2.0056
 7991SOL    HW235607   4.109   3.706   5.006  1.5103 -0.1896 -0.4052
 7992SOL     OW35608   2.723   1.094   6.811 -0.5020  0.0296 -0.0051
 7992SOL    HW135609   2.725   1.071   6.718  1.6529 -0.4095  0.1625
 7992SOL    HW235610   2.669   1.025   6.849  1.2604 -1.1093  0.4039
 7993SOL     OW35611   4.181   0.342   6.073 -0.1513 -0.2646  0.2256
 7993SOL    HW135612   4.159   0.251   6.089 -3.2739  0.1299 -1.6863
 7993SOL    HW235613   4.119   0.393   6.126  0.6014 -0.6159  1.4334
 7994SOL     OW35614   4.734   3.268  14.944 -0.2077  0.5770  0.4586
 7994SOL    HW135615   0.054   3.195  14.943  0.1800  0.9041  0.6604
 7994SOL    HW235616   4.700   3.261  14.855  1.7888  2.3192 -0.4329
 7995SOL     OW35617   3.492   4.204   3.150 -0.1807 -0.0707 -0.1957
 7995SOL    HW135618   3.470   4.165   3.066 -0.0251 -1.5952  0.4669
 7995SOL    HW235619   3.417   4.260   3.167 -0.5671 -0.4891 -0.5511
 7996SOL     OW35620   2.877   3.931  10.113 -0.4739  0.1079  0.0119
 7996SOL    HW135621   2.913   3.844  10.097 -3.4229 -1.0389 -0.2483
 7996SOL    HW235622   2.817   3.912  10.185 -0.2697 -0.1213  0.1213
 7997SOL     OW35623   2.795   0.276  15.412 -0.2148 -0.1299 -0.0430
 7997SOL    HW135624   2.836   0.248  15.331  0.2252  1.8480 -0.5202
 7997SOL    HW235625   2.717   0.319  15.377 -0.4856 -1.0694 -0.5742
 7998SOL     OW35626   2.234   3.611   5.706 -0.5611  0.3419 -0.0240
 7998SOL    HW135627   2.229   3.582   5.615  1.7344  0.1105 -0.0819
 7998SOL    HW235628   2.305   3.674   5.699  1.1556 -1.7406 -1.2189
 7999SOL     OW35629   0.987   1.873   4.406  0.2033  0.0521  0.3935
 7999SOL    HW135630   0.902   1.830   4.399  2.3248 -4.0317 -0.0644
 7999SOL    HW235631   1.014   1.828   4.486 -1.0189 -3.3201 -1.1183
 8000SOL     OW35632   4.026   4.270   8.133 -0.3649 -0.5782  0.1615
 8000SOL    HW135633   4.093   4.269   8.065  0.2922  0.7847  0.7786
 8000SOL    HW235634   4.080   4.228   8.200 -0.5357  0.8927  1.2294
 8001SOL     OW35635   3.807   1.058  16.140  0.4937  0.3362  0.5388
 8001SOL    HW135636   3.813   1.126  16.072 -1.8738  1.0043  1.0215
 8001SOL    HW235637   3.722   1.089  16.171 -1.5513 -0.2161 -4.4685
 8002SOL     OW35638   2.160   3.075  16.284 -0.5105  0.0085 -0.0494
 8002SOL    HW135639   2.139   3.169  16.280  0.1207  0.1344 -0.3595
 8002SOL    HW235640   2.245   3.063  16.327 -0.4564  2.0130  0.4162
 8003SOL     OW35641   1.394   4.624   8.350 -0.2472 -0.4259 -0.4982
 8003SOL    HW135642   1.386   4.641   8.256 -1.6849 -1.6970 -0.6150
 8003SOL    HW235643   1.366   4.533   8.364  0.5945 -0.5083  0.5999
 8004SOL     OW35644   4.263   3.534   3.002  0.2835  0.4954  0.4356
 8004SOL    HW135645   4.248   3.455   2.950 -0.6004  1.1797 -0.3455
 8004SOL    HW235646   4.201   3.597   2.965  1.7824  0.0710 -2.8510
 8005SOL     OW35647   3.672   2.266   5.199 -0.3791 -0.2010 -0.7120
 8005SOL    HW135648   3.626   2.220   5.269  0.0828  0.2706 -0.0986
 8005SOL    HW235649   3.756   2.289   5.239 -0.2932  0.1742 -1.0978
 8006SOL     OW35650   4.556   2.901   9.022 -0.2416  0.5314 -0.3769
 8006SOL    HW135651   4.466   2.875   9.044  0.0101 -1.7550 -2.1057
 8006SOL    HW235652   4.552   2.919   8.928  0.5077 -1.8585 -0.8490
 8007SOL     OW35653   4.046   2.123   8.318 -0.2450 -0.4078 -0.0842
 8007SOL    HW135654   3.967   2.120   8.263 -1.0958 -0.6233  1.1406
 8007SOL    HW235655   4.114   2.097   8.257  0.0645 -3.1831  1.4045
 8008SOL     OW35656   0.702   1.628   5.256  0.1415 -0.8099 -0.5013
 8008SOL    HW135657   0.640   1.624   5.184 -0.3930 -1.3716 -0.0029
 8008SOL    HW235658   0.726   1.536   5.267  0.5728 -0.5914  0.3581
 8009SOL     OW35659   4.321   4.150   6.037 -0.0594 -0.1876 -0.0512
 8009SOL    HW135660   4.403   4.123   5.996  0.6504  2.6877 -0.5574
 8009SOL    HW235661   4.271   4.126   5.959 -0.2924  0.6309 -0.1546
 8010SOL     OW35662   2.290   0.481  16.228 -0.0365 -0.2250 -0.2968
 8010SOL    HW135663   2.359   0.513  16.286  0.4842 -2.5169  0.3595
 8010SOL    HW235664   2.215   0.478  16.288 -0.7122 -0.7810 -1.1750
 8011SOL     OW35665   4.673   4.654   7.592  0.4399 -0.2627  0.1448
 8011SOL    HW135666   4.631   4.586   7.538 -1.2560  0.5887  0.3943
 8011SOL    HW235667   4.710   4.602   7.663 -0.1565 -0.7868  0.0720
 8012SOL     OW35668   3.465   0.910   5.700  0.3608  0.0354 -0.1780
 8012SOL    HW135669   3.435   0.821   5.679 -2.3082  0.9008  0.0397
 8012SOL    HW235670   3.416   0.962   5.637  0.4618  1.4983  0.9636
 8013SOL     OW35671   2.020   2.452  17.262  0.4615 -0.6496 -0.6920
 8013SOL    HW135672   1.987   2.427  17.176 -4.7060  1.2724  0.7285
 8013SOL    HW235673   2.027   2.365  17.303 -1.0013 -0.9095 -1.0048
 8014SOL     OW35674   3.433   3.563   9.869  0.3909  0.0341 -0.2813
 8014SOL    HW135675   3.377   3.641   9.864  1.5312  0.8767 -0.0853
 8014SOL    HW235676   3.490   3.589   9.941  0.8575 -2.2259  0.1651
 8015SOL     OW35677   0.930   2.421  12.629 -0.0608  0.3913  1.1078
 8015SOL    HW135678   0.860   2.459  12.575 -0.7991 -0.2125  1.6345
 8015SOL    HW235679   1.007   2.457  12.585  0.5919 -0.0714  1.8721
 8016SOL     OW35680   4.094   1.445   6.246 -0.1455  0.5387  0.2938
 8016SOL    HW135681   4.170   1.426   6.302 -1.1840  0.3405  1.6452
 8016SOL    HW235682   4.123   1.406   6.164 -0.9182 -0.2310  0.3796
 8017SOL     OW35683   0.272   3.576   6.269 -0.5089  0.3531 -0.0709
 8017SOL    HW135684   0.309   3.503   6.319  2.5702  1.8181 -0.2101
 8017SOL    HW235685   0.351   3.609   6.227  0.9838 -2.2620  0.6756
 8018SOL     OW35686   0.508   2.044   7.194 -0.2037 -0.2684 -0.1181
 8018SOL    HW135687   0.483   2.082   7.109  0.3516  3.2062  1.2861
 8018SOL    HW235688   0.460   1.963   7.179 -1.0807  0.2763 -0.3104
 8019SOL     OW35689   0.930   2.006   7.290  0.2212  0.7982  0.2355
 8019SOL    HW135690   1.007   2.013   7.346  0.2910  0.6198  0.1620
 8019SOL    HW235691   0.969   2.022   7.205 -0.1152  1.1197  0.1407
 8020SOL     OW35692   0.367   1.385   0.502  0.3259 -0.0180 -0.5141
 8020SOL    HW135693   0.436   1.347   0.555  3.4928  3.6880 -1.9539
 8020SOL    HW235694   0.426   1.439   0.449  0.6403  0.2049  0.0567
 8021SOL     OW35695   3.866   0.032   6.437 -0.2097 -0.5441  0.0146
 8021SOL    HW135696   3.814   4.700   6.403 -0.9259 -1.7665  3.7386
 8021SOL    HW235697   3.839   0.031   6.529 -1.0319  2.3972 -0.1979
 8022SOL     OW35698   2.259   2.918  12.350  0.1040  0.3551 -0.1386
 8022SOL    HW135699   2.270   3.011  12.332  0.5674 -0.0488 -1.9570
 8022SOL    HW235700   2.173   2.890  12.318  1.0605 -0.8857 -1.6477
 8023SOL     OW35701   0.369   0.035   1.643 -0.3731 -0.4199  0.1242
 8023SOL    HW135702   0.419   0.113   1.670 -0.7076 -0.6585  1.4550
 8023SOL    HW235703   0.295   0.091   1.618 -1.3220 -1.5005  0.5291
 8024SOL     OW35704   3.079   4.672   6.598 -0.2079 -0.3830 -0.6177
 8024SOL    HW135705   3.138   4.628   6.536  1.6691 -1.9711  2.2679
 8024SOL    HW235706   3.116   4.618   6.668 -1.2069 -0.6755 -0.3072
 8025SOL     OW35707   2.907   1.874  11.758 -0.3884  0.1048 -0.1878
 8025SOL    HW135708   2.987   1.890  11.707 -0.0633 -0.4365  0.1526
 8025SOL    HW235709   2.840   1.906  11.697 -1.0198 -0.6918  0.0993
 8026SOL     OW35710   1.184   1.301   4.057  0.2691 -0.1021 -0.0683
 8026SOL    HW135711   1.257   1.262   4.008 -0.4667  1.3964 -2.3300
 8026SOL    HW235712   1.227   1.329   4.137  0.0873 -1.0363  0.3625
 8027SOL     OW35713   4.649   4.150   3.976 -0.3123 -0.4932 -0.3921
 8027SOL    HW135714   4.620   4.081   3.916 -1.5852  0.5887 -1.0259
 8027SOL    HW235715   4.581   4.171   4.040 -0.7476  1.2632 -1.4459
 8028SOL     OW35716   1.938   4.271   1.529 -0.3786  0.1712 -0.3190
 8028SOL    HW135717   2.001   4.200   1.520 -1.9980 -1.2026 -0.7761
 8028SOL    HW235718   1.923   4.296   1.438  0.5631 -0.3560 -0.6236
 8029SOL     OW35719   3.618   0.793   4.632 -0.1014 -0.2829 -0.2362
 8029SOL    HW135720   3.565   0.714   4.641 -0.0569 -0.4181 -1.1697
 8029SOL    HW235721   3.660   0.792   4.546  0.1671  0.8386 -0.1091
 8030SOL     OW35722   0.771   4.537   4.040 -0.4342 -0.5225 -0.7002
 8030SOL    HW135723   0.708   4.475   4.003 -0.4078 -0.3161 -1.0961
 8030SOL    HW235724   0.747   4.613   3.986  0.4994  1.9500  2.3682
 8031SOL     OW35725   0.370   3.069  12.335 -0.1771 -0.5343  0.3685
 8031SOL    HW135726   0.449   3.122  12.340 -0.5421  0.1136 -0.8886
 8031SOL    HW235727   0.402   3.020  12.411  0.3775 -0.7500 -0.0008
 8032SOL     OW35728   4.104   4.520   7.111 -0.3485  0.2253 -0.2388
 8032SOL    HW135729   4.148   4.435   7.115  2.2401  1.7421  3.5720
 8032SOL    HW235730   4.167   4.586   7.140  0.6870 -1.5905  1.5992
 8033SOL     OW35731   3.284   2.316   1.950  0.2254 -0.0737 -0.3683
 8033SOL    HW135732   3.199   2.313   1.995 -0.1011  0.4012 -0.9545
 8033SOL    HW235733   3.299   2.409   1.968  0.7895 -0.3852  0.7472
 8034SOL     OW35734   2.204   1.901   4.292  0.6694  0.1459  0.0317
 8034SOL    HW135735   2.190   1.933   4.203 -0.2718 -0.0334  0.1122
 8034SOL    HW235736   2.279   1.954   4.318 -0.3717  1.1034  1.0605
 8035SOL     OW35737   2.799   0.476   0.818  0.1903  0.3636 -0.3181
 8035SOL    HW135738   2.879   0.424   0.827  0.7448  0.6674 -3.4968
 8035SOL    HW235739   2.821   0.548   0.877 -2.0480 -0.7573  1.8366
 8036SOL     OW35740   1.969   0.184   0.169  0.1327  0.1313  0.6028
 8036SOL    HW135741   1.983   0.122   0.241 -0.3508 -0.1333  0.4653
 8036SOL    HW235742   1.993   0.138   0.089  0.2443  0.8821  0.2008
 8037SOL     OW35743   1.345   0.442   7.708  0.6088  0.4989  0.1695
 8037SOL    HW135744   1.334   0.384   7.632  0.3690 -0.4420  0.9186
 8037SOL    HW235745   1.303   0.525   7.685  1.2190  0.6454 -0.4173
 8038SOL     OW35746   1.982   4.046  17.098  0.2373  0.2028  0.1190
 8038SOL    HW135747   2.017   4.131  17.124 -0.8063  0.8875 -0.7687
 8038SOL    HW235748   1.994   4.043  17.003 -1.6638  0.7775 -0.1329
 8039SOL     OW35749   2.522   0.196   2.500  0.0400 -0.4835 -0.2863
 8039SOL    HW135750   2.584   0.133   2.539 -0.1141  0.0418  0.8074
 8039SOL    HW235751   2.444   0.149   2.469  1.4585 -0.3641 -3.9946
 8040SOL     OW35752   3.519   0.487   2.834  0.3010  0.4883  0.5367
 8040SOL    HW135753   3.507   0.438   2.915 -0.8543  0.9392  0.6368
 8040SOL    HW235754   3.577   0.434   2.779 -1.5768  0.9200 -1.8435
 8041SOL     OW35755   0.049   1.962   3.047  0.4131  0.1009  0.1656
 8041SOL    HW135756   0.081   2.033   3.103  0.1452 -0.1342  0.6225
 8041SOL    HW235757   0.066   1.998   2.960  1.5142 -0.7386  0.0200
 8042SOL     OW35758   1.227   3.326   5.140  0.9363  0.1827  0.3309
 8042SOL    HW135759   1.322   3.327   5.150  0.7345 -0.3264  2.4061
 8042SOL    HW235760   1.220   3.300   5.049  0.4269  3.0541 -0.4629
 8043SOL     OW35761   1.672   0.200   1.646 -0.5740 -0.0536  0.4246
 8043SOL    HW135762   1.749   0.209   1.590  0.8810 -2.4010  2.0026
 8043SOL    HW235763   1.675   0.283   1.693 -1.0306 -0.6101  1.4441
 8044SOL     OW35764   2.010   4.610   4.722 -0.2515  0.4392  0.4936
 8044SOL    HW135765   2.000   4.517   4.704 -1.6458  0.8338 -0.7792
 8044SOL    HW235766   1.929   4.638   4.766 -1.4026 -0.4730 -1.0854
 8045SOL     OW35767   0.063   1.083  17.049 -0.1999 -0.7511 -0.1656
 8045SOL    HW135768   0.051   1.085  17.144  0.6923  0.9827 -0.0922
 8045SOL    HW235769   4.718   1.112  17.020 -0.5267  1.1845  2.6688
 8046SOL     OW35770   3.895   2.305   4.409  0.4879  0.3821 -0.3483
 8046SOL    HW135771   3.926   2.316   4.319  0.4163  1.7619 -0.1971
 8046SOL    HW235772   3.801   2.321   4.403  0.1904  0.0752  3.3495
 8047SOL     OW35773   3.482   1.176  14.613  0.0536  0.4673 -0.1756
 8047SOL    HW135774   3.468   1.267  14.642 -1.7434  0.6868 -1.7858
 8047SOL    HW235775   3.415   1.170  14.545 -2.4511 -1.2404  2.3907
 8048SOL     OW35776   4.078   0.832   5.844  0.0165  0.7654  0.6431
 8048SOL    HW135777   4.050   0.790   5.762 -0.9115  0.7507  0.9590
 8048SOL    HW235778   4.027   0.780   5.907  1.2118 -1.9174 -0.5995
 8049SOL     OW35779   2.392   2.081   0.198  0.0767 -0.2551 -0.6807
 8049SOL    HW135780   2.430   2.112   0.115  1.3815 -1.1113 -0.4012
 8049SOL    HW235781   2.338   2.007   0.171  0.1800 -0.4749 -0.2751
 8050SOL     OW35782   3.214   4.072  13.060  0.1955 -0.4891  0.5265
 8050SOL    HW135783   3.175   3.991  13.095 -1.4964  0.1848  0.2195
 8050SOL    HW235784   3.145   4.100  12.999 -0.3543 -0.8087  0.9969
 8051SOL     OW35785   3.743   0.760   8.012  0.1900 -0.3936 -0.5417
 8051SOL    HW135786   3.829   0.790   7.985  0.9241 -0.5843  1.5631
 8051SOL    HW235787   3.728   0.691   7.947  0.7952 -0.0200 -1.0665
 8052SOL     OW35788   4.493   3.086  12.864  0.1832  0.4659  0.1596
 8052SOL    HW135789   4.468   3.018  12.927  2.1187 -2.1958 -1.9312
 8052SOL    HW235790   4.552   3.040  12.804  0.1487  0.9420 -0.2466
 8053SOL     OW35791   4.567   0.732   8.996  0.6631  0.2846  0.0238
 8053SOL    HW135792   4.633   0.705   9.060  0.7852  1.7296  0.5001
 8053SOL    HW235793   4.577   0.656   8.938 -1.7086  1.2772 -1.6884
 8054SOL     OW35794   2.134   3.114   7.433 -0.3208  0.1410 -0.1953
 8054SOL    HW135795   2.143   3.105   7.338 -0.7372 -0.5789 -0.1650
 8054SOL    HW235796   2.053   3.165   7.436  0.3596  1.1835  0.4146
 8055SOL     OW35797   2.032   3.021   6.472 -0.3871 -0.3655 -0.0256
 8055SOL    HW135798   2.053   2.972   6.393  1.0656  0.2776 -0.0475
 8055SOL    HW235799   2.015   2.953   6.537  0.0448 -0.5112 -0.0679
 8056SOL     OW35800   4.408   3.692   2.397  0.7596  0.5007 -0.5481
 8056SOL    HW135801   4.394   3.738   2.314  0.0270  2.3968  0.6326
 8056SOL    HW235802   4.395   3.599   2.378 -0.6168  1.0541 -2.2981
 8057SOL     OW35803   1.387   0.498  11.547  0.4069  0.3168  0.2654
 8057SOL    HW135804   1.415   0.413  11.514 -0.3495 -0.0062  0.4561
 8057SOL    HW235805   1.394   0.478  11.641  1.4509  0.2454  0.1682
 8058SOL     OW35806   1.229   2.813  16.707 -0.1932  0.4254 -0.0921
 8058SOL    HW135807   1.298   2.756  16.672  1.7885  2.3621  0.6920
 8058SOL    HW235808   1.202   2.864  16.631 -0.9250 -1.2810 -0.9890
 8059SOL     OW35809   0.358   3.579   3.807 -0.0839  0.1927 -0.3070
 8059SOL    HW135810   0.373   3.606   3.716  0.9165 -0.3869 -0.3184
 8059SOL    HW235811   0.369   3.663   3.852 -0.1749 -0.5042  1.0088
 8060SOL     OW35812   1.474   2.919  12.041  0.3432 -0.1681 -0.4280
 8060SOL    HW135813   1.566   2.895  12.057  0.7088 -0.3143 -2.8006
 8060SOL    HW235814   1.481   2.968  11.959 -2.6077 -0.1370 -0.6405
 8061SOL     OW35815   2.001   2.531   2.370  0.5695  0.6377 -0.4998
 8061SOL    HW135816   2.029   2.448   2.333  0.6443  0.3905  0.1037
 8061SOL    HW235817   2.077   2.533   2.428 -0.7185  1.1866  1.1729
 8062SOL     OW35818   2.066   1.005   2.597 -0.6730  0.6380  0.1303
 8062SOL    HW135819   2.059   0.921   2.642 -1.6125  0.9622  0.5886
 8062SOL    HW235820   2.088   1.070   2.664 -1.6068 -0.8483  1.8757
 8063SOL     OW35821   3.265   4.409   9.178 -0.0520  0.3166 -0.0410
 8063SOL    HW135822   3.181   4.455   9.181 -0.5859 -0.6391 -0.6794
 8063SOL    HW235823   3.255   4.364   9.262 -0.1328 -2.0411 -1.3152
 8064SOL     OW35824   0.393   2.958   5.675  0.5141  0.2407  0.1858
 8064SOL    HW135825   0.438   2.914   5.602 -1.1579 -3.4667  1.3842
 8064SOL    HW235826   0.308   2.915   5.675  0.7015 -0.1265 -0.6231
 8065SOL     OW35827   4.710   3.771   5.803 -0.6301 -0.1215  0.0451
 8065SOL    HW135828   4.670   3.797   5.886  0.3805  1.6137 -0.0294
 8065SOL    HW235829   4.720   3.852   5.753  0.1061  0.6445  1.4243
 8066SOL     OW35830   4.393   4.011   5.320  0.3373  0.3841  0.2848
 8066SOL    HW135831   4.451   4.066   5.267  2.3555 -0.0823  2.0172
 8066SOL    HW235832   4.397   3.928   5.272  0.5699  0.0477  0.8893
 8067SOL     OW35833   3.628   1.924   2.388  0.4140  0.5899 -0.5584
 8067SOL    HW135834   3.722   1.911   2.398  0.1585 -1.0583 -0.3981
 8067SOL    HW235835   3.622   2.019   2.398 -1.0561  0.7283 -2.7139
 8068SOL     OW35836   0.234   3.701   7.369 -0.5977 -0.5065 -0.2686
 8068SOL    HW135837   0.312   3.730   7.321 -0.7396 -0.5151 -0.5031
 8068SOL    HW235838   0.182   3.667   7.296  1.6011 -1.5969 -1.3300
 8069SOL     OW35839   0.165   4.193   3.993  0.6308 -0.3506 -0.3499
 8069SOL    HW135840   0.173   4.155   3.905 -0.0441  0.7661 -0.9026
 8069SOL    HW235841   0.075   4.166   4.009  1.4596 -3.2827 -0.5932
 8070SOL     OW35842   2.058   3.942  10.819 -0.6590 -0.1984  0.0500
 8070SOL    HW135843   2.087   3.898  10.900 -1.5337  0.4880  0.7357
 8070SOL    HW235844   2.139   3.975  10.781  0.7256  0.0966  3.2659
 8071SOL     OW35845   0.085   1.608   8.515  0.2232  0.1000 -0.2258
 8071SOL    HW135846   0.059   1.518   8.533  0.1290  0.2649  0.4525
 8071SOL    HW235847   0.026   1.658   8.572  0.8692  0.7825 -0.1606
 8072SOL     OW35848   1.669   3.687   4.122 -0.2275 -0.0044  0.2473
 8072SOL    HW135849   1.762   3.666   4.129 -0.3020  0.3697  2.2502
 8072SOL    HW235850   1.654   3.626   4.049  0.7999  0.6465 -0.5040
 8073SOL     OW35851   1.562   1.805   2.659 -0.2381 -0.2085  0.1265
 8073SOL    HW135852   1.489   1.801   2.721 -1.2138 -0.2593 -1.0209
 8073SOL    HW235853   1.515   1.831   2.580 -1.3749  1.1692  1.2821
 8074SOL     OW35854   2.346   3.356   1.556  0.2961 -0.2594  0.0772
 8074SOL    HW135855   2.335   3.451   1.553  1.7362 -0.2112 -3.0545
 8074SOL    HW235856   2.351   3.326   1.647  2.3931  0.8571  0.3236
 8075SOL     OW35857   0.406   4.261   4.070  0.2589 -0.5814 -0.2529
 8075SOL    HW135858   0.371   4.333   4.122  1.9646  0.4865 -0.5716
 8075SOL    HW235859   0.323   4.224   4.042 -0.7226 -0.0690  1.9525
 8076SOL     OW35860   0.664   0.347   2.260 -0.4249 -0.3893 -0.2549
 8076SOL    HW135861   0.686   0.423   2.206 -0.4301  0.0067  0.3032
 8076SOL    HW235862   0.695   0.365   2.349 -0.7901  0.1926 -0.2467
 8077SOL     OW35863   3.408   4.712   6.766  0.0321 -0.0838 -0.2061
 8077SOL    HW135864   3.457   4.673   6.839  0.4795 -0.2870 -0.6150
 8077SOL    HW235865   3.339   4.648   6.749 -0.9143  0.8403  0.2002
 8078SOL     OW35866   2.022   3.893   3.309  0.2100  0.0891  0.3009
 8078SOL    HW135867   2.095   3.896   3.247 -1.5095  2.0494 -1.5915
 8078SOL    HW235868   1.947   3.889   3.251  0.5128 -1.6547  0.0404
 8079SOL     OW35869   1.085   4.463  12.414 -0.1956 -0.1881 -0.4454
 8079SOL    HW135870   1.065   4.369  12.416  2.5921 -0.8227 -2.8280
 8079SOL    HW235871   1.006   4.495  12.370 -0.2831 -0.2257 -0.3164
 8080SOL     OW35872   0.027   2.537   5.099 -0.1641 -0.1969 -0.2095
 8080SOL    HW135873   4.676   2.557   5.113  0.2610  1.3690  0.3617
 8080SOL    HW235874   0.028   2.539   5.003  1.1246  0.5425 -0.1874
 8081SOL     OW35875   2.791   4.683  16.131  0.4004  0.2564  0.0629
 8081SOL    HW135876   2.866   4.683  16.071 -0.9148  1.5966 -1.5649
 8081SOL    HW235877   2.722   4.726  16.081  2.7879  2.0489 -1.6818
 8082SOL     OW35878   1.474   2.217   4.632 -0.0145 -0.1112  0.3184
 8082SOL    HW135879   1.477   2.310   4.654  1.3190 -0.0386 -0.1659
 8082SOL    HW235880   1.392   2.193   4.589 -1.3384  1.5165  1.9657
 8083SOL     OW35881   4.244   4.619   3.181  0.0462  0.6568 -0.4291
 8083SOL    HW135882   4.294   4.621   3.100  0.3616 -0.4732 -0.2572
 8083SOL    HW235883   4.207   4.705   3.164  0.1142  1.3690  2.8689
 8084SOL     OW35884   2.781   0.320   3.437 -0.0259  0.2373  0.1243
 8084SOL    HW135885   2.818   0.248   3.386 -2.4495 -0.6421 -0.3601
 8084SOL    HW235886   2.769   0.276   3.521  1.7763 -0.3755  0.0714
 8085SOL     OW35887   2.331   0.114   0.261 -0.3169  0.0384 -0.1456
 8085SOL    HW135888   2.294   0.060   0.192  1.9997 -0.6164 -0.8844
 8085SOL    HW235889   2.423   0.091   0.249 -0.4233 -0.1686 -0.5470
 8086SOL     OW35890   4.139   1.341  13.268 -0.1179 -0.4694  0.3966
 8086SOL    HW135891   4.157   1.431  13.295  1.3635 -1.0314  1.2810
 8086SOL    HW235892   4.212   1.295  13.309  1.5832  1.5516 -0.3540
 8087SOL     OW35893   3.686   2.414  10.592  0.5144  0.0089  0.5660
 8087SOL    HW135894   3.668   2.504  10.565 -0.8357 -0.3079  0.3970
 8087SOL    HW235895   3.634   2.398  10.670 -1.7146 -1.4613 -1.1916
 8088SOL     OW35896   3.990   1.479   0.249  0.0057 -0.2309 -0.0705
 8088SOL    HW135897   4.036   1.527   0.317 -0.5994  0.5849 -0.2413
 8088SOL    HW235898   3.900   1.492   0.277  0.0715  2.6970 -1.2237
 8089SOL     OW35899   2.333   1.997  11.992 -0.3434 -0.0935 -0.2380
 8089SOL    HW135900   2.406   2.031  12.043 -0.0698  0.1547 -0.7901
 8089SOL    HW235901   2.303   2.085  11.970 -0.5599  0.6738  3.1825
 8090SOL     OW35902   2.105   0.765   8.274  0.2630 -0.0891 -0.4136
 8090SOL    HW135903   2.022   0.763   8.322  0.1198  2.8538 -0.5396
 8090SOL    HW235904   2.171   0.780   8.341  0.9830 -3.4501 -0.3599
 8091SOL     OW35905   1.118   0.431  11.849 -0.0229 -0.3673  0.0180
 8091SOL    HW135906   1.147   0.355  11.798 -1.3717 -2.5395  2.4689
 8091SOL    HW235907   1.194   0.487  11.834 -1.6929  1.5053 -1.3337
 8092SOL     OW35908   2.817   2.716   9.552  0.0741  0.2097  0.1885
 8092SOL    HW135909   2.750   2.739   9.488 -1.2681 -1.1630  1.0857
 8092SOL    HW235910   2.788   2.763   9.631 -0.8524 -2.0931  1.2293
 8093SOL     OW35911   3.745   4.668   4.019 -0.6882 -0.7165  0.1969
 8093SOL    HW135912   3.729   4.629   3.933 -0.0912  1.3884 -0.8541
 8093SOL    HW235913   3.764   4.595   4.079 -1.3041 -2.2794 -1.5142
 8094SOL     OW35914   2.873   0.164   6.725 -0.6702  0.3922 -0.5150
 8094SOL    HW135915   2.861   0.259   6.727  2.0119  0.7633 -0.9809
 8094SOL    HW235916   2.830   0.143   6.642  0.5318  0.9005 -1.2684
 8095SOL     OW35917   3.725   2.755   7.407  0.0643 -0.0893  0.3959
 8095SOL    HW135918   3.633   2.774   7.389 -0.3169 -1.7994  0.5711
 8095SOL    HW235919   3.734   2.665   7.378  0.0756 -0.1437  0.5691
 8096SOL     OW35920   1.893   3.214   7.347 -0.1397 -0.2786 -0.2590
 8096SOL    HW135921   1.800   3.235   7.349 -0.0555 -0.2129  2.1977
 8096SOL    HW235922   1.911   3.134   7.297  0.0646 -0.9661  0.9325
 8097SOL     OW35923   0.467   0.098   9.130 -0.2480 -0.1285 -0.3224
 8097SOL    HW135924   0.485   0.085   9.036 -1.3601 -0.0719 -0.5341
 8097SOL    HW235925   0.498   0.018   9.173  0.6004 -0.9750 -2.4834
 8098SOL     OW35926   4.469   2.626   5.875 -0.3677  0.7147  0.7619
 8098SOL    HW135927   4.451   2.543   5.921 -0.0475  0.0102 -0.3985
 8098SOL    HW235928   4.424   2.602   5.794 -0.9534  1.0106  0.9950
 8099SOL     OW35929   3.790   1.937   3.591 -0.4765  0.0404  0.2802
 8099SOL    HW135930   3.864   1.919   3.533 -1.3187  1.7523 -1.3191
 8099SOL    HW235931   3.723   1.961   3.527  0.3059 -2.4880 -1.4690
 8100SOL     OW35932   1.568   3.846  12.409  0.2891 -0.0390 -0.5845
 8100SOL    HW135933   1.491   3.896  12.383 -0.9976 -2.2522 -1.0008
 8100SOL    HW235934   1.589   3.880  12.496 -1.4342 -0.5078  0.0132
 8101SOL     OW35935   3.627   2.798  10.057 -0.4543 -0.0607  0.0607
 8101SOL    HW135936   3.713   2.763  10.033 -1.2505 -0.6976 -1.9052
 8101SOL    HW235937   3.650   2.851  10.133 -2.2376  0.5007  0.1998
 8102SOL     OW35938   4.678   3.954   2.343 -0.1100  0.2039 -0.2728
 8102SOL    HW135939   4.709   3.920   2.259  1.2712  4.2738 -1.3939
 8102SOL    HW235940   4.613   3.891   2.374 -0.7120  0.3637 -1.1977
 8103SOL     OW35941   3.221   3.820   5.797  0.7969 -0.0070  0.0736
 8103SOL    HW135942   3.146   3.854   5.845  1.2074  0.7657  0.1586
 8103SOL    HW235943   3.225   3.886   5.728  1.1750  0.1019  0.1982
 8104SOL     OW35944   3.984   2.540   4.639 -0.2604 -0.7276  0.2296
 8104SOL    HW135945   4.029   2.624   4.637 -1.8620  0.1353  0.5535
 8104SOL    HW235946   3.974   2.517   4.547  0.2165 -1.3601  0.3297
 8105SOL     OW35947   3.290   3.606   5.929 -0.4259 -0.2288 -0.0439
 8105SOL    HW135948   3.358   3.634   5.989 -0.9637 -0.8551  0.8611
 8105SOL    HW235949   3.269   3.692   5.894 -0.5711  0.1303  0.9372
 8106SOL     OW35950   4.052   4.634  14.617 -0.5629 -0.3943 -0.1591
 8106SOL    HW135951   3.971   4.594  14.648 -0.7930  1.6978  2.0061
 8106SOL    HW235952   4.017   4.703  14.561  0.0714  0.6855  0.7521
 8107SOL     OW35953   2.899   4.525   6.920  0.1230  0.0343 -0.5487
 8107SOL    HW135954   2.956   4.595   6.951  1.2022 -1.6381  1.2195
 8107SOL    HW235955   2.950   4.445   6.931 -2.0616 -1.2086  0.6861
 8108SOL     OW35956   0.986   0.257  16.045 -0.1321  0.4049  0.6239
 8108SOL    HW135957   0.963   0.302  16.126 -1.9694 -0.5871  0.6519
 8108SOL    HW235958   0.964   0.166  16.065 -2.2568  0.9956  0.9825
 8109SOL     OW35959   1.673   1.507   5.237 -0.0999 -0.3945  0.3304
 8109SOL    HW135960   1.625   1.437   5.192 -1.5315  0.0342  1.1773
 8109SOL    HW235961   1.711   1.465   5.314  1.8367 -0.5236 -0.7082
 8110SOL     OW35962   0.869   4.564  16.898  0.1488  0.4465  0.1442
 8110SOL    HW135963   0.838   4.628  16.833 -1.1500  1.4153  1.7223
 8110SOL    HW235964   0.794   4.559  16.956 -1.1318 -1.2794 -1.6457
 8111SOL     OW35965   0.641   2.001   1.972 -0.0664 -0.2258  0.1673
 8111SOL    HW135966   0.586   2.019   1.896 -1.3019  1.7973  1.5416
 8111SOL    HW235967   0.578   2.002   2.045 -0.2135 -4.0582  0.0964
 8112SOL     OW35968   0.936   4.579   8.097 -0.2906  0.7653  0.3888
 8112SOL    HW135969   1.030   4.586   8.081 -0.6589  1.3325 -1.5514
 8112SOL    HW235970   0.918   4.559   8.005  0.1001  1.6557  0.1182
 8113SOL     OW35971   1.296   2.290   3.755  0.0050 -0.1094  0.2551
 8113SOL    HW135972   1.255   2.208   3.727 -0.1665  0.3365 -0.8142
 8113SOL    HW235973   1.233   2.318   3.821 -1.1602 -0.9837 -0.4953
 8114SOL     OW35974   3.407   3.898  10.378 -0.3736 -0.0403  0.1160
 8114SOL    HW135975   3.491   3.932  10.348 -1.7293  3.3917  0.1757
 8114SOL    HW235976   3.438   3.852  10.457  1.8933  0.9625 -0.1720
 8115SOL     OW35977   3.445   3.608   6.675 -0.2360  0.8565 -0.2015
 8115SOL    HW135978   3.454   3.687   6.620 -0.0874  1.1091  0.1879
 8115SOL    HW235979   3.351   3.592   6.688  0.1575 -0.5691  0.8882
 8116SOL     OW35980   1.523   1.294   5.093 -0.2097  0.0228  0.0795
 8116SOL    HW135981   1.483   1.250   5.168 -2.5009  0.9044 -0.6188
 8116SOL    HW235982   1.454   1.270   5.030  0.1382  3.3634 -1.5992
 8117SOL     OW35983   2.290   2.281   7.280  0.1874 -0.4651  0.2391
 8117SOL    HW135984   2.342   2.281   7.361  1.9238  0.7626 -0.8919
 8117SOL    HW235985   2.357   2.251   7.219  0.1960 -1.4346  0.7194
 8118SOL     OW35986   3.129   0.461  15.201 -0.7447  0.0088 -0.1992
 8118SOL    HW135987   3.091   0.434  15.285 -0.8845  2.2149  0.4652
 8118SOL    HW235988   3.222   0.447  15.217 -0.3189  1.1207 -1.7817
 8119SOL     OW35989   1.310   4.726   7.205  0.5038  0.0997  0.0513
 8119SOL    HW135990   1.255   4.650   7.185  0.8530  0.1694 -1.1220
 8119SOL    HW235991   1.375   4.683   7.261  0.1268  0.8894  1.1022
 8120SOL     OW35992   4.641   0.052   5.761 -0.1156  0.0834  0.2782
 8120SOL    HW135993   4.631   0.041   5.666 -0.6998  0.0135  0.3446
 8120SOL    HW235994   4.559   0.011   5.789  1.2219 -2.5519  0.2363
 8121SOL     OW35995   2.200   4.233   6.759  0.3811  0.3579 -0.1998
 8121SOL    HW135996   2.149   4.200   6.685 -0.2046  0.8888 -0.0351
 8121SOL    HW235997   2.136   4.240   6.831  1.5725 -0.2116  0.9217
 8122SOL     OW35998   1.923   1.517   5.074 -0.9595  0.2548 -0.4615
 8122SOL    HW135999   1.847   1.506   5.130 -0.3706  4.0016  1.1266
 8122SOL    HW236000   1.908   1.453   5.004 -1.6206  0.1421 -0.2149
 8123SOL     OW36001   1.965   4.585   9.827 -0.1894 -0.0523  0.1377
 8123SOL    HW136002   2.033   4.519   9.838 -1.6498 -1.1353  2.6124
 8123SOL    HW236003   1.906   4.529   9.878 -0.3905  1.8792  2.0106
 8124SOL     OW36004   0.558   0.408   2.695 -0.1514 -0.0238 -0.0349
 8124SOL    HW136005   0.597   0.425   2.781 -1.1985  0.2700  0.3837
 8124SOL    HW236006   0.511   0.490   2.679  0.5267 -0.0724 -2.2362
 8125SOL     OW36007   0.456   3.855   1.382  0.7359 -0.0545  0.3236
 8125SOL    HW136008   0.504   3.908   1.318  1.0037 -1.8959 -0.9980
 8125SOL    HW236009   0.483   3.769   1.351  1.3430 -0.3184  1.5751
 8126SOL     OW36010   1.274   3.848   1.668 -0.4617  0.1682  0.5600
 8126SOL    HW136011   1.261   3.887   1.581  0.0133 -0.8078  0.0495
 8126SOL    HW236012   1.331   3.776   1.644 -1.2916 -0.0129 -0.8870
 8127SOL     OW36013   3.600   2.344   4.769 -0.1889  0.3715  0.6404
 8127SOL    HW136014   3.644   2.374   4.848 -3.1213  1.4765  1.8150
 8127SOL    HW236015   3.682   2.337   4.718  0.6630 -0.2749  2.1113
 8128SOL     OW36016   1.315   4.414   7.650 -0.0975 -0.4991 -0.0887
 8128SOL    HW136017   1.272   4.499   7.660 -1.3898 -1.1734  0.1412
 8128SOL    HW236018   1.261   4.369   7.585  1.4499 -3.3884  0.6522
 8129SOL     OW36019   2.957   3.074   7.020 -0.7141  0.2338  0.0338
 8129SOL    HW136020   3.034   3.131   7.018 -0.2870 -0.3748 -0.8150
 8129SOL    HW236021   2.888   3.131   7.053  0.2547  1.0133  0.7236
 8130SOL     OW36022   2.163   4.175  15.040  0.0805 -0.3941 -0.5251
 8130SOL    HW136023   2.147   4.111  15.110  2.6418 -0.6041 -0.1278
 8130SOL    HW236024   2.241   4.216  15.078  0.2519 -0.5633 -0.6953
 8131SOL     OW36025   1.593   1.781   4.505 -0.0810  0.2788 -0.1556
 8131SOL    HW136026   1.674   1.827   4.528  1.4025 -2.8985  0.9490
 8131SOL    HW236027   1.528   1.811   4.568 -0.8561 -1.6167 -0.0445
 8132SOL     OW36028   3.707   0.714   8.851  0.2065 -0.0500 -0.1910
 8132SOL    HW136029   3.714   0.656   8.927 -1.7967  0.7324  0.5716
 8132SOL    HW236030   3.743   0.792   8.892  1.2484 -2.3281  3.2055
 8133SOL     OW36031   2.646   1.295   5.256 -0.2352  0.1770 -0.2947
 8133SOL    HW136032   2.695   1.333   5.330 -1.7212  1.3762  0.0666
 8133SOL    HW236033   2.655   1.360   5.187 -1.4663 -0.5052 -1.1038
 8134SOL     OW36034   4.189   1.129   6.449 -0.2519 -0.7206 -0.3637
 8134SOL    HW136035   4.224   1.065   6.512  1.2046 -0.6499 -1.1058
 8134SOL    HW236036   4.167   1.194   6.516 -0.3576 -1.5913  0.4474
 8135SOL     OW36037   0.537   2.545  16.374  0.2673  0.0368  0.3452
 8135SOL    HW136038   0.585   2.563  16.455 -0.8431 -1.5397  1.3477
 8135SOL    HW236039   0.556   2.626  16.325  0.5432  0.9327  1.9456
 8136SOL     OW36040   4.345   3.424   2.420  0.5106  0.0883 -0.5993
 8136SOL    HW136041   4.285   3.433   2.493  3.4001 -1.9753  2.0387
 8136SOL    HW236042   4.294   3.380   2.351 -1.3558 -0.0468  0.8627
 8137SOL     OW36043   2.327   2.656  14.334  0.2194  0.1063 -0.7026
 8137SOL    HW136044   2.316   2.741  14.291 -0.3493  0.9274  1.0490
 8137SOL    HW236045   2.421   2.647  14.342  0.4499  3.6255  0.4929
 8138SOL     OW36046   1.717   0.356   9.227  0.1574  0.0016  0.3762
 8138SOL    HW136047   1.716   0.312   9.312 -0.9684 -2.0412 -0.6926
 8138SOL    HW236048   1.799   0.404   9.236 -0.0001  0.1473  0.9994
 8139SOL     OW36049   2.935   2.574   9.782 -0.5805 -0.3095 -0.0766
 8139SOL    HW136050   2.993   2.632   9.831  0.6261  0.9327 -2.9523
 8139SOL    HW236051   2.855   2.626   9.765 -1.9862 -2.3952  0.1880
 8140SOL     OW36052   3.278   1.100   3.868  0.4417 -0.1016  0.0395
 8140SOL    HW136053   3.250   1.104   3.959 -1.6610  4.4495 -0.8134
 8140SOL    HW236054   3.358   1.048   3.877  1.1404  1.2563  1.5007
 8141SOL     OW36055   1.379   1.312   1.421 -0.5858  0.2944  0.2016
 8141SOL    HW136056   1.458   1.365   1.438 -0.1347 -0.4239  0.3200
 8141SOL    HW236057   1.312   1.360   1.470  0.4813 -0.3328  2.2772
 8142SOL     OW36058   0.754   3.146   6.239 -0.1452 -0.2634  0.0131
 8142SOL    HW136059   0.733   3.228   6.284 -1.1165 -0.9057  0.7257
 8142SOL    HW236060   0.718   3.084   6.302 -2.5574  2.4151  1.3252
 8143SOL     OW36061   1.567   2.668   8.302  0.3829  0.6928 -0.2594
 8143SOL    HW136062   1.541   2.758   8.318  2.8282  1.2916  0.3294
 8143SOL    HW236063   1.504   2.636   8.237  1.0017 -0.3456 -0.3588
 8144SOL     OW36064   1.341   2.643   6.536  0.1976  0.1700 -0.4741
 8144SOL    HW136065   1.347   2.728   6.580  1.5883 -1.0521  1.6977
 8144SOL    HW236066   1.433   2.631   6.509  0.6166  1.0594  0.5629
 8145SOL     OW36067   3.236   2.743   9.710  0.0615  0.2604 -0.3842
 8145SOL    HW136068   3.297   2.818   9.710  1.8015 -1.1605  2.0357
 8145SOL    HW236069   3.211   2.742   9.802 -0.7091  0.5471 -0.5922
 8146SOL     OW36070   3.486   4.058   5.297 -0.1162 -0.4314  0.4476
 8146SOL    HW136071   3.503   4.009   5.217 -0.9613 -0.7742  0.4825
 8146SOL    HW236072   3.484   4.146   5.260  0.8317 -0.3448  0.5965
 8147SOL     OW36073   1.261   0.036  17.141  0.0063 -0.2631  0.5064
 8147SOL    HW136074   1.179   4.741  17.173 -1.1776  1.1154 -0.9818
 8147SOL    HW236075   1.306   4.694  17.133 -0.8210 -0.6937  0.3805
 8148SOL     OW36076   3.472   1.369   2.925  0.2154 -0.1703 -0.4034
 8148SOL    HW136077   3.458   1.292   2.870  0.5016  0.2795 -1.1118
 8148SOL    HW236078   3.481   1.334   3.014  0.4833 -2.4031 -1.3084
 8149SOL     OW36079   2.926   3.002  14.959  0.0001 -0.3569  0.1366
 8149SOL    HW136080   2.952   2.911  14.977  3.1860  0.9472  1.9212
 8149SOL    HW236081   2.988   3.050  15.013 -0.1415  0.7010 -0.6437
 8150SOL     OW36082   4.036   2.521   3.110  0.2707 -0.1132  0.6485
 8150SOL    HW136083   3.967   2.560   3.164  0.4052 -1.1826  1.5881
 8150SOL    HW236084   4.096   2.491   3.177  1.4778  0.4481 -0.1789
 8151SOL     OW36085   1.557   1.629   0.792 -0.0652  0.1179 -0.3528
 8151SOL    HW136086   1.646   1.661   0.778  0.1409 -0.6503 -0.7715
 8151SOL    HW236087   1.570   1.537   0.767 -0.8698 -0.4756  1.3733
 8152SOL     OW36088   4.289   1.823   5.423  0.6968  0.3676  0.1677
 8152SOL    HW136089   4.214   1.843   5.367  0.4097 -0.4454  0.2600
 8152SOL    HW236090   4.321   1.746   5.376 -0.5871  1.0493 -1.7870
 8153SOL     OW36091   0.298   1.425   7.998 -0.4474 -0.3720  0.6144
 8153SOL    HW136092   0.326   1.516   8.006 -2.0188  0.0177  1.8106
 8153SOL    HW236093   0.205   1.428   7.977  1.0116  1.1394 -5.4421
 8154SOL     OW36094   3.231   4.671   4.212  1.0108 -0.2271 -0.4450
 8154SOL    HW136095   3.298   4.638   4.273  0.2619  1.4802  1.3067
 8154SOL    HW236096   3.245   4.624   4.130  1.3987 -0.5150 -0.2175
 8155SOL     OW36097   2.886   2.315   9.050 -0.0016 -0.4463  0.0992
 8155SOL    HW136098   2.945   2.289   8.979 -0.0855  2.2122 -0.9608
 8155SOL    HW236099   2.894   2.251   9.120 -2.0040 -0.7992  0.0203
 8156SOL     OW36100   1.796   2.243   4.250  1.2801 -0.0418  0.6204
 8156SOL    HW136101   1.848   2.166   4.271  1.9739 -0.4546 -2.5423
 8156SOL    HW236102   1.754   2.265   4.333  0.9786 -1.1886  0.7666
 8157SOL     OW36103   1.727   0.233   7.522  0.4712  0.3655 -0.5674
 8157SOL    HW136104   1.666   0.307   7.521 -2.0107 -1.7511 -2.1222
 8157SOL    HW236105   1.733   0.212   7.429  1.0780  0.0201 -0.4495
 8158SOL     OW36106   0.355   4.323   5.921 -0.4098 -0.4800 -0.2117
 8158SOL    HW136107   0.337   4.416   5.924 -0.5405 -0.5058 -0.1822
 8158SOL    HW236108   0.421   4.321   5.990 -0.7030 -1.9794  0.0216
 8159SOL     OW36109   1.153   1.980  14.349 -0.3060  0.3126  0.3668
 8159SOL    HW136110   1.134   1.926  14.272 -0.3569 -0.1331  0.6908
 8159SOL    HW236111   1.249   1.978  14.355 -0.3188  0.3208  0.5604
 8160SOL     OW36112   0.756   4.146   2.058  0.1127 -0.1605 -0.1940
 8160SOL    HW136113   0.838   4.151   2.108  0.4833  0.6922 -0.8799
 8160SOL    HW236114   0.718   4.226   2.095 -1.9994  0.0046 -2.7735
 8161SOL     OW36115   4.202   1.041   4.767 -0.4489 -0.3529  0.1931
 8161SOL    HW136116   4.256   0.992   4.829  0.9896  1.6164  0.4875
 8161SOL    HW236117   4.252   1.036   4.686 -0.2417  0.2858  0.2837
 8162SOL     OW36118   1.252   1.584   7.175  0.6616 -0.1771  0.0314
 8162SOL    HW136119   1.333   1.562   7.221  1.1601  0.3752 -0.5801
 8162SOL    HW236120   1.188   1.559   7.241 -0.7599  2.1748 -0.4539
 8163SOL     OW36121   2.581   2.370   1.396 -0.1510 -0.4354 -0.3970
 8163SOL    HW136122   2.670   2.348   1.367 -0.1270  0.1383 -0.7523
 8163SOL    HW236123   2.595   2.464   1.387  0.6870 -0.6802 -1.6315
 8164SOL     OW36124   0.349   2.705   5.457  0.0454 -0.1283  0.2973
 8164SOL    HW136125   0.292   2.716   5.381  1.2729  0.2555 -0.5732
 8164SOL    HW236126   0.415   2.774   5.452 -1.9371  1.6136 -1.8159
 8165SOL     OW36127   3.435   0.085   8.807  0.2202  0.3065 -0.4815
 8165SOL    HW136128   3.381   0.086   8.886  3.8872  0.5378  2.0190
 8165SOL    HW236129   3.361   0.084   8.745 -1.7920  0.5308  1.9441
 8166SOL     OW36130   2.546   4.571   5.056 -0.0217 -0.5036  0.1167
 8166SOL    HW136131   2.539   4.537   4.967  1.5943  1.6223 -0.8327
 8166SOL    HW236132   2.519   4.661   5.038 -0.0872 -0.6697 -0.6432
 8167SOL     OW36133   3.360   1.615   2.821 -0.1445  0.7093 -0.2117
 8167SOL    HW136134   3.287   1.571   2.777 -0.9812 -1.0637  2.9335
 8167SOL    HW236135   3.390   1.548   2.883 -0.7252  1.5408  0.9648
 8168SOL     OW36136   1.755   0.159  12.615  0.1254  0.3168 -0.5623
 8168SOL    HW136137   1.670   0.119  12.597  0.5986 -0.9508  0.0472
 8168SOL    HW236138   1.728   0.225  12.678 -0.8774 -0.2555 -0.4033
 8169SOL     OW36139   0.138   3.548   9.376  0.3331 -0.0350  0.3823
 8169SOL    HW136140   0.055   3.526   9.418 -0.1964  0.5144 -0.3577
 8169SOL    HW236141   0.187   3.554   9.458  1.2209  0.3545 -0.1681
 8170SOL     OW36142   2.136   4.484   0.935 -0.4988 -0.3918  0.2765
 8170SOL    HW136143   2.169   4.512   1.021  0.5723 -2.1190  0.4427
 8170SOL    HW236144   2.215   4.436   0.912  0.1152  0.1297  1.2933
 8171SOL     OW36145   2.316   4.275   3.493  0.2918  0.5118 -0.1913
 8171SOL    HW136146   2.402   4.253   3.456 -0.8123 -1.1412 -1.7622
 8171SOL    HW236147   2.314   4.229   3.577  0.1308 -0.0963 -0.5233
 8172SOL     OW36148   3.927   1.370   7.891  0.4548  0.3996 -0.1765
 8172SOL    HW136149   3.930   1.421   7.810  0.6381  0.9244  0.1580
 8172SOL    HW236150   3.840   1.389   7.927 -0.6551 -0.9712 -2.1372
 8173SOL     OW36151   1.003   1.034  11.106 -0.2771  0.2897 -0.0623
 8173SOL    HW136152   0.943   0.971  11.067  1.0866 -2.9643  3.1326
 8173SOL    HW236153   0.958   1.057  11.188  3.3531  0.5246  1.8600
 8174SOL     OW36154   3.141   1.906   5.322  0.1413 -0.6811  0.5181
 8174SOL    HW136155   3.091   1.959   5.385 -1.3681 -2.3966  0.7665
 8174SOL    HW236156   3.202   1.966   5.280 -1.0569 -1.2952 -2.0560
 8175SOL     OW36157   1.458   0.212   7.830  0.9588  0.1777  0.0270
 8175SOL    HW136158   1.435   0.301   7.802 -0.3658  0.5490  2.3420
 8175SOL    HW236159   1.520   0.233   7.900  0.7220 -0.6304  0.4814
 8176SOL     OW36160   4.413   1.822   4.370  0.3749  0.5502 -0.2397
 8176SOL    HW136161   4.504   1.825   4.399  0.4858  0.7495 -0.6022
 8176SOL    HW236162   4.369   1.887   4.424 -1.2163  0.8463 -1.8770
 8177SOL     OW36163   0.625   3.442  11.315 -0.3164  0.9504  0.1572
 8177SOL    HW136164   0.680   3.406  11.245 -0.7102 -0.0191  0.3366
 8177SOL    HW236165   0.664   3.404  11.394  1.8433  0.5666 -1.1102
 8178SOL     OW36166   0.772   2.750   8.620  0.2011  0.1221 -0.4018
 8178SOL    HW136167   0.775   2.787   8.708 -0.5969 -1.1374  0.1521
 8178SOL    HW236168   0.865   2.738   8.600 -0.3015 -2.3304 -1.2594
 8179SOL     OW36169   3.340   4.126   8.722 -0.2775  0.6325  0.6677
 8179SOL    HW136170   3.377   4.169   8.799  0.5613  0.7352  0.2037
 8179SOL    HW236171   3.369   4.036   8.736 -0.5717  0.1931 -1.5695
 8180SOL     OW36172   4.147   1.743   4.411  0.1200 -0.7970  0.2403
 8180SOL    HW136173   4.238   1.748   4.381  0.5463 -0.7335  1.5373
 8180SOL    HW236174   4.168   1.752   4.504 -0.4347 -2.4972  0.5326
 8181SOL     OW36175   0.617   1.927   4.572  0.1453  0.0929  0.5194
 8181SOL    HW136176   0.652   1.844   4.541  2.3524  0.6444  1.5602
 8181SOL    HW236177   0.674   1.947   4.646  0.9413 -0.9333  0.1680
 8182SOL     OW36178   0.817   4.415   1.302  0.0976 -0.0790 -0.1603
 8182SOL    HW136179   0.750   4.470   1.262 -1.0562 -1.7608 -0.5537
 8182SOL    HW236180   0.765   4.352   1.352 -1.3397 -0.1139 -1.7395
 8183SOL     OW36181   2.471   2.791   8.857  0.3851  0.6101 -0.3764
 8183SOL    HW136182   2.409   2.852   8.897  0.5434  0.1205  0.6280
 8183SOL    HW236183   2.475   2.811   8.764 -0.5326 -0.9778 -0.7533
 8184SOL     OW36184   2.488   4.147   9.888 -0.8570 -0.5473  0.2976
 8184SOL    HW136185   2.567   4.145   9.942  0.5586 -0.9280 -1.7795
 8184SOL    HW236186   2.508   4.222   9.832  2.1430  1.0728  3.5125
 8185SOL     OW36187   4.466   1.696   2.520  0.3527  0.0147 -0.5490
 8185SOL    HW136188   4.489   1.610   2.486  1.3668  0.5151 -1.1399
 8185SOL    HW236189   4.527   1.714   2.591 -1.4140  0.4816  0.8598
 8186SOL     OW36190   1.127   2.160   8.728  0.2322  0.0280  0.2071
 8186SOL    HW136191   1.133   2.232   8.665 -0.6165 -0.9639 -1.0126
 8186SOL    HW236192   1.185   2.093   8.691 -0.2045 -1.1296  1.6085
 8187SOL     OW36193   1.690   1.744  15.106 -0.3126 -0.4450 -0.1598
 8187SOL    HW136194   1.719   1.684  15.175 -1.8217 -1.8907 -0.7901
 8187SOL    HW236195   1.717   1.695  15.029  2.3411  1.9630 -0.7761
 8188SOL     OW36196   1.253   4.643   8.701  0.1774  0.4498  0.2888
 8188SOL    HW136197   1.157   4.645   8.705  0.1954  1.0545  0.5279
 8188SOL    HW236198   1.267   4.570   8.641 -0.7857  1.3615 -1.0512
 8189SOL     OW36199   2.588   1.803   3.965 -0.1445  0.1623  0.4132
 8189SOL    HW136200   2.535   1.788   4.043 -0.1559 -1.9488 -0.0001
 8189SOL    HW236201   2.520   1.798   3.898  0.9615  0.5382 -0.7386
 8190SOL     OW36202   1.428   2.528   3.815 -0.1424 -0.2140 -0.1946
 8190SOL    HW136203   1.402   2.436   3.806  0.8176 -0.5773  0.7457
 8190SOL    HW236204   1.361   2.569   3.869 -0.8185 -1.4329 -0.1090
 8191SOL     OW36205   3.612   4.095  16.913  0.3134 -0.1069 -0.1021
 8191SOL    HW136206   3.605   4.084  16.818 -0.6109 -0.8861  0.0585
 8191SOL    HW236207   3.519   4.104  16.934  0.5108 -0.0522  0.7585
 8192SOL     OW36208   0.195   1.890   6.119  0.3673 -0.0730 -0.0448
 8192SOL    HW136209   0.281   1.858   6.094  1.3536  1.9640  0.7751
 8192SOL    HW236210   0.198   1.978   6.081 -0.3605  0.8146  1.9390
 8193SOL     OW36211   4.249   0.558   8.547  0.3631 -0.6265  0.3361
 8193SOL    HW136212   4.219   0.594   8.630 -0.5137 -0.0642 -0.2277
 8193SOL    HW236213   4.194   0.616   8.495  1.1066 -3.0985 -3.2214
 8194SOL     OW36214   2.365   3.248   6.843  0.2533 -0.4843 -0.4231
 8194SOL    HW136215   2.311   3.195   6.784 -1.1551 -1.4714  1.7215
 8194SOL    HW236216   2.445   3.258   6.791 -0.0622  1.0107 -0.6352
 8195SOL     OW36217   4.142   4.065   2.355  0.2192  0.0989  0.2457
 8195SOL    HW136218   4.150   4.153   2.392 -1.1466  0.5681 -0.5587
 8195SOL    HW236219   4.122   4.090   2.265 -1.0404  0.1285  0.5397
 8196SOL     OW36220   3.071   0.400   2.635 -0.3221 -0.3444 -0.2677
 8196SOL    HW136221   3.117   0.472   2.677  0.9365 -1.4621  0.2681
 8196SOL    HW236222   3.002   0.433   2.577 -2.1370 -0.1215  2.0340
 8197SOL     OW36223   3.759   3.260   4.681 -0.1376  0.4559  0.2287
 8197SOL    HW136224   3.703   3.221   4.748  0.4215  0.6075  0.7870
 8197SOL    HW236225   3.816   3.318   4.732 -1.7842  0.6467  1.8433
 8198SOL     OW36226   4.326   1.953  13.030  0.6217 -0.0376  0.7890
 8198SOL    HW136227   4.255   1.955  12.966  1.8997 -2.4796 -0.6728
 8198SOL    HW236228   4.365   2.040  13.030 -1.7964  1.0707  1.2436
 8199SOL     OW36229   4.155   0.434   9.740 -0.3406 -0.6658 -0.3066
 8199SOL    HW136230   4.157   0.401   9.650  0.3500  1.2373 -0.9987
 8199SOL    HW236231   4.060   0.447   9.742 -0.4203 -1.2741 -0.2154
 8200SOL     OW36232   1.396   1.553   6.225  0.0561 -0.3881  0.1524
 8200SOL    HW136233   1.340   1.631   6.228 -1.6211 -1.5385 -1.2317
 8200SOL    HW236234   1.360   1.522   6.142  0.1096  1.2511 -0.4796
 8201SOL     OW36235   1.587   2.142  13.803 -0.1890  0.1348  0.8258
 8201SOL    HW136236   1.627   2.219  13.844  0.6932 -0.0393  0.3000
 8201SOL    HW236237   1.518   2.119  13.865 -2.1475  1.9658 -0.6844
 8202SOL     OW36238   0.558   1.256   8.046  0.8951  0.6955 -0.2270
 8202SOL    HW136239   0.512   1.184   8.003  0.4177  0.1255  1.2745
 8202SOL    HW236240   0.566   1.324   7.979  0.9509  1.8528  0.9748
 8203SOL     OW36241   2.205   2.209   7.655  0.1796 -0.0215  0.1944
 8203SOL    HW136242   2.219   2.303   7.670 -0.8507  0.3960 -1.4696
 8203SOL    HW236243   2.195   2.179   7.745 -0.0366 -1.2999 -0.2568
 8204SOL     OW36244   1.855   2.318   7.200  0.8498 -0.3655  0.4638
 8204SOL    HW136245   1.793   2.266   7.148  1.2989  0.2855 -0.7244
 8204SOL    HW236246   1.815   2.316   7.287 -0.2221  0.6664 -0.0084
 8205SOL     OW36247   3.497   3.838  12.457  0.0515  0.0008 -0.3384
 8205SOL    HW136248   3.548   3.758  12.444  1.2121  0.5700  0.7987
 8205SOL    HW236249   3.545   3.890  12.521  0.5393 -1.0044  0.1130
 8206SOL     OW36250   1.290   3.447  10.304  0.6623 -0.1324  0.2617
 8206SOL    HW136251   1.241   3.398  10.370  0.1944  1.2033  0.8966
 8206SOL    HW236252   1.306   3.534  10.340  0.4518 -0.2403  0.6165
 8207SOL     OW36253   4.513   2.002   6.021  0.2730  0.1752  0.0739
 8207SOL    HW136254   4.438   1.985   5.965 -0.5901 -0.2227  1.3764
 8207SOL    HW236255   4.481   2.052   6.096  0.9929  0.7265  0.0230
 8208SOL     OW36256   4.323   1.872   7.666  0.1887 -0.0679  0.2146
 8208SOL    HW136257   4.285   1.951   7.629 -1.3789  0.0418  2.0758
 8208SOL    HW236258   4.368   1.907   7.743 -1.1645  0.1496  0.8963
 8209SOL     OW36259   1.853   1.269   4.483 -0.1954  0.2101 -0.9714
 8209SOL    HW136260   1.914   1.272   4.556 -0.6924 -2.2699 -0.4319
 8209SOL    HW236261   1.853   1.358   4.447 -0.5315  1.3920  1.9515
 8210SOL     OW36262   2.818   0.288   9.048  0.1229 -0.2976 -0.4746
 8210SOL    HW136263   2.773   0.262   9.129  1.1388 -1.0051 -0.1410
 8210SOL    HW236264   2.765   0.365   9.028 -0.1615 -0.2697  0.3714
 8211SOL     OW36265   2.655   1.113   4.354 -0.6531  0.0071 -0.0675
 8211SOL    HW136266   2.692   1.169   4.422 -0.6965 -0.8125  0.6153
 8211SOL    HW236267   2.575   1.074   4.389 -1.5435  0.4557 -1.6099
 8212SOL     OW36268   1.666   1.873   5.009 -0.2049  0.1129  0.0975
 8212SOL    HW136269   1.746   1.831   4.979  0.1562 -0.3345  1.7403
 8212SOL    HW236270   1.631   1.923   4.935  0.2680 -0.8079 -0.7418
 8213SOL     OW36271   1.348   3.760   4.771  0.6964 -0.8281  0.2066
 8213SOL    HW136272   1.266   3.804   4.796  1.6850  1.9522 -1.4033
 8213SOL    HW236273   1.325   3.690   4.711  1.2334 -0.3184 -0.5915
 8214SOL     OW36274   1.443   2.712   9.288 -0.5049 -0.4290 -0.2612
 8214SOL    HW136275   1.456   2.621   9.261  0.1618 -0.7017  0.9675
 8214SOL    HW236276   1.512   2.758   9.240  0.1425 -0.1856  0.8996
 8215SOL     OW36277   2.877   0.863   5.636 -0.8594  0.4644  0.1564
 8215SOL    HW136278   2.878   0.887   5.728  0.3506 -1.5189  0.6588
 8215SOL    HW236279   2.858   0.943   5.587 -1.7736  0.2700  0.1947
 8216SOL     OW36280   3.066   1.838   3.074  0.4935  0.2233 -0.2854
 8216SOL    HW136281   3.055   1.804   2.984 -1.5301  0.5218 -0.1362
 8216SOL    HW236282   3.160   1.819   3.080  0.5656  1.1657  1.4265
 8217SOL     OW36283   2.542   4.233   8.625  0.0106 -0.8649 -0.0323
 8217SOL    HW136284   2.509   4.252   8.537  0.1670  0.9849  0.3086
 8217SOL    HW236285   2.633   4.208   8.605 -0.0990 -0.8921 -0.5055
 8218SOL     OW36286   0.450   3.062   9.883  0.1895  0.1363 -0.2815
 8218SOL    HW136287   0.407   2.977   9.874  0.2660 -0.1453  1.9074
 8218SOL    HW236288   0.491   3.069   9.797 -1.1803  0.0180 -0.9404
 8219SOL     OW36289   1.068   3.518   2.510  0.2856 -0.2598 -0.0597
 8219SOL    HW136290   1.070   3.613   2.508  0.5330 -0.2250  2.1849
 8219SOL    HW236291   1.159   3.506   2.539  1.2536  1.8199 -2.2400
 8220SOL     OW36292   0.230   3.579   8.541 -0.4978  0.2759  0.3168
 8220SOL    HW136293   0.194   3.641   8.477 -0.2465 -1.4463 -1.4862
 8220SOL    HW236294   0.270   3.646   8.598  0.2288 -0.5659  0.7939
 8221SOL     OW36295   3.145   2.624   4.727 -0.4715 -0.5490 -0.3989
 8221SOL    HW136296   3.067   2.630   4.783  0.4516  0.8098  0.7489
 8221SOL    HW236297   3.199   2.558   4.769  0.3948  1.2335  1.2982
 8222SOL     OW36298   3.543   3.932   9.130 -0.4620  0.1152  0.0317
 8222SOL    HW136299   3.470   3.981   9.168 -0.9486  0.4399 -1.3323
 8222SOL    HW236300   3.498   3.848   9.136  0.1295 -0.2414 -0.6007
 8223SOL     OW36301   3.650   0.410   5.260 -0.8835 -0.6346  0.3943
 8223SOL    HW136302   3.621   0.497   5.231  2.6896  0.9543  1.6017
 8223SOL    HW236303   3.605   0.358   5.193  0.8625  1.2683 -2.2436
 8224SOL     OW36304   0.237   1.058   3.841  0.4879 -0.2942 -0.2389
 8224SOL    HW136305   0.160   1.081   3.789  0.9491  2.1824  0.1876
 8224SOL    HW236306   0.213   1.103   3.922  2.1781  1.3936 -0.6674
 8225SOL     OW36307   0.771   2.167   6.603  0.2296 -0.4658 -0.1240
 8225SOL    HW136308   0.831   2.105   6.646  1.0531 -0.6817 -1.5692
 8225SOL    HW236309   0.715   2.101   6.562  1.1129 -0.4629 -1.3457
 8226SOL     OW36310   3.117   1.166  12.653  0.2351  0.0008  0.3245
 8226SOL    HW136311   3.120   1.156  12.748  0.6800  0.1828  0.3342
 8226SOL    HW236312   3.045   1.107  12.634 -0.4669  0.6958  0.8228
 8227SOL     OW36313   0.542   1.639   1.951  0.2414 -0.0889 -0.3391
 8227SOL    HW136314   0.565   1.731   1.944 -0.3407  0.1718  1.4639
 8227SOL    HW236315   0.458   1.646   1.996 -0.0025 -1.5982 -0.5470
 8228SOL     OW36316   4.355   3.711   8.309  0.3949 -0.2966  0.0637
 8228SOL    HW136317   4.279   3.751   8.266 -1.3678 -0.2705  3.1784
 8228SOL    HW236318   4.417   3.716   8.237 -0.9915  1.4685 -1.0312
 8229SOL     OW36319   0.640   3.046   9.691 -0.0490 -0.3220 -0.1064
 8229SOL    HW136320   0.586   2.976   9.654 -1.1786  0.6809 -0.3578
 8229SOL    HW236321   0.725   3.018   9.657  0.1585  1.2775 -0.8700
 8230SOL     OW36322   0.100   4.694   9.350 -0.1094 -0.0196 -0.3169
 8230SOL    HW136323   0.013   4.661   9.370 -0.4419  1.9173  1.4023
 8230SOL    HW236324   0.136   4.707   9.438  0.1055 -1.3846 -0.2089
 8231SOL     OW36325   2.039   3.488   7.065 -0.3092 -0.0955  0.4537
 8231SOL    HW136326   1.957   3.444   7.045 -0.0992  1.1189 -3.1306
 8231SOL    HW236327   2.074   3.511   6.979 -1.3674  2.0996  0.6196
 8232SOL     OW36328   0.569   3.624   8.438 -0.4240  0.2632 -0.3043
 8232SOL    HW136329   0.553   3.681   8.363  1.7058  0.8448 -0.3321
 8232SOL    HW236330   0.598   3.540   8.402  1.7525  0.3437  1.2597
 8233SOL     OW36331   0.120   0.533   8.804 -0.4480  0.5786  0.2808
 8233SOL    HW136332   0.085   0.487   8.727  1.9055 -0.3195 -0.2364
 8233SOL    HW236333   0.100   0.475   8.878 -1.0162 -1.7009 -1.6619
 8234SOL     OW36334   4.214   0.136   3.072  0.2269 -0.0872 -0.0084
 8234SOL    HW136335   4.276   0.159   3.002  0.0779  0.1101 -0.0745
 8234SOL    HW236336   4.140   0.118   3.014 -0.0234 -0.2309  0.3555
 8235SOL     OW36337   4.194   3.022   5.344  0.6499  0.4190  0.2407
 8235SOL    HW136338   4.236   3.088   5.399  2.7212  0.7760 -1.7861
 8235SOL    HW236339   4.269   2.996   5.291  0.2571 -1.0366  0.4156
 8236SOL     OW36340   3.842   0.095   9.331  0.5574 -0.2696 -0.2352
 8236SOL    HW136341   3.768   0.122   9.276 -0.1543 -1.3507  0.1957
 8236SOL    HW236342   3.913   0.111   9.268  1.0177 -0.6344  0.1816
 8237SOL     OW36343   4.359   2.487  17.643 -0.6687 -0.1488  0.1170
 8237SOL    HW136344   4.371   2.394  17.626 -0.4556 -0.4310  1.7792
 8237SOL    HW236345   4.373   2.475  17.737  0.5373 -0.9761 -0.1756
 8238SOL     OW36346   3.014   4.119   9.006  0.2262  0.1001  0.7944
 8238SOL    HW136347   3.109   4.106   9.018  0.0476 -2.0764 -0.0171
 8238SOL    HW236348   2.972   4.085   9.085  1.4304 -0.1007  1.3555
 8239SOL     OW36349   0.074   4.441   5.711  0.2783 -0.0865  0.0740
 8239SOL    HW136350   0.087   4.363   5.657  2.0697  0.2134  0.0571
 8239SOL    HW236351   0.110   4.515   5.662 -1.3021  0.6185 -0.0144
 8240SOL     OW36352   0.822   0.172   8.130  0.4676  0.4097 -0.1965
 8240SOL    HW136353   0.780   0.099   8.086  0.5398  0.5221 -0.4490
 8240SOL    HW236354   0.872   0.120   8.194  0.8757 -3.1606 -3.4631
 8241SOL     OW36355   4.445   2.782   8.281 -0.1250 -0.3039  0.4661
 8241SOL    HW136356   4.497   2.862   8.293  1.5467 -1.4740  0.9417
 8241SOL    HW236357   4.507   2.712   8.301 -0.6963 -1.1643 -0.7877
 8242SOL     OW36358   3.869   0.964   9.434 -0.2526  0.3832  0.0200
 8242SOL    HW136359   3.818   1.043   9.419  2.3048  2.1638  0.6975
 8242SOL    HW236360   3.942   1.005   9.481 -0.5498  0.4880  0.3856
 8243SOL     OW36361   3.726   4.165  10.290 -0.3085  0.2771  0.1487
 8243SOL    HW136362   3.704   4.121  10.207  0.2671 -2.1108  1.2513
 8243SOL    HW236363   3.673   4.243  10.274 -0.3108  0.3675  0.5966
 8244SOL     OW36364   2.232   1.186   3.043 -0.0952 -0.5886  0.2685
 8244SOL    HW136365   2.179   1.142   3.109 -0.1842  0.7201  1.0759
 8244SOL    HW236366   2.319   1.152   3.061  1.5591  3.1903 -0.4497
 8245SOL     OW36367   3.367   1.570   7.233 -0.2436 -0.5425  0.1574
 8245SOL    HW136368   3.426   1.511   7.279  2.3713  2.3361  0.5238
 8245SOL    HW236369   3.416   1.653   7.231  1.0808 -1.3247  0.6139
 8246SOL     OW36370   2.735   4.171  13.060  0.2405 -0.1326 -0.0174
 8246SOL    HW136371   2.769   4.254  13.093  0.1316 -0.2001  0.2677
 8246SOL    HW236372   2.640   4.164  13.072  0.3588 -0.3471  0.8056
 8247SOL     OW36373   1.004   4.099   2.483 -0.6139 -0.0727 -0.4059
 8247SOL    HW136374   1.039   4.047   2.411 -1.3816  0.9655 -1.5378
 8247SOL    HW236375   0.932   4.152   2.448 -0.8200 -0.0047  0.1068
 8248SOL     OW36376   0.066   1.964   8.374 -0.3303  0.2808  0.0556
 8248SOL    HW136377   0.034   2.052   8.355  0.7789  0.1646 -2.3532
 8248SOL    HW236378   4.738   1.924   8.427 -1.9651  0.5937 -1.8646
 8249SOL     OW36379   2.919   0.108  10.377 -0.0407  0.1932 -0.3467
 8249SOL    HW136380   2.941   0.199  10.398 -0.7138  0.5537 -1.2432
 8249SOL    HW236381   2.835   0.096  10.421 -0.0365 -0.1963 -0.4450
 8250SOL     OW36382   2.398   1.257   5.170  0.2889  0.3454  0.3426
 8250SOL    HW136383   2.397   1.169   5.132  0.8493  0.3080  0.4135
 8250SOL    HW236384   2.485   1.268   5.208  0.7076 -2.0971  0.0660
 8251SOL     OW36385   1.931   3.435  12.588  0.0068 -0.2889 -0.1211
 8251SOL    HW136386   1.885   3.353  12.603 -2.1116  0.4006 -2.9208
 8251SOL    HW236387   1.872   3.476  12.525 -0.6929 -2.6423 -1.0021
 8252SOL     OW36388   4.000   3.236   6.890 -0.1959 -0.3360  0.0718
 8252SOL    HW136389   3.935   3.246   6.960  1.0096  1.4703  0.9154
 8252SOL    HW236390   4.028   3.147   6.909  1.8374  0.0597 -1.1000
 8253SOL     OW36391   4.448   3.748   9.711 -0.5332 -0.3277 -0.0786
 8253SOL    HW136392   4.399   3.821   9.673 -0.9680 -0.4704  0.2107
 8253SOL    HW236393   4.449   3.695   9.631 -1.0020  0.0589 -0.3428
 8254SOL     OW36394   4.026   2.680   3.572 -0.2318  0.5504  0.4984
 8254SOL    HW136395   3.955   2.702   3.632  0.7107  2.2226  1.0260
 8254SOL    HW236396   4.086   2.638   3.634 -0.3642  0.3712  0.5043
 8255SOL     OW36397   4.080   4.421   5.700 -0.8061  0.1867  0.3442
 8255SOL    HW136398   4.138   4.351   5.670 -0.9137  0.8149 -1.3223
 8255SOL    HW236399   4.140   4.495   5.687  0.6980 -1.6699 -3.1236
 8256SOL     OW36400   1.423   3.926   0.988  0.2468 -0.0699 -0.1937
 8256SOL    HW136401   1.485   3.913   0.916 -1.0253  0.9316 -1.4505
 8256SOL    HW236402   1.340   3.956   0.952  0.2123 -1.8875 -1.6759
 8257SOL     OW36403   1.470   4.035  17.734  0.1594 -0.4978 -0.0280
 8257SOL    HW136404   1.511   3.995  17.658  0.6485  0.4075 -0.2444
 8257SOL    HW236405   1.481   3.963   0.032 -0.9133 -0.9324 -0.3435
 8258SOL     OW36406   1.959   2.689   7.343 -0.0058  0.8144 -0.3451
 8258SOL    HW136407   2.028   2.624   7.331  1.6333  1.9704  2.7296
 8258SOL    HW236408   1.894   2.640   7.393  0.4678  0.7921  0.2426
 8259SOL     OW36409   2.447   4.255  15.965  0.2806  0.3184  0.8212
 8259SOL    HW136410   2.534   4.266  16.003  2.3875 -0.7950 -3.6584
 8259SOL    HW236411   2.465   4.279  15.874  0.9894 -0.1340  0.8466
 8260SOL     OW36412   0.583   3.586   6.547 -0.4222 -0.0703  0.1025
 8260SOL    HW136413   0.517   3.619   6.486 -0.5784  0.2163  0.4306
 8260SOL    HW236414   0.605   3.669   6.588 -1.5170 -0.0825  0.7194
 8261SOL     OW36415   1.238   2.696  12.764  0.1729  0.2533 -0.6797
 8261SOL    HW136416   1.158   2.682  12.815  1.5116 -0.9993  1.0583
 8261SOL    HW236417   1.247   2.792  12.758 -2.4457  0.6402  1.4606
 8262SOL     OW36418   1.004   3.275   8.435 -0.3263  0.5793  0.1779
 8262SOL    HW136419   0.983   3.304   8.523 -2.6839  0.5006 -0.3769
 8262SOL    HW236420   0.998   3.354   8.381 -0.3683  0.2464 -0.3041
 8263SOL     OW36421   0.944   2.387   4.856  0.5108 -0.1469  0.0589
 8263SOL    HW136422   1.012   2.335   4.899 -0.3175 -0.2910  1.1786
 8263SOL    HW236423   0.887   2.315   4.830 -0.2659 -0.0280  1.4306
 8264SOL     OW36424   0.508   0.106   9.908 -0.1260 -0.2633 -0.3828
 8264SOL    HW136425   0.544   0.082   9.993 -0.2560  1.4516  0.1423
 8264SOL    HW236426   0.553   0.050   9.843  0.4880 -0.8061  0.5099
 8265SOL     OW36427   1.039   2.352  14.024 -0.2334  0.3281 -0.3830
 8265SOL    HW136428   1.019   2.445  14.035 -0.9512  0.1181  0.0664
 8265SOL    HW236429   1.023   2.330  13.932 -0.4623  0.7910 -0.4549
 8266SOL     OW36430   3.192   3.742   9.978  0.2432 -0.1963 -0.0286
 8266SOL    HW136431   3.216   3.775  10.064 -0.4999 -0.3262  0.2234
 8266SOL    HW236432   3.111   3.693   9.992 -0.1429  0.3195 -0.4541
 8267SOL     OW36433   2.013   2.816  12.712 -0.1870  0.1297  0.4270
 8267SOL    HW136434   2.073   2.743  12.698 -1.6082 -1.0134  0.2767
 8267SOL    HW236435   1.980   2.795  12.800 -1.3530 -1.1793 -0.3076
 8268SOL     OW36436   0.260   0.611   7.765  0.3859  0.2933  0.0046
 8268SOL    HW136437   0.300   0.575   7.844  1.2264 -0.0329 -0.5717
 8268SOL    HW236438   0.215   0.534   7.731 -0.1682  0.9031 -0.6432
 8269SOL     OW36439   0.005   2.831   9.405 -0.7184  0.1051 -0.3178
 8269SOL    HW136440   4.712   2.913   9.440  2.1383  1.0356  0.3180
 8269SOL    HW236441   0.032   2.779   9.481 -0.9883 -0.9764 -0.9523
 8270SOL     OW36442   3.667   3.026   4.878 -0.2718 -0.1517 -0.5192
 8270SOL    HW136443   3.647   2.953   4.820 -0.7181 -1.9091  1.8193
 8270SOL    HW236444   3.668   2.985   4.965 -0.6410  1.4512  0.2576
 8271SOL     OW36445   1.325   0.707  17.228 -0.5649 -0.1247 -0.0638
 8271SOL    HW136446   1.341   0.695  17.134  1.3879 -0.1038  0.2633
 8271SOL    HW236447   1.246   0.761  17.230 -0.0960  0.5090  1.3625
 8272SOL     OW36448   1.272   2.871   0.588 -0.0495 -0.4797  0.2026
 8272SOL    HW136449   1.219   2.932   0.538  0.1440 -1.6507 -1.4084
 8272SOL    HW236450   1.332   2.842   0.520 -0.6959 -1.5512  0.0835
 8273SOL     OW36451   1.476   1.778   8.109  0.3794  0.0945 -0.5048
 8273SOL    HW136452   1.434   1.860   8.135  2.9747  1.2953 -0.0963
 8273SOL    HW236453   1.488   1.789   8.015 -0.8765 -0.1015 -0.6884
 8274SOL     OW36454   2.822   3.620   7.192  0.1392  0.4981 -0.3618
 8274SOL    HW136455   2.861   3.704   7.166  1.8723 -0.3021 -0.2886
 8274SOL    HW236456   2.794   3.635   7.282 -1.5793 -3.5366 -0.2247
 8275SOL     OW36457   1.039   1.326   9.335  0.2379  0.1146  0.3659
 8275SOL    HW136458   0.992   1.403   9.367  0.2771  0.4942 -0.4872
 8275SOL    HW236459   1.115   1.362   9.289  1.3604 -3.0194 -0.2663
 8276SOL     OW36460   4.667   2.102   4.677 -0.1036  0.0027  0.2463
 8276SOL    HW136461   4.640   2.169   4.740  0.8616  1.2477 -0.6448
 8276SOL    HW236462   4.718   2.155   4.615  1.8400 -1.3338  0.7266
 8277SOL     OW36463   1.995   0.074   5.139  0.2983  0.3005 -0.5212
 8277SOL    HW136464   2.050   0.136   5.187  1.5075 -0.4710 -0.9107
 8277SOL    HW236465   1.946   0.126   5.076 -0.5085  1.4414  1.0615
 8278SOL     OW36466   3.623   2.543   9.311  0.0499 -0.1577 -0.4451
 8278SOL    HW136467   3.667   2.458   9.317  0.0016 -0.0801  1.2117
 8278SOL    HW236468   3.648   2.553   9.219 -0.8046  0.3942 -0.6171
 8279SOL     OW36469   4.615   0.705   0.690  0.0010 -0.2092  0.1496
 8279SOL    HW136470   4.654   0.713   0.603  0.5527 -2.5878  0.1914
 8279SOL    HW236471   4.654   0.781   0.735  3.1965 -1.5684 -0.3143
 8280SOL     OW36472   0.827   3.727   4.289 -0.2406 -0.6599 -0.0579
 8280SOL    HW136473   0.758   3.704   4.226  0.1240 -3.3666  0.5220
 8280SOL    HW236474   0.778   3.767   4.361  0.3702  0.0552 -0.0452
 8281SOL     OW36475   4.258   1.361   3.786 -0.0994  0.8559  0.0257
 8281SOL    HW136476   4.338   1.405   3.814 -0.7796  0.2686  2.8566
 8281SOL    HW236477   4.211   1.438   3.756 -0.4360  0.6578  0.0404
 8282SOL     OW36478   3.194   3.129  13.711  0.4109  0.7463 -0.0005
 8282SOL    HW136479   3.147   3.055  13.750  0.5107  0.2210 -0.8768
 8282SOL    HW236480   3.114   3.179  13.700  0.7317  1.5048  1.0627
 8283SOL     OW36481   2.091   2.662   9.001 -0.2650  0.5374 -0.1543
 8283SOL    HW136482   2.179   2.670   9.038 -0.1784 -1.5652  0.0713
 8283SOL    HW236483   2.120   2.630   8.916 -0.8400 -2.2235  0.7154
 8284SOL     OW36484   2.958   4.092   5.713  0.3513 -0.4754  0.7902
 8284SOL    HW136485   2.963   4.136   5.797  0.8599  1.6510 -0.3591
 8284SOL    HW236486   3.051   4.078   5.696 -0.1785 -0.0340 -2.4388
 8285SOL     OW36487   4.506   3.448   6.300  0.3771  0.1602 -0.6451
 8285SOL    HW136488   4.479   3.462   6.209  0.6277  0.2351 -0.7081
 8285SOL    HW236489   4.598   3.457   6.276  0.7963 -0.1345  0.8841
 8286SOL     OW36490   0.925   4.092   4.468  0.0179 -0.1662  0.2173
 8286SOL    HW136491   0.950   4.102   4.560  1.5587  0.5722 -0.2891
 8286SOL    HW236492   0.985   4.024   4.440 -0.6082 -1.3633  1.7873
 8287SOL     OW36493   0.741   4.400   7.953 -0.3570 -0.1059  0.3789
 8287SOL    HW136494   0.660   4.404   7.902  0.1473 -0.9564 -0.4995
 8287SOL    HW236495   0.807   4.383   7.886 -0.7879 -0.0480 -0.0606
 8288SOL     OW36496   2.872   3.377   6.173  0.0934  0.5333 -0.1204
 8288SOL    HW136497   2.829   3.321   6.108  0.0349  0.2302  0.1826
 8288SOL    HW236498   2.908   3.314   6.236 -0.2484  1.0308  0.5632
 8289SOL     OW36499   4.094   0.121   6.235 -0.7087  0.3648  0.2302
 8289SOL    HW136500   4.105   0.032   6.201  0.4124  0.8470 -0.7098
 8289SOL    HW236501   4.049   0.106   6.318 -0.6623  1.1090  0.3912
 8290SOL     OW36502   1.598   2.864   4.830 -0.3837 -0.0642 -0.5069
 8290SOL    HW136503   1.538   2.892   4.899 -1.0397  0.3554 -1.2485
 8290SOL    HW236504   1.594   2.933   4.764 -0.3300 -0.0764 -0.5231
 8291SOL     OW36505   2.102   3.405   3.422 -0.1040  1.0135 -0.6143
 8291SOL    HW136506   2.168   3.338   3.408  0.1916  0.9102  1.2617
 8291SOL    HW236507   2.119   3.465   3.350  0.2596 -0.0482 -1.4092
 8292SOL     OW36508   3.189   0.864   8.602 -0.0887  0.0077 -0.2027
 8292SOL    HW136509   3.241   0.942   8.580  0.2326 -0.1973 -0.1710
 8292SOL    HW236510   3.125   0.899   8.664  0.2576  2.4929 -1.2328
 8293SOL     OW36511   3.626   0.298   4.705  0.0289  0.1219 -0.0976
 8293SOL    HW136512   3.582   0.269   4.626  1.4778  0.7568 -1.1430
 8293SOL    HW236513   3.711   0.258   4.690  0.6469  0.3201  2.7665
 8294SOL     OW36514   0.201   1.043   2.434 -0.4755  0.1630 -0.7534
 8294SOL    HW136515   0.216   1.061   2.341  1.2316 -1.6011 -0.8280
 8294SOL    HW236516   0.282   1.079   2.468 -0.3109 -0.1216 -0.8422
 8295SOL     OW36517   3.326   0.517   4.906 -0.1421  0.1950  0.1646
 8295SOL    HW136518   3.263   0.445   4.910 -1.5898  1.3503 -1.4814
 8295SOL    HW236519   3.274   0.576   4.960  0.9894  0.9901  0.4067
 8296SOL     OW36520   2.733   4.487  17.762 -0.5566  0.0000  0.4653
 8296SOL    HW136521   2.788   4.501   0.076 -2.2102 -0.5374  1.7275
 8296SOL    HW236522   2.731   4.392   0.014 -1.3049 -0.2083 -0.8443
 8297SOL     OW36523   0.633   2.239   9.138  0.0905  0.6399  0.2836
 8297SOL    HW136524   0.672   2.289   9.066 -0.0619  1.2276  0.6143
 8297SOL    HW236525   0.669   2.151   9.123  0.5571  0.5481  1.9382
 8298SOL     OW36526   0.961   1.338   1.357  0.3392 -0.0332  0.0208
 8298SOL    HW136527   0.873   1.332   1.396 -0.0359 -1.9687 -1.0869
 8298SOL    HW236528   0.980   1.431   1.348  1.5567 -0.1935  0.8761
 8299SOL     OW36529   4.708   3.680  17.105 -0.6356  0.1995  0.9646
 8299SOL    HW136530   0.012   3.762  17.084  0.3751 -0.0498  2.1420
 8299SOL    HW236531   4.623   3.701  17.068 -0.4942 -0.8269  0.0919
 8300SOL     OW36532   4.159   2.815   1.224 -0.2160  0.3318  0.0080
 8300SOL    HW136533   4.154   2.745   1.289  1.3545 -0.3100 -0.5845
 8300SOL    HW236534   4.194   2.765   1.150  1.9108  0.3471  1.0233
 8301SOL     OW36535   3.966   0.620   3.063  0.0414  0.3432  0.3627
 8301SOL    HW136536   4.037   0.559   3.082 -1.2178 -0.7582  1.5647
 8301SOL    HW236537   3.958   0.631   2.968 -0.6610 -0.3344  0.3382
 8302SOL     OW36538   4.206   2.468   4.471  0.2773 -0.1559 -0.5134
 8302SOL    HW136539   4.208   2.560   4.497 -1.8428 -0.3221  0.2839
 8302SOL    HW236540   4.144   2.467   4.397 -0.4578  1.8676  0.0695
 8303SOL     OW36541   2.873   0.839  15.785 -0.1880  0.1933 -0.0159
 8303SOL    HW136542   2.898   0.792  15.705  0.4182  1.2185 -0.4227
 8303SOL    HW236543   2.884   0.767  15.847  0.0788  0.2876  0.0448
 8304SOL     OW36544   0.210   1.028   7.332 -0.4422 -0.0669  0.3984
 8304SOL    HW136545   0.127   1.065   7.359 -0.5594 -0.6690  0.8527
 8304SOL    HW236546   0.182   0.957   7.274 -0.1193 -0.8725  1.2335
 8305SOL     OW36547   2.882   1.140   2.349  0.5830 -0.4315 -0.2105
 8305SOL    HW136548   2.959   1.161   2.296  0.1248  0.1332 -0.6491
 8305SOL    HW236549   2.830   1.070   2.308  0.7036 -1.4211  1.3286
 8306SOL     OW36550   3.786   3.985  10.476 -0.3940  0.1368  0.2092
 8306SOL    HW136551   3.760   4.044  10.405 -2.1202 -1.0929 -0.1841
 8306SOL    HW236552   3.818   4.050  10.538  0.4525  0.3978 -0.4907
 8307SOL     OW36553   1.832   1.818   7.438 -0.2193  0.3311  0.7022
 8307SOL    HW136554   1.842   1.913   7.446  1.4334  0.3041 -0.7752
 8307SOL    HW236555   1.881   1.814   7.355  2.1608 -1.0290  2.1595
 8308SOL     OW36556   3.867   3.299   7.162 -0.3607 -0.0443 -0.0742
 8308SOL    HW136557   3.793   3.280   7.219 -0.5895 -0.3343 -0.4700
 8308SOL    HW236558   3.933   3.338   7.220 -0.4217 -0.4265  0.2627
 8309SOL     OW36559   2.040   1.701   6.854  0.3965  0.3933 -0.7538
 8309SOL    HW136560   2.050   1.796   6.859  1.1493  0.1893  1.4980
 8309SOL    HW236561   2.090   1.674   6.931 -0.9705  0.1304  0.0265
 8310SOL     OW36562   2.925   2.079  12.273  0.0279  0.2314  0.5435
 8310SOL    HW136563   2.839   2.052  12.304  1.2395 -2.8906  1.2186
 8310SOL    HW236564   2.973   2.002  12.302 -1.6134 -1.3067 -0.8727
 8311SOL     OW36565   3.433   4.457  14.881  0.3668  0.4389  0.3360
 8311SOL    HW136566   3.393   4.523  14.938 -1.3783 -0.1528 -0.1996
 8311SOL    HW236567   3.352   4.415  14.850 -0.6634  1.3078  1.8511
 8312SOL     OW36568   1.188   2.509   6.350  1.0390 -0.2772 -0.0147
 8312SOL    HW136569   1.227   2.555   6.425  2.2188 -0.9797 -0.1998
 8312SOL    HW236570   1.203   2.569   6.278 -1.1840 -0.8527 -0.9658
 8313SOL     OW36571   2.557   3.443  17.184 -0.1459  0.0070  0.1174
 8313SOL    HW136572   2.544   3.471  17.274  3.8550  2.7455 -0.1084
 8313SOL    HW236573   2.532   3.354  17.206 -0.2248  0.2161  0.8791
 8314SOL     OW36574   0.785   3.075   5.300 -0.1987 -0.0453 -0.1285
 8314SOL    HW136575   0.813   3.166   5.304 -0.8741  0.0250  2.9222
 8314SOL    HW236576   0.697   3.087   5.263 -0.9733  3.0602  2.7490
 8315SOL     OW36577   3.098   2.628   8.522  0.3467  0.0238 -0.4276
 8315SOL    HW136578   3.122   2.705   8.573 -0.9574 -0.2159  0.5483
 8315SOL    HW236579   3.043   2.577   8.581 -0.9698  1.6921 -0.2091
 8316SOL     OW36580   0.554   4.460   5.763  0.3333  0.2298 -0.1332
 8316SOL    HW136581   0.472   4.418   5.788  1.2585 -1.1962  0.4534
 8316SOL    HW236582   0.519   4.543   5.729  1.7014 -1.2321 -5.1061
 8317SOL     OW36583   3.257   2.559   7.127  0.0893  0.3439  0.2348
 8317SOL    HW136584   3.256   2.654   7.119 -4.9273  0.1805 -1.0005
 8317SOL    HW236585   3.213   2.522   7.051 -0.2984  1.3108 -0.0086
 8318SOL     OW36586   0.085   3.821   9.521 -0.8437  0.4258  0.7648
 8318SOL    HW136587   0.032   3.756   9.566 -0.1082 -0.3599  0.5073
 8318SOL    HW236588   0.036   3.825   9.439 -1.1309 -1.2246  0.8615
 8319SOL     OW36589   1.438   4.686   7.843 -0.3811  0.0104  0.4917
 8319SOL    HW136590   1.446   0.035   7.814  0.0645 -0.4938 -0.9647
 8319SOL    HW236591   1.399   4.661   7.759 -0.2568  0.0599  0.4188
 8320SOL     OW36592   1.549   0.707   1.518 -0.0348 -0.0769 -0.3140
 8320SOL    HW136593   1.549   0.777   1.453 -0.8834  1.3032  1.1853
 8320SOL    HW236594   1.505   0.634   1.475  0.5087 -0.5908 -0.0071
 8321SOL     OW36595   0.281   4.721   4.514  0.2474  0.1666  0.0005
 8321SOL    HW136596   0.338   0.049   4.548 -1.3487  2.1110 -1.2599
 8321SOL    HW236597   0.216   0.036   4.472  1.1034  0.8459 -0.4199
 8322SOL     OW36598   1.434   2.213   1.576  0.2263  0.0611 -0.1890
 8322SOL    HW136599   1.454   2.148   1.644 -0.5474  2.0006  1.8874
 8322SOL    HW236600   1.485   2.176   1.504  1.0505  0.5407  0.1529
 8323SOL     OW36601   1.529   2.222   2.825 -0.2300  0.1630  0.7613
 8323SOL    HW136602   1.557   2.235   2.916 -0.5621  1.0078  0.7504
 8323SOL    HW236603   1.607   2.181   2.789 -1.1464 -1.5009  0.6682
 8324SOL     OW36604   3.267   0.611   5.394 -0.3795  0.6776 -0.6218
 8324SOL    HW136605   3.218   0.548   5.342  0.2880 -1.3084  1.1476
 8324SOL    HW236606   3.192   0.650   5.440 -0.4895  0.0585 -0.2731
 8325SOL     OW36607   2.445   2.104   4.755  0.3765 -0.1920 -0.3802
 8325SOL    HW136608   2.536   2.075   4.750 -0.1285 -2.0229  1.0684
 8325SOL    HW236609   2.436   2.117   4.849  2.3230  2.1803 -0.5159
 8326SOL     OW36610   3.105   2.862  10.818 -0.9422 -0.1180  0.6866
 8326SOL    HW136611   3.110   2.817  10.733  0.5367  0.0884  0.6775
 8326SOL    HW236612   3.034   2.815  10.863 -1.2418  0.7053  1.0696
 8327SOL     OW36613   1.059   2.925  17.318  0.0491  0.0201 -0.1168
 8327SOL    HW136614   1.003   2.886  17.385  0.4964 -0.2339  0.1137
 8327SOL    HW236615   1.101   2.851  17.274  0.0413 -0.4355  0.6449
 8328SOL     OW36616   2.604   1.321  16.261  0.5270 -0.5442 -0.0876
 8328SOL    HW136617   2.607   1.270  16.180 -0.7180 -0.1356 -0.3923
 8328SOL    HW236618   2.692   1.359  16.267  0.2833  0.2736 -1.7653
 8329SOL     OW36619   0.298   1.657   8.178 -0.4438 -0.2941 -0.1385
 8329SOL    HW136620   0.268   1.567   8.189  1.5842 -0.7939  1.3298
 8329SOL    HW236621   0.390   1.644   8.200  0.0205 -0.2882 -2.0790
 8330SOL     OW36622   3.909   3.642  12.395  0.0749  0.0262  0.1342
 8330SOL    HW136623   3.832   3.586  12.385  0.8244 -1.1838  1.2339
 8330SOL    HW236624   3.937   3.649  12.304  0.5157 -1.3991  0.1674
 8331SOL     OW36625   0.421   1.921  11.813 -0.1466  0.0326 -0.7543
 8331SOL    HW136626   0.343   1.875  11.846 -0.1984  1.2113  0.7702
 8331SOL    HW236627   0.476   1.843  11.826  0.4862  0.3200 -1.7706
 8332SOL     OW36628   0.200   0.683   6.171  0.2143 -0.1929  0.2328
 8332SOL    HW136629   0.140   0.729   6.230  3.0452  2.5598  0.9106
 8332SOL    HW236630   0.156   0.696   6.087  1.1022  0.9010 -0.0581
 8333SOL     OW36631   1.765   0.792   2.270  0.2449 -0.1224  0.6866
 8333SOL    HW136632   1.796   0.842   2.346 -0.5313  0.7109  0.4556
 8333SOL    HW236633   1.846   0.789   2.218 -1.6809  0.1935 -2.3197
 8334SOL     OW36634   2.268   1.872   2.286  0.0165 -0.3188  0.4956
 8334SOL    HW136635   2.290   1.837   2.200  0.8862  2.2728 -0.3067
 8334SOL    HW236636   2.199   1.934   2.263  1.6281  0.7318 -1.4374
 8335SOL     OW36637   2.387   3.483   0.173  0.0827 -0.2601  0.3177
 8335SOL    HW136638   2.317   3.419   0.179 -1.7858  1.7530 -0.1734
 8335SOL    HW236639   2.399   3.514   0.262 -2.0144 -0.0182  0.4974
 8336SOL     OW36640   2.755   2.491   1.989 -0.0054 -0.2195  0.6258
 8336SOL    HW136641   2.755   2.452   2.076  2.0223 -0.8320  0.3450
 8336SOL    HW236642   2.741   2.581   2.016 -1.8614 -0.7641  1.4699
 8337SOL     OW36643   1.558   1.796   8.863  0.3021  0.1079 -0.1032
 8337SOL    HW136644   1.471   1.816   8.829 -0.3100  0.1930  1.5038
 8337SOL    HW236645   1.535   1.765   8.951 -2.0863  2.2929  0.0296
 8338SOL     OW36646   3.747   4.273   1.306 -0.4304 -0.0507 -0.0822
 8338SOL    HW136647   3.805   4.306   1.238  0.0994  0.6096  0.6901
 8338SOL    HW236648   3.710   4.355   1.337  0.6813  0.7027 -0.7531
 8339SOL     OW36649   3.190   1.991   4.778  0.1795  0.0659 -0.3441
 8339SOL    HW136650   3.156   2.033   4.857 -1.4362 -1.4665 -0.2175
 8339SOL    HW236651   3.273   2.035   4.759 -0.9452  1.3196 -2.3090
 8340SOL     OW36652   0.382   1.935   6.482  0.4308 -0.0874  0.1756
 8340SOL    HW136653   0.327   1.874   6.433  1.7631 -1.1191 -0.0372
 8340SOL    HW236654   0.376   1.894   6.568  2.0585 -0.1263  0.2625
 8341SOL     OW36655   0.793   4.355   5.661  0.4779  0.6533 -0.5839
 8341SOL    HW136656   0.856   4.425   5.677  1.6511 -0.4806 -0.2194
 8341SOL    HW236657   0.707   4.395   5.658 -0.9117 -2.2303  1.1932
 8342SOL     OW36658   4.011   2.501   1.758  0.2664  0.5163  0.3420
 8342SOL    HW136659   3.915   2.505   1.764  0.2489  1.3856 -0.4333
 8342SOL    HW236660   4.025   2.525   1.666 -0.3598  1.8023  0.5792
 8343SOL     OW36661   0.044   2.066   8.839 -0.1676  0.0341 -0.0802
 8343SOL    HW136662   0.048   2.049   8.933 -2.4558 -1.0064 -0.1711
 8343SOL    HW236663   0.012   2.156   8.842 -3.8571 -1.2825  0.1758
 8344SOL     OW36664   2.000   3.875   2.910 -0.1638 -0.3825 -0.0059
 8344SOL    HW136665   1.962   3.949   2.862 -0.7800 -0.2526  0.6640
 8344SOL    HW236666   2.092   3.899   2.916 -0.8525  2.4486 -0.4632
 8345SOL     OW36667   0.809   3.683  10.626  0.1412  0.5739  0.2347
 8345SOL    HW136668   0.895   3.640  10.623 -1.3073 -2.3987  0.9045
 8345SOL    HW236669   0.759   3.606  10.601 -0.3990  0.9775  0.0767
 8346SOL     OW36670   1.273   1.899   3.484 -0.1096  0.1058 -0.5129
 8346SOL    HW136671   1.337   1.828   3.493 -1.0554 -0.8298 -1.1773
 8346SOL    HW236672   1.295   1.930   3.396 -0.8116  0.0425 -0.7066
 8347SOL     OW36673   1.282   3.209  13.320 -0.1697 -0.1381 -0.3588
 8347SOL    HW136674   1.238   3.173  13.243  2.4044  1.6564 -2.6581
 8347SOL    HW236675   1.367   3.169  13.303  1.0173  2.5175 -0.5567
 8348SOL     OW36676   3.604   0.778   2.386  0.6354  0.2657 -0.5599
 8348SOL    HW136677   3.613   0.741   2.298 -1.3561  0.3573 -0.8199
 8348SOL    HW236678   3.694   0.777   2.417  0.7600  0.7062 -0.9017
 8349SOL     OW36679   1.802   1.716   8.823  0.4385  0.2096 -0.7981
 8349SOL    HW136680   1.781   1.650   8.889 -0.6024  1.8050  0.4423
 8349SOL    HW236681   1.719   1.752   8.791 -0.2554 -1.0893 -0.4984
 8350SOL     OW36682   2.717   0.364   8.169 -0.2092 -0.4561  0.4476
 8350SOL    HW136683   2.755   0.350   8.255  0.7393  1.9983  0.4041
 8350SOL    HW236684   2.725   0.458   8.153 -1.3279 -0.6144 -1.1080
 8351SOL     OW36685   3.569   1.725   7.822 -0.3556 -0.3334 -0.6349
 8351SOL    HW136686   3.528   1.725   7.735 -0.4992  1.6109 -0.5451
 8351SOL    HW236687   3.502   1.687   7.878 -2.3395  3.6826 -0.3652
 8352SOL     OW36688   1.375   3.798  11.184 -0.4019  0.2737  0.4265
 8352SOL    HW136689   1.444   3.742  11.148  0.6141  1.9826 -0.3394
 8352SOL    HW236690   1.299   3.741  11.179  1.0198 -1.6186  0.5401
 8353SOL     OW36691   1.559   4.138   7.130 -0.9184 -0.2499  0.1859
 8353SOL    HW136692   1.598   4.055   7.155  0.3445 -0.4480 -2.4134
 8353SOL    HW236693   1.547   4.113   7.038 -0.0945 -1.0762  0.3056
 8354SOL     OW36694   3.498   1.778   3.957 -0.1150 -0.3630 -0.4922
 8354SOL    HW136695   3.573   1.718   3.962  0.2807  0.1712 -0.0276
 8354SOL    HW236696   3.434   1.735   4.013 -0.9177 -0.6366 -1.6176
 8355SOL     OW36697   0.087   2.475   6.969  0.1887 -0.8921  0.4783
 8355SOL    HW136698   0.011   2.510   7.016  0.1996 -0.1950 -0.0161
 8355SOL    HW236699   0.117   2.551   6.918  1.4704 -1.4333  0.4400
 8356SOL     OW36700   0.775   1.122   8.383 -0.0658 -0.3308  0.0227
 8356SOL    HW136701   0.831   1.044   8.376 -0.7158 -0.7700 -0.2617
 8356SOL    HW236702   0.700   1.069   8.357  1.0917 -0.0600 -3.8353
 8357SOL     OW36703   4.438   4.696   8.921  0.0629 -0.3573 -0.7455
 8357SOL    HW136704   4.438   4.601   8.911  0.5957 -0.4207 -0.1858
 8357SOL    HW236705   4.356   4.724   8.882 -0.0371 -0.7627 -0.8213
 8358SOL     OW36706   4.663   0.854  15.745  0.3999  0.7871 -0.5531
 8358SOL    HW136707   0.015   0.837  15.729  0.0884 -0.3747 -1.0794
 8358SOL    HW236708   4.656   0.873  15.838  0.0556 -0.9280 -0.2434
 8359SOL     OW36709   2.955   0.882  14.280  0.2809 -0.1298 -0.4026
 8359SOL    HW136710   2.920   0.971  14.288  0.5928  0.1844 -2.4369
 8359SOL    HW236711   2.880   0.831  14.249  1.4880 -1.0126 -1.8452
 8360SOL     OW36712   0.714   2.838  15.007  0.0500  0.0288 -0.0859
 8360SOL    HW136713   0.738   2.765  15.064 -0.0520 -0.1060 -0.2162
 8360SOL    HW236714   0.777   2.841  14.936 -0.7230  1.8062 -0.6984
 8361SOL     OW36715   1.125   0.578   4.957 -0.1098  0.4988 -0.0466
 8361SOL    HW136716   1.177   0.653   4.929 -1.0133  0.6607 -1.2941
 8361SOL    HW236717   1.186   0.506   4.940  1.6664  2.2950 -1.2715
 8362SOL     OW36718   1.724   4.223   2.157  0.2432  0.3394 -0.1272
 8362SOL    HW136719   1.721   4.299   2.099 -1.7807 -0.3453 -0.8946
 8362SOL    HW236720   1.644   4.185   2.122  0.6829  0.4387 -1.2374
 8363SOL     OW36721   0.637   3.420  10.586  0.4627  0.5195 -0.1751
 8363SOL    HW136722   0.553   3.376  10.594  0.1473  1.5393  2.1259
 8363SOL    HW236723   0.694   3.359  10.633 -1.4336 -0.5375  0.7647
 8364SOL     OW36724   1.798   2.612   5.634  0.2394 -0.1188 -0.1862
 8364SOL    HW136725   1.739   2.566   5.694 -0.7056  0.4487 -0.6900
 8364SOL    HW236726   1.800   2.697   5.679 -1.2744  1.1087 -2.4729
 8365SOL     OW36727   1.394   1.997   0.755  0.3975  0.3717  0.3555
 8365SOL    HW136728   1.313   2.036   0.786  0.8053 -0.4268  2.4946
 8365SOL    HW236729   1.457   2.049   0.806 -0.5769  0.2979  1.6376
 8366SOL     OW36730   0.563   0.748   4.574 -0.3990  0.2185 -0.5501
 8366SOL    HW136731   0.623   0.674   4.583  0.0085  0.7157  0.7900
 8366SOL    HW236732   0.627   0.819   4.577 -3.9197  3.4366 -1.5956
 8367SOL     OW36733   2.057   0.574   5.834 -0.1665  0.0215 -0.2316
 8367SOL    HW136734   2.105   0.621   5.901  0.0993 -1.9550  0.9751
 8367SOL    HW236735   2.035   0.635   5.764  1.0500  2.2368  1.3252
 8368SOL     OW36736   4.153   4.683   7.606  0.3675  0.1378  0.3456
 8368SOL    HW136737   4.112   4.680   7.519  0.1534  1.7405  0.3913
 8368SOL    HW236738   4.232   4.630   7.598  0.4000  0.3581 -0.8003
 8369SOL     OW36739   4.277   4.615  11.828 -0.6463  0.5958 -0.0335
 8369SOL    HW136740   4.238   4.529  11.815  0.0538  0.3401 -0.4513
 8369SOL    HW236741   4.200   4.664  11.856  1.3170  2.1148  2.7580
 8370SOL     OW36742   0.268   3.559  14.846 -0.4020 -0.0957 -0.0233
 8370SOL    HW136743   0.224   3.529  14.767 -0.2569  0.8788 -0.4704
 8370SOL    HW236744   0.312   3.483  14.883 -1.3271 -2.3202 -3.5465
 8371SOL     OW36745   3.639   1.878  10.829  0.0119  0.2863  0.1666
 8371SOL    HW136746   3.693   1.939  10.779 -1.7285  0.9881 -0.8424
 8371SOL    HW236747   3.703   1.807  10.835  1.5365  1.5825 -0.7480
 8372SOL     OW36748   2.342   1.322   8.014 -0.5419 -0.1450  0.2510
 8372SOL    HW136749   2.317   1.366   7.933 -1.1829 -0.2662  0.3872
 8372SOL    HW236750   2.266   1.265   8.023 -1.8177  1.0197 -3.0750
 8373SOL     OW36751   1.226   3.997   6.587  0.6228  0.1917 -0.3300
 8373SOL    HW136752   1.292   4.031   6.526  1.2367  0.1843  0.3251
 8373SOL    HW236753   1.261   3.908   6.593 -2.3751 -0.9386  0.2678
 8374SOL     OW36754   2.959   0.698   7.540  0.3454 -0.2537  0.2993
 8374SOL    HW136755   2.975   0.683   7.633  0.6881  1.4718  0.5203
 8374SOL    HW236756   2.889   0.762   7.548 -0.3048 -0.6453 -2.1596
 8375SOL     OW36757   1.840   1.418   2.516 -0.2859 -0.7230 -0.2835
 8375SOL    HW136758   1.927   1.403   2.480  0.0223  2.9292 -1.0879
 8375SOL    HW236759   1.827   1.345   2.577 -1.6548 -1.3843 -1.3531
 8376SOL     OW36760   1.922   1.524  15.542  0.1271 -0.1908  0.3945
 8376SOL    HW136761   1.977   1.586  15.590 -1.6420  0.8326  1.1004
 8376SOL    HW236762   1.964   1.518  15.456  1.0254 -0.6291  0.8617
 8377SOL     OW36763   3.207   4.144   2.759  0.0523  0.0366  0.4734
 8377SOL    HW136764   3.146   4.215   2.740 -0.0763  0.4062  2.1993
 8377SOL    HW236765   3.143   4.076   2.740 -0.9803  1.8589 -2.4353
 8378SOL     OW36766   4.204   0.394   9.470 -0.1504 -0.6205  0.1650
 8378SOL    HW136767   4.279   0.336   9.477  0.0693 -0.3304  0.2059
 8378SOL    HW236768   4.162   0.337   9.406 -1.7206  0.8531 -0.1313
 8379SOL     OW36769   3.326   1.611   7.958  0.0446  0.2409  0.2331
 8379SOL    HW136770   3.346   1.539   8.017 -0.5583 -0.2298 -0.1473
 8379SOL    HW236771   3.235   1.596   7.936  0.5019  0.0069 -1.5232
 8380SOL     OW36772   0.126   3.428   3.822 -0.0529  0.5585 -0.4091
 8380SOL    HW136773   0.132   3.432   3.918 -2.3112  1.7766 -0.3164
 8380SOL    HW236774   0.205   3.475   3.795  0.9655 -0.0921  1.4049
 8381SOL     OW36775   3.166   0.566   6.883  0.7063 -0.1029  0.0341
 8381SOL    HW136776   3.222   0.539   6.810  1.1981 -1.1673  0.8102
 8381SOL    HW236777   3.222   0.609   6.948 -0.1975 -0.2352  0.8997
 8382SOL     OW36778   2.797   1.369   6.497  0.1506  0.3109  0.3807
 8382SOL    HW136779   2.703   1.386   6.486  0.5425  0.4146 -2.9641
 8382SOL    HW236780   2.829   1.459   6.490  1.5155 -0.1828  0.2697
 8383SOL     OW36781   2.462   0.379  13.222  0.0859 -0.0726 -0.3556
 8383SOL    HW136782   2.525   0.327  13.171  1.7900  0.2990  1.3777
 8383SOL    HW236783   2.518   0.447  13.260  0.2641 -0.2911 -0.2263
 8384SOL     OW36784   4.190   2.609   3.781  0.4266  0.3759  0.2550
 8384SOL    HW136785   4.216   2.678   3.842 -1.1776  0.9076  0.3280
 8384SOL    HW236786   4.279   2.587   3.752  0.6377 -0.5108  1.5792
 8385SOL     OW36787   0.790   4.476   5.237 -0.1982 -0.5068 -0.2384
 8385SOL    HW136788   0.867   4.465   5.292 -1.5472  0.6841  1.8835
 8385SOL    HW236789   0.728   4.521   5.295 -0.2622 -2.2992  1.0695
 8386SOL     OW36790   2.046   3.728   5.931  0.0217  0.0032  0.7113
 8386SOL    HW136791   2.058   3.724   5.836  0.4740 -0.1703  0.7748
 8386SOL    HW236792   1.956   3.761   5.933  0.3863  1.0659 -0.5370
 8387SOL     OW36793   1.247   0.849   7.378 -0.3735 -0.0953  0.3382
 8387SOL    HW136794   1.195   0.819   7.451 -0.1680 -0.7613  0.2128
 8387SOL    HW236795   1.204   0.934   7.363 -1.1371 -0.3704  1.0179
 8388SOL     OW36796   1.737   1.029   4.908  0.2157 -0.0680 -0.7854
 8388SOL    HW136797   1.707   1.002   4.821  2.5032 -0.3744 -1.4622
 8388SOL    HW236798   1.745   0.942   4.947  1.8131  0.8017  0.8384
 8389SOL     OW36799   3.505   3.632   9.165 -0.4903 -0.4156  0.0053
 8389SOL    HW136800   3.565   3.619   9.239 -0.7286 -1.5270  0.0105
 8389SOL    HW236801   3.494   3.543   9.131  1.0253  0.1019 -1.8636
 8390SOL     OW36802   4.319   2.923   7.771 -0.9849  0.4021  0.2187
 8390SOL    HW136803   4.376   2.860   7.727  0.8878  1.9127  0.4938
 8390SOL    HW236804   4.342   3.012   7.743 -0.4940 -0.8700 -3.4181
 8391SOL     OW36805   0.301   0.322   3.303 -0.0398  0.0425 -0.1762
 8391SOL    HW136806   0.298   0.265   3.381 -1.3179  1.9786  1.1922
 8391SOL    HW236807   0.229   0.280   3.255 -0.6037  0.3505  0.3900
 8392SOL     OW36808   2.205   0.540   7.394 -0.3571  0.0007  0.3160
 8392SOL    HW136809   2.129   0.570   7.444  0.5880 -0.4159  1.9811
 8392SOL    HW236810   2.273   0.546   7.461  0.1915  0.9344 -0.3245
 8393SOL     OW36811   4.179   4.157   8.334 -0.2725  0.3150 -0.1798
 8393SOL    HW136812   4.155   4.067   8.355  2.2698 -0.1382  0.7264
 8393SOL    HW236813   4.274   4.150   8.337 -0.1655  0.9578 -2.1774
 8394SOL     OW36814   1.063   2.993  12.485  0.2447 -0.3302 -0.1714
 8394SOL    HW136815   1.109   2.925  12.435  1.8572  1.3317 -0.9639
 8394SOL    HW236816   1.005   2.934  12.533 -1.2940  0.5982 -0.9054
 8395SOL     OW36817   0.616   1.066   5.694 -0.0641  0.7867 -0.0598
 8395SOL    HW136818   0.630   1.160   5.707  0.8321  0.3398  2.1662
 8395SOL    HW236819   0.520   1.060   5.696 -0.0208  0.3612  1.0042
 8396SOL     OW36820   3.394   1.825  12.786 -0.4202  0.3698 -0.3000
 8396SOL    HW136821   3.465   1.761  12.783 -1.8733 -1.2449 -0.7861
 8396SOL    HW236822   3.445   1.905  12.791  0.6284 -0.4161  1.4110
 8397SOL     OW36823   3.079   1.277  10.086 -0.3471 -0.6636 -0.2528
 8397SOL    HW136824   3.079   1.373  10.087 -0.7034 -0.6446 -1.3135
 8397SOL    HW236825   3.005   1.258  10.144 -0.3932  1.0211  0.2357
 8398SOL     OW36826   4.696   3.765   0.849  0.2189 -0.7204 -0.3008
 8398SOL    HW136827   0.037   3.722   0.872  0.2528 -1.0289 -0.9901
 8398SOL    HW236828   4.727   3.848   0.813 -2.7284  0.1908 -0.7572
 8399SOL     OW36829   3.130   1.043   4.480  0.1328  0.4854 -0.2144
 8399SOL    HW136830   3.200   1.105   4.461  0.7681  0.1539  1.0621
 8399SOL    HW236831   3.078   1.100   4.537 -0.8382  0.7280 -1.3418
 8400SOL     OW36832   2.250   4.158   8.085 -0.2870 -0.8047 -0.0789
 8400SOL    HW136833   2.252   4.253   8.083 -3.5737 -0.7156  1.3337
 8400SOL    HW236834   2.337   4.142   8.121 -0.7604 -0.3865  1.2221
 8401SOL     OW36835   1.688   1.919   8.275  0.2205  0.2561 -0.3098
 8401SOL    HW136836   1.695   2.001   8.226  1.0880  0.7562  0.6550
 8401SOL    HW236837   1.659   1.878   8.193  0.6167 -0.3739 -0.1374
 8402SOL     OW36838   2.541   0.757   1.329  0.0802 -0.3190  0.2647
 8402SOL    HW136839   2.485   0.829   1.358  0.8529 -0.2665  1.6384
 8402SOL    HW236840   2.608   0.803   1.278 -0.1955 -0.9089 -0.6375
 8403SOL     OW36841   1.867   0.797  15.583  0.1086  0.3357 -0.6025
 8403SOL    HW136842   1.835   0.718  15.627  0.3532  1.1823  1.0776
 8403SOL    HW236843   1.942   0.757  15.540  1.2278  3.3841 -1.4499
 8404SOL     OW36844   3.405   4.317   4.310  0.1485 -0.1475  0.3902
 8404SOL    HW136845   3.419   4.399   4.359 -2.7900  0.4070  0.2659
 8404SOL    HW236846   3.344   4.349   4.244  2.5732  2.8295 -0.4496
 8405SOL     OW36847   1.533   3.989  11.807 -0.7467 -0.2712  0.1828
 8405SOL    HW136848   1.524   4.029  11.893  0.1111 -0.3549  0.3171
 8405SOL    HW236849   1.454   3.935  11.810 -1.3711  0.5881 -0.8207
 8406SOL     OW36850   3.768   2.154  17.690  0.4187 -0.1406  0.8022
 8406SOL    HW136851   3.847   2.169  17.639  1.5024 -0.6399  2.3581
 8406SOL    HW236852   3.800   2.190   0.009 -0.5641 -0.0026  1.1294
 8407SOL     OW36853   4.296   4.688   4.904  0.0938  0.1819  0.3386
 8407SOL    HW136854   4.320   0.018   4.963  0.9400  0.7784 -0.7270
 8407SOL    HW236855   4.374   4.662   4.855 -1.1069 -0.6077 -1.1602
 8408SOL     OW36856   2.341   2.732  13.117 -0.2433 -0.5165  0.1672
 8408SOL    HW136857   2.325   2.767  13.030  1.1456 -0.6498 -0.1385
 8408SOL    HW236858   2.434   2.752  13.118  0.0031 -1.5999 -0.6801
 8409SOL     OW36859   1.665   0.887   8.587 -0.7089  0.2218  0.0158
 8409SOL    HW136860   1.664   0.970   8.636 -1.7275 -0.2925  0.8801
 8409SOL    HW236861   1.642   0.831   8.661  0.6538 -0.3369  0.0093
 8410SOL     OW36862   1.033   1.920  15.187 -0.2041  0.3261  0.4296
 8410SOL    HW136863   1.006   1.934  15.096 -0.0778  1.4284  0.5638
 8410SOL    HW236864   1.097   1.850  15.175  1.4949  1.7915  0.8757
 8411SOL     OW36865   2.979   2.922   2.177  0.2063 -0.4145  0.4793
 8411SOL    HW136866   2.973   2.889   2.267  1.7090  2.0803  1.5012
 8411SOL    HW236867   3.067   2.959   2.180 -0.3671  1.1705 -2.0367
 8412SOL     OW36868   4.158   2.738   4.543 -0.2093 -0.1533  0.2691
 8412SOL    HW136869   4.214   2.813   4.524 -0.8000  0.2847  0.2549
 8412SOL    HW236870   4.079   2.761   4.495  0.4479 -0.2874 -0.8644
 8413SOL     OW36871   1.083   1.328   6.961 -0.2178  0.1603 -0.0336
 8413SOL    HW136872   1.155   1.339   6.899  0.5452 -1.2966  0.5692
 8413SOL    HW236873   1.012   1.385   6.934 -0.1595  0.2017 -0.1009
 8414SOL     OW36874   1.325   1.336   9.025 -0.2651  0.0640 -0.1876
 8414SOL    HW136875   1.239   1.295   9.022  0.6476 -1.9087  0.2790
 8414SOL    HW236876   1.371   1.259   8.991  0.7576  1.0291 -0.9833
 8415SOL     OW36877   4.510   2.109   6.539 -0.7637  0.5017 -0.2330
 8415SOL    HW136878   4.577   2.121   6.472 -2.6345  1.0678 -2.0111
 8415SOL    HW236879   4.439   2.063   6.495 -0.2194 -0.5238 -0.0453
 8416SOL     OW36880   3.858   3.021   6.787  0.2480 -0.2751  0.0722
 8416SOL    HW136881   3.857   3.104   6.834 -1.1421  0.2902 -0.9731
 8416SOL    HW236882   3.844   2.960   6.859  0.0249 -0.4442 -0.1154
 8417SOL     OW36883   4.696   3.691   6.965  0.3374 -0.0704 -0.2619
 8417SOL    HW136884   4.680   3.698   7.059 -1.7077  0.9263 -0.6711
 8417SOL    HW236885   4.650   3.770   6.937  0.1207 -0.8550 -2.1505
 8418SOL     OW36886   0.900   2.637   1.954  0.5512  0.2188  0.3395
 8418SOL    HW136887   0.898   2.666   2.045  1.1332 -1.3220  0.8342
 8418SOL    HW236888   0.810   2.650   1.924  0.0113 -1.1709  1.3415
 8419SOL     OW36889   0.554   3.770   5.224 -0.3362  0.1669  0.4066
 8419SOL    HW136890   0.628   3.756   5.283  1.4244  3.2462 -1.0714
 8419SOL    HW236891   0.570   3.856   5.187  1.4823 -0.3774 -0.0344
 8420SOL     OW36892   4.267   2.278   3.734  0.0718  0.2081  0.6852
 8420SOL    HW136893   4.192   2.302   3.789 -0.6229  1.4788 -0.8317
 8420SOL    HW236894   4.262   2.182   3.729 -1.7231  0.2920  0.9888
 8421SOL     OW36895   1.564   0.911   1.331  0.0638 -0.0953  0.2732
 8421SOL    HW136896   1.604   0.987   1.373 -0.6647 -0.4297  1.5862
 8421SOL    HW236897   1.489   0.948   1.284  1.1950  1.8047 -0.0068
 8422SOL     OW36898   0.739   4.410   4.532  0.8345  0.3392  0.1966
 8422SOL    HW136899   0.708   4.477   4.472 -3.0348 -1.2588  0.3867
 8422SOL    HW236900   0.737   4.462   4.612  1.7742 -0.0944  0.5049
 8423SOL     OW36901   0.653   0.730   2.088 -0.1977 -0.2964  0.1526
 8423SOL    HW136902   0.704   0.651   2.071 -0.7777 -0.9176  1.2975
 8423SOL    HW236903   0.724   0.771   2.138  2.5068 -3.0676 -1.4512
 8424SOL     OW36904   3.806   2.922   8.298 -0.0946  0.3624  0.0624
 8424SOL    HW136905   3.796   2.887   8.386 -0.1895  0.7325  0.2005
 8424SOL    HW236906   3.722   2.895   8.262  0.8269 -1.6944 -0.5493
 8425SOL     OW36907   1.895   2.459  13.320 -0.0390  0.3617 -0.4267
 8425SOL    HW136908   1.972   2.403  13.332  0.3092  0.0634 -4.2474
 8425SOL    HW236909   1.927   2.543  13.289  1.0797  0.1987  0.2941
 8426SOL     OW36910   2.241   0.945   3.246  0.0184 -0.1123 -0.6673
 8426SOL    HW136911   2.225   0.969   3.338  0.3985  4.5347 -1.7985
 8426SOL    HW236912   2.336   0.932   3.237 -0.3775 -3.1245 -0.4759
 8427SOL     OW36913   4.123   2.376   3.354 -0.3988 -0.0246 -0.0336
 8427SOL    HW136914   4.146   2.283   3.342  0.7154  0.4155 -1.3020
 8427SOL    HW236915   4.184   2.408   3.421 -0.4300  1.6285 -0.8026
 8428SOL     OW36916   3.932   2.446   7.483  0.1353 -0.6969  0.0578
 8428SOL    HW136917   3.854   2.445   7.427  0.0026  2.0928  0.2128
 8428SOL    HW236918   3.976   2.528   7.460 -1.6783  0.3427  0.3025
 8429SOL     OW36919   3.836   3.540  14.412  0.4143  0.0373 -0.5642
 8429SOL    HW136920   3.774   3.612  14.426  0.7557  0.0608  0.7911
 8429SOL    HW236921   3.920   3.582  14.395  0.9463 -0.0603  1.8022
 8430SOL     OW36922   3.369   0.708   2.140 -0.7054  0.1749  0.1018
 8430SOL    HW136923   3.355   0.655   2.219  1.5762  0.6101  0.8177
 8430SOL    HW236924   3.465   0.708   2.134 -0.6407  1.3999  1.1958
 8431SOL     OW36925   2.790   2.986   5.811 -0.2676 -0.4664 -0.3147
 8431SOL    HW136926   2.883   2.969   5.823 -0.0969  0.4345 -0.3289
 8431SOL    HW236927   2.765   2.902   5.774 -0.9189  0.4303 -1.8986
 8432SOL     OW36928   2.599   3.108   3.820  0.7787 -0.6777  0.7275
 8432SOL    HW136929   2.641   3.162   3.753  0.1696 -1.4273 -0.2801
 8432SOL    HW236930   2.658   3.032   3.825  2.8339  0.8767  0.3200
 8433SOL     OW36931   2.786   4.678   4.073  0.5735 -0.5204 -0.0276
 8433SOL    HW136932   2.746   4.672   4.160  0.6738  0.4404  0.0846
 8433SOL    HW236933   2.738   4.611   4.025 -1.2926 -0.1750  1.3755
 8434SOL     OW36934   1.928   1.321  15.760  0.1962 -0.2018  0.4452
 8434SOL    HW136935   1.967   1.364  15.684  1.5837 -0.7049  0.8886
 8434SOL    HW236936   1.913   1.231  15.731 -0.2793  0.6007 -1.8602
 8435SOL     OW36937   0.736   1.876   4.091 -0.4951 -0.1155 -0.0801
 8435SOL    HW136938   0.677   1.846   4.022  1.3785 -3.4968 -0.1915
 8435SOL    HW236939   0.796   1.922   4.032 -0.0530  0.1479  0.5773
 8436SOL     OW36940   1.879   1.251   9.001  0.0328 -0.0612 -0.0698
 8436SOL    HW136941   1.932   1.179   9.036  1.8759  0.6231 -1.4939
 8436SOL    HW236942   1.813   1.257   9.070  0.7218 -0.1582  0.5981
 8437SOL     OW36943   4.552   0.891   9.669 -0.3942 -0.1994 -0.0883
 8437SOL    HW136944   4.615   0.841   9.617 -1.8883 -1.0628 -1.0579
 8437SOL    HW236945   4.477   0.835   9.689  0.7501 -2.1027 -1.0949
 8438SOL     OW36946   4.741   4.032   4.869  0.1453 -0.1874 -0.5943
 8438SOL    HW136947   4.721   4.124   4.850 -2.8931 -0.5955  0.5242
 8438SOL    HW236948   0.090   4.015   4.844  0.4114  1.8771 -1.0647
 8439SOL     OW36949   0.117   2.336   6.495 -0.6980 -0.6171 -0.3495
 8439SOL    HW136950   0.204   2.349   6.534 -0.8228 -0.3192 -0.1681
 8439SOL    HW236951   0.083   2.425   6.494  1.1683  0.0842 -0.7491
 8440SOL     OW36952   1.427   2.165  13.215  0.1797  0.7193  0.3956
 8440SOL    HW136953   1.384   2.251  13.217  0.0592  0.7035 -1.1688
 8440SOL    HW236954   1.496   2.189  13.152 -1.2267 -1.6524 -2.0596
 8441SOL     OW36955   3.212   2.653  16.201  0.1427 -0.5874  0.4166
 8441SOL    HW136956   3.250   2.572  16.234  0.6061 -0.7658 -0.5826
 8441SOL    HW236957   3.288   2.694  16.160  0.5022 -2.0907 -0.4013
 8442SOL     OW36958   0.666   3.663   9.790  0.7950 -0.0054 -0.3187
 8442SOL    HW136959   0.614   3.716   9.850  1.1169  1.6071 -1.4817
 8442SOL    HW236960   0.609   3.605   9.739  0.8401 -0.6430  0.3579
 8443SOL     OW36961   1.660   1.043   8.168  0.1011  0.5460  0.2055
 8443SOL    HW136962   1.578   1.091   8.156 -0.4687  0.0864  2.1009
 8443SOL    HW236963   1.717   1.047   8.092  0.9508  0.7141  0.8511
 8444SOL     OW36964   4.422   3.491   5.463 -0.2532 -0.4428  0.0385
 8444SOL    HW136965   4.331   3.506   5.489 -1.1168 -2.0405 -2.0407
 8444SOL    HW236966   4.458   3.578   5.478  1.7123 -1.2577  0.0789
 8445SOL     OW36967   1.683   3.610   0.926  0.1120  0.0434 -0.5088
 8445SOL    HW136968   1.590   3.612   0.905  0.2342 -2.1008 -1.1835
 8445SOL    HW236969   1.683   3.606   1.022 -3.1752  0.2735 -0.4995
 8446SOL     OW36970   1.045   0.785   3.008 -0.2295 -0.1742 -0.1961
 8446SOL    HW136971   0.954   0.762   2.990  0.5152 -1.5439 -2.2667
 8446SOL    HW236972   1.042   0.879   2.991  0.3583 -0.5054 -2.2076
 8447SOL     OW36973   1.904   2.164   0.978 -0.3637 -0.0368 -0.1043
 8447SOL    HW136974   1.905   2.164   1.074 -2.1558 -0.1098 -0.0857
 8447SOL    HW236975   1.991   2.131   0.956 -0.5162  0.1766 -0.9955
 8448SOL     OW36976   1.815   3.244   0.368  0.0805 -0.7742  0.0760
 8448SOL    HW136977   1.832   3.311   0.434 -0.9175  0.0014 -0.4420
 8448SOL    HW236978   1.828   3.294   0.287  0.2739  0.7281  1.0389
 8449SOL     OW36979   1.768   2.011  13.550 -0.0295 -0.0025  0.4268
 8449SOL    HW136980   1.724   1.926  13.544 -0.7599  0.3088  1.2211
 8449SOL    HW236981   1.859   1.989  13.530  0.2619  0.0339  1.6982
 8450SOL     OW36982   4.232   3.895  10.311 -0.6328  0.0036  0.0180
 8450SOL    HW136983   4.208   3.808  10.342 -2.4048  1.0522  1.5530
 8450SOL    HW236984   4.213   3.954  10.384  0.2745  1.3533 -0.8355
 8451SOL     OW36985   3.186   1.020  11.388  0.5301 -0.1645 -0.6053
 8451SOL    HW136986   3.192   0.952  11.321  2.1101  0.5456 -1.1738
 8451SOL    HW236987   3.106   0.994  11.434  0.4330  0.8818 -0.1933
 8452SOL     OW36988   3.248   3.317   0.274  0.5646  0.4223  0.1607
 8452SOL    HW136989   3.189   3.368   0.328 -1.1758 -0.4062 -0.9491
 8452SOL    HW236990   3.312   3.286   0.338 -0.1593 -0.0679  0.6496
 8453SOL     OW36991   4.227   0.287   8.589 -0.0714 -0.2281 -0.0455
 8453SOL    HW136992   4.247   0.378   8.566 -1.1582 -0.2289 -0.9690
 8453SOL    HW236993   4.197   0.254   8.504 -1.5610  0.5953  0.1526
 8454SOL     OW36994   2.155   0.652   1.650  0.3129  0.3519 -0.8254
 8454SOL    HW136995   2.176   0.650   1.556 -0.4032  4.6460 -1.0900
 8454SOL    HW236996   2.092   0.724   1.658 -0.0410  0.1478 -1.8382
 8455SOL     OW36997   4.218   4.605   2.398 -0.4261 -0.3238 -0.5428
 8455SOL    HW136998   4.259   4.653   2.327 -1.1974  0.9411 -0.1344
 8455SOL    HW236999   4.161   4.545   2.349 -1.6004  0.3838 -0.0437
 8456SOL     OW37000   1.435   2.287  12.634  0.3086  0.2143 -0.7353
 8456SOL    HW137001   1.499   2.225  12.600 -0.6904  0.6034 -3.3214
 8456SOL    HW237002   1.352   2.250  12.604  0.8863 -1.5798 -0.1018
 8457SOL     OW37003   2.087   1.834   5.071 -0.1484 -0.1142  0.2464
 8457SOL    HW137004   2.179   1.852   5.051 -0.7357  0.0247 -2.4327
 8457SOL    HW237005   2.053   1.820   4.982 -0.7350  0.4226  0.3908
 8458SOL     OW37006   0.432   0.989   6.605  0.3806 -0.5540  0.2748
 8458SOL    HW137007   0.348   1.022   6.635  0.7229  1.1727 -0.6420
 8458SOL    HW237008   0.412   0.898   6.584  0.1277 -0.4714  0.1599
 8459SOL     OW37009   4.074   3.326  16.133 -0.0113  0.0411  0.3633
 8459SOL    HW137010   4.049   3.407  16.178  0.2022  0.9551 -1.2004
 8459SOL    HW237011   3.994   3.274  16.146  0.8989 -1.9862 -2.2137
 8460SOL     OW37012   1.606   2.462   4.406  0.4639  0.2579 -0.5397
 8460SOL    HW137013   1.547   2.526   4.445  1.1889 -0.8197  2.3422
 8460SOL    HW237014   1.622   2.508   4.323  2.2773 -1.1119 -0.9659
 8461SOL     OW37015   2.719   2.157   5.408 -0.4993 -0.6668  0.6468
 8461SOL    HW137016   2.712   2.189   5.497 -0.2327 -0.9098  0.7551
 8461SOL    HW237017   2.737   2.063   5.417  0.4562 -0.5040  0.3871
 8462SOL     OW37018   3.905   4.418  17.206  0.4381 -0.0216 -0.0193
 8462SOL    HW137019   3.941   4.500  17.173  2.8973 -0.9721  0.3003
 8462SOL    HW237020   3.882   4.382  17.120  3.0145  0.2612 -0.8395
 8463SOL     OW37021   2.308   3.937   4.040  0.1431  0.2555  0.6788
 8463SOL    HW137022   2.223   3.975   4.019  1.2165  1.3152 -1.7430
 8463SOL    HW237023   2.277   3.870   4.100 -0.6558  2.4674  2.7566
 8464SOL     OW37024   3.581   0.640  17.599  0.3759  0.0769 -0.4152
 8464SOL    HW137025   3.554   0.555  17.563  0.0414 -0.4412  1.0455
 8464SOL    HW237026   3.675   0.631  17.619  0.2350 -0.7259 -0.1202
 8465SOL     OW37027   2.013   2.057  16.021 -0.0550 -0.1940 -0.0111
 8465SOL    HW137028   1.954   1.990  16.054  0.2550 -0.2164  0.5052
 8465SOL    HW237029   1.948   2.114  15.980  1.1084  0.7323 -0.5925
 8466SOL     OW37030   2.743   3.104   2.195 -0.2097  0.2108 -0.4192
 8466SOL    HW137031   2.682   3.114   2.122 -1.8874 -2.6729  0.5889
 8466SOL    HW237032   2.822   3.070   2.154  1.2206 -0.7303  3.0866
 8467SOL     OW37033   2.930   1.444   1.527 -0.2114 -0.1360  0.0824
 8467SOL    HW137034   2.864   1.476   1.465 -0.2553  1.9677  1.1837
 8467SOL    HW237035   2.907   1.514   1.589  3.1632 -0.5950  1.8415
 8468SOL     OW37036   3.248   3.802   6.771 -0.1438  0.2437  0.5394
 8468SOL    HW137037   3.251   3.822   6.865 -1.2605  0.0039  0.6289
 8468SOL    HW237038   3.157   3.805   6.739  0.2904  1.4653 -0.6131
 8469SOL     OW37039   0.264   2.956   7.891  0.1131  0.6232  0.3170
 8469SOL    HW137040   0.244   2.994   7.977  0.5540  2.3725 -0.3450
 8469SOL    HW237041   0.176   2.922   7.878  0.1799  1.3778 -2.0825
 8470SOL     OW37042   3.263   1.686   1.738 -0.1652  0.2794  0.3785
 8470SOL    HW137043   3.262   1.608   1.793 -2.0699 -0.5231 -0.7689
 8470SOL    HW237044   3.300   1.755   1.793 -0.5444 -0.4519  1.5627
 8471SOL     OW37045   2.336   3.721   7.689  0.3087 -0.3903 -0.8994
 8471SOL    HW137046   2.414   3.665   7.683  0.0181 -0.8844 -0.0434
 8471SOL    HW237047   2.380   3.803   7.666  0.7333 -0.4404 -0.2602
 8472SOL     OW37048   1.329   2.291  17.599  0.1272  0.4887 -0.4669
 8472SOL    HW137049   1.420   2.275  17.626 -0.9778 -0.7472  2.5100
 8472SOL    HW237050   1.312   2.382  17.620 -1.7076 -0.0240  0.2418
 8473SOL     OW37051   2.484   1.633   7.247 -0.1635 -0.0010 -0.1113
 8473SOL    HW137052   2.512   1.718   7.212  0.9891 -0.3427 -0.0435
 8473SOL    HW237053   2.455   1.660   7.334 -1.3412 -2.1575  0.1496
 8474SOL     OW37054   1.408   2.675   6.068 -0.4819 -0.4592 -0.0209
 8474SOL    HW137055   1.383   2.583   6.076 -0.0104 -0.5342  0.6545
 8474SOL    HW237056   1.333   2.722   6.104  0.8197  1.4318  0.2155
 8475SOL     OW37057   3.721   0.620   3.516 -0.1007 -0.0636 -0.3441
 8475SOL    HW137058   3.765   0.615   3.431  2.2002 -1.5327  0.9395
 8475SOL    HW237059   3.628   0.633   3.497 -0.0744  0.5483 -0.0559
 8476SOL     OW37060   1.457   2.072   9.139  0.6542 -0.1488  0.3964
 8476SOL    HW137061   1.463   2.097   9.047 -0.4818  0.9564  0.6250
 8476SOL    HW237062   1.478   1.979   9.139  1.2149 -0.0183 -1.9858
 8477SOL     OW37063   0.248   1.420   2.904  0.3090 -0.4482  0.4272
 8477SOL    HW137064   0.303   1.393   2.977  1.4144 -0.7789 -0.5294
 8477SOL    HW237065   0.274   1.512   2.897  0.8544 -0.5681  0.8526
 8478SOL     OW37066   2.272   3.259   8.158  0.1987 -0.2191  0.1791
 8478SOL    HW137067   2.261   3.178   8.207 -2.1923  0.3601  0.5929
 8478SOL    HW237068   2.238   3.235   8.072  1.2826  1.5642 -0.7671
 8479SOL     OW37069   2.213   0.566  13.369  0.1557 -0.4696 -0.4137
 8479SOL    HW137070   2.283   0.511  13.335  1.2593  1.3820 -1.1331
 8479SOL    HW237071   2.198   0.633  13.302 -1.4635 -1.1765 -0.7766
 8480SOL     OW37072   2.690   1.126   5.002  0.4508  0.0597  0.7943
 8480SOL    HW137073   2.615   1.125   5.061  0.9543  1.1782  1.4610
 8480SOL    HW237074   2.754   1.096   5.067 -1.3799  1.0541  3.0650
 8481SOL     OW37075   4.467   3.588   4.382 -0.3532  0.2972 -0.5757
 8481SOL    HW137076   4.525   3.609   4.455 -1.0171 -0.7102  0.2309
 8481SOL    HW237077   4.387   3.569   4.432 -0.9517  2.0954 -0.8353
 8482SOL     OW37078   0.531   2.412  16.955  0.0409  0.0842  0.7793
 8482SOL    HW137079   0.619   2.377  16.948 -0.0462  0.4059 -1.8785
 8482SOL    HW237080   0.488   2.328  16.936 -0.0699 -0.1663  2.1225
 8483SOL     OW37081   0.637   1.484  15.853 -0.3615 -0.0802  0.1148
 8483SOL    HW137082   0.565   1.421  15.864  1.0795 -1.3630  2.2637
 8483SOL    HW237083   0.672   1.479  15.942  2.3771  1.8202 -0.8464
 8484SOL     OW37084   4.577   0.328   6.369  0.0183  0.1337  0.3846
 8484SOL    HW137085   4.498   0.382   6.374  0.3698  0.3233  3.9782
 8484SOL    HW237086   4.574   0.302   6.277  1.8458  1.4224 -0.0358
 8485SOL     OW37087   1.806   2.581   3.599  0.3894 -1.3623  0.4970
 8485SOL    HW137088   1.834   2.622   3.681 -0.5068 -0.6885  0.4628
 8485SOL    HW237089   1.892   2.565   3.560  0.3180 -0.5429  0.0134
 8486SOL     OW37090   3.913   1.539  15.300  0.2299  0.0193  0.4457
 8486SOL    HW137091   3.889   1.479  15.230  1.5463  1.4429 -1.2130
 8486SOL    HW237092   3.873   1.622  15.276 -2.2590 -0.7299  2.0418
 8487SOL     OW37093   1.407   3.216   1.009  0.2782  0.1269 -0.3235
 8487SOL    HW137094   1.342   3.153   0.978 -0.2421 -0.3802  1.7949
 8487SOL    HW237095   1.359   3.298   1.005 -0.1292 -0.1996 -2.0290
 8488SOL     OW37096   1.175   0.067   8.398 -0.4111 -0.2704 -0.3425
 8488SOL    HW137097   1.093   0.020   8.382 -1.9066  1.2510  3.0097
 8488SOL    HW237098   1.226   4.733   8.426  1.0320  0.1669 -1.7695
 8489SOL     OW37099   0.016   4.693  12.619 -0.3104  0.2485 -0.0940
 8489SOL    HW137100   0.025   4.660  12.708  2.1179  0.3999 -0.2808
 8489SOL    HW237101   4.719   4.619  12.572 -0.8620  0.4079  0.1090
 8490SOL     OW37102   4.200   3.494   2.648 -0.5062  0.0102 -0.7108
 8490SOL    HW137103   4.142   3.567   2.669  0.9072  0.3349  1.9707
 8490SOL    HW237104   4.184   3.433   2.720 -1.1653 -0.7398 -1.4827
 8491SOL     OW37105   2.487   2.934   4.545 -0.3957 -0.0727 -0.3593
 8491SOL    HW137106   2.407   2.979   4.519 -0.4444  1.3173  2.1371
 8491SOL    HW237107   2.471   2.944   4.639  0.7766  0.9101 -0.2628
 8492SOL     OW37108   0.570   3.287  12.356 -0.0390  0.5585  0.2912
 8492SOL    HW137109   0.654   3.242  12.366 -2.3248 -3.5576  0.9893
 8492SOL    HW237110   0.609   3.373  12.341 -3.2761  2.1937  1.2792
 8493SOL     OW37111   2.160   1.609   2.662  0.4248  1.0846  0.1759
 8493SOL    HW137112   2.079   1.654   2.637  0.0630  0.4501  0.2131
 8493SOL    HW237113   2.213   1.605   2.582  0.6282  2.0405  0.2608
 8494SOL     OW37114   3.914   2.290   2.981 -0.3911  0.7146  0.6525
 8494SOL    HW137115   3.949   2.352   3.045 -0.4165  0.0541  1.3022
 8494SOL    HW237116   3.903   2.344   2.903  0.2668 -0.5060 -0.2932
 8495SOL     OW37117   1.627   0.222  11.902  0.6377  0.0126 -0.3754
 8495SOL    HW137118   1.687   0.148  11.892  0.3755 -0.4892  1.8909
 8495SOL    HW237119   1.665   0.288  11.844  1.6197  0.0310  0.2780
 8496SOL     OW37120   1.528   1.983   8.478  0.7124 -0.1104  0.0636
 8496SOL    HW137121   1.583   1.969   8.402 -1.8217 -1.1457 -1.5852
 8496SOL    HW237122   1.557   2.072   8.498  1.2560 -0.7051  1.9945
 8497SOL     OW37123   3.812   2.127   4.921  0.7280 -0.4698 -0.6628
 8497SOL    HW137124   3.792   2.034   4.911  0.1704 -0.3977 -0.2382
 8497SOL    HW237125   3.783   2.156   4.834 -0.6544 -1.4678 -0.5406
 8498SOL     OW37126   0.152   0.864   7.129 -0.0339 -0.2856  0.1630
 8498SOL    HW137127   0.195   0.817   7.200 -0.0121 -1.9207 -0.9256
 8498SOL    HW237128   0.220   0.894   7.068 -0.4835  1.3148  0.4403
 8499SOL     OW37129   4.373   0.488   1.956 -0.4350 -0.1891 -0.0276
 8499SOL    HW137130   4.283   0.468   1.931 -0.4107 -0.7036  0.2982
 8499SOL    HW237131   4.408   0.411   2.000  3.9347  1.8698  0.0462
 8500SOL     OW37132   0.604   4.090   5.297  0.5002 -0.1205  0.1627
 8500SOL    HW137133   0.556   4.172   5.310 -0.7715 -0.9830  0.8539
 8500SOL    HW237134   0.583   4.050   5.381  0.8388 -0.2528  0.1833
 8501SOL     OW37135   0.765   1.968   4.792  0.0367 -0.1978  0.4891
 8501SOL    HW137136   0.754   2.063   4.790  1.0197 -0.1180 -1.1410
 8501SOL    HW237137   0.744   1.951   4.883  0.3941  1.7007  0.9216
 8502SOL     OW37138   0.537   2.420   4.697  0.7834  0.4016  0.4253
 8502SOL    HW137139   0.470   2.486   4.679  1.0449  0.3858 -0.6131
 8502SOL    HW237140   0.614   2.474   4.714  1.7695 -1.0233  0.5264
 8503SOL     OW37141   4.373   0.387   9.161  0.6329  0.2769  0.5590
 8503SOL    HW137142   4.448   0.364   9.217  1.8819  1.0680 -0.7799
 8503SOL    HW237143   4.305   0.329   9.196 -0.4459  0.3406 -1.4133
 8504SOL     OW37144   2.345   4.338   5.387 -0.1401 -0.6194 -0.1242
 8504SOL    HW137145   2.391   4.265   5.430  0.8263 -0.7555 -1.3992
 8504SOL    HW237146   2.406   4.358   5.317  0.3245 -0.1261  0.4192
 8505SOL     OW37147   0.330   1.919   5.163 -0.0963 -0.5792  0.0447
 8505SOL    HW137148   0.318   1.969   5.244 -2.3218 -2.6239  0.9935
 8505SOL    HW237149   0.378   1.842   5.195  1.0255 -0.5403 -1.5669
 8506SOL     OW37150   2.839   2.006   1.293  0.1636 -0.1367 -0.3629
 8506SOL    HW137151   2.923   2.029   1.253  0.1727  1.2879  0.4881
 8506SOL    HW237152   2.860   1.934   1.353  2.1778 -0.5914 -1.6033
 8507SOL     OW37153   1.915   3.044   4.724 -0.2941  0.7039 -0.4412
 8507SOL    HW137154   1.866   2.963   4.737 -1.0508  1.3361  0.5987
 8507SOL    HW237155   1.949   3.039   4.635  3.0162 -0.0020  0.8246
 8508SOL     OW37156   1.923   3.841   6.563 -0.3864  0.4172 -0.0434
 8508SOL    HW137157   1.981   3.839   6.639 -0.8119  2.5422  0.3595
 8508SOL    HW237158   1.890   3.752   6.562  1.3247 -0.2245 -0.0832
 8509SOL     OW37159   0.979   3.252   2.124  0.5445 -0.3306  0.0437
 8509SOL    HW137160   0.891   3.284   2.104  1.1052  1.3077  0.2326
 8509SOL    HW237161   0.989   3.302   2.204  2.0929 -0.8775  0.1754
 8510SOL     OW37162   3.165   3.881   7.683 -0.4346  0.5771  0.1361
 8510SOL    HW137163   3.086   3.854   7.729 -0.0743 -0.3927  0.1928
 8510SOL    HW237164   3.175   3.975   7.700 -0.3270  0.3943  1.0910
 8511SOL     OW37165   2.157   3.266   6.172  0.2318 -0.1813  0.3933
 8511SOL    HW137166   2.213   3.190   6.187 -2.3626 -2.4713 -1.5800
 8511SOL    HW237167   2.155   3.250   6.078  0.1859 -0.9455  0.5233
 8512SOL     OW37168   3.148   1.059  14.729 -0.3558 -0.1428  0.1747
 8512SOL    HW137169   3.145   1.074  14.635  0.8450 -0.2604  0.1224
 8512SOL    HW237170   3.099   0.977  14.731 -0.7331  0.0794  0.1058
 8513SOL     OW37171   2.812   1.701   8.603 -0.1562  0.8501 -0.2885
 8513SOL    HW137172   2.752   1.772   8.625  0.4764  1.0775  0.6815
 8513SOL    HW237173   2.901   1.735   8.601  0.1749 -0.1308 -2.2771
 8514SOL     OW37174   0.867   1.246   8.599  0.2789 -0.2772 -1.2464
 8514SOL    HW137175   0.845   1.193   8.522 -3.0495  1.6156 -1.6177
 8514SOL    HW237176   0.832   1.203   8.677  2.2863  0.5739  0.1288
 8515SOL     OW37177   3.112   2.239   8.867  0.3754  0.0213 -0.1323
 8515SOL    HW137178   3.157   2.205   8.790 -0.2463 -1.4532  0.1496
 8515SOL    HW237179   3.176   2.304   8.897 -1.8195  2.4584 -0.6941
 8516SOL     OW37180   4.739   3.275   4.627  0.0595 -0.4759  0.2986
 8516SOL    HW137181   0.084   3.286   4.588 -1.2112  1.4796 -1.9581
 8516SOL    HW237182   4.686   3.322   4.563  0.0141 -2.1984 -0.9445
 8517SOL     OW37183   1.840   1.059  14.586 -0.3930 -0.3615 -0.0431
 8517SOL    HW137184   1.853   0.971  14.551  0.8438 -0.7844  1.4590
 8517SOL    HW237185   1.795   1.042  14.668 -0.1669  0.2142  0.2012
 8518SOL     OW37186   3.250   3.763  15.324 -0.1172  0.7527 -0.0650
 8518SOL    HW137187   3.166   3.746  15.282  0.0582 -2.8380  1.0202
 8518SOL    HW237188   3.231   3.832  15.386  1.1947  0.8620  0.2240
 8519SOL     OW37189   1.464   2.133   9.406  0.0968 -0.2765 -0.0460
 8519SOL    HW137190   1.557   2.141   9.424  0.0908  1.8281 -0.8527
 8519SOL    HW237191   1.459   2.113   9.313 -0.5774 -1.7137  0.2996
 8520SOL     OW37192   4.064   2.585   6.467 -0.5390  0.2575 -0.0408
 8520SOL    HW137193   4.020   2.512   6.424 -0.0074 -0.1873  0.1817
 8520SOL    HW237194   3.990   2.626   6.512 -0.3640  2.1748 -1.4704
 8521SOL     OW37195   2.865   3.881   8.502  0.4151  0.5814 -0.3317
 8521SOL    HW137196   2.939   3.941   8.494  1.2204 -0.0455  2.4317
 8521SOL    HW237197   2.893   3.793   8.478 -0.8519 -0.3004  1.4058
 8522SOL     OW37198   0.998   1.143   7.832  0.0657  0.0611 -0.5142
 8522SOL    HW137199   0.928   1.192   7.875 -0.1805 -1.1135  0.4362
 8522SOL    HW237200   1.037   1.089   7.901  2.0536  1.3642 -0.6202
 8523SOL     OW37201   2.967   1.440  13.287  0.0447 -0.0638 -0.1368
 8523SOL    HW137202   3.007   1.515  13.243  1.1099 -0.0072  0.9241
 8523SOL    HW237203   2.973   1.367  13.225 -1.9416  0.3482 -0.8127
 8524SOL     OW37204   2.720   4.205   0.040 -0.2413  0.5026 -0.1079
 8524SOL    HW137205   2.679   4.158   0.112  0.5208  0.1852  0.1079
 8524SOL    HW237206   2.754   4.135  17.748  1.5139  0.5952  0.8472
 8525SOL     OW37207   0.593   1.109   7.182 -0.1196 -0.7040  0.1058
 8525SOL    HW137208   0.533   1.183   7.190 -0.4537 -0.5564 -3.5637
 8525SOL    HW237209   0.681   1.144   7.170 -0.9415  0.8414 -1.4246
 8526SOL     OW37210   2.952   3.043   7.359  0.1212 -0.3679  0.5001
 8526SOL    HW137211   2.927   3.024   7.268  2.5544 -1.5185  0.0899
 8526SOL    HW237212   2.929   2.961   7.403  0.8590 -0.8870 -0.0790
 8527SOL     OW37213   4.556   0.163  12.595  0.5767 -0.1152 -0.8387
 8527SOL    HW137214   4.595   0.080  12.624  0.0227 -0.1749 -0.2679
 8527SOL    HW237215   4.508   0.185  12.674  2.2592 -0.8930  0.3815
 8528SOL     OW37216   3.742   0.616   9.152 -0.2301  0.5824 -0.2511
 8528SOL    HW137217   3.797   0.539   9.165 -1.8215 -0.0544  2.7540
 8528SOL    HW237218   3.804   0.678   9.192 -0.7548  0.2696  1.0683
 8529SOL     OW37219   0.555   0.195   4.833 -0.1563  0.2128 -0.0212
 8529SOL    HW137220   0.603   0.156   4.906 -0.2661  0.1673  0.0273
 8529SOL    HW237221   0.534   0.282   4.866 -1.0251  0.0996 -0.2816
 8530SOL     OW37222   0.268   0.996   4.729 -0.0558  0.1599 -0.3799
 8530SOL    HW137223   0.218   1.052   4.670 -0.5029 -0.1410 -0.2826
 8530SOL    HW237224   0.245   0.919   4.678 -1.2297  1.2397 -1.4705
 8531SOL     OW37225   2.541   0.994   1.007 -0.2152  0.7509 -0.1789
 8531SOL    HW137226   2.623   1.039   1.026  0.2911 -0.6593  1.0152
 8531SOL    HW237227   2.481   1.068   1.001  2.0103  2.6579  1.2664
 8532SOL     OW37228   4.209   2.307  16.913 -0.1649 -0.2321  0.4882
 8532SOL    HW137229   4.119   2.304  16.946 -0.2125 -3.9663  0.0505
 8532SOL    HW237230   4.243   2.392  16.941 -0.7693  1.2191 -3.1943
 8533SOL     OW37231   2.649   1.180  13.367  0.0901  0.1470  0.2987
 8533SOL    HW137232   2.581   1.200  13.302  1.8805  0.2244 -1.5657
 8533SOL    HW237233   2.717   1.149  13.307  1.3059  2.2156  0.6218
 8534SOL     OW37234   3.031   3.856  10.674  0.1283 -0.0711  0.0261
 8534SOL    HW137235   3.025   3.760  10.673  1.6698 -0.1369 -1.2525
 8534SOL    HW237236   3.126   3.865  10.670  0.3093 -0.5196  3.1497
 8535SOL     OW37237   0.872   2.870   2.843 -0.0133 -0.1201 -0.2818
 8535SOL    HW137238   0.851   2.916   2.924  2.2865 -0.9326  0.7589
 8535SOL    HW237239   0.798   2.886   2.784  1.5080  1.0059 -1.9241
 8536SOL     OW37240   3.351   1.796   7.611  0.4153 -1.0488 -0.8649
 8536SOL    HW137241   3.280   1.785   7.548 -0.4848  0.1244 -0.0554
 8536SOL    HW237242   3.328   1.722   7.667 -0.3666 -0.5913 -0.5847
 8537SOL     OW37243   1.479   0.701  15.176  0.0386  0.3637 -0.2682
 8537SOL    HW137244   1.442   0.701  15.088 -0.2150  0.3920 -0.1630
 8537SOL    HW237245   1.489   0.611  15.207 -2.4042 -0.3281 -1.4442
 8538SOL     OW37246   2.408   4.458   4.831 -0.2249  0.0687 -0.3207
 8538SOL    HW137247   2.441   4.473   4.742 -0.6599  0.2160 -0.4551
 8538SOL    HW237248   2.345   4.529   4.825 -1.2138 -0.9252 -1.8042
 8539SOL     OW37249   2.198   0.771  16.278 -0.0213  0.1581 -0.1682
 8539SOL    HW137250   2.235   0.814  16.201 -0.5856 -0.0836 -0.5767
 8539SOL    HW237251   2.183   0.682  16.246  1.8297 -1.0889  2.3845
 8540SOL     OW37252   2.677   4.258  16.083 -0.9680 -0.1110  0.3126
 8540SOL    HW137253   2.668   4.317  16.157 -0.4019  0.4037 -0.0235
 8540SOL    HW237254   2.763   4.275  16.044 -0.8444  1.8123  1.4241
 8541SOL     OW37255   3.239   2.664   7.715 -0.5616  0.3611 -0.0578
 8541SOL    HW137256   3.180   2.589   7.727 -0.3645  0.2774  0.4058
 8541SOL    HW237257   3.325   2.628   7.694 -1.6959 -0.8517 -2.6551
 8542SOL     OW37258   3.089   4.040   4.907 -0.0991  0.1683 -0.8490
 8542SOL    HW137259   3.047   3.964   4.947  1.4727 -1.8550 -3.0090
 8542SOL    HW237260   3.017   4.062   4.847  1.0147  1.0110 -1.8631
 8543SOL     OW37261   1.461   1.377   4.257  0.0139  0.2347 -0.3419
 8543SOL    HW137262   1.505   1.373   4.172  0.4481 -1.4889 -0.0312
 8543SOL    HW237263   1.497   1.462   4.284  1.2519 -0.1572 -0.7743
 8544SOL     OW37264   4.181   3.727  12.259  0.3937  0.1436  0.0508
 8544SOL    HW137265   4.116   3.699  12.194  0.2940  1.5307 -0.4421
 8544SOL    HW237266   4.254   3.723  12.198  0.1841  0.3537 -0.2135
 8545SOL     OW37267   3.600   4.095   0.266  0.0800  0.2293 -0.1518
 8545SOL    HW137268   3.545   4.155   0.315 -3.1627 -3.2860  0.5155
 8545SOL    HW237269   3.581   4.133   0.180 -1.1026  1.4468  0.6495
 8546SOL     OW37270   1.776   3.357   2.049 -0.2729  0.2439  0.1291
 8546SOL    HW137271   1.864   3.355   2.011 -0.2104 -2.3268  0.4292
 8546SOL    HW237272   1.737   3.278   2.014 -0.0797 -0.4919  1.5451
 8547SOL     OW37273   3.270   0.037   7.311 -0.4612  0.4823  0.1119
 8547SOL    HW137274   3.291   0.125   7.341  1.0500  0.1161  0.1561
 8547SOL    HW237275   3.211   0.006   7.379 -0.2593  2.0998  1.0226
 8548SOL     OW37276   2.288   1.830   7.449  0.6652 -0.2515 -0.0019
 8548SOL    HW137277   2.228   1.779   7.503 -2.0882  1.9922 -0.9470
 8548SOL    HW237278   2.236   1.909   7.431 -0.2727 -1.6445 -3.5274
 8549SOL     OW37279   3.612   3.238   2.858  0.3245  0.2365 -0.2646
 8549SOL    HW137280   3.686   3.238   2.797  0.0367 -1.2488 -0.6129
 8549SOL    HW237281   3.670   3.245   2.934  3.0176  1.3238 -2.3997
 8550SOL     OW37282   2.252   1.422   8.251  0.2264  0.0601  0.0441
 8550SOL    HW137283   2.309   1.444   8.325  1.5983 -1.3475 -0.6091
 8550SOL    HW237284   2.310   1.385   8.185 -0.0708 -0.1131 -0.1131
 8551SOL     OW37285   4.011   4.195   5.401  0.0720  0.3462 -0.1045
 8551SOL    HW137286   3.961   4.263   5.355 -0.2119 -1.7339 -2.8767
 8551SOL    HW237287   4.101   4.228   5.394  0.6124 -0.9595  0.7223
 8552SOL     OW37288   2.339   3.580  14.622  0.5263 -0.5138  0.1986
 8552SOL    HW137289   2.355   3.549  14.533 -0.8575 -1.1250  0.1539
 8552SOL    HW237290   2.413   3.538  14.666  2.2610  2.0319 -0.3396
 8553SOL     OW37291   3.350   1.876   3.132  0.3503  0.1373 -0.3330
 8553SOL    HW137292   3.422   1.813   3.144  0.2369 -0.1051 -0.9345
 8553SOL    HW237293   3.351   1.873   3.037  0.7782 -0.3882 -0.3106
 8554SOL     OW37294   0.200   1.836   4.457 -0.2776 -0.4412  0.0124
 8554SOL    HW137295   0.253   1.821   4.379  0.5224  0.9156  0.2941
 8554SOL    HW237296   0.266   1.850   4.526 -1.7550  2.4072  0.8622
 8555SOL     OW37297   4.454   2.335   5.917  0.6137  0.1249 -0.1756
 8555SOL    HW137298   4.506   2.259   5.890 -1.0544 -0.8431 -0.6811
 8555SOL    HW237299   4.411   2.303   5.997  3.6543 -1.1578  0.9577
 8556SOL     OW37300   3.319   1.944   5.738  0.4578  0.2455  0.5167
 8556SOL    HW137301   3.224   1.955   5.743  0.5575  1.9284 -1.3126
 8556SOL    HW237302   3.319   1.853   5.769 -1.3199 -0.3300 -1.1705
 8557SOL     OW37303   1.113   1.338   8.618 -0.3600 -0.1323 -0.3421
 8557SOL    HW137304   1.030   1.291   8.609  0.0801 -0.8770 -0.5229
 8557SOL    HW237305   1.077   1.408   8.672 -1.3697 -0.9651  0.0759
 8558SOL     OW37306   1.612   2.682   0.811  0.2261 -0.6416  0.2310
 8558SOL    HW137307   1.637   2.771   0.836  1.6555 -1.2734  1.0535
 8558SOL    HW237308   1.686   2.621   0.814  0.4374 -0.3798  0.3524
 8559SOL     OW37309   0.554   3.264   7.976 -0.3412  0.6626  0.2154
 8559SOL    HW137310   0.626   3.218   8.019 -0.4741 -1.9674 -2.3341
 8559SOL    HW237311   0.485   3.226   8.030  0.4504  0.4378  1.0723
 8560SOL     OW37312   2.997   0.884   8.838  0.0494 -0.4669 -0.0568
 8560SOL    HW137313   3.065   0.873   8.905 -0.8587  0.3614  1.0041
 8560SOL    HW237314   2.969   0.971   8.866  1.6992  0.8482 -2.4972
 8561SOL     OW37315   0.911   2.821   9.612  0.3975 -0.0315 -0.1379
 8561SOL    HW137316   0.911   2.746   9.553  0.5886 -2.0228  2.3644
 8561SOL    HW237317   0.951   2.889   9.558  1.6678 -2.8903 -2.8099
 8562SOL     OW37318   4.373   4.489   6.390  0.3454  0.1651 -0.2892
 8562SOL    HW137319   4.466   4.474   6.373  0.8882  1.0460  1.8085
 8562SOL    HW237320   4.337   4.433   6.322 -1.7442  0.0462  0.9242
 8563SOL     OW37321   0.296   0.041   5.105  0.0765  0.1344 -0.0501
 8563SOL    HW137322   0.255   0.057   5.190 -3.0262  0.3512 -1.5793
 8563SOL    HW237323   0.244   0.104   5.055  0.0358  2.1427  2.5040
 8564SOL     OW37324   0.493   3.881  11.533 -0.0784 -0.5558 -0.9818
 8564SOL    HW137325   0.582   3.915  11.541 -1.2565  1.3189  4.3029
 8564SOL    HW237326   0.491   3.819  11.459 -0.9456 -0.1078 -1.3307
 8565SOL     OW37327   1.159   1.681   5.470  0.3984  0.3343  0.2063
 8565SOL    HW137328   1.197   1.608   5.422  0.7908  0.4214  0.3800
 8565SOL    HW237329   1.229   1.744   5.452 -0.3887  1.2489  0.3419
 8566SOL     OW37330   0.415   1.385   4.501 -0.1899  0.5767  0.5711
 8566SOL    HW137331   0.496   1.434   4.494  0.8307 -0.6218  4.2212
 8566SOL    HW237332   0.400   1.370   4.594  0.2261 -0.8914  0.4005
 8567SOL     OW37333   2.210   3.113   3.386  0.0270  0.2198 -0.0671
 8567SOL    HW137334   2.299   3.079   3.400  0.3692  0.9917 -0.3804
 8567SOL    HW237335   2.198   3.112   3.291  1.3335  0.7679 -0.2352
 8568SOL     OW37336   2.346   1.229   5.982  0.0319  1.0120 -0.7987
 8568SOL    HW137337   2.403   1.299   6.013  2.7219 -0.9848 -1.2147
 8568SOL    HW237338   2.281   1.224   6.053  0.1643 -2.0830 -0.8715
 8569SOL     OW37339   1.833   0.095   7.735 -0.1162  0.1842  0.1138
 8569SOL    HW137340   1.878   0.047   7.665  1.8089 -1.1770  2.2764
 8569SOL    HW237341   1.772   0.134   7.672 -0.9048 -2.5467 -0.7914
 8570SOL     OW37342   0.785   1.530   0.611 -0.2917 -0.0144 -0.4532
 8570SOL    HW137343   0.730   1.606   0.596  0.1081  0.6878  1.5565
 8570SOL    HW237344   0.860   1.543   0.553  1.0382  0.3930  1.3225
 8571SOL     OW37345   2.482   0.705   8.905 -0.5791  0.1564 -0.2851
 8571SOL    HW137346   2.538   0.739   8.974 -1.3071  1.1250 -0.1818
 8571SOL    HW237347   2.537   0.721   8.828  2.1475  2.6307  2.2117
 8572SOL     OW37348   3.243   1.799   3.816 -0.4867 -0.1495 -0.4600
 8572SOL    HW137349   3.264   1.798   3.722 -1.0838 -0.0710 -0.5905
 8572SOL    HW237350   3.286   1.718   3.844 -0.0071  0.4563  0.5599
 8573SOL     OW37351   4.340   4.638   8.070 -0.3032  0.8958 -0.6929
 8573SOL    HW137352   4.359   4.643   7.977  3.4321  1.9126  0.1254
 8573SOL    HW237353   4.364   4.548   8.095 -1.3589  0.6962 -0.3933
 8574SOL     OW37354   1.849   2.645   0.555  0.6582  0.1827 -0.3916
 8574SOL    HW137355   1.802   2.728   0.556  2.5727  1.2361  2.4577
 8574SOL    HW237356   1.938   2.679   0.546  0.8569 -0.2904 -0.1902
 8575SOL     OW37357   3.238   4.091   5.702 -0.0008 -0.0596  0.2486
 8575SOL    HW137358   3.266   4.144   5.776 -0.6107 -0.0515  0.4718
 8575SOL    HW237359   3.301   4.117   5.634  0.5811 -2.3115 -0.0698
 8576SOL     OW37360   0.551   1.473   2.738  0.0976 -0.1616 -0.4700
 8576SOL    HW137361   0.588   1.498   2.822 -0.8758  1.2229 -0.4733
 8576SOL    HW237362   0.589   1.386   2.721  0.7588  0.1528 -0.6246
 8577SOL     OW37363   4.685   4.692   3.544  0.0213 -0.7307 -0.3339
 8577SOL    HW137364   0.022   4.667   3.496  0.8726  2.9309 -0.8472
 8577SOL    HW237365   4.651   4.603   3.553 -2.4879 -0.0510 -2.9716
 8578SOL     OW37366   2.236   0.957  10.277  0.4001  0.0085  0.3987
 8578SOL    HW137367   2.171   0.954  10.347 -1.2496  0.0636 -1.1186
 8578SOL    HW237368   2.219   0.869  10.244 -2.1537  0.6568 -0.0496
 8579SOL     OW37369   3.297   1.121   6.638 -0.5999  0.5222 -0.3544
 8579SOL    HW137370   3.283   1.095   6.729  0.5846  0.1600 -0.2713
 8579SOL    HW237371   3.215   1.160   6.607 -0.6398  0.8666  0.1997
 8580SOL     OW37372   1.024   3.430   8.741 -0.2799  0.0299 -0.4177
 8580SOL    HW137373   1.103   3.414   8.793  1.9330  1.3273 -3.3760
 8580SOL    HW237374   1.005   3.524   8.746 -0.7551 -0.1470  1.0735
 8581SOL     OW37375   3.252   3.762   4.112 -0.6439 -0.4589  0.2516
 8581SOL    HW137376   3.171   3.804   4.142 -0.6968  0.6012 -1.3380
 8581SOL    HW237377   3.278   3.820   4.040  1.7180 -3.0410 -0.9662
 8582SOL     OW37378   0.456   4.716   5.684  0.2848  0.5856 -0.0573
 8582SOL    HW137379   0.431   0.044   5.623 -2.2464  0.3402  0.6914
 8582SOL    HW237380   0.514   0.025   5.741 -0.6276 -0.6031  1.9347
 8583SOL     OW37381   0.250   3.982   4.765  0.2092 -0.1926  0.6288
 8583SOL    HW137382   0.315   3.920   4.731  2.1362  2.0405  0.2486
 8583SOL    HW237383   0.297   4.064   4.751  0.8689 -0.4996  1.0531
 8584SOL     OW37384   3.304   0.584   7.878 -0.1926 -0.4788 -0.0462
 8584SOL    HW137385   3.277   0.649   7.814  0.2399  0.2310  0.4821
 8584SOL    HW237386   3.224   0.561   7.925 -1.3005 -2.5244 -2.9303
 8585SOL     OW37387   1.331   0.898  15.335  0.2820  0.0290 -0.0234
 8585SOL    HW137388   1.375   0.869  15.255  2.1648  0.8119  0.7160
 8585SOL    HW237389   1.410   0.922  15.384 -0.0903 -1.5483  1.3359
 8586SOL     OW37390   3.631   1.144   6.714 -0.2190  0.1987  0.4842
 8586SOL    HW137391   3.643   1.124   6.807 -0.3095  0.2851  0.5141
 8586SOL    HW237392   3.580   1.225   6.715 -0.5604  0.0199 -2.5061
 8587SOL     OW37393   2.288   0.632  15.229  0.1264  0.2603  0.4875
 8587SOL    HW137394   2.287   0.574  15.152 -0.5468 -0.8570  1.3248
 8587SOL    HW237395   2.217   0.693  15.210 -0.2279 -0.6982 -1.2957
 8588SOL     OW37396   4.565   1.661   2.991 -0.3632 -0.3461  0.0827
 8588SOL    HW137397   4.552   1.733   3.053 -2.1368  0.8408 -1.6168
 8588SOL    HW237398   4.528   1.592   3.045  1.1257 -1.4064 -0.2702
 8589SOL     OW37399   4.209   3.247  10.544 -0.3787 -0.0092  0.4445
 8589SOL    HW137400   4.226   3.259  10.451 -1.0866 -1.1018  0.1872
 8589SOL    HW237401   4.136   3.309  10.553  0.2062  0.6529  0.7038
 8590SOL     OW37402   0.135   2.512   4.850  0.0674  0.2378 -0.2676
 8590SOL    HW137403   0.173   2.441   4.902  0.1337 -0.2967 -1.0424
 8590SOL    HW237404   0.198   2.504   4.778 -1.4476  0.1135 -1.6029
 8591SOL     OW37405   2.858   2.573  12.763 -0.1667  0.3108 -0.0404
 8591SOL    HW137406   2.831   2.508  12.698 -0.2943  0.9562 -0.6293
 8591SOL    HW237407   2.923   2.618  12.710  0.3188 -0.8010 -0.3887
 8592SOL     OW37408   2.411   3.351  16.855  0.4941  0.0144  0.2444
 8592SOL    HW137409   2.416   3.438  16.895  1.5170 -0.1653  0.5101
 8592SOL    HW237410   2.334   3.317  16.900  0.9934 -0.7907  0.4757
 8593SOL     OW37411   2.861   2.484  13.280 -0.0235 -0.0785  0.2742
 8593SOL    HW137412   2.899   2.415  13.226 -1.2372  1.2665 -2.2616
 8593SOL    HW237413   2.880   2.555  13.219 -1.1846 -1.4973 -1.7300
 8594SOL     OW37414   0.037   1.639   5.668 -0.3695 -0.1788 -0.1459
 8594SOL    HW137415   0.091   1.587   5.726  1.0311  0.2141 -1.0926
 8594SOL    HW237416   0.092   1.717   5.656  0.9080 -1.1568 -0.5831
 8595SOL     OW37417   1.432   2.429   4.932 -0.1294 -0.3091 -0.4042
 8595SOL    HW137418   1.431   2.351   4.987  1.4810  0.1870  0.3065
 8595SOL    HW237419   1.518   2.459   4.960 -1.4561 -0.8046  4.2378
 8596SOL     OW37420   1.332   0.716   8.164  0.7131 -0.3888  0.0887
 8596SOL    HW137421   1.332   0.622   8.146  0.4086 -0.3046 -0.3493
 8596SOL    HW237422   1.392   0.723   8.238 -0.7831  1.0627  1.1725
 8597SOL     OW37423   1.531   2.967   4.167 -0.2328 -0.6715 -0.5781
 8597SOL    HW137424   1.576   2.963   4.082 -3.0590  0.9659 -2.1434
 8597SOL    HW237425   1.448   3.004   4.138  0.5614  0.1078 -1.8635
 8598SOL     OW37426   3.141   4.382   0.754  0.0687  0.0526 -0.0256
 8598SOL    HW137427   3.135   4.314   0.686 -3.2444 -1.2896  1.6122
 8598SOL    HW237428   3.103   4.457   0.709 -0.5261 -0.5617 -0.5388
 8599SOL     OW37429   4.418   4.635   5.852  0.1861 -0.2157  0.3011
 8599SOL    HW137430   4.437   4.547   5.820 -0.4132 -1.5316  3.5552
 8599SOL    HW237431   4.332   4.637   5.809  1.2404  0.1134 -1.7837
 8600SOL     OW37432   0.517   1.951  10.945 -0.5460  0.0364  0.0544
 8600SOL    HW137433   0.609   1.941  10.920 -0.4982  0.0131  0.2399
 8600SOL    HW237434   0.479   1.869  10.913  1.8051 -0.4263 -1.5431
 8601SOL     OW37435   1.476   1.319   6.364  0.2060 -0.0553  0.0532
 8601SOL    HW137436   1.496   1.409   6.340 -1.3446 -0.6477 -3.4476
 8601SOL    HW237437   1.551   1.292   6.417  0.0387  0.4636  0.5478
 8602SOL     OW37438   0.341   1.181  17.116 -0.1143 -0.3136  0.1671
 8602SOL    HW137439   0.284   1.257  17.128  1.3840  0.9646 -0.8680
 8602SOL    HW237440   0.289   1.118  17.067  2.0131 -0.6890 -1.6039
 8603SOL     OW37441   1.255   2.844   3.886  0.3114 -0.7210 -0.3832
 8603SOL    HW137442   1.212   2.814   3.807 -0.1682  1.2398 -0.8712
 8603SOL    HW237443   1.346   2.833   3.859  0.7808 -2.2100  1.8070
 8604SOL     OW37444   0.246   2.592   2.701  0.2248  0.2022 -0.1685
 8604SOL    HW137445   0.265   2.686   2.700  0.4185  0.1986  4.1509
 8604SOL    HW237446   0.333   2.556   2.682  1.8784  5.4762 -2.5438
 8605SOL     OW37447   3.898   1.057   9.137  0.0683 -0.1518  0.4108
 8605SOL    HW137448   3.950   0.994   9.186 -1.3993 -0.6763  1.2961
 8605SOL    HW237449   3.854   1.097   9.212  1.7993 -1.0949  1.9311
 8606SOL     OW37450   0.501   3.540   8.698 -0.3913  0.5432 -0.2591
 8606SOL    HW137451   0.557   3.463   8.683  0.2052  0.9022  0.1226
 8606SOL    HW237452   0.545   3.599   8.637  0.3267 -0.1353 -0.4060
 8607SOL     OW37453   0.427   3.399   3.995  0.1558 -0.3064  0.1043
 8607SOL    HW137454   0.519   3.424   3.985  0.4017 -1.3981 -0.3703
 8607SOL    HW237455   0.387   3.470   3.945 -1.7093 -0.9820  0.6392
 8608SOL     OW37456   3.959   4.231   9.320 -0.4205  0.4725  0.3755
 8608SOL    HW137457   3.885   4.175   9.299 -1.4715  3.1310 -3.0773
 8608SOL    HW237458   3.921   4.315   9.291  0.0073  0.8500  0.9025
 8609SOL     OW37459   2.888   4.699   9.041 -0.4283 -0.1652 -0.3660
 8609SOL    HW137460   2.937   0.029   9.083  0.1722 -0.7261 -0.1264
 8609SOL    HW237461   2.883   4.727   8.950 -2.4081 -0.8301 -0.4633
 8610SOL     OW37462   4.152   4.653  15.162  0.3149  0.3440 -0.4302
 8610SOL    HW137463   4.137   4.628  15.071 -0.1662  0.4475 -0.3776
 8610SOL    HW237464   4.173   0.003  15.143 -0.2245  0.7910  1.0980
 8611SOL     OW37465   3.602   2.730   3.706 -0.2105  0.1394  0.0127
 8611SOL    HW137466   3.557   2.706   3.786 -0.1036 -1.5201 -0.4113
 8611SOL    HW237467   3.583   2.824   3.698 -0.5821  0.0036 -0.7398
 8612SOL     OW37468   0.940   2.777   5.285  0.1849 -0.0275  0.4047
 8612SOL    HW137469   0.863   2.802   5.335 -1.2437 -1.2610 -1.1977
 8612SOL    HW237470   0.978   2.864   5.271 -0.7684  0.3597  0.2794
 8613SOL     OW37471   2.354   1.043   7.812  0.1792 -0.4444 -0.1314
 8613SOL    HW137472   2.348   0.958   7.768 -0.2584 -0.6458  0.3225
 8613SOL    HW237473   2.419   1.091   7.762  0.4000  0.0957  0.6744
 8614SOL     OW37474   4.346   1.358   6.311  0.5296  0.1966  0.0270
 8614SOL    HW137475   4.322   1.268   6.334  2.2359  0.1508  1.6498
 8614SOL    HW237476   4.423   1.381   6.363 -0.1219  1.4520  0.4666
 8615SOL     OW37477   3.466   1.321   2.408 -0.1596 -0.2396 -0.5518
 8615SOL    HW137478   3.469   1.276   2.323  2.7074 -2.3105  0.6461
 8615SOL    HW237479   3.374   1.348   2.411 -0.5579 -1.8762  1.7765
 8616SOL     OW37480   1.870   1.650   2.660  0.0159  0.9146  0.2556
 8616SOL    HW137481   1.817   1.643   2.739  0.7817  1.7403  0.8435
 8616SOL    HW237482   1.833   1.573   2.616 -0.9566  1.3808  0.2620
 8617SOL     OW37483   4.663   3.352  12.463  0.5485 -0.2542 -0.1940
 8617SOL    HW137484   4.726   3.284  12.435 -0.7008 -1.8025  0.7581
 8617SOL    HW237485   4.714   3.430  12.442  1.3073 -0.6636  0.0957
 8618SOL     OW37486   3.689   3.286   8.675 -0.2906  0.2236  0.2673
 8618SOL    HW137487   3.704   3.377   8.698  2.6653 -0.4506  1.0013
 8618SOL    HW237488   3.716   3.281   8.584 -2.5546  1.0100 -0.4324
 8619SOL     OW37489   1.276   1.462   9.297  0.3016 -0.3041  0.4626
 8619SOL    HW137490   1.319   1.521   9.359  1.6425 -1.7468  0.8994
 8619SOL    HW237491   1.329   1.474   9.219  1.7656 -0.9913  1.3365
 8620SOL     OW37492   0.681   0.021   3.880  0.0711 -0.0507 -0.5841
 8620SOL    HW137493   0.703   0.109   3.848 -0.1751  0.1718 -0.1345
 8620SOL    HW237494   0.586   0.033   3.872  0.0439  2.5891  3.5808
 8621SOL     OW37495   3.746   4.073   9.307  0.0361 -0.5576  0.3218
 8621SOL    HW137496   3.670   4.037   9.263  1.0334  0.0567 -1.9250
 8621SOL    HW237497   3.815   4.013   9.279 -1.3558 -3.0522  2.3098
 8622SOL     OW37498   1.515   2.305   2.154  0.0798 -0.1336 -0.5205
 8622SOL    HW137499   1.534   2.256   2.234 -0.9174 -0.1577 -0.2938
 8622SOL    HW237500   1.474   2.382   2.194 -1.8489 -0.8183 -1.1646
 8623SOL     OW37501   2.231   4.425   4.119  0.5831 -0.1963  0.1395
 8623SOL    HW137502   2.162   4.490   4.109 -1.5411 -2.4851 -0.0821
 8623SOL    HW237503   2.175   4.360   4.162  1.3919 -0.7704  0.3357
 8624SOL     OW37504   3.568   3.514   1.090  0.0953  0.4079 -0.2733
 8624SOL    HW137505   3.540   3.592   1.137  1.3249  1.7718 -1.8100
 8624SOL    HW237506   3.612   3.467   1.161  0.9216 -0.3808 -1.3089
 8625SOL     OW37507   3.952   1.109   8.230  0.4269  0.1308 -0.5473
 8625SOL    HW137508   4.021   1.113   8.297  1.0463  0.4504 -1.1967
 8625SOL    HW237509   3.931   1.016   8.237  0.1760  0.3395  1.5590
 8626SOL     OW37510   0.209   1.500   4.685  0.2054 -0.5121  0.2288
 8626SOL    HW137511   0.150   1.425   4.699 -0.5860  0.0166 -0.2785
 8626SOL    HW237512   0.201   1.506   4.590 -2.5620 -0.5629  0.4583
 8627SOL     OW37513   4.037   1.387   5.928  0.1206 -0.2116 -0.3883
 8627SOL    HW137514   3.950   1.354   5.909  0.9413 -1.5286 -1.8317
 8627SOL    HW237515   4.081   1.302   5.929 -1.2957 -0.9424  0.3907
 8628SOL     OW37516   4.569   3.326   2.872  0.9106 -0.0691  0.1891
 8628SOL    HW137517   4.654   3.308   2.833  0.5758 -1.0508 -0.0653
 8628SOL    HW237518   4.537   3.237   2.885  2.4429 -0.4398  1.4679
 8629SOL     OW37519   2.969   4.630   3.064  0.4718 -0.2848  0.1957
 8629SOL    HW137520   2.981   4.535   3.059 -0.2343 -0.2251 -2.1930
 8629SOL    HW237521   3.053   4.649   3.023 -1.0309  1.6607 -1.9345
 8630SOL     OW37522   2.953   4.058  17.558 -0.5893 -0.5987 -0.5946
 8630SOL    HW137523   2.898   4.010  17.619  0.8327 -0.5035  0.7764
 8630SOL    HW237524   2.950   4.148  17.589 -0.4501  0.0398 -2.4277
 8631SOL     OW37525   2.896   4.278   9.723 -0.5576  0.2317  0.6866
 8631SOL    HW137526   2.837   4.243   9.790 -2.5067 -1.0976 -1.7491
 8631SOL    HW237527   2.953   4.318   9.789 -1.0503  0.2391  1.1147
 8632SOL     OW37528   3.339   4.142  16.926  0.1123 -0.0129 -0.2455
 8632SOL    HW137529   3.329   4.226  16.969  0.4711 -0.7788  1.3165
 8632SOL    HW237530   3.269   4.147  16.861  0.2331  2.7465 -0.1756
 8633SOL     OW37531   2.188   3.005  11.420  0.3262  0.2281  0.3689
 8633SOL    HW137532   2.154   3.081  11.467  0.2879  1.1729 -1.1860
 8633SOL    HW237533   2.119   2.938  11.422 -1.8875  2.5308  1.5681
 8634SOL     OW37534   1.106   1.017  15.448 -0.6683 -0.2008  0.2773
 8634SOL    HW137535   1.128   0.999  15.539 -0.0022 -0.6258  0.0289
 8634SOL    HW237536   1.178   0.976  15.400 -2.9895 -1.2841 -2.2558
 8635SOL     OW37537   0.585   4.295   9.755  0.6408  0.6513  0.2990
 8635SOL    HW137538   0.549   4.342   9.679 -1.9867 -1.6892  0.0918
 8635SOL    HW237539   0.679   4.301   9.737  0.9882  1.7196  2.5199
 8636SOL     OW37540   0.504   4.216  16.705 -0.1832 -0.2471 -0.0126
 8636SOL    HW137541   0.437   4.242  16.769  1.0384  0.5951  0.9154
 8636SOL    HW237542   0.512   4.293  16.649 -2.7803 -0.1306 -0.2396
 8637SOL     OW37543   1.895   0.195  17.247 -0.4905 -0.6031 -0.4579
 8637SOL    HW137544   1.866   0.269  17.194 -0.1956 -0.6332 -0.6593
 8637SOL    HW237545   1.849   0.116  17.217 -0.1606 -0.7338 -0.6176
 8638SOL     OW37546   1.375   1.251   9.420 -0.8282  0.2477  0.1027
 8638SOL    HW137547   1.340   1.308   9.351 -1.5958 -1.4086 -0.8938
 8638SOL    HW237548   1.421   1.183   9.372  0.9855  1.8469 -0.4293
 8639SOL     OW37549   1.340   0.528   3.720  0.0603 -0.2098  0.2026
 8639SOL    HW137550   1.421   0.487   3.750 -1.3801 -1.9427  1.6753
 8639SOL    HW237551   1.275   0.483   3.773 -1.8583 -0.4670 -2.3642
 8640SOL     OW37552   1.252   0.914   5.792 -0.1744 -0.3376  0.0644
 8640SOL    HW137553   1.339   0.925   5.755 -0.8085  3.3997 -0.3370
 8640SOL    HW237554   1.267   0.836   5.844  1.0086 -0.0099  0.2231
 8641SOL     OW37555   1.447   0.038   8.585 -0.2425 -0.1019 -0.6063
 8641SOL    HW137556   1.441   4.719   8.511 -1.8179 -0.4468 -0.1959
 8641SOL    HW237557   1.397   4.730   8.650 -0.8832  0.6020 -0.5620
 8642SOL     OW37558   4.265   2.575   1.096 -0.5305 -0.7330 -0.0488
 8642SOL    HW137559   4.206   2.500   1.108  0.8756 -1.9144 -0.4026
 8642SOL    HW237560   4.348   2.527   1.099 -0.7675 -1.0801  1.0245
 8643SOL     OW37561   4.107   0.168   2.261  0.2181  0.2193 -0.0142
 8643SOL    HW137562   4.150   0.195   2.341 -1.3735  0.6018  0.7056
 8643SOL    HW237563   4.040   0.105   2.286  0.0052  0.0174 -1.0619
 8644SOL     OW37564   4.375   0.764   3.913  0.1099 -0.3476  0.1359
 8644SOL    HW137565   4.418   0.687   3.877 -0.0676 -0.4717  0.1857
 8644SOL    HW237566   4.391   0.838   3.854 -0.0680 -1.2109 -0.9943
 8645SOL     OW37567   2.834   1.977   2.473 -0.5058  0.4173  0.0459
 8645SOL    HW137568   2.911   1.962   2.527  0.1949  1.2378 -0.7253
 8645SOL    HW237569   2.803   1.886   2.470 -1.2652  0.7111 -1.2542
 8646SOL     OW37570   1.498   3.631  10.666 -0.7160  0.1195  0.2032
 8646SOL    HW137571   1.429   3.620  10.732 -2.0425  0.9790 -1.0594
 8646SOL    HW237572   1.438   3.663  10.599 -0.5440  0.6647  0.3082
 8647SOL     OW37573   1.062   0.599   2.554  0.2717 -0.1636  0.6436
 8647SOL    HW137574   1.121   0.610   2.628  1.9759  0.3460 -0.7713
 8647SOL    HW237575   1.107   0.641   2.480 -3.0652 -1.3894 -2.1023
 8648SOL     OW37576   2.958   0.980   3.972 -0.4240 -0.2766 -0.4804
 8648SOL    HW137577   2.956   0.885   3.988  0.7548 -0.2904 -0.3792
 8648SOL    HW237578   2.926   1.007   4.058 -0.6043 -1.9239 -0.0219
 8649SOL     OW37579   0.594   1.645   8.239 -0.1986  0.2864  0.5335
 8649SOL    HW137580   0.628   1.571   8.288 -1.0457 -1.5956 -1.7307
 8649SOL    HW237581   0.616   1.717   8.298 -1.4215 -0.0870  1.4569
 8650SOL     OW37582   2.153   2.356  12.218 -0.3193  0.2733 -0.3274
 8650SOL    HW137583   2.193   2.286  12.168  1.4967  0.2874  1.0988
 8650SOL    HW237584   2.163   2.420  12.148 -0.0302  0.0436 -0.4967
 8651SOL     OW37585   1.095   0.420   0.406 -0.3300 -0.0992  0.3378
 8651SOL    HW137586   1.057   0.361   0.471 -1.2732  0.0201 -0.0946
 8651SOL    HW237587   1.035   0.417   0.331 -3.5677  0.0570  2.9146
 8652SOL     OW37588   0.269   0.785   4.568 -0.2151  0.0508 -0.3631
 8652SOL    HW137589   0.246   0.715   4.507 -2.6993  0.2028  0.4033
 8652SOL    HW237590   0.359   0.755   4.580  0.9986  2.8381 -2.5191
 8653SOL     OW37591   0.265   3.229   7.714 -0.0649  0.1396 -0.3016
 8653SOL    HW137592   0.281   3.155   7.772 -2.5827  0.1182  0.3740
 8653SOL    HW237593   0.219   3.287   7.774 -0.5644  0.1814 -0.7237
 8654SOL     OW37594   0.364   2.773   2.963 -0.3860  0.0603  0.0590
 8654SOL    HW137595   0.364   2.679   2.979 -2.2970 -0.2431 -1.8221
 8654SOL    HW237596   0.273   2.799   2.950 -0.1873 -1.4613 -4.1574
 8655SOL     OW37597   0.318   0.334   7.509  0.1365 -0.1709 -0.0682
 8655SOL    HW137598   0.307   0.267   7.576  0.0998 -0.8193 -0.7282
 8655SOL    HW237599   0.228   0.346   7.479 -0.2233  1.0239  1.4658
 8656SOL     OW37600   2.141   0.286   9.278 -0.2012 -0.1709 -0.1660
 8656SOL    HW137601   2.179   0.340   9.208  0.6551 -0.3524  0.1635
 8656SOL    HW237602   2.074   0.240   9.229  0.4623  1.4217 -2.5675
 8657SOL     OW37603   1.121   2.942   4.744  0.5926  0.6932 -0.2740
 8657SOL    HW137604   1.186   2.875   4.723  0.4159  0.6192 -0.5867
 8657SOL    HW237605   1.096   2.922   4.834  1.1879 -0.9551 -0.4746
 8658SOL     OW37606   2.422   2.374   8.772  0.5146  0.4667  0.2627
 8658SOL    HW137607   2.507   2.357   8.731  0.6925 -1.6586  1.5712
 8658SOL    HW237608   2.409   2.307   8.839  1.0400 -0.3498 -0.4530
 8659SOL     OW37609   0.270   2.150   5.620  0.1737 -0.5773  0.4726
 8659SOL    HW137610   0.200   2.214   5.609  0.2326 -0.5003  0.5476
 8659SOL    HW237611   0.316   2.181   5.698 -1.2618  0.2783  0.9711
 8660SOL     OW37612   3.840   1.137   6.482 -0.6646  0.5888 -0.1122
 8660SOL    HW137613   3.798   1.105   6.402  0.9613 -0.1931 -0.6570
 8660SOL    HW237614   3.775   1.134   6.552  0.8635  0.8549  1.3145
 8661SOL     OW37615   0.534   3.309   2.277 -0.3152 -0.3806  0.2814
 8661SOL    HW137616   0.448   3.341   2.305 -0.2300  1.2524 -1.3154
 8661SOL    HW237617   0.584   3.390   2.271 -2.4814  1.1110  1.9835
 8662SOL     OW37618   4.624   4.721   2.507 -0.4392  0.0338 -0.2753
 8662SOL    HW137619   4.595   4.674   2.428 -1.8096  1.0593 -0.3736
 8662SOL    HW237620   4.695   0.026   2.464  0.8233 -1.0874  0.5950
 8663SOL     OW37621   2.680   3.573   1.464 -0.3323 -0.1724  0.2145
 8663SOL    HW137622   2.758   3.572   1.520 -0.8985  0.3318  1.0137
 8663SOL    HW237623   2.631   3.640   1.512  3.0852  2.7963 -0.4757
 8664SOL     OW37624   2.534   4.542   0.353  0.6695  0.4584 -0.7541
 8664SOL    HW137625   2.461   4.582   0.401  1.4149  0.2519  0.5377
 8664SOL    HW237626   2.517   4.448   0.361 -0.5079  0.7714  0.4648
 8665SOL     OW37627   0.301   1.418   6.666  0.2080 -0.2057  0.0561
 8665SOL    HW137628   0.225   1.383   6.620  2.0410 -2.9450 -0.9057
 8665SOL    HW237629   0.352   1.446   6.590  0.2138  2.8319  1.1977
 8666SOL     OW37630   0.065   0.851   2.209 -0.4215  0.4482  0.2105
 8666SOL    HW137631   0.090   0.844   2.117  2.1362  1.4619  0.8221
 8666SOL    HW237632   0.019   0.935   2.212  1.3824  1.4314  0.2084
 8667SOL     OW37633   2.668   4.047   3.051  0.0983  0.0743  0.1147
 8667SOL    HW137634   2.626   4.020   3.133 -1.1040  0.6609 -0.3123
 8667SOL    HW237635   2.618   4.126   3.031 -0.4843 -0.6246 -1.1334
 8668SOL     OW37636   1.756   1.299   6.673 -0.1765  0.3628  0.0810
 8668SOL    HW137637   1.735   1.389   6.645  0.1076  0.2903 -0.3629
 8668SOL    HW237638   1.723   1.253   6.596  0.0749 -2.5847  1.7751
 8669SOL     OW37639   1.966   4.407   3.867  0.1093 -0.5810 -0.7930
 8669SOL    HW137640   1.925   4.323   3.850  0.3112 -0.6468 -0.9567
 8669SOL    HW237641   1.933   4.432   3.953  0.9500  2.6646 -1.3898
 8670SOL     OW37642   1.664   1.163   9.225  0.0168 -0.3029  0.0207
 8670SOL    HW137643   1.615   1.245   9.213 -2.0588 -1.4298  0.8260
 8670SOL    HW237644   1.600   1.092   9.232 -0.9662  0.4671 -1.1044
 8671SOL     OW37645   1.883   3.320   6.227  0.1956 -0.8276 -0.0732
 8671SOL    HW137646   1.894   3.386   6.159 -0.2769  0.5114  1.1549
 8671SOL    HW237647   1.970   3.279   6.224  0.1355 -1.0581  1.0219
 8672SOL     OW37648   1.797   1.085   7.963  0.6166 -0.6370  0.0792
 8672SOL    HW137649   1.798   1.180   7.971 -0.4224 -0.4386 -2.0882
 8672SOL    HW237650   1.885   1.076   7.927  0.9988  1.8086  0.3875
 8673SOL     OW37651   2.501   1.370   3.462 -0.1767  0.0507  0.2973
 8673SOL    HW137652   2.463   1.442   3.512  0.5308 -0.2195  1.2290
 8673SOL    HW237653   2.560   1.331   3.527 -0.6818 -0.4732  0.4409
 8674SOL     OW37654   1.278   3.297   5.655 -0.0234  0.8248 -0.1414
 8674SOL    HW137655   1.249   3.216   5.698  0.3372 -0.5046 -2.3778
 8674SOL    HW237656   1.224   3.282   5.577  1.4564 -0.6733 -0.8935
 8675SOL     OW37657   0.917   2.863   4.509 -1.0418  0.0795  0.0291
 8675SOL    HW137658   0.940   2.885   4.600  0.0873 -0.5369 -0.1012
 8675SOL    HW237659   0.879   2.777   4.526  0.6757 -0.9175 -1.1747
 8676SOL     OW37660   3.083   3.557   3.683  0.3974  0.2253  0.3543
 8676SOL    HW137661   3.084   3.645   3.645 -1.7328  0.8077  1.6079
 8676SOL    HW237662   3.176   3.538   3.681  0.2509 -0.4954  0.4287
 8677SOL     OW37663   3.077   0.617   9.216  0.2322 -0.0921  0.5874
 8677SOL    HW137664   3.043   0.529   9.228 -0.2848 -0.3025 -2.3831
 8677SOL    HW237665   3.017   0.656   9.151 -1.3653  0.8912  2.6337
 8678SOL     OW37666   2.782   1.070   5.464 -0.3420 -0.4199 -0.8206
 8678SOL    HW137667   2.805   1.163   5.470 -0.0455 -0.6318  1.1223
 8678SOL    HW237668   2.704   1.078   5.518 -0.0604  2.0358 -0.7534
 8679SOL     OW37669   2.091   1.684  15.683  0.8852  0.0626  0.1713
 8679SOL    HW137670   2.084   1.694  15.778 -1.2391 -0.0196  0.0153
 8679SOL    HW237671   2.176   1.725  15.667  0.2985  0.3035 -2.4160
 8680SOL     OW37672   1.770   1.148   4.259 -0.2883  0.3923 -0.0704
 8680SOL    HW137673   1.712   1.081   4.293  0.6903  0.5316  1.8533
 8680SOL    HW237674   1.788   1.201   4.337 -0.2566  1.1819 -0.6159
 8681SOL     OW37675   4.323   1.227  11.598  0.4594  0.0218 -0.5978
 8681SOL    HW137676   4.409   1.200  11.565  0.3089 -1.5010  0.2364
 8681SOL    HW237677   4.354   1.280  11.671 -0.6288 -0.1527 -0.0000
 8682SOL     OW37678   1.165   0.717   2.284  0.0680 -0.0245 -0.1668
 8682SOL    HW137679   1.225   0.675   2.222 -1.1940 -1.1592 -0.6111
 8682SOL    HW237680   1.235   0.761   2.333  0.3868 -1.3008  0.5128
 8683SOL     OW37681   3.839   2.945   9.502  0.5882  0.2985  0.3939
 8683SOL    HW137682   3.813   2.939   9.594 -1.4807 -3.9364 -0.4312
 8683SOL    HW237683   3.763   2.900   9.465  1.7754 -0.4405 -1.1486
 8684SOL     OW37684   3.119   0.270  14.946 -0.0745 -0.1622 -0.4050
 8684SOL    HW137685   3.079   0.299  14.865 -1.3160  0.7524  0.5304
 8684SOL    HW237686   3.163   0.349  14.979 -2.2046  0.8704 -0.0564
 8685SOL     OW37687   1.739   1.747  10.830  0.2307 -0.8364  0.8432
 8685SOL    HW137688   1.745   1.691  10.908 -0.0576  0.2331  1.6271
 8685SOL    HW237689   1.808   1.808  10.853 -2.1400  1.9193  0.6093
 8686SOL     OW37690   1.072   4.643   4.658  0.4207  0.4339  0.0962
 8686SOL    HW137691   1.067   4.572   4.723  1.3690  0.5299  0.2715
 8686SOL    HW237692   0.979   4.631   4.637 -0.0094  2.9608  0.5785
 8687SOL     OW37693   2.244   1.646   5.500  0.2527 -0.2076  0.0669
 8687SOL    HW137694   2.302   1.682   5.432 -0.6245  0.5614 -0.2676
 8687SOL    HW237695   2.182   1.599   5.444  0.4097  0.3355 -0.5688
 8688SOL     OW37696   2.369   4.502  12.467 -0.2151  0.1895  0.3017
 8688SOL    HW137697   2.304   4.502  12.397  0.9625  0.6585 -0.8056
 8688SOL    HW237698   2.310   4.534  12.535  0.9738  1.7435  0.6089
 8689SOL     OW37699   1.032   3.324   6.261  0.3054  0.4031 -0.4073
 8689SOL    HW137700   1.019   3.385   6.333  2.3210  0.6156 -0.2110
 8689SOL    HW237701   0.947   3.333   6.219  1.1923  1.1896 -2.0318
 8690SOL     OW37702   1.514   1.218   0.255  0.1313  0.1184 -0.6572
 8690SOL    HW137703   1.567   1.145   0.222 -0.4385 -0.0008 -1.3156
 8690SOL    HW237704   1.477   1.245   0.171  2.2653 -0.0118 -1.6386
 8691SOL     OW37705   1.799   0.871   6.048 -0.0494 -0.2572  0.5472
 8691SOL    HW137706   1.858   0.805   6.084  0.6741  0.4112  0.5845
 8691SOL    HW237707   1.847   0.887   5.966 -0.0436 -1.0191  0.4044
 8692SOL     OW37708   1.320   4.625   6.639 -0.0400 -0.3990  0.0281
 8692SOL    HW137709   1.279   4.671   6.566 -1.3609 -1.0086  0.3970
 8692SOL    HW237710   1.275   4.669   6.711 -0.5285 -1.3357  0.2985
 8693SOL     OW37711   1.378   2.740   4.675 -0.1606 -0.2282  0.4824
 8693SOL    HW137712   1.376   2.815   4.617  2.1296 -0.5908 -0.0659
 8693SOL    HW237713   1.450   2.755   4.737  1.4976  1.0104 -1.7429
 8694SOL     OW37714   3.978   0.699   5.608 -0.0722  0.1852  0.0900
 8694SOL    HW137715   3.993   0.784   5.567  2.7244 -0.0591  0.6397
 8694SOL    HW237716   3.914   0.655   5.552 -0.6120  0.4499  0.4889
 8695SOL     OW37717   2.250   2.142   7.959  0.1913 -0.5690 -0.4609
 8695SOL    HW137718   2.214   2.072   7.905 -2.3487  0.0055  0.4987
 8695SOL    HW237719   2.265   2.083   8.033 -0.8282 -2.2157 -1.5785
 8696SOL     OW37720   2.726   0.286   5.450  0.1151 -0.0405 -0.2484
 8696SOL    HW137721   2.812   0.307   5.486  0.5657  0.5866 -1.6642
 8696SOL    HW237722   2.739   0.226   5.376 -2.6381 -0.4388 -0.4033
 8697SOL     OW37723   1.730   3.096   3.645  0.1531  0.8473  0.2000
 8697SOL    HW137724   1.637   3.119   3.636  0.4607  2.3301  0.7564
 8697SOL    HW237725   1.744   3.072   3.554 -1.5366 -0.1939  0.2086
 8698SOL     OW37726   3.198   3.349   9.198 -0.3285 -0.0552 -0.5626
 8698SOL    HW137727   3.230   3.427   9.153  0.1131  0.4963  0.6917
 8698SOL    HW237728   3.114   3.375   9.234 -0.1002 -1.9865  1.3888
 8699SOL     OW37729   2.840   4.528   6.649  0.0185 -0.3104  0.1311
 8699SOL    HW137730   2.927   4.569   6.641 -0.4518  0.6541 -0.0115
 8699SOL    HW237731   2.825   4.540   6.743  0.9497  3.2984 -0.1969
 8700SOL     OW37732   4.158   4.583   5.125  0.0999  0.1409 -0.2025
 8700SOL    HW137733   4.193   4.632   5.051 -0.0716 -1.8576 -1.6185
 8700SOL    HW237734   4.064   4.598   5.117 -0.2392 -2.1161 -0.4334
 8701SOL     OW37735   4.080   4.313   7.856  0.2993  0.4519  0.7960
 8701SOL    HW137736   4.027   4.384   7.892  0.3624  1.0995 -0.4032
 8701SOL    HW237737   4.110   4.345   7.771 -0.1737 -0.3066  0.3447
 8702SOL     OW37738   1.840   2.378   3.026 -0.1014 -0.3203 -0.7850
 8702SOL    HW137739   1.771   2.335   3.076  0.6697 -1.6869 -0.9133
 8702SOL    HW237740   1.796   2.397   2.942 -1.9551  0.5090  0.3715
 8703SOL     OW37741   0.598   0.441   6.234 -0.1922 -0.5333  0.2149
 8703SOL    HW137742   0.531   0.508   6.248  0.3866  0.3885 -1.3286
 8703SOL    HW237743   0.559   0.388   6.164 -2.2206  2.8432 -1.2380
 8704SOL     OW37744   0.440   1.058   1.616 -0.5447  0.2339 -0.0987
 8704SOL    HW137745   0.394   1.073   1.533 -0.9318 -0.3096  0.0205
 8704SOL    HW237746   0.485   0.974   1.607 -1.3962 -0.3084  0.7235
 8705SOL     OW37747   0.880   3.497   9.272  0.0666 -0.0955  0.1877
 8705SOL    HW137748   0.810   3.561   9.287  1.2838  1.0936  0.6957
 8705SOL    HW237749   0.838   3.426   9.321  0.5633  0.2956  1.1822
 8706SOL     OW37750   0.543   3.559   4.670  0.1906  0.6139  0.5603
 8706SOL    HW137751   0.592   3.513   4.601 -1.8862 -1.7537  0.6440
 8706SOL    HW237752   0.610   3.602   4.723 -0.4236  2.0342  0.1828
 8707SOL     OW37753   4.511   4.068  16.177  0.0940 -0.9358 -0.8820
 8707SOL    HW137754   4.588   4.115  16.209  0.4912 -2.3674  0.2400
 8707SOL    HW237755   4.487   4.121  16.101 -0.3030 -0.0858 -0.1681
 8708SOL     OW37756   3.596   2.358   8.293  0.2684  0.1076  0.5847
 8708SOL    HW137757   3.657   2.402   8.351  0.0156 -0.6310  1.4015
 8708SOL    HW237758   3.649   2.329   8.219  0.6584  0.2627  0.8066
 8709SOL     OW37759   3.915   3.234   2.479  0.3111  0.1773 -0.5730
 8709SOL    HW137760   3.970   3.157   2.471  0.5311 -0.2161  4.5933
 8709SOL    HW237761   3.955   3.286   2.409 -1.9303 -0.0124 -2.0153
 8710SOL     OW37762   3.386   2.516   5.480  0.0410  0.7797  0.2680
 8710SOL    HW137763   3.450   2.587   5.480  0.4314  0.4449 -1.6487
 8710SOL    HW237764   3.384   2.498   5.386  0.3537  1.3859  0.1428
 8711SOL     OW37765   4.355   4.564   5.574 -0.3527  0.1075 -0.2117
 8711SOL    HW137766   4.310   4.607   5.501  0.3930 -0.3199 -0.9265
 8711SOL    HW237767   4.432   4.621   5.576  0.2052 -0.7050  1.3087
 8712SOL     OW37768   1.886   4.200   1.850  0.0212 -0.1503 -0.1829
 8712SOL    HW137769   1.904   4.192   1.756 -0.5366  1.6644 -0.4468
 8712SOL    HW237770   1.926   4.286   1.863 -0.3311 -0.0115 -0.0443
 8713SOL     OW37771   3.430   4.276   5.600 -0.9414  0.0902  0.0624
 8713SOL    HW137772   3.396   4.307   5.516  1.4212 -2.0552 -1.6703
 8713SOL    HW237773   3.452   4.359   5.642  0.4543 -0.4740  0.4546
 8714SOL     OW37774   3.347   3.653   7.627 -0.3155  0.3210  0.2915
 8714SOL    HW137775   3.272   3.711   7.636 -0.7079 -0.1119 -0.2020
 8714SOL    HW237776   3.308   3.586   7.682  2.5748 -1.3634  0.3316
 8715SOL     OW37777   0.007   2.751   9.151 -0.5133  0.5621  0.4115
 8715SOL    HW137778   4.694   2.800   9.090  0.7532 -0.3644 -1.4845
 8715SOL    HW237779   4.725   2.784   9.238 -0.5307  0.3774  0.4768
 8716SOL     OW37780   3.027   4.095  11.151 -0.5003 -0.7508  0.8051
 8716SOL    HW137781   2.978   4.019  11.182 -0.1953 -1.2745 -0.0133
 8716SOL    HW237782   3.069   4.059  11.073 -0.7243  0.6918  0.0178
 8717SOL     OW37783   3.549   3.900   7.318 -0.1531  0.3052  0.1514
 8717SOL    HW137784   3.633   3.854   7.312  0.6239  1.6464  0.6248
 8717SOL    HW237785   3.557   3.948   7.236 -1.7267  0.5394  0.1331
 8718SOL     OW37786   3.239   1.973   8.158 -0.0278  0.1428 -0.6924
 8718SOL    HW137787   3.314   1.915   8.150  2.1121  3.1274 -2.1735
 8718SOL    HW237788   3.201   1.941   8.076 -1.5958 -0.4531  0.2559
 8719SOL     OW37789   0.141   2.196  11.561 -0.0991  0.7446  0.2312
 8719SOL    HW137790   0.124   2.122  11.620  1.2038  0.4437  0.2342
 8719SOL    HW237791   0.113   2.272  11.612 -0.3420  1.2235 -0.6244
 8720SOL     OW37792   3.098   1.750   2.015 -0.2375  0.1067  0.0148
 8720SOL    HW137793   3.163   1.819   2.003 -0.1399 -0.7310 -4.3871
 8720SOL    HW237794   3.063   1.780   2.098  1.7579 -0.2747  0.9869
 8721SOL     OW37795   0.768   3.164   6.642  0.4585 -0.0880  0.6664
 8721SOL    HW137796   0.718   3.168   6.560  2.6744  3.6488 -0.5184
 8721SOL    HW237797   0.853   3.180   6.601  0.8477  0.9452  1.8901
 8722SOL     OW37798   4.570   3.355  13.714 -0.4249 -0.6163 -0.1160
 8722SOL    HW137799   4.515   3.431  13.735 -0.7762 -0.9137  0.0448
 8722SOL    HW237800   4.655   3.399  13.705 -0.3577 -0.3264  1.9620
 8723SOL     OW37801   4.528   2.307   4.972 -0.6775 -0.5967 -0.0100
 8723SOL    HW137802   4.561   2.324   4.883 -0.9081  0.0542  0.0276
 8723SOL    HW237803   4.535   2.394   5.013 -1.9419  0.5844 -2.2726
 8724SOL     OW37804   1.602   4.357  17.254 -0.4423  0.2230  0.0561
 8724SOL    HW137805   1.678   4.379  17.202 -0.9519  1.7951 -0.0302
 8724SOL    HW237806   1.562   4.280  17.212 -0.9839  2.4317 -3.4479
 8725SOL     OW37807   0.384   0.696   5.534  0.5215 -0.0282 -0.1302
 8725SOL    HW137808   0.304   0.673   5.487  0.7527  1.0092 -1.0179
 8725SOL    HW237809   0.434   0.616   5.514  1.4511  0.7897 -1.0682
 8726SOL     OW37810   3.310   2.454   4.850  0.2432 -0.8055 -0.1210
 8726SOL    HW137811   3.315   2.381   4.787  0.9489  0.1964 -1.2290
 8726SOL    HW237812   3.402   2.472   4.867  0.4093 -1.9949  0.2613
 8727SOL     OW37813   0.782   2.471   9.696  0.0452  0.6391 -0.4107
 8727SOL    HW137814   0.813   2.538   9.635 -0.4808 -0.2128 -1.6390
 8727SOL    HW237815   0.740   2.521   9.765 -0.1298  1.1834 -0.9060
 8728SOL     OW37816   2.987   1.383   6.150 -0.0826 -0.1338  0.4185
 8728SOL    HW137817   3.060   1.354   6.206  1.4232  1.3717 -0.7775
 8728SOL    HW237818   2.953   1.298   6.123  2.0663 -0.7058 -0.4952
 8729SOL     OW37819   3.784   3.450   6.931  0.3563  0.3300  0.3330
 8729SOL    HW137820   3.738   3.402   6.862 -0.2088 -0.9807  1.6216
 8729SOL    HW237821   3.772   3.392   7.006  1.1513 -3.6783 -2.6558
 8730SOL     OW37822   2.903   0.103  16.950  0.4607 -0.5040 -0.4785
 8730SOL    HW137823   2.879   0.182  16.999  1.4731 -0.8450  0.5774
 8730SOL    HW237824   2.956   0.130  16.875  0.2541 -0.4389 -0.6026
 8731SOL     OW37825   4.059   3.826  15.007  0.3415 -0.7928 -0.5861
 8731SOL    HW137826   4.010   3.768  15.064  0.8876  0.0887  0.7708
 8731SOL    HW237827   4.085   3.765  14.938  2.2441 -0.8885  0.2087
 8732SOL     OW37828   4.527   0.781  13.153 -0.2250 -0.0113  0.5587
 8732SOL    HW137829   4.577   0.817  13.080  2.7323 -1.4541  1.8891
 8732SOL    HW237830   4.437   0.789  13.121 -0.7847  1.0607  2.3568
 8733SOL     OW37831   2.211   0.602  10.464  0.3155 -0.2973 -0.5921
 8733SOL    HW137832   2.135   0.616  10.521 -0.3825 -0.3126 -1.5093
 8733SOL    HW237833   2.260   0.550  10.527 -0.7564 -1.3507 -0.6220
 8734SOL     OW37834   0.993   3.294   7.358  0.4102 -0.0952 -0.0244
 8734SOL    HW137835   0.924   3.245   7.403  1.6153 -0.3030  1.6148
 8734SOL    HW237836   1.007   3.236   7.283 -0.0501  1.5220 -1.3418
 8735SOL     OW37837   2.549   3.747   4.419 -0.4556  0.0334  0.1964
 8735SOL    HW137838   2.618   3.724   4.481 -2.6257 -1.2444  2.1926
 8735SOL    HW237839   2.563   3.690   4.344 -0.6665 -1.0225  0.9503
 8736SOL     OW37840   3.342   0.736   1.539 -0.2951  0.6565  0.2949
 8736SOL    HW137841   3.246   0.743   1.533 -0.3049  0.7381  0.5526
 8736SOL    HW237842   3.358   0.812   1.594  0.0166  1.1249 -0.4397
 8737SOL     OW37843   1.239   4.231   7.856 -0.3754  0.3666  0.0010
 8737SOL    HW137844   1.261   4.319   7.825  0.0643  0.4512  0.5525
 8737SOL    HW237845   1.307   4.169   7.829 -1.8249 -0.4442 -1.8142
 8738SOL     OW37846   4.686   2.982   5.763 -0.0033  0.4745 -0.2097
 8738SOL    HW137847   0.009   2.912   5.757  0.7931  1.3106 -1.6112
 8738SOL    HW237848   4.622   2.948   5.825  1.0474 -1.4036 -0.1808
 8739SOL     OW37849   3.507   0.464   8.045  0.3368  0.7476 -0.9196
 8739SOL    HW137850   3.468   0.522   7.980  1.6494  3.1104  0.4027
 8739SOL    HW237851   3.555   0.406   7.986  2.4584  1.6393 -0.0841
 8740SOL     OW37852   4.304   2.096   7.496 -0.0581  0.0860  0.4769
 8740SOL    HW137853   4.293   2.080   7.402 -2.5447  0.9139  0.6309
 8740SOL    HW237854   4.370   2.166   7.488 -0.6083  0.7959  2.2340
 8741SOL     OW37855   0.497   4.102   9.428 -0.4215 -0.4419  0.5943
 8741SOL    HW137856   0.405   4.077   9.418 -0.1427 -1.8401  1.4498
 8741SOL    HW237857   0.523   4.031   9.487 -1.2420 -1.3948 -0.1888
 8742SOL     OW37858   0.314   4.725   9.653 -0.5615  0.2203 -0.9456
 8742SOL    HW137859   0.303   0.039   9.730 -1.2764 -0.5870 -0.4697
 8742SOL    HW237860   0.385   0.027   9.606 -0.7217  0.1686 -1.2372
 8743SOL     OW37861   1.247   2.594   4.026 -0.3263  0.4018  0.0361
 8743SOL    HW137862   1.252   2.565   4.117 -1.7501 -0.1594 -0.0632
 8743SOL    HW237863   1.224   2.687   4.031 -0.0613  0.4154  0.8680
 8744SOL     OW37864   0.893   4.212  11.449  0.3370  0.8123  0.7082
 8744SOL    HW137865   0.947   4.286  11.422 -0.7075  0.9850 -0.9445
 8744SOL    HW237866   0.895   4.151  11.375 -0.8553 -0.7062  1.9269
 8745SOL     OW37867   1.626   0.867   6.905  0.4327  0.5189  0.0425
 8745SOL    HW137868   1.689   0.931   6.873  1.3806 -0.4815 -0.0819
 8745SOL    HW237869   1.604   0.818   6.825  2.8871 -1.0770  0.3520
 8746SOL     OW37870   1.819   3.960   2.002  0.2771  0.0946 -0.1133
 8746SOL    HW137871   1.853   3.977   2.090  2.8783  0.0032 -1.1010
 8746SOL    HW237872   1.827   4.046   1.961  0.6741  0.3033  0.4057
 8747SOL     OW37873   0.464   3.581   2.836 -0.4002  0.5263  0.2846
 8747SOL    HW137874   0.507   3.542   2.913 -1.7357 -2.7897 -0.6551
 8747SOL    HW237875   0.427   3.500   2.803 -0.3383  0.5792  0.0881
 8748SOL     OW37876   3.611   1.476   4.119 -0.2708 -0.0820  0.2133
 8748SOL    HW137877   3.663   1.535   4.173 -2.0644  0.6944  1.0643
 8748SOL    HW237878   3.670   1.472   4.043 -0.4955  0.5623  0.0066
 8749SOL     OW37879   3.172   4.548   6.383 -0.0042  0.2894  0.2494
 8749SOL    HW137880   3.142   4.459   6.367  1.2137 -0.7546  3.8401
 8749SOL    HW237881   3.140   4.589   6.303  2.6848  3.4474  0.8089
 8750SOL     OW37882   1.193   1.593   4.853 -0.3463 -0.5253  0.2941
 8750SOL    HW137883   1.288   1.604   4.852 -0.6339  1.7016 -2.6460
 8750SOL    HW237884   1.175   1.682   4.884 -0.3012 -0.7198  0.8757
 8751SOL     OW37885   1.612   3.039  14.598 -0.2300  0.2057 -0.3194
 8751SOL    HW137886   1.569   3.032  14.683 -1.1001  1.9192 -0.6003
 8751SOL    HW237887   1.546   3.048  14.528  0.3750 -0.4652 -0.9737
 8752SOL     OW37888   1.130   3.756   5.486  0.3785 -0.2602  0.2571
 8752SOL    HW137889   1.118   3.839   5.533  0.3806 -1.3806  2.1938
 8752SOL    HW237890   1.138   3.800   5.401 -0.4636  0.4291  0.5262
 8753SOL     OW37891   1.217   4.495   3.852 -0.2058  0.2294 -0.1788
 8753SOL    HW137892   1.168   4.504   3.933  2.6928  1.5490  1.4273
 8753SOL    HW237893   1.307   4.489   3.885  0.3173 -1.9304 -1.9901
 8754SOL     OW37894   3.723   3.641   6.534 -0.0108 -0.1875 -0.0179
 8754SOL    HW137895   3.703   3.636   6.440  1.3993 -0.6721 -0.2804
 8754SOL    HW237896   3.720   3.550   6.561 -1.1137  0.0930  0.8025
 8755SOL     OW37897   2.295   2.090   1.417  0.0394 -0.2763 -0.4165
 8755SOL    HW137898   2.255   2.098   1.504 -1.0369  1.4125 -1.0573
 8755SOL    HW237899   2.386   2.117   1.422 -0.1746  0.1603  1.3763
 8756SOL     OW37900   4.096   3.933  17.443 -0.1932  0.4219 -0.7417
 8756SOL    HW137901   4.003   3.953  17.434 -0.3046 -0.2873 -1.1598
 8756SOL    HW237902   4.109   3.965  17.532 -0.3530  0.6361 -0.7971
 8757SOL     OW37903   1.927   4.138   8.130 -0.1215 -0.1321 -0.1830
 8757SOL    HW137904   1.915   4.043   8.119  0.9184 -0.1652 -1.0206
 8757SOL    HW237905   2.021   4.137   8.114 -0.4710  1.2495 -2.2526
 8758SOL     OW37906   0.921   2.810  12.622  0.0899 -0.6900  0.3925
 8758SOL    HW137907   0.961   2.780  12.704 -0.9232 -3.3858 -0.0872
 8758SOL    HW237908   0.840   2.855  12.645 -1.1350 -2.1324 -1.0431
 8759SOL     OW37909   4.082   0.180   0.690 -0.1544  0.0895  0.2538
 8759SOL    HW137910   4.093   0.225   0.606  0.7431 -0.6776 -0.0400
 8759SOL    HW237911   4.077   0.255   0.749 -0.0933 -0.3253  0.7776
 8760SOL     OW37912   2.387   1.749   4.149 -0.2135 -0.0886  0.3520
 8760SOL    HW137913   2.308   1.761   4.201  1.0478  0.4067  2.1749
 8760SOL    HW237914   2.391   1.654   4.135 -0.8019  0.1285 -1.2585
 8761SOL     OW37915   4.551   3.641   8.870 -0.9610  0.7597 -0.6461
 8761SOL    HW137916   4.456   3.651   8.864 -0.9080  1.2339 -0.6812
 8761SOL    HW237917   4.571   3.623   8.778 -0.6423  1.0992 -0.6459
 8762SOL     OW37918   4.289   0.411  13.760 -0.2123 -0.0699  0.0934
 8762SOL    HW137919   4.239   0.330  13.768 -1.4661  0.7821  0.7288
 8762SOL    HW237920   4.297   0.433  13.853 -0.0623  0.5496 -0.0705
 8763SOL     OW37921   4.669   3.069  10.762  0.0091 -0.5410 -0.2244
 8763SOL    HW137922   4.689   3.003  10.829  1.2167  0.8737  0.7935
 8763SOL    HW237923   0.009   3.067  10.712  1.5312 -1.2981  2.2587
 8764SOL     OW37924   2.802   4.682  13.059  0.6756  0.4924  0.2469
 8764SOL    HW137925   2.845   0.024  13.041  0.6071  0.7461  1.2665
 8764SOL    HW237926   2.715   4.711  13.033  1.1124  2.0611  0.5280
 8765SOL     OW37927   0.324   3.907   2.118  0.6220  0.1672 -0.1618
 8765SOL    HW137928   0.373   3.972   2.067 -0.6617  0.3153 -1.2293
 8765SOL    HW237929   0.378   3.828   2.117  0.3643 -0.0404  3.5425
 8766SOL     OW37930   4.420   0.032  16.612  0.1117  0.3802 -0.3523
 8766SOL    HW137931   4.485   0.077  16.666  1.1663 -1.4188 -0.1172
 8766SOL    HW237932   4.342   0.059  16.660 -1.9061 -0.6745 -3.0540
 8767SOL     OW37933   4.385   3.362   1.661  0.1357  0.0687  0.3089
 8767SOL    HW137934   4.312   3.309   1.629 -0.5775  1.0162  0.3750
 8767SOL    HW237935   4.342   3.447   1.651 -0.5361 -0.2890  0.2233
 8768SOL     OW37936   0.674   3.534   2.238 -0.3888 -0.9019 -0.2240
 8768SOL    HW137937   0.722   3.591   2.298 -0.6660  0.0411 -0.9076
 8768SOL    HW237938   0.753   3.481   2.228  0.6695  0.6034  0.2370
 8769SOL     OW37939   0.908   2.266  12.877 -0.0253 -0.1941 -0.2167
 8769SOL    HW137940   0.918   2.304  12.789  3.1625 -1.5577 -0.4305
 8769SOL    HW237941   0.997   2.262  12.912 -0.1668  1.1406  0.3090
 8770SOL     OW37942   1.447   3.192  15.339 -0.1796  0.0339 -0.5945
 8770SOL    HW137943   1.445   3.161  15.430 -2.6533  1.9523  0.0066
 8770SOL    HW237944   1.412   3.110  15.307 -0.2079 -0.4500  0.6531
 8771SOL     OW37945   1.767   2.652   4.175  0.0183 -0.0442  0.4970
 8771SOL    HW137946   1.728   2.717   4.117  1.3600 -0.9011 -1.3472
 8771SOL    HW237947   1.751   2.574   4.122  0.9619 -1.0713  1.7212
 8772SOL     OW37948   1.386   4.448   1.750  0.2136  0.2869 -0.5873
 8772SOL    HW137949   1.460   4.462   1.690 -0.0599  0.2677 -0.9235
 8772SOL    HW237950   1.382   4.353   1.758  3.2717  0.2608  0.8128
 8773SOL     OW37951   0.112   3.214  13.462 -0.7086  0.0157  0.5439
 8773SOL    HW137952   0.169   3.155  13.413 -1.1103 -1.0168  1.3104
 8773SOL    HW237953   0.026   3.172  13.457 -1.3285  1.2229  1.0399
 8774SOL     OW37954   0.828   1.283   5.271 -0.6327 -0.0711 -0.7198
 8774SOL    HW137955   0.866   1.264   5.185  2.0656  0.3871  0.3569
 8774SOL    HW237956   0.775   1.206   5.293 -0.5412 -0.0028 -0.2636
 8775SOL     OW37957   2.972   3.305   2.005  0.3897 -0.3959 -0.3334
 8775SOL    HW137958   2.941   3.381   2.054 -2.2322 -1.5563 -0.2087
 8775SOL    HW237959   2.942   3.324   1.916  2.0487  1.2656 -0.5477
 8776SOL     OW37960   4.619   2.153   4.404  0.6800  0.5721 -0.3033
 8776SOL    HW137961   4.618   2.213   4.329 -1.7285  1.9314  0.8122
 8776SOL    HW237962   4.578   2.213   4.467 -0.4804  1.2991 -1.7554
 8777SOL     OW37963   1.980   1.342   5.713  0.0369  0.0756 -0.4606
 8777SOL    HW137964   2.074   1.327   5.718 -0.1747 -0.6463  1.4772
 8777SOL    HW237965   1.980   1.437   5.702 -1.3935  0.1496  0.0823
 8778SOL     OW37966   3.960   1.538  15.000  0.1076 -0.5334 -0.4504
 8778SOL    HW137967   4.041   1.511  15.043 -0.7384 -1.9300  0.2851
 8778SOL    HW237968   3.959   1.632  15.017  0.9557 -0.8446  1.3418
 8779SOL     OW37969   1.185   3.197  16.928  0.1640  0.0125 -0.5361
 8779SOL    HW137970   1.177   3.274  16.871 -1.2197  0.4726  0.2946
 8779SOL    HW237971   1.138   3.235  17.001  0.0182  1.3549 -1.3225
 8780SOL     OW37972   2.735   0.545   4.162  0.0354 -0.3640  0.0677
 8780SOL    HW137973   2.665   0.484   4.185 -1.0423  0.6691 -0.4514
 8780SOL    HW237974   2.769   0.506   4.082 -1.7547  0.5224 -1.1291
 8781SOL     OW37975   3.771   4.495  11.918  0.1045  0.0050 -0.0156
 8781SOL    HW137976   3.784   4.449  11.834  0.7354 -2.0905  1.2252
 8781SOL    HW237977   3.753   4.578  11.875 -0.4653  1.7536  3.6903
 8782SOL     OW37978   3.278   3.570   9.520 -0.2674  0.1862  0.1229
 8782SOL    HW137979   3.231   3.487   9.513  1.4926 -0.9348  1.6439
 8782SOL    HW237980   3.232   3.621   9.587 -1.7605 -1.1509  0.1157
 8783SOL     OW37981   4.638   3.333   1.587 -0.5442 -0.1658  0.3293
 8783SOL    HW137982   4.544   3.324   1.605 -0.2183 -1.9635  1.1111
 8783SOL    HW237983   4.630   3.361   1.496 -2.0261 -1.6189  0.0069
 8784SOL     OW37984   1.679   3.431   7.670  0.1201  0.3517 -0.0711
 8784SOL    HW137985   1.756   3.485   7.653 -0.1353 -0.4018 -3.5670
 8784SOL    HW237986   1.657   3.406   7.581  0.5280  1.4975 -0.4826
 8785SOL     OW37987   1.445   2.742   1.462  0.2484 -0.7085  0.2949
 8785SOL    HW137988   1.370   2.790   1.497  0.5472  1.1139 -1.6044
 8785SOL    HW237989   1.434   2.663   1.515 -1.1259 -0.2892  0.6344
 8786SOL     OW37990   0.557   1.799   7.509 -0.3681 -0.4732 -0.0238
 8786SOL    HW137991   0.652   1.797   7.496  0.1286  2.1731  3.2797
 8786SOL    HW237992   0.533   1.884   7.546  1.8201  0.9036 -1.7112
 8787SOL     OW37993   1.639   0.171   3.996  0.3316 -0.7281  0.1631
 8787SOL    HW137994   1.588   0.094   3.973  0.6063 -1.3308  1.5975
 8787SOL    HW237995   1.572   0.229   4.032  0.5549 -1.0263  1.0492
 8788SOL     OW37996   1.408   2.684   3.002 -0.6088 -0.0680  0.4034
 8788SOL    HW137997   1.374   2.773   3.012  0.6097  0.7064 -2.3875
 8788SOL    HW237998   1.385   2.660   2.912  0.1163  1.8879 -0.3032
 8789SOL     OW37999   0.420   1.344   3.120  1.1449 -0.1427 -0.4807
 8789SOL    HW138000   0.451   1.254   3.133  0.9936 -0.0962  0.1728
 8789SOL    HW238001   0.444   1.385   3.203 -1.8387  2.7298 -1.0439
 8790SOL     OW38002   3.727   2.917  12.714 -0.6385  0.3663 -0.1127
 8790SOL    HW138003   3.714   2.823  12.705 -4.0554  1.0522 -2.1829
 8790SOL    HW238004   3.640   2.934  12.749 -1.3056 -2.3290 -0.4829
 8791SOL     OW38005   1.034   3.489   1.451 -0.2815 -0.3781 -0.5763
 8791SOL    HW138006   1.069   3.455   1.534 -1.3682  1.3909  0.5862
 8791SOL    HW238007   0.946   3.451   1.457 -0.5109  0.2738  0.2535
 8792SOL     OW38008   4.131   2.447   9.525 -0.2753  0.1015  0.1689
 8792SOL    HW138009   4.049   2.494   9.538 -0.6654 -0.6291  0.3221
 8792SOL    HW238010   4.117   2.429   9.432  3.2560 -2.8978  0.2335
 8793SOL     OW38011   2.403   3.798   9.009  0.1211  0.0879  0.1695
 8793SOL    HW138012   2.335   3.778   8.944 -0.6601 -0.7872  1.2533
 8793SOL    HW238013   2.346   3.813   9.085 -0.1627 -0.2228  0.0197
 8794SOL     OW38014   2.953   3.728   9.036 -0.3404  0.5175  0.2642
 8794SOL    HW138015   2.926   3.638   9.057 -0.1236  0.6786  1.2525
 8794SOL    HW238016   2.873   3.778   9.053 -1.1847 -0.2485 -1.4575
 8795SOL     OW38017   4.169   0.218   9.252  0.6340 -0.0027 -0.1787
 8795SOL    HW138018   4.178   0.141   9.307 -1.0184  0.1963  0.3684
 8795SOL    HW238019   4.127   0.178   9.176  0.2598 -0.3719  0.2236
 8796SOL     OW38020   3.648   2.325   9.129  0.2394  0.5347  0.1137
 8796SOL    HW138021   3.676   2.404   9.083  0.8069  1.4172  1.9698
 8796SOL    HW238022   3.704   2.264   9.081 -2.1449 -2.1537  0.7650
 8797SOL     OW38023   1.552   0.100   2.881  0.1026 -0.3252 -0.5635
 8797SOL    HW138024   1.477   0.100   2.941  0.6619  1.2732  0.1319
 8797SOL    HW238025   1.513   0.088   2.795 -1.8669  0.9948  0.1320
 8798SOL     OW38026   1.969   3.318   2.653 -0.3759 -0.2287 -0.0198
 8798SOL    HW138027   2.019   3.386   2.608  0.0802 -0.4676  0.1253
 8798SOL    HW238028   2.010   3.329   2.739 -0.9236 -0.9086  0.3309
 8799SOL     OW38029   0.476   4.051   7.214 -0.6429 -0.2543 -0.0026
 8799SOL    HW138030   0.443   3.965   7.186 -1.0838 -0.7404  1.9821
 8799SOL    HW238031   0.479   4.102   7.134 -1.1080  0.3598  0.3721
 8800SOL     OW38032   3.885   2.482   4.048 -0.0772  0.4985  0.1597
 8800SOL    HW138033   3.790   2.479   4.051 -0.1292 -0.2018 -2.2056
 8800SOL    HW238034   3.900   2.469   3.954 -0.0896  2.1608 -0.0806
 8801SOL     OW38035   1.631   2.284   6.635 -0.0468  0.0895  0.3437
 8801SOL    HW138036   1.590   2.244   6.712  2.8480 -2.9229  0.3152
 8801SOL    HW238037   1.631   2.374   6.667 -1.5679  0.0763  0.3998
 8802SOL     OW38038   4.197   2.277  16.641  0.1513  0.0176  0.2767
 8802SOL    HW138039   4.129   2.216  16.612  1.8762 -1.0734 -1.4405
 8802SOL    HW238040   4.182   2.274  16.735 -0.7666 -1.2632  0.0856
 8803SOL     OW38041   0.974   0.479   5.681 -0.0045  0.1698 -0.1021
 8803SOL    HW138042   0.881   0.458   5.687  0.3407 -0.8698  1.8087
 8803SOL    HW238043   1.016   0.393   5.688 -0.4032 -0.0630 -0.5906
 8804SOL     OW38044   0.337   4.518   9.836  0.6484 -0.0133  0.2482
 8804SOL    HW138045   0.270   4.567   9.884  1.0361 -0.2988  1.0849
 8804SOL    HW238046   0.342   4.579   9.762  1.6016  1.2001  1.3070
 8805SOL     OW38047   2.303   3.470   3.775  0.5407  0.0493 -0.6293
 8805SOL    HW138048   2.239   3.402   3.753  2.2860 -1.8122  0.0873
 8805SOL    HW238049   2.367   3.469   3.704  1.7242  2.4832  0.3809
 8806SOL     OW38050   3.793   1.997  12.946 -0.2041  0.3785  0.3452
 8806SOL    HW138051   3.794   2.071  13.007 -0.1563  0.1820  0.5822
 8806SOL    HW238052   3.705   2.015  12.914 -1.1390 -1.2926  1.9943
 8807SOL     OW38053   4.021   0.939   1.476 -0.2911  0.3378  0.1463
 8807SOL    HW138054   3.964   0.901   1.409 -0.8398  0.8263  0.3319
 8807SOL    HW238055   4.084   0.868   1.481 -0.5619  0.1219  0.4909
 8808SOL     OW38056   3.766   2.176   3.727 -0.0130  0.2766  0.0049
 8808SOL    HW138057   3.777   2.085   3.701  1.1662  0.4150 -0.0158
 8808SOL    HW238058   3.850   2.212   3.699 -0.9002  2.5186  0.2152
 8809SOL     OW38059   1.621   0.512   2.969 -0.5573  0.1316  0.0893
 8809SOL    HW138060   1.587   0.520   2.879 -0.6523 -1.0195  0.0240
 8809SOL    HW238061   1.574   0.585   3.009  0.6292  1.0037 -0.1029
 8810SOL     OW38062   1.907   2.381   5.471 -0.3546 -0.2182  0.0415
 8810SOL    HW138063   1.988   2.333   5.486 -0.3913 -0.5113 -0.6770
 8810SOL    HW238064   1.893   2.415   5.559 -0.9952 -0.8912  0.2064
 8811SOL     OW38065   1.872   4.641   5.618  0.5263  0.1038  0.3318
 8811SOL    HW138066   1.846   4.549   5.616  3.2695 -0.7372  3.3469
 8811SOL    HW238067   1.879   4.648   5.523  2.6451  0.8774  0.5454
 8812SOL     OW38068   1.185   0.776   6.596 -0.2055  0.2899 -0.1636
 8812SOL    HW138069   1.126   0.701   6.585 -0.5368  0.6723 -0.9459
 8812SOL    HW238070   1.130   0.823   6.659 -1.4249  2.5387 -2.9194
 8813SOL     OW38071   2.258   1.606   6.148  0.0907  0.7132 -0.0826
 8813SOL    HW138072   2.239   1.601   6.242  0.0754 -1.2725 -0.1828
 8813SOL    HW238073   2.172   1.597   6.108  0.5851  1.4810 -1.2974
 8814SOL     OW38074   2.893   2.388  17.500  0.3787  0.2403 -0.1770
 8814SOL    HW138075   2.960   2.341  17.450 -1.0105 -0.9710 -0.9047
 8814SOL    HW238076   2.843   2.322  17.547  0.9349 -0.5008 -0.6204
 8815SOL     OW38077   2.568   0.047  12.939  0.1131 -0.3778  0.2751
 8815SOL    HW138078   2.491   4.736  12.956  0.3547 -0.6330  0.5781
 8815SOL    HW238079   2.582   0.094  13.021  1.0555 -0.9983  0.4776
 8816SOL     OW38080   2.933   4.307  16.021  0.3026 -0.2123 -0.2213
 8816SOL    HW138081   2.926   4.222  15.977 -2.5540 -0.6288  1.0309
 8816SOL    HW238082   3.029   4.312  16.027  0.3046 -1.2961  0.8713
 8817SOL     OW38083   1.004   0.477   2.224  0.5857 -0.0940 -0.5961
 8817SOL    HW138084   1.064   0.402   2.231  2.1762  1.4352  2.3647
 8817SOL    HW238085   1.055   0.555   2.246 -0.1536  0.8108 -2.0747
 8818SOL     OW38086   3.831   1.971   6.618  0.9792 -0.7548 -0.4993
 8818SOL    HW138087   3.883   1.921   6.681  0.8825  1.8583  1.6627
 8818SOL    HW238088   3.749   1.979   6.666  0.6965 -2.6582 -0.6543
 8819SOL     OW38089   4.442   3.545   6.569  1.2539  0.2785  1.1643
 8819SOL    HW138090   4.475   3.635   6.569  0.8436  0.3953  5.3187
 8819SOL    HW238091   4.451   3.518   6.477  2.3905  1.9318  0.7850
 8820SOL     OW38092   2.218   2.267   4.262 -0.1031 -0.1032 -0.1981
 8820SOL    HW138093   2.166   2.298   4.336 -0.8383 -1.7815 -0.0236
 8820SOL    HW238094   2.162   2.316   4.200 -0.1051  0.9618  0.6553
 8821SOL     OW38095   2.487   4.486   8.991  0.0739 -0.0222 -0.2416
 8821SOL    HW138096   2.482   4.429   9.068 -0.0088 -1.3701 -1.2430
 8821SOL    HW238097   2.396   4.515   8.979  0.9967  3.1084  0.3993
 8822SOL     OW38098   2.669   4.325   9.577  0.3867 -0.2966 -0.0548
 8822SOL    HW138099   2.656   4.233   9.556 -2.0439 -0.4094  1.9280
 8822SOL    HW238100   2.745   4.315   9.634  0.2579  2.4135  0.6219
 8823SOL     OW38101   0.249   2.857   9.883 -0.3542 -0.2873  0.5802
 8823SOL    HW138102   0.237   2.765   9.860  0.3589 -0.1955 -0.1637
 8823SOL    HW238103   0.157   2.869   9.910 -0.3637 -0.3120  0.5591
 8824SOL     OW38104   2.484   0.413   3.709 -0.2632  0.0625 -0.2764
 8824SOL    HW138105   2.558   0.357   3.733  0.2541 -0.0248 -2.0806
 8824SOL    HW238106   2.507   0.422   3.617  1.1713  0.6690  0.1302
 8825SOL     OW38107   1.722   3.610   0.221  0.0900 -0.3675 -0.2777
 8825SOL    HW138108   1.759   3.523   0.233 -0.4748 -0.6750 -0.7820
 8825SOL    HW238109   1.737   3.622   0.127 -1.5065  1.9973 -0.2407
 8826SOL     OW38110   4.626   0.322   7.881 -0.1785  0.5767  0.2378
 8826SOL    HW138111   4.662   0.247   7.834 -1.1725  0.7306 -0.7931
 8826SOL    HW238112   4.573   0.370   7.816 -2.5626  0.7815  2.3329
 8827SOL     OW38113   1.977   1.675   3.003 -0.1151 -0.0868 -0.1895
 8827SOL    HW138114   2.053   1.723   3.034 -0.4696 -0.2683  0.9587
 8827SOL    HW238115   1.941   1.735   2.938  0.2118  0.2660 -0.0388
 8828SOL     OW38116   4.593   4.055   4.271  0.0415  0.2512  0.2037
 8828SOL    HW138117   4.633   4.140   4.256 -0.0304  0.1214 -0.7344
 8828SOL    HW238118   4.615   4.029   4.360 -0.7083  0.8772  0.5699
 8829SOL     OW38119   4.315   2.725   4.932  0.0846 -0.5570 -0.0465
 8829SOL    HW138120   4.226   2.756   4.945  1.0783  1.1087  2.8434
 8829SOL    HW238121   4.357   2.807   4.908  0.6784 -1.0972 -0.8553
 8830SOL     OW38122   3.250   0.042  11.619  0.7327  0.1583 -0.1827
 8830SOL    HW138123   3.164   0.048  11.660  1.5600 -1.1544  1.7184
 8830SOL    HW238124   3.230   0.104  11.549 -2.2366  1.1918  1.5857
 8831SOL     OW38125   0.174   3.808   9.838  0.0018 -0.3257 -0.0324
 8831SOL    HW138126   0.086   3.778   9.816 -0.0037 -1.2156  1.1823
 8831SOL    HW238127   0.177   3.789   9.932  1.1517 -0.7986 -0.1571
 8832SOL     OW38128   3.600   0.440   2.384 -0.6370 -0.1765  0.6179
 8832SOL    HW138129   3.587   0.533   2.406 -1.3935  0.1102 -1.0882
 8832SOL    HW238130   3.646   0.440   2.301 -0.2830 -0.9680  0.8198
 8833SOL     OW38131   1.463   3.368   4.162  0.2126  0.2889  0.1838
 8833SOL    HW138132   1.496   3.412   4.083  1.4465  0.8433  1.0143
 8833SOL    HW238133   1.541   3.372   4.218  2.8210  0.8748 -3.4418
 8834SOL     OW38134   3.617   0.007   7.743 -0.3149 -0.3041  0.2537
 8834SOL    HW138135   3.574   4.670   7.777 -2.1125  0.2676 -0.6669
 8834SOL    HW238136   3.693   4.701   7.710 -0.3785  0.8188 -1.4955
 8835SOL     OW38137   2.976   0.603  14.874 -0.4018  0.2893  0.0625
 8835SOL    HW138138   3.058   0.555  14.878 -0.3236  0.2910 -1.4554
 8835SOL    HW238139   2.923   0.561  14.942  1.5941 -1.1645  0.6812
 8836SOL     OW38140   2.093   0.725   9.655 -0.2353  0.0030 -0.2563
 8836SOL    HW138141   2.117   0.689   9.741  0.2821  0.9030 -0.0296
 8836SOL    HW238142   2.055   0.807   9.685  1.2308  0.9249 -0.9354
 8837SOL     OW38143   2.062   3.329   3.688 -0.1489  0.0070  0.5384
 8837SOL    HW138144   1.979   3.366   3.719  0.5223  1.0070  1.1598
 8837SOL    HW238145   2.060   3.353   3.595 -2.6867 -0.2282  0.5246
 8838SOL     OW38146   2.951   2.553   7.531 -0.3892  0.3686  0.4409
 8838SOL    HW138147   2.986   2.464   7.536  2.1758  1.2879 -0.9763
 8838SOL    HW238148   2.896   2.537   7.454  1.2653 -0.1284 -0.6408
 8839SOL     OW38149   2.685   2.144   7.773  0.3618 -0.8868 -0.1623
 8839SOL    HW138150   2.640   2.227   7.756  1.0824 -0.6360 -0.8424
 8839SOL    HW238151   2.776   2.172   7.774  0.8852 -2.5630 -1.5492
 8840SOL     OW38152   4.333   3.900   3.247 -0.4349 -0.0616  0.5442
 8840SOL    HW138153   4.273   3.973   3.233  0.1507  0.0745 -1.1962
 8840SOL    HW238154   4.361   3.866   3.162  0.6412 -0.5572  1.1025
 8841SOL     OW38155   3.518   1.168   7.235  0.5877  0.5062  0.5386
 8841SOL    HW138156   3.484   1.151   7.323 -0.5337  2.1997  0.4197
 8841SOL    HW238157   3.439   1.189   7.187  0.9549  0.2357 -0.1777
 8842SOL     OW38158   1.862   1.813   4.561 -0.2600 -0.4345 -0.2826
 8842SOL    HW138159   1.842   1.735   4.612  0.2673  0.9384  2.0405
 8842SOL    HW238160   1.949   1.780   4.539  0.0407  0.1348  0.0460
 8843SOL     OW38161   1.690   2.363  10.238  0.1287 -0.0758  0.0746
 8843SOL    HW138162   1.685   2.399  10.327  1.7326  1.7767 -0.5723
 8843SOL    HW238163   1.639   2.423  10.184 -1.1277 -1.5681 -0.3774
 8844SOL     OW38164   1.190   2.875   8.864 -0.0503 -0.3175  0.2018
 8844SOL    HW138165   1.203   2.895   8.771  1.2477  1.0254  0.6675
 8844SOL    HW238166   1.217   2.955   8.909  2.2621  0.5541 -2.7381
 8845SOL     OW38167   3.903   1.749   7.492  0.6723 -0.6030  0.3492
 8845SOL    HW138168   3.941   1.823   7.444  0.0324  0.4087  1.4168
 8845SOL    HW238169   3.813   1.747   7.461  1.0481  0.3784 -0.7939
 8846SOL     OW38170   2.788   2.790  12.049 -0.5529  0.3261  0.4762
 8846SOL    HW138171   2.828   2.807  12.134 -0.4199  1.2986  0.2116
 8846SOL    HW238172   2.716   2.732  12.074  0.3159 -1.3455 -0.8426
 8847SOL     OW38173   1.952   3.096   4.013  0.4270 -0.5227 -0.3813
 8847SOL    HW138174   1.914   3.023   4.062 -0.1230 -0.7713 -1.1844
 8847SOL    HW238175   2.020   3.054   3.959 -0.5895 -1.9921 -0.5244
 8848SOL     OW38176   2.307   2.758   1.745 -0.4703  0.1581  0.5570
 8848SOL    HW138177   2.306   2.811   1.825 -3.4470  0.6150  0.2274
 8848SOL    HW238178   2.383   2.701   1.759  0.5032  1.7688  1.7792
 8849SOL     OW38179   3.445   3.918   3.510 -0.1052  0.1979  0.1500
 8849SOL    HW138180   3.485   3.915   3.423  2.8838 -2.6301  1.6146
 8849SOL    HW238181   3.506   3.979   3.551 -0.8244  0.3727  0.9545
 8850SOL     OW38182   0.895   4.324  12.613 -0.4844 -0.3100  0.4024
 8850SOL    HW138183   0.918   4.401  12.560 -0.6171 -0.7383 -0.2774
 8850SOL    HW238184   0.964   4.331  12.679  0.0040  0.3209 -0.1716
 8851SOL     OW38185   1.579   3.183   2.343 -0.0622  0.4788 -0.1324
 8851SOL    HW138186   1.669   3.214   2.339 -0.0306  0.6465  2.1344
 8851SOL    HW238187   1.587   3.106   2.399 -1.5649  0.0071 -0.5616
 8852SOL     OW38188   2.369   0.323   5.352  0.0687  0.2522  0.2430
 8852SOL    HW138189   2.348   0.253   5.414  0.2364  0.9074  1.0482
 8852SOL    HW238190   2.288   0.327   5.301 -1.4253  1.5057  2.7313
 8853SOL     OW38191   4.248   0.638   4.116 -0.2349  0.1278 -0.3796
 8853SOL    HW138192   4.175   0.635   4.054 -0.0328 -2.1899 -0.4843
 8853SOL    HW238193   4.306   0.684   4.055 -0.8085  0.5182 -0.6352
 8854SOL     OW38194   1.184   1.277   7.682 -0.1987  0.1573  0.0389
 8854SOL    HW138195   1.106   1.237   7.720  0.9498 -1.8340  0.3151
 8854SOL    HW238196   1.226   1.200   7.645  1.3161  0.5775  0.8647
 8855SOL     OW38197   2.730   0.298   7.541  0.3332 -0.2244  0.0141
 8855SOL    HW138198   2.729   0.393   7.549  0.0360 -0.1386 -1.0477
 8855SOL    HW238199   2.800   0.277   7.479 -0.5382  2.0255 -1.7207
 8856SOL     OW38200   4.419   0.451   7.738 -0.8304 -0.2618 -0.2345
 8856SOL    HW138201   4.386   0.449   7.648  0.1959  1.7290 -0.6636
 8856SOL    HW238202   4.334   0.433   7.780 -0.0808  0.1562  1.4776
 8857SOL     OW38203   2.968   4.480   9.184  0.3351  0.0368  0.4653
 8857SOL    HW138204   2.919   4.546   9.137 -2.8289 -1.7174  1.3299
 8857SOL    HW238205   2.924   4.397   9.162  0.2852  0.0882  0.3703
 8858SOL     OW38206   2.217   3.594   4.571 -0.3689 -0.5662 -0.2572
 8858SOL    HW138207   2.262   3.559   4.493  2.6713  2.2125  0.2456
 8858SOL    HW238208   2.201   3.682   4.538 -0.2949 -0.0994  0.9733
 8859SOL     OW38209   3.096   2.089   1.222  0.1071  0.0521 -0.0568
 8859SOL    HW138210   3.116   2.174   1.260  1.2788 -1.5003  2.7815
 8859SOL    HW238211   3.087   2.124   1.133  0.8550  0.4412  0.0230
 8860SOL     OW38212   4.622   0.856  11.068 -0.1274  0.0126  0.1234
 8860SOL    HW138213   4.709   0.831  11.099  0.3321  0.4811 -0.8113
 8860SOL    HW238214   4.581   0.770  11.059 -1.4951  0.6568  0.1677
 8861SOL     OW38215   1.090   2.787   5.003 -0.0607 -0.0663  0.2731
 8861SOL    HW138216   1.024   2.718   5.005 -1.4990  1.3048  0.4409
 8861SOL    HW238217   1.040   2.865   5.027  0.8403  0.1231  1.5458
 8862SOL     OW38218   3.139   2.700   9.063  0.4713 -0.1991  0.3628
 8862SOL    HW138219   3.205   2.679   9.129  0.2745  1.0367  0.9439
 8862SOL    HW238220   3.073   2.641   9.100 -1.1083  3.2991  3.0815
 8863SOL     OW38221   4.497   2.480  13.469  0.1216  0.6951  0.1992
 8863SOL    HW138222   4.538   2.469  13.555  1.0845 -2.0438 -0.5988
 8863SOL    HW238223   4.466   2.392  13.445  1.5140  0.1206  0.4842
 8864SOL     OW38224   4.310   1.589  10.767 -0.0072  0.4847 -0.6143
 8864SOL    HW138225   4.223   1.567  10.733  0.0701 -0.2685 -0.3346
 8864SOL    HW238226   4.301   1.683  10.777 -1.3151  0.4664 -1.5732
 8865SOL     OW38227   0.275   1.756  10.696  0.2807 -0.1939 -0.0931
 8865SOL    HW138228   0.320   1.740  10.779 -0.0564 -1.4577 -0.1423
 8865SOL    HW238229   0.190   1.744  10.740  0.6723 -0.2824  0.6404
 8866SOL     OW38230   3.899   0.256  17.086  0.7936 -0.6095 -0.4141
 8866SOL    HW138231   3.987   0.249  17.051  0.6643  0.8986 -1.0397
 8866SOL    HW238232   3.908   0.318  17.158 -0.8207  0.7026 -1.3276
 8867SOL     OW38233   1.492   1.787   9.144  0.5641 -0.0374  0.4429
 8867SOL    HW138234   1.539   1.751   9.218 -0.7679  0.3881  1.4915
 8867SOL    HW238235   1.412   1.737   9.131 -1.1845  3.1611 -1.2071
 8868SOL     OW38236   2.047   2.228   5.105  0.3427 -0.1840  0.0084
 8868SOL    HW138237   2.008   2.195   5.186  0.4718 -2.4749 -0.8567
 8868SOL    HW238238   1.966   2.232   5.055  0.0376 -0.5998  0.4617
 8869SOL     OW38239   0.352   4.694   7.132  0.1342  0.4061  0.6777
 8869SOL    HW138240   0.303   0.031   7.157 -0.1008  0.7889 -0.9923
 8869SOL    HW238241   0.437   4.714   7.172 -0.2633 -0.5756  2.0347
 8870SOL     OW38242   3.666   1.426   9.939 -0.0222  0.3072  0.3365
 8870SOL    HW138243   3.630   1.449   9.853  1.0051 -1.4614 -0.5868
 8870SOL    HW238244   3.677   1.332   9.949  1.9630  0.8079  2.6381
 8871SOL     OW38245   3.633   4.733   8.533 -0.2720 -0.1866  0.2429
 8871SOL    HW138246   3.573   0.037   8.474  1.9649  2.2362 -0.1550
 8871SOL    HW238247   3.615   0.036   8.615  0.9265  3.1771 -1.3274
 8872SOL     OW38248   1.739   3.674  14.367 -0.2822  0.3019 -0.5646
 8872SOL    HW138249   1.807   3.674  14.434 -0.3809  0.9206 -0.4677
 8872SOL    HW238250   1.726   3.579  14.355 -0.8847  0.4361 -0.9793
 8873SOL     OW38251   3.392   1.926   6.739 -0.0831 -0.5359 -0.5318
 8873SOL    HW138252   3.322   1.893   6.684 -1.7772  1.7873  0.2358
 8873SOL    HW238253   3.381   1.875   6.820 -2.3210 -1.8943 -1.6995
 8874SOL     OW38254   2.657   2.480   7.314 -0.4390  0.2412 -0.4498
 8874SOL    HW138255   2.619   2.559   7.276  1.5601  0.6535 -1.5922
 8874SOL    HW238256   2.734   2.487   7.259 -2.2889  1.0236 -2.9480
 8875SOL     OW38257   4.710   2.430   0.449  0.5571  0.4959 -0.5377
 8875SOL    HW138258   0.061   2.408   0.439  0.1415 -1.4751  0.0697
 8875SOL    HW238259   4.668   2.346   0.431  1.6976 -0.2647  0.3454
 8876SOL     OW38260   1.310   1.183   4.341 -0.4870  0.3025 -0.5953
 8876SOL    HW138261   1.244   1.252   4.350 -0.5109  0.1548  0.4148
 8876SOL    HW238262   1.378   1.245   4.315 -1.9601  0.5131 -3.9351
 8877SOL     OW38263   1.683   2.788   4.548  0.1212  0.7921  0.1743
 8877SOL    HW138264   1.647   2.875   4.559  0.0220  0.5387  1.7712
 8877SOL    HW238265   1.624   2.755   4.480  0.9150  1.2439 -0.7484
 8878SOL     OW38266   3.751   0.695   4.413  0.1091 -0.0603 -0.5592
 8878SOL    HW138267   3.808   0.690   4.490 -1.5964  0.2428  0.7222
 8878SOL    HW238268   3.814   0.673   4.344 -0.7526  0.0923 -1.4008
 8879SOL     OW38269   1.927   2.049  12.869  1.0323 -0.0523 -0.0784
 8879SOL    HW138270   2.015   2.055  12.906  0.8351 -0.0769  0.4073
 8879SOL    HW238271   1.919   1.953  12.868  0.1391  0.0104  0.3996
 8880SOL     OW38272   0.256   0.470   4.468 -0.3372 -0.0832 -0.0792
 8880SOL    HW138273   0.233   0.411   4.396 -2.1689 -0.6244  0.9478
 8880SOL    HW238274   0.351   0.471   4.460 -0.2460 -3.9189  0.4585
 8881SOL     OW38275   0.773   1.022   5.417 -0.1839 -0.5115  0.2504
 8881SOL    HW138276   0.867   1.001   5.423  0.5323  2.3949 -0.8080
 8881SOL    HW238277   0.745   1.038   5.507 -1.7587 -1.0474 -0.1453
 8882SOL     OW38278   2.535   3.152   9.340  0.1810 -0.6071 -0.1853
 8882SOL    HW138279   2.440   3.152   9.357 -0.1194 -0.3421 -1.8794
 8882SOL    HW238280   2.552   3.075   9.394  0.9185  0.7637  1.5624
 8883SOL     OW38281   4.674   3.017   9.708  0.2827  0.7586 -0.1253
 8883SOL    HW138282   0.027   3.028   9.698  0.9948 -2.1951  3.3130
 8883SOL    HW238283   4.639   3.042   9.623 -1.6428  4.0791  1.6694
 8884SOL     OW38284   3.496   0.562   4.689  0.2759  0.1518 -0.6868
 8884SOL    HW138285   3.547   0.481   4.686  0.5233  0.1683  2.9817
 8884SOL    HW238286   3.444   0.544   4.768  0.6070 -2.1045 -0.9762
 8885SOL     OW38287   1.497   2.442   8.465  0.0506  0.2844  0.1279
 8885SOL    HW138288   1.413   2.469   8.501  0.3936  0.3300  0.8850
 8885SOL    HW238289   1.511   2.512   8.401 -2.2977  2.6590  2.2117
 8886SOL     OW38290   0.698   3.244   2.062 -0.6544  0.2037  0.3100
 8886SOL    HW138291   0.643   3.268   2.137 -0.2335  0.5165  0.5127
 8886SOL    HW238292   0.663   3.158   2.038  1.3236 -0.5626  0.1826
 8887SOL     OW38293   2.400   4.084   6.884 -0.5812 -0.0113 -0.1915
 8887SOL    HW138294   2.373   4.070   6.975 -0.0802 -0.5437 -0.1202
 8887SOL    HW238295   2.356   4.166   6.867 -2.3726 -1.0340 -0.4543
 8888SOL     OW38296   3.367   0.915   4.318 -0.3561 -0.3682 -0.1567
 8888SOL    HW138297   3.368   1.003   4.357 -0.5332 -1.1897  1.7042
 8888SOL    HW238298   3.432   0.926   4.248  0.6032  0.1955  0.8349
 8889SOL     OW38299   3.178   3.280   4.881  0.0113  0.3704  0.2587
 8889SOL    HW138300   3.218   3.308   4.798 -1.4683 -3.0584 -1.6494
 8889SOL    HW238301   3.177   3.184   4.873  1.9481  0.4057 -0.4715
 8890SOL     OW38302   2.958   1.908   5.001 -0.0969 -0.4314 -0.3609
 8890SOL    HW138303   2.982   1.998   5.024 -0.3259 -0.5433  0.3131
 8890SOL    HW238304   2.967   1.915   4.906 -0.9475 -2.0330 -0.5555
 8891SOL     OW38305   0.430   1.502   9.869  0.7208  0.3306  0.0857
 8891SOL    HW138306   0.471   1.587   9.884  0.6424  0.4781 -0.5237
 8891SOL    HW238307   0.406   1.480   9.959 -2.1331  1.7342 -0.3101
 8892SOL     OW38308   2.704   0.599  13.696  0.2225 -0.4758  0.3002
 8892SOL    HW138309   2.662   0.662  13.636  0.3105 -1.1106 -0.4198
 8892SOL    HW238310   2.646   0.523  13.697  0.7099 -0.8403  0.7666
 8893SOL     OW38311   1.728   1.110   3.114  0.1725  0.1983 -0.5308
 8893SOL    HW138312   1.763   1.163   3.187  0.3926 -0.9881  0.2278
 8893SOL    HW238313   1.758   1.023   3.139 -0.4255 -0.0914 -0.8338
 8894SOL     OW38314   4.542   0.909   7.314 -0.0330  0.5675 -0.3616
 8894SOL    HW138315   4.603   0.977   7.345  3.2966 -1.6145 -2.1646
 8894SOL    HW238316   4.584   0.868   7.239  1.3927  1.0782  0.1517
 8895SOL     OW38317   2.350   1.513   9.077  0.4328  0.1252  0.1115
 8895SOL    HW138318   2.328   1.604   9.095 -0.0104 -0.5382  2.8836
 8895SOL    HW238319   2.436   1.520   9.037 -0.1651  1.6237 -0.9218
 8896SOL     OW38320   4.437   3.387   9.856  0.0033  0.0082  0.3235
 8896SOL    HW138321   4.356   3.436   9.865  1.3141  2.2186  0.1808
 8896SOL    HW238322   4.487   3.442   9.917 -0.3306 -1.8272  2.2471
 8897SOL     OW38323   4.493   3.896   4.516 -0.2742  0.0873  0.3830
 8897SOL    HW138324   4.544   3.882   4.597 -0.8498 -1.3071  0.5037
 8897SOL    HW238325   4.417   3.936   4.558 -0.0873 -1.2073  1.9973
 8898SOL     OW38326   3.439   3.876   6.597 -0.3889  0.3385 -0.6505
 8898SOL    HW138327   3.434   3.967   6.567 -0.0294  0.3006 -0.8173
 8898SOL    HW238328   3.363   3.864   6.654  0.7476 -0.5730  0.6867
 8899SOL     OW38329   0.986   1.369   6.525 -0.2243 -0.2596 -0.2403
 8899SOL    HW138330   0.961   1.305   6.592  0.7519 -0.0244  0.3533
 8899SOL    HW238331   1.067   1.329   6.492  0.3948  0.9032 -0.1132
 8900SOL     OW38332   0.096   4.004   7.865  0.0843  0.2114 -0.0324
 8900SOL    HW138333   0.022   3.951   7.833 -0.6139  0.6008  0.9349
 8900SOL    HW238334   0.159   4.003   7.792  1.7359 -2.8799  1.4283
 8901SOL     OW38335   4.073   0.202   8.817 -0.1071  0.1553 -0.3141
 8901SOL    HW138336   4.073   0.239   8.729 -1.9889  2.2814  0.5806
 8901SOL    HW238337   4.151   0.146   8.811 -0.1013  0.1607 -0.2887
 8902SOL     OW38338   0.279   1.159   0.888  0.6291  0.0059 -0.5253
 8902SOL    HW138339   0.343   1.230   0.892 -0.6421  1.1926 -1.2583
 8902SOL    HW238340   0.329   1.081   0.912  2.3563  0.2804 -3.1548
 8903SOL     OW38341   0.304   1.738   2.072  0.3901 -0.2514 -0.0830
 8903SOL    HW138342   0.323   1.830   2.054  0.5266  0.0663  1.6540
 8903SOL    HW238343   0.228   1.740   2.130  1.5483 -1.1181  1.4515
 8904SOL     OW38344   3.972   2.703   8.189 -0.5075  0.1845 -0.1610
 8904SOL    HW138345   3.999   2.729   8.101 -1.5353  1.6400 -0.0469
 8904SOL    HW238346   3.923   2.784   8.208  1.5232  1.5695 -0.8001
 8905SOL     OW38347   0.917   0.128   4.876 -0.2647 -0.0812 -0.7470
 8905SOL    HW138348   0.894   0.215   4.909 -0.6928  0.5868 -2.8556
 8905SOL    HW238349   0.884   0.074   4.948 -1.2564  0.2584 -0.9438
 8906SOL     OW38350   1.877   2.161   6.004  0.1386  0.2781  0.6070
 8906SOL    HW138351   1.892   2.243   6.051  0.2830  0.4168  0.3128
 8906SOL    HW238352   1.909   2.185   5.918  0.4278  2.0535  1.2148
 8907SOL     OW38353   2.152   2.278   5.451 -0.5186  0.5576  0.2908
 8907SOL    HW138354   2.182   2.335   5.379 -0.0250 -1.3900 -1.0469
 8907SOL    HW238355   2.227   2.298   5.507 -0.9351  1.1681  0.6282
 8908SOL     OW38356   2.572   3.045   6.562 -0.2055 -0.4046  0.0956
 8908SOL    HW138357   2.543   3.132   6.534 -1.5161 -0.1766  2.1769
 8908SOL    HW238358   2.638   3.024   6.496  0.7221 -0.8198  1.1432
 8909SOL     OW38359   0.361   2.246   8.530  0.0119  0.8551  0.0774
 8909SOL    HW138360   0.349   2.159   8.493  1.3493  0.3217  0.9150
 8909SOL    HW238361   0.359   2.217   8.621  2.4223 -2.3306 -0.8925
 8910SOL     OW38362   4.331   4.287   0.908 -0.4933 -0.0667  0.7067
 8910SOL    HW138363   4.419   4.248   0.911  0.6756  2.3437 -1.6772
 8910SOL    HW238364   4.279   4.211   0.883 -1.1916 -0.1068  2.2979
 8911SOL     OW38365   4.212   0.332   7.244 -0.4320  0.0080  0.1279
 8911SOL    HW138366   4.117   0.329   7.233 -0.6618  1.2178  1.7605
 8911SOL    HW238367   4.240   0.351   7.154 -0.8160 -0.3131 -0.0552
 8912SOL     OW38368   4.677   2.381   4.749 -0.3689  0.0777  0.2364
 8912SOL    HW138369   0.007   2.437   4.778 -1.4063  0.7249  1.5388
 8912SOL    HW238370   4.651   2.434   4.674  3.0506  0.1478 -0.8709
 8913SOL     OW38371   3.206   1.330   8.228 -0.2537 -0.2165 -0.0010
 8913SOL    HW138372   3.131   1.293   8.275 -0.6552  0.7792  0.1332
 8913SOL    HW238373   3.163   1.332   8.142  0.8978 -2.1696 -0.6243
 8914SOL     OW38374   2.492   2.241   8.428 -0.1933  0.4328 -0.0903
 8914SOL    HW138375   2.489   2.251   8.333 -1.6470  1.3720  0.0657
 8914SOL    HW238376   2.555   2.170   8.439 -0.7646  0.0067  0.4122
 8915SOL     OW38377   4.266   4.688   0.660  0.1872 -0.2643 -0.3965
 8915SOL    HW138378   4.242   4.711   0.750  0.6424 -0.4881 -0.2191
 8915SOL    HW238379   4.277   0.033   0.621  0.2826 -1.4127 -2.9083
 8916SOL     OW38380   1.878   2.341   4.780 -0.2557 -0.3198  0.6666
 8916SOL    HW138381   1.823   2.350   4.857  0.1619  1.2509  0.7753
 8916SOL    HW238382   1.925   2.425   4.780  1.3331 -1.1924  1.1358
 8917SOL     OW38383   3.295   2.199   6.313 -0.1285  0.0596  0.2158
 8917SOL    HW138384   3.226   2.249   6.356 -0.2812 -0.2500  0.3258
 8917SOL    HW238385   3.350   2.172   6.387 -2.0577 -1.3096  1.1453
 8918SOL     OW38386   3.075   1.273  13.481 -0.0291 -0.5393 -0.4130
 8918SOL    HW138387   3.014   1.234  13.544  1.4744  1.9541  2.6143
 8918SOL    HW238388   3.023   1.329  13.423 -0.1218 -0.3445 -0.1432
 8919SOL     OW38389   2.867   0.649  13.156  0.3054  0.4518  0.1219
 8919SOL    HW138390   2.801   0.604  13.209  1.1209  0.4065  1.0977
 8919SOL    HW238391   2.890   0.720  13.215  3.1018 -1.1038  0.8930
 8920SOL     OW38392   2.018   3.313   4.143  0.0182 -0.4788 -0.3269
 8920SOL    HW138393   2.107   3.279   4.134  0.2908 -0.3913  2.1511
 8920SOL    HW238394   1.964   3.249   4.096  1.0370 -2.1034  0.7214
 8921SOL     OW38395   1.617   0.734   9.233  0.6541  0.1656  0.1860
 8921SOL    HW138396   1.595   0.666   9.170  0.3031  0.7186 -0.2889
 8921SOL    HW238397   1.617   0.683   9.314  2.4654  0.0967  0.1446
 8922SOL     OW38398   2.076   2.416   3.228  0.3374  0.8242  0.6148
 8922SOL    HW138399   2.005   2.380   3.174  1.6243 -1.7180  0.6122
 8922SOL    HW238400   2.146   2.357   3.200 -0.8110  0.8835 -2.4579
 8923SOL     OW38401   2.864   2.964  11.280  0.0883  0.2408 -0.2569
 8923SOL    HW138402   2.917   2.893  11.242 -0.2246  1.3863 -2.8565
 8923SOL    HW238403   2.853   3.018  11.202  2.0152  1.0316  0.0407
 8924SOL     OW38404   2.849   2.764   2.005 -0.2681 -0.3239 -0.2803
 8924SOL    HW138405   2.832   2.848   1.963  0.4381  0.9759  2.0474
 8924SOL    HW238406   2.899   2.795   2.080 -1.7722 -1.1242  1.0564
 8925SOL     OW38407   1.882   3.351   8.307  0.0318 -0.1517  0.3367
 8925SOL    HW138408   1.962   3.403   8.308 -0.3693  0.4759 -0.4560
 8925SOL    HW238409   1.906   3.268   8.350  0.1818 -0.5257 -0.4809
 8926SOL     OW38410   4.519   2.228   9.171  0.4370  0.3381  0.3011
 8926SOL    HW138411   4.553   2.266   9.090 -0.1343 -0.3423 -0.2526
 8926SOL    HW238412   4.494   2.301   9.228 -2.6074 -0.7870  0.3912
 8927SOL     OW38413   2.900   3.840   1.748  0.1764  0.5493 -0.4547
 8927SOL    HW138414   2.949   3.800   1.820  0.3959  2.0339  0.2213
 8927SOL    HW238415   2.926   3.801   1.665  1.5534  2.5812 -0.9763
 8928SOL     OW38416   3.579   0.094   7.315  0.1927  0.0083  0.6385
 8928SOL    HW138417   3.604   0.133   7.230 -0.3885 -2.6524 -0.7427
 8928SOL    HW238418   3.490   0.062   7.298 -0.2445  0.5476  1.9376
 8929SOL     OW38419   1.036   2.824   6.621 -0.0201 -0.1824 -0.3148
 8929SOL    HW138420   1.131   2.824   6.634 -0.1396  0.7050  0.5288
 8929SOL    HW238421   1.001   2.813   6.709 -0.4068 -0.7438 -0.5331
 8930SOL     OW38422   1.349   2.627   2.018 -0.1152 -0.3510  0.1883
 8930SOL    HW138423   1.363   2.598   2.107  1.2568  0.4142  0.2301
 8930SOL    HW238424   1.305   2.711   2.037  1.9045  0.4289  1.3663
 8931SOL     OW38425   3.678   3.203   5.540  0.1435 -0.9801 -0.5785
 8931SOL    HW138426   3.751   3.241   5.492 -0.0218 -0.6218 -0.5438
 8931SOL    HW238427   3.615   3.262   5.499  0.7744  1.1364  1.4647
 8932SOL     OW38428   0.224   4.085   5.828  0.0396  0.3636  0.4443
 8932SOL    HW138429   0.151   4.048   5.878 -0.5785 -0.0553 -0.7787
 8932SOL    HW238430   0.258   4.152   5.887 -0.3069  0.7207  0.2311
 8933SOL     OW38431   0.506   2.429   6.880 -0.7392  0.0011 -0.4792
 8933SOL    HW138432   0.562   2.352   6.880 -0.9088 -0.1232  0.2690
 8933SOL    HW238433   0.548   2.490   6.941  0.5035  0.4222 -1.7707
 8934SOL     OW38434   1.494   4.170   8.436 -0.2973  0.0239 -0.1529
 8934SOL    HW138435   1.508   4.168   8.342  0.4722 -2.5913  0.0128
 8934SOL    HW238436   1.581   4.165   8.474  0.0227  0.5482 -0.8302
 8935SOL     OW38437   3.276   0.988   2.130 -0.5156 -0.1916 -0.7026
 8935SOL    HW138438   3.254   0.899   2.103  0.7608 -0.4346 -0.9647
 8935SOL    HW238439   3.322   0.966   2.211 -0.8374 -0.2053 -0.5255
 8936SOL     OW38440   1.175   0.953  11.845  0.5003  0.1346  0.1319
 8936SOL    HW138441   1.264   0.974  11.874  0.1371  1.7212  0.0646
 8936SOL    HW238442   1.155   1.027  11.788 -0.7962 -0.8474 -0.6916
 8937SOL     OW38443   4.249   1.524   8.143 -0.2817 -0.0299  0.3198
 8937SOL    HW138444   4.195   1.448   8.162 -1.0115  0.9389  2.1621
 8937SOL    HW238445   4.323   1.507   8.202 -0.7570 -1.1880  0.5713
 8938SOL     OW38446   3.125   3.045  10.181  0.5324 -0.1706  0.3159
 8938SOL    HW138447   3.074   3.041  10.261 -0.7360 -0.4612 -0.5087
 8938SOL    HW238448   3.054   3.034  10.118  1.3780 -2.8086 -0.1757
 8939SOL     OW38449   3.875   1.466   8.624  0.3991  0.3170  0.5814
 8939SOL    HW138450   3.784   1.481   8.651  1.2043  2.9064  1.8148
 8939SOL    HW238451   3.906   1.420   8.701  0.7831  0.7334  0.6736
 8940SOL     OW38452   0.398   0.288  11.521 -0.0681  1.0912 -0.2700
 8940SOL    HW138453   0.319   0.326  11.482  0.1924  0.9783 -0.9127
 8940SOL    HW238454   0.414   0.346  11.595 -0.1444  0.7321  0.0295
 8941SOL     OW38455   0.094   0.192   3.197 -0.5367 -0.3594 -0.1153
 8941SOL    HW138456   0.026   0.211   3.261  0.0105 -0.7316  0.5780
 8941SOL    HW238457   0.046   0.186   3.115 -1.7722 -0.6452  0.6300
 8942SOL     OW38458   0.147   1.901   5.696  0.3724 -0.1368 -0.0927
 8942SOL    HW138459   0.180   1.974   5.643 -2.6678  1.3271  0.0624
 8942SOL    HW238460   0.068   1.938   5.734 -0.3513  0.8004 -2.4609
 8943SOL     OW38461   3.331   2.436   8.400 -0.0834  0.4602  0.0267
 8943SOL    HW138462   3.323   2.530   8.417  2.1721  0.5011  0.8512
 8943SOL    HW238463   3.424   2.426   8.378 -0.2138 -1.0109  0.1247
 8944SOL     OW38464   1.514   4.532   2.270 -0.1968  0.1525 -0.1365
 8944SOL    HW138465   1.465   4.502   2.194 -0.1002  0.9843 -0.5258
 8944SOL    HW238466   1.480   4.502   2.354  0.6035 -2.4515 -0.7531
 8945SOL     OW38467   4.396   3.656   9.454  0.6221  0.5344 -0.0438
 8945SOL    HW138468   4.302   3.644   9.439  0.6240  0.1658  0.2420
 8945SOL    HW238469   4.408   3.737   9.405  2.8778  1.3052  1.8042
 8946SOL     OW38470   0.112   3.146   8.359 -0.0978  0.5369 -0.2066
 8946SOL    HW138471   0.181   3.190   8.408 -0.1916  0.6994 -0.2199
 8946SOL    HW238472   0.046   3.215   8.345 -0.0003  0.3919 -1.3848
 8947SOL     OW38473   0.191   0.230   1.786 -0.4895  0.2038  0.0398
 8947SOL    HW138474   0.125   0.255   1.721 -2.4743 -0.1535  1.9120
 8947SOL    HW238475   0.143   0.266   1.861 -2.1059 -0.1713 -0.8171
 8948SOL     OW38476   0.558   1.532   9.129 -0.2449  0.0431 -0.2707
 8948SOL    HW138477   0.600   1.582   9.200 -3.2777  2.9607 -0.5419
 8948SOL    HW238478   0.609   1.562   9.053 -1.5379  0.3281 -1.0216
 8949SOL     OW38479   3.142   3.954   0.711  0.4569 -0.3402 -0.2457
 8949SOL    HW138480   3.229   3.957   0.751  0.3097  2.1741 -0.1254
 8949SOL    HW238481   3.133   4.045   0.682 -1.0434  0.0886  1.5496
 8950SOL     OW38482   4.414   2.090  16.674  0.3635 -0.3759  0.0464
 8950SOL    HW138483   4.497   2.137  16.687 -0.0327  1.1251 -2.9144
 8950SOL    HW238484   4.360   2.166  16.653  0.8056 -0.1210 -0.1692
 8951SOL     OW38485   2.070   2.511   3.481 -0.4731  0.7306  0.5744
 8951SOL    HW138486   2.140   2.576   3.485 -0.8398  1.3458 -2.7739
 8951SOL    HW238487   2.066   2.491   3.387  1.5765  0.0819  0.6269
 8952SOL     OW38488   4.304   0.765  17.485  0.6442  0.6660  0.6266
 8952SOL    HW138489   4.246   0.834  17.518 -0.6011  0.5075 -1.2056
 8952SOL    HW238490   4.378   0.795  17.537  0.3756 -0.6435  1.7665
 8953SOL     OW38491   1.141   0.318   3.333  0.1778 -0.3824 -0.7651
 8953SOL    HW138492   1.229   0.349   3.356 -0.7034  0.5289  1.3577
 8953SOL    HW238493   1.136   0.249   3.399  2.6706 -0.4259 -0.6114
 8954SOL     OW38494   4.464   1.655   1.959 -0.1930 -0.2555  0.0336
 8954SOL    HW138495   4.370   1.668   1.970  0.2748  1.7908  1.7409
 8954SOL    HW238496   4.508   1.738   1.980 -0.5437 -0.0399 -0.0764
 8955SOL     OW38497   2.199   0.385   5.677  0.8921 -0.6946 -0.0726
 8955SOL    HW138498   2.151   0.433   5.744  0.8811 -2.4378  1.1700
 8955SOL    HW238499   2.125   0.336   5.641  0.7348 -0.4938 -0.0209
 8956SOL     OW38500   0.495   0.285   5.239  0.5141 -0.0210 -0.1728
 8956SOL    HW138501   0.554   0.353   5.272 -0.5828  1.2750 -0.8358
 8956SOL    HW238502   0.443   0.338   5.177  0.7556 -2.9789 -2.9100
 8957SOL     OW38503   4.481   4.233   7.649  0.8555 -0.3230 -0.1364
 8957SOL    HW138504   4.414   4.166   7.666  1.0763  0.4549  3.8762
 8957SOL    HW238505   4.550   4.169   7.634 -0.0987 -1.8239  1.8767
 8958SOL     OW38506   2.805   3.679   7.461  0.0760 -0.2720 -0.3500
 8958SOL    HW138507   2.712   3.662   7.475 -0.5391  3.0632 -0.4384
 8958SOL    HW238508   2.829   3.749   7.521 -0.0681 -1.3771  0.9788
 8959SOL     OW38509   3.103   3.034   4.050  0.3854 -0.3981  0.6037
 8959SOL    HW138510   3.011   3.043   4.077 -0.4308 -0.6549 -1.9890
 8959SOL    HW238511   3.141   3.105   4.101  1.3748 -0.8809  0.5205
 8960SOL     OW38512   1.194   1.486   5.292 -0.3811 -0.9701  0.1839
 8960SOL    HW138513   1.152   1.469   5.208  0.1188  1.6526 -0.5838
 8960SOL    HW238514   1.199   1.400   5.335  2.5198 -0.9180 -0.0825
 8961SOL     OW38515   1.571   3.117  15.119  0.5701  0.2611  0.2676
 8961SOL    HW138516   1.531   3.189  15.168 -2.5071 -0.6453 -0.9296
 8961SOL    HW238517   1.650   3.096  15.170 -0.3591  0.7377  1.9216
 8962SOL     OW38518   1.488   2.181   2.439 -0.0103  0.2733  0.2872
 8962SOL    HW138519   1.503   2.265   2.483 -1.1759  1.2816 -1.2152
 8962SOL    HW238520   1.577   2.152   2.419  0.4343  1.5092  0.4821
 8963SOL     OW38521   4.335   3.599  17.660  1.1380 -0.1362 -0.2554
 8963SOL    HW138522   4.367   3.510  17.664  0.6034 -0.2559  1.4259
 8963SOL    HW238523   4.418   3.639  17.686  1.4518  1.1560 -3.2318
 8964SOL     OW38524   0.661   1.964   6.370 -0.4007  0.3968 -0.4794
 8964SOL    HW138525   0.572   1.961   6.405 -0.2774  1.3273 -0.0870
 8964SOL    HW238526   0.648   1.891   6.310  0.6029 -2.0018  2.2183
 8965SOL     OW38527   1.464   2.788   0.414  0.4254 -0.0400  0.3977
 8965SOL    HW138528   1.421   2.784   0.328 -0.0139 -1.0041  0.6608
 8965SOL    HW238529   1.478   2.696   0.436  0.1243  0.0941  1.1336
 8966SOL     OW38530   4.407   3.114   2.684 -0.0942  0.3698 -0.9397
 8966SOL    HW138531   4.361   3.112   2.767 -2.6058 -1.5272 -2.3744
 8966SOL    HW238532   4.441   3.025   2.678  1.9912  1.1218 -0.2664
 8967SOL     OW38533   3.329   2.819   3.372  0.3781 -0.1521 -0.2044
 8967SOL    HW138534   3.249   2.814   3.320  0.6140 -0.1118 -0.5723
 8967SOL    HW238535   3.360   2.728   3.364 -1.2263 -0.5959 -1.4558
 8968SOL     OW38536   3.018   1.603   6.945 -0.5302  0.5558  0.1430
 8968SOL    HW138537   2.979   1.562   7.022  0.7095  2.2491  1.6795
 8968SOL    HW238538   3.047   1.521   6.905 -1.0777 -0.2786  1.4402
 8969SOL     OW38539   1.584   4.234   8.207  0.1827 -0.1586  0.3191
 8969SOL    HW138540   1.520   4.250   8.137  1.5114 -0.2076 -0.9126
 8969SOL    HW238541   1.647   4.190   8.151  0.2123 -0.7905  0.8523
 8970SOL     OW38542   4.740   3.077   3.993 -0.3612  0.1861  0.0458
 8970SOL    HW138543   4.691   3.129   3.931  0.1632  0.0399 -0.4945
 8970SOL    HW238544   0.054   3.144   4.032  1.4123 -1.2086 -0.0785
 8971SOL     OW38545   2.287   1.579  16.944 -0.3539  0.0872  0.5374
 8971SOL    HW138546   2.303   1.574  16.850 -1.4614 -0.7235  0.3954
 8971SOL    HW238547   2.286   1.674  16.957  0.9002  0.2742 -0.7950
 8972SOL     OW38548   1.928   4.428   1.257  0.7202  0.1516  0.3647
 8972SOL    HW138549   1.894   4.502   1.206  1.8636  1.1604  1.0574
 8972SOL    HW238550   1.978   4.472   1.326  0.0163  0.4768  0.6672
 8973SOL     OW38551   0.616   4.712   7.509  0.4689 -0.1884 -0.0198
 8973SOL    HW138552   0.628   0.058   7.548  0.1452  0.5212 -1.5209
 8973SOL    HW238553   0.604   4.737   7.418  0.6908 -3.6416 -0.9586
 8974SOL     OW38554   1.273   2.751  12.052 -0.1909 -0.6266  0.0060
 8974SOL    HW138555   1.197   2.807  12.069  1.9364  1.8572  1.2090
 8974SOL    HW238556   1.343   2.807  12.084  1.6167 -1.0044 -3.2682
 8975SOL     OW38557   1.770   4.389   5.709 -0.0030  0.3136  0.2200
 8975SOL    HW138558   1.753   4.295   5.702  0.3947  0.4757 -2.6455
 8975SOL    HW238559   1.740   4.412   5.797 -0.6749  0.0194  0.0663
 8976SOL     OW38560   2.184   2.021  14.651 -0.7807  0.4454 -0.3669
 8976SOL    HW138561   2.217   2.109  14.634 -0.5176  0.4965  0.3879
 8976SOL    HW238562   2.238   1.979  14.718 -0.7197  1.0219 -0.0574
 8977SOL     OW38563   1.410   3.048  16.891 -0.3993  0.0780  0.0265
 8977SOL    HW138564   1.344   3.114  16.911 -0.5402 -0.4461  1.2818
 8977SOL    HW238565   1.381   2.978  16.949 -0.4852  0.1216  0.0366
 8978SOL     OW38566   2.014   3.472   1.632  0.2521 -0.1216  0.4367
 8978SOL    HW138567   1.954   3.400   1.646 -1.2012  0.8414 -0.7602
 8978SOL    HW238568   1.971   3.544   1.585 -1.0893 -2.0610 -1.2754
 8979SOL     OW38569   2.160   0.616   3.128 -0.0319  0.2350 -0.7340
 8979SOL    HW138570   2.191   0.701   3.160  3.3810 -1.8306  1.6032
 8979SOL    HW238571   2.215   0.616   3.049 -0.2897  0.6316 -0.9079
 8980SOL     OW38572   1.010   4.634  17.116 -0.4730  0.1933 -0.5437
 8980SOL    HW138573   0.976   4.585  17.041  0.6577  0.3616 -1.1668
 8980SOL    HW238574   0.944   4.703  17.126  1.0991  1.8539 -1.5132
 8981SOL     OW38575   0.188   4.600   2.287 -0.1991  0.3709 -0.0972
 8981SOL    HW138576   0.169   4.685   2.327  0.1884  0.8002 -0.8261
 8981SOL    HW238577   0.177   4.548   2.367  2.9613 -0.5306 -0.2326
 8982SOL     OW38578   3.874   1.250  15.950 -0.2329  0.1253 -0.5282
 8982SOL    HW138579   3.921   1.235  15.868 -1.5841 -0.5853 -1.1750
 8982SOL    HW238580   3.923   1.321  15.991  0.0474 -1.7154  2.2848
 8983SOL     OW38581   2.548   3.117   4.078  0.6082  0.1532  0.4369
 8983SOL    HW138582   2.543   3.110   3.982 -0.6949 -1.1170  0.6079
 8983SOL    HW238583   2.500   3.035   4.084  2.1238 -0.5898  2.1391
 8984SOL     OW38584   4.116   2.168  12.123  0.0297  0.2468  0.2327
 8984SOL    HW138585   4.065   2.094  12.091 -0.3620  0.3615  0.5790
 8984SOL    HW238586   4.189   2.118  12.157 -0.1373 -1.5088 -2.0094
 8985SOL     OW38587   2.592   4.539   5.513  0.1700  0.0003  0.8617
 8985SOL    HW138588   2.580   4.600   5.440  1.1310  1.2065  1.6949
 8985SOL    HW238589   2.639   4.473   5.461  0.0522  0.7652 -0.2336
 8986SOL     OW38590   0.765   0.182   6.347 -0.2314 -0.3741  0.1573
 8986SOL    HW138591   0.762   0.090   6.319  0.6821  0.5572 -2.9528
 8986SOL    HW238592   0.684   0.211   6.306 -0.7423  1.9332  2.7531
 8987SOL     OW38593   3.778   1.886  16.378  0.5702 -0.1043  0.2140
 8987SOL    HW138594   3.790   1.800  16.417  0.0525 -0.4535 -0.3907
 8987SOL    HW238595   3.689   1.908  16.406 -0.3522 -4.3436  0.6151
 8988SOL     OW38596   3.822   0.698   8.609 -0.0537 -0.0058  0.3482
 8988SOL    HW138597   3.790   0.710   8.698  1.1758 -3.1619  1.2152
 8988SOL    HW238598   3.775   0.619   8.581  0.7257 -0.0027 -0.9827
 8989SOL     OW38599   0.249   4.322  16.817 -0.3337 -0.3461  0.0672
 8989SOL    HW138600   0.175   4.325  16.878  0.3804  0.6433  0.8836
 8989SOL    HW238601   0.209   4.374  16.747  0.6398  1.5357  0.9192
 8990SOL     OW38602   3.749   2.237   8.047  0.4356 -0.3609  0.5120
 8990SOL    HW138603   3.722   2.163   8.101  0.6256 -1.3787 -0.7979
 8990SOL    HW238604   3.760   2.187   7.967  0.4110  2.5264 -1.2872
 8991SOL     OW38605   4.546   1.305  12.491  0.6963 -0.1410 -0.3272
 8991SOL    HW138606   4.630   1.350  12.478  1.2095 -0.8993  0.4246
 8991SOL    HW238607   4.489   1.378  12.513  0.5528 -0.6522  0.9669
 8992SOL     OW38608   1.412   0.935  11.677  0.1387  0.1485  0.3901
 8992SOL    HW138609   1.388   1.027  11.665  0.6592  0.1170 -0.9230
 8992SOL    HW238610   1.506   0.943  11.689  0.1281 -0.0287  0.5810
 8993SOL     OW38611   2.919   2.628   4.891  0.6373 -0.1410  0.4114
 8993SOL    HW138612   2.852   2.565   4.864 -2.1516  1.6826  3.1414
 8993SOL    HW238613   2.871   2.674   4.959 -3.5555 -0.2817 -2.3880
 8994SOL     OW38614   4.172   1.774  16.269  0.2202 -0.5976 -0.5323
 8994SOL    HW138615   4.177   1.724  16.187 -2.5020 -2.1393  0.2303
 8994SOL    HW238616   4.092   1.825  16.254  1.2404  0.4886 -2.3526
 8995SOL     OW38617   3.760   0.240   6.236  0.0671  0.0643  0.5404
 8995SOL    HW138618   3.673   0.222   6.271  0.5087 -0.5613  1.3313
 8995SOL    HW238619   3.811   0.160   6.249 -0.3971 -0.6135 -1.8813
 8996SOL     OW38620   2.796   1.041  16.729  0.1629  0.4475 -0.5549
 8996SOL    HW138621   2.746   1.081  16.800 -0.7874 -0.0391 -0.9365
 8996SOL    HW238622   2.834   1.119  16.690  1.9491 -0.3999 -0.4997
 8997SOL     OW38623   1.176   2.807  10.822 -0.1002  0.0092  0.4353
 8997SOL    HW138624   1.257   2.807  10.770  0.7782  2.7226  1.7787
 8997SOL    HW238625   1.170   2.723  10.867  0.1723 -1.1561 -1.6901
 8998SOL     OW38626   1.032   4.579   7.845  0.2477  0.2374  0.0470
 8998SOL    HW138627   1.094   4.558   7.776  1.4208 -0.0493  1.1843
 8998SOL    HW238628   0.960   4.629   7.806 -1.5642  0.0970  3.1494
 8999SOL     OW38629   3.333   3.154   9.322 -0.8005  0.1608 -0.5802
 8999SOL    HW138630   3.412   3.207   9.312 -0.4209 -0.4455 -0.8349
 8999SOL    HW238631   3.280   3.193   9.253  0.4826 -0.2083 -1.7837
 9000SOL     OW38632   1.140   2.758   5.642  0.6265 -0.1109  0.0698
 9000SOL    HW138633   1.098   2.688   5.692 -1.2841  0.0251 -1.3557
 9000SOL    HW238634   1.080   2.829   5.659 -1.7969 -1.7649 -1.5254
 9001SOL     OW38635   0.246   4.033   9.532  0.0971 -0.0418 -0.0242
 9001SOL    HW138636   0.177   4.080   9.578  1.2608  0.1516  1.5090
 9001SOL    HW238637   0.194   3.954   9.517  2.2247 -1.2558 -1.0364
 9002SOL     OW38638   2.925   2.330   4.344  0.3578  0.3815  0.0813
 9002SOL    HW138639   2.855   2.269   4.323  0.7080 -0.2539  0.7435
 9002SOL    HW238640   2.879   2.403   4.384 -0.1220  0.2838 -0.2998
 9003SOL     OW38641   0.717   4.590   4.324  0.2630  0.1923 -0.2651
 9003SOL    HW138642   0.758   4.676   4.324  0.9469 -0.1375  0.1508
 9003SOL    HW238643   0.757   4.563   4.241 -0.2687  1.3617 -0.9049
 9004SOL     OW38644   4.568   3.799  15.848  0.4676  0.3145 -0.6467
 9004SOL    HW138645   4.628   3.867  15.877  0.2683  0.7551 -1.2610
 9004SOL    HW238646   4.485   3.831  15.884 -0.7471 -4.5296  0.9289
 9005SOL     OW38647   2.465   1.704   9.344  0.1573 -0.4971  0.2425
 9005SOL    HW138648   2.501   1.700   9.255 -0.3602 -3.9424  0.1602
 9005SOL    HW238649   2.451   1.798   9.348  0.3827 -0.5150  1.3035
 9006SOL     OW38650   2.067   2.640   5.628 -0.2089  0.1781  0.4237
 9006SOL    HW138651   1.974   2.618   5.627 -0.1846  0.0201  1.4804
 9006SOL    HW238652   2.076   2.707   5.560  0.8402 -0.6759 -0.2730
 9007SOL     OW38653   1.511   4.486  10.105 -0.1069 -0.2497  0.4250
 9007SOL    HW138654   1.565   4.413  10.135 -1.8623 -1.6123  0.2803
 9007SOL    HW238655   1.445   4.487  10.174 -0.3381  2.6288  0.1757
 9008SOL     OW38656   0.328   2.514   4.234 -1.2273  0.2560  0.1920
 9008SOL    HW138657   0.385   2.556   4.170 -1.7632  0.0337 -0.4270
 9008SOL    HW238658   0.384   2.442   4.264 -0.5193  1.3888  1.5772
 9009SOL     OW38659   1.907   2.401  10.009  0.2182 -0.0908 -0.0747
 9009SOL    HW138660   1.908   2.310   9.977 -2.1355 -0.3540  0.6039
 9009SOL    HW238661   1.886   2.387  10.101 -0.9156 -0.0735 -0.3257
 9010SOL     OW38662   1.785   3.289   4.791 -0.2269 -0.3103  0.3221
 9010SOL    HW138663   1.777   3.232   4.868 -0.3841  0.6610  1.0312
 9010SOL    HW238664   1.835   3.229   4.736 -0.4348  0.5821 -0.8418
 9011SOL     OW38665   1.442   3.155   7.247  0.2325  0.4288  0.1517
 9011SOL    HW138666   1.491   3.164   7.166  1.1628 -0.5102  0.6120
 9011SOL    HW238667   1.454   3.067   7.282  0.3863  1.2578  2.1860
 9012SOL     OW38668   2.690   3.950  16.071 -0.1903 -0.8251  0.5578
 9012SOL    HW138669   2.675   4.044  16.057  2.1095 -0.7240 -1.3454
 9012SOL    HW238670   2.720   3.956  16.162 -1.3907 -2.0139  1.0247
 9013SOL     OW38671   3.808   4.168   5.122  0.6900  0.0459  0.5025
 9013SOL    HW138672   3.715   4.189   5.114  1.2630  2.4906  0.2844
 9013SOL    HW238673   3.843   4.247   5.162 -1.5457  0.8740  0.8159
 9014SOL     OW38674   0.140   3.594  17.295  0.1002 -0.3500  0.3621
 9014SOL    HW138675   0.069   3.604  17.232 -0.5364 -2.0869  0.7960
 9014SOL    HW238676   0.173   3.683  17.306  0.8690 -0.5189 -0.6119
 9015SOL     OW38677   3.832   2.423   7.067  0.2379 -0.0763 -0.2330
 9015SOL    HW138678   3.923   2.442   7.089 -0.1930  1.3970  0.3359
 9015SOL    HW238679   3.836   2.330   7.049  0.4874 -0.4391  1.7157
 9016SOL     OW38680   3.741   1.660   4.256 -0.2112 -0.2136  0.5554
 9016SOL    HW138681   3.702   1.678   4.341 -0.6918  0.4822  0.1828
 9016SOL    HW238682   3.801   1.734   4.257  0.3596 -0.6721  0.3448
 9017SOL     OW38683   0.606   2.928  15.259 -0.6672  0.4146 -0.6450
 9017SOL    HW138684   0.535   2.865  15.245  0.6200 -1.2146  0.0316
 9017SOL    HW238685   0.637   2.929  15.168 -0.0678  0.8988 -0.4360
 9018SOL     OW38686   0.369   2.587   8.090 -0.4008  0.3385 -0.4474
 9018SOL    HW138687   0.300   2.632   8.138 -0.4558 -0.9940  0.7081
 9018SOL    HW238688   0.325   2.564   8.008  0.8096  0.7733 -1.2235
 9019SOL     OW38689   0.069   1.797   2.533 -0.2225 -0.5148 -0.5373
 9019SOL    HW138690   0.026   1.749   2.603 -1.8051  0.1678 -1.0613
 9019SOL    HW238691   0.151   1.747   2.533 -1.1711 -2.0823  0.9165
 9020SOL     OW38692   3.424   2.105   1.505 -0.2516 -0.4816 -0.0103
 9020SOL    HW138693   3.338   2.148   1.511 -0.5122 -0.9086 -0.7303
 9020SOL    HW238694   3.396   2.033   1.448 -1.2030 -0.8450  0.9259
 9021SOL     OW38695   2.592   0.873   5.856  0.4255  0.0759 -0.2912
 9021SOL    HW138696   2.665   0.861   5.918 -0.7889 -2.0086  0.7502
 9021SOL    HW238697   2.599   0.797   5.798 -1.3428  0.6230 -1.2131
 9022SOL     OW38698   3.820   0.987   4.305  0.0904 -0.1846  0.0207
 9022SOL    HW138699   3.902   1.027   4.335  0.7536 -0.1916 -1.7899
 9022SOL    HW238700   3.839   0.900   4.342 -1.7596 -0.2506  0.8289
 9023SOL     OW38701   0.401   2.510   0.061  0.1618 -0.3291 -1.1283
 9023SOL    HW138702   0.482   2.475   0.025 -0.0213  0.2843 -2.1393
 9023SOL    HW238703   0.359   2.426   0.080  0.3992  0.2511  1.9770
 9024SOL     OW38704   2.715   0.933   7.138  0.0268  0.1177  0.1595
 9024SOL    HW138705   2.649   0.916   7.205  0.2062 -0.2656  0.2393
 9024SOL    HW238706   2.658   0.951   7.064 -0.5346 -1.9044  0.1103
 9025SOL     OW38707   0.787   0.134   5.545  0.6041  0.4971  0.1786
 9025SOL    HW138708   0.806   0.200   5.478  1.4325 -2.5029 -2.4880
 9025SOL    HW238709   0.869   0.134   5.595  0.3643  2.2178  0.5810
 9026SOL     OW38710   3.154   2.874   2.713  0.2810  0.6590  0.3215
 9026SOL    HW138711   3.106   2.955   2.726  1.6257  1.5279 -0.2207
 9026SOL    HW238712   3.151   2.841   2.803  0.4571  2.5587  1.0103
 9027SOL     OW38713   4.478   2.488   2.608 -0.0379  0.1205 -0.3481
 9027SOL    HW138714   4.540   2.559   2.623 -1.1817  0.2902  3.4254
 9027SOL    HW238715   4.447   2.477   2.698 -2.1217  0.4488 -1.0325
 9028SOL     OW38716   1.236   2.853   1.597  0.2215 -0.3683 -0.2733
 9028SOL    HW138717   1.181   2.839   1.675 -0.0074  0.2250 -0.3331
 9028SOL    HW238718   1.240   2.948   1.600 -1.1284 -0.2423 -2.1252
 9029SOL     OW38719   4.277   4.322   8.770  0.3676  0.5135 -0.3650
 9029SOL    HW138720   4.199   4.312   8.715 -0.7357 -0.4002  1.3809
 9029SOL    HW238721   4.248   4.268   8.844  2.0455 -0.9302 -0.7378
 9030SOL     OW38722   4.422   4.380   4.802  0.3094  0.1896  0.1062
 9030SOL    HW138723   4.402   4.350   4.713 -0.9477  1.8786 -0.1712
 9030SOL    HW238724   4.427   4.473   4.781 -1.5196 -0.3353 -2.6188
 9031SOL     OW38725   1.215   3.186   3.330  0.5765  0.1267 -0.3546
 9031SOL    HW138726   1.208   3.132   3.408  0.3579  0.9343  0.1816
 9031SOL    HW238727   1.258   3.123   3.272 -1.4399 -1.7803  0.2043
 9032SOL     OW38728   2.353   1.167  14.463 -0.2998 -0.1697 -0.2012
 9032SOL    HW138729   2.382   1.109  14.533  0.8962 -0.7645 -1.1929
 9032SOL    HW238730   2.264   1.191  14.491 -0.0684  1.0577 -0.5114
 9033SOL     OW38731   4.638   2.577   8.274 -0.4096 -0.2775  0.2820
 9033SOL    HW138732   4.633   2.482   8.280  2.4700 -0.3993  0.5380
 9033SOL    HW238733   4.716   2.589   8.327 -0.3260  1.6214 -0.2679
 9034SOL     OW38734   3.835   1.317   4.463 -0.2998  0.2329 -0.0687
 9034SOL    HW138735   3.773   1.265   4.412 -0.4377  1.1558 -0.8340
 9034SOL    HW238736   3.783   1.325   4.542 -0.5066  0.5060 -0.2347
 9035SOL     OW38737   3.488   2.196   2.749  0.3938 -0.0113 -0.0802
 9035SOL    HW138738   3.500   2.188   2.655 -2.7294 -0.0758 -0.4781
 9035SOL    HW238739   3.556   2.135   2.780  0.5107  0.5293  0.7188
 9036SOL     OW38740   3.616   2.181  14.302  0.3476 -0.1754 -0.0499
 9036SOL    HW138741   3.584   2.180  14.211 -1.8014 -0.8255  0.7218
 9036SOL    HW238742   3.709   2.167  14.286  0.3888 -0.7650  0.7295
 9037SOL     OW38743   3.609   4.447   9.941 -0.3637 -0.5884  0.1155
 9037SOL    HW138744   3.645   4.413   9.860 -2.5489 -0.3316 -0.9552
 9037SOL    HW238745   3.553   4.519   9.913 -2.5157 -2.2804  0.1548
 9038SOL     OW38746   0.529   1.643   7.057 -0.2286  0.6301  0.3683
 9038SOL    HW138747   0.467   1.640   6.984 -0.1205 -0.3653  0.3133
 9038SOL    HW238748   0.576   1.561   7.042 -0.4730  0.3193  1.3184
 9039SOL     OW38749   1.981   1.908   5.947  0.2019 -0.2917 -0.1907
 9039SOL    HW138750   1.976   1.906   5.851 -1.3110 -1.2332 -0.0875
 9039SOL    HW238751   1.946   1.994   5.971  0.7395 -0.0593 -0.2257
 9040SOL     OW38752   0.635   0.101  16.189 -0.3077 -0.5401 -0.3733
 9040SOL    HW138753   0.669   0.149  16.113  2.1249  0.4365  1.3396
 9040SOL    HW238754   0.711   0.105  16.247 -1.6331 -0.5253  1.3430
 9041SOL     OW38755   1.709   0.445  16.559 -0.4826 -0.1589  1.0013
 9041SOL    HW138756   1.758   0.520  16.525 -0.8747  0.6528  2.2312
 9041SOL    HW238757   1.771   0.375  16.538  0.5250 -0.3288  4.4944
 9042SOL     OW38758   4.628   0.877   6.881  0.2043 -0.1136  0.5356
 9042SOL    HW138759   4.644   0.843   6.969  0.9415 -1.1602  0.0021
 9042SOL    HW238760   4.692   0.837   6.821 -0.7358 -1.8568  0.6854
 9043SOL     OW38761   1.339   0.531  14.038  1.8563 -0.3462  0.3289
 9043SOL    HW138762   1.423   0.577  14.041  1.9239 -0.4274 -0.3672
 9043SOL    HW238763   1.327   0.498  14.127 -3.1871  0.2109 -0.1698
 9044SOL     OW38764   1.553   1.933   0.295 -0.2233  0.2901 -0.1797
 9044SOL    HW138765   1.524   1.940   0.204 -0.1431  1.1308 -0.1338
 9044SOL    HW238766   1.586   2.021   0.311  1.3979 -0.6272  1.5938
 9045SOL     OW38767   1.246   2.525   8.829  0.1356 -0.3997  0.7806
 9045SOL    HW138768   1.279   2.584   8.898 -0.6248 -0.2288  0.9992
 9045SOL    HW238769   1.261   2.437   8.864 -1.1085 -1.2213 -0.7919
 9046SOL     OW38770   1.536   3.090   6.151 -0.2374 -0.3844  0.3433
 9046SOL    HW138771   1.444   3.079   6.174 -0.9176  3.5816 -0.5269
 9046SOL    HW238772   1.560   3.162   6.210 -1.2743  0.3224 -0.1144
 9047SOL     OW38773   2.188   0.332   6.920  0.6757  0.3101 -0.0434
 9047SOL    HW138774   2.211   0.308   7.010  1.3356 -2.4684 -0.9531
 9047SOL    HW238775   2.175   0.247   6.879 -2.3090  0.8295 -0.1445
 9048SOL     OW38776   4.659   4.677   6.181  0.2903 -0.1505 -0.3744
 9048SOL    HW138777   4.567   4.700   6.171  0.9416  2.5155 -0.2439
 9048SOL    HW238778   4.679   4.619   6.107  0.6037  0.5080 -0.8049
 9049SOL     OW38779   3.575   0.665   5.143 -0.1978 -0.7511  0.2868
 9049SOL    HW138780   3.559   0.715   5.223 -2.1262 -0.3285 -0.3553
 9049SOL    HW238781   3.487   0.653   5.106 -0.1746 -0.3720  0.1184
 9050SOL     OW38782   0.181   3.393   0.588 -0.0444 -0.2447 -0.3211
 9050SOL    HW138783   0.231   3.398   0.669  2.5512 -2.0121 -1.7827
 9050SOL    HW238784   0.179   3.487   0.570 -2.5202 -0.3885 -0.6828
 9051SOL     OW38785   3.719   3.344  11.877 -0.4550  0.1598  0.3713
 9051SOL    HW138786   3.744   3.382  11.794  0.8552 -0.4555  0.4789
 9051SOL    HW238787   3.772   3.394  11.939 -0.5413 -0.1435  0.6983
 9052SOL     OW38788   2.359   1.066   8.750  0.4362  0.6416  0.2727
 9052SOL    HW138789   2.342   1.153   8.786 -2.6173  0.7696 -1.4843
 9052SOL    HW238790   2.440   1.089   8.705  1.6680 -2.1556  1.0460
 9053SOL     OW38791   2.054   3.017   8.889  0.1497  0.1718  0.4252
 9053SOL    HW138792   2.037   2.923   8.891  0.4029  0.1025 -0.6198
 9053SOL    HW238793   2.012   3.037   8.805 -1.8581 -2.1925  0.8796
 9054SOL     OW38794   1.350   2.977   0.811  0.5557  0.4506 -0.3083
 9054SOL    HW138795   1.324   2.914   0.879 -3.4744  1.3834 -0.9896
 9054SOL    HW238796   1.319   2.936   0.730 -1.8859 -0.1594  0.9292
 9055SOL     OW38797   1.837   3.756   5.257  0.2254  0.1989 -0.4031
 9055SOL    HW138798   1.910   3.818   5.262 -0.5813  1.2795 -1.9608
 9055SOL    HW238799   1.793   3.774   5.340  0.2760 -1.8572  0.0662
 9056SOL     OW38800   1.128   0.322   6.432 -0.2884 -0.5082  0.7426
 9056SOL    HW138801   1.116   0.265   6.356 -0.9185 -0.0097  0.4647
 9056SOL    HW238802   1.051   0.298   6.483 -0.9082 -1.9276 -0.8700
 9057SOL     OW38803   0.014   2.804   7.882 -0.0896  0.1071 -0.2140
 9057SOL    HW138804   4.732   2.804   7.975 -1.5228  0.8358 -0.5838
 9057SOL    HW238805   0.046   2.713   7.882 -0.2257  0.0636  1.4513
 9058SOL     OW38806   3.954   4.588  11.005  0.8865  0.1500 -0.3230
 9058SOL    HW138807   3.945   4.655  11.073  0.4969  0.2085 -0.4317
 9058SOL    HW238808   4.044   4.559  11.019  1.3242  1.8776  0.4309
 9059SOL     OW38809   0.395   2.195  15.076  0.1057 -0.4273 -0.0693
 9059SOL    HW138810   0.445   2.146  15.010  0.0881  0.7079 -0.9196
 9059SOL    HW238811   0.383   2.278  15.029  1.3967 -0.0720  0.2405
 9060SOL     OW38812   1.287   3.615   2.695  0.0051  0.1939 -0.1433
 9060SOL    HW138813   1.246   3.676   2.756  0.4889 -0.4271  0.8128
 9060SOL    HW238814   1.364   3.667   2.674 -0.0786  0.6827  0.7415
 9061SOL     OW38815   1.367   2.624  13.394 -0.2751 -0.2974  0.0962
 9061SOL    HW138816   1.355   2.622  13.489 -0.6953 -0.1706  0.0435
 9061SOL    HW238817   1.460   2.598  13.398 -0.2880 -0.2413  0.6706
 9062SOL     OW38818   4.372   4.151   4.415  0.1895  0.1058  0.4582
 9062SOL    HW138819   4.426   4.095   4.359 -0.5610 -0.9861  0.8297
 9062SOL    HW238820   4.285   4.112   4.413 -0.2411  1.1735 -1.4715
 9063SOL     OW38821   0.218   0.356  15.760  0.1988 -0.2556 -0.4905
 9063SOL    HW138822   0.143   0.414  15.746  0.9450  0.6021 -0.9685
 9063SOL    HW238823   0.171   0.279  15.729  1.8332 -0.3846 -2.6648
 9064SOL     OW38824   3.074   2.542  13.513  0.0985 -0.6294 -0.1811
 9064SOL    HW138825   3.011   2.513  13.447 -1.2386 -1.6974  1.5683
 9064SOL    HW238826   3.152   2.512  13.465  1.5798 -0.7398  2.3022
 9065SOL     OW38827   3.418   3.467  11.077  0.1142  0.3411  0.3508
 9065SOL    HW138828   3.455   3.379  11.082 -0.2588  0.2634  1.7316
 9065SOL    HW238829   3.498   3.518  11.070 -0.2851  1.0532  0.9420
 9066SOL     OW38830   4.152   3.657   9.393 -0.4196  0.0077 -0.0473
 9066SOL    HW138831   4.083   3.712   9.429 -1.2606 -0.1534 -1.4133
 9066SOL    HW238832   4.108   3.603   9.327  1.0405  1.3844 -2.1263
 9067SOL     OW38833   0.568   0.879   7.044  0.0490 -0.2527  0.0105
 9067SOL    HW138834   0.605   0.818   7.109 -1.7562 -1.0038  0.3362
 9067SOL    HW238835   0.585   0.961   7.090  0.3443  0.6067 -1.6232
 9068SOL     OW38836   0.001   2.469   9.456 -0.1490 -0.1378 -0.3274
 9068SOL    HW138837   0.081   2.441   9.412  0.1344  3.4557 -2.1104
 9068SOL    HW238838   4.723   2.388   9.503 -3.3054  0.2591 -0.9616
 9069SOL     OW38839   3.119   1.543   8.526  0.1800 -0.1084 -0.0354
 9069SOL    HW138840   3.199   1.555   8.475  0.5941  1.7617  1.0359
 9069SOL    HW238841   3.069   1.625   8.527  0.9067  0.3465 -1.1984
 9070SOL     OW38842   4.704   3.973   0.523  0.1871  0.2017 -0.2882
 9070SOL    HW138843   4.634   4.035   0.502 -0.5277  0.5696  3.1942
 9070SOL    HW238844   4.676   3.891   0.483  2.6704 -1.2649  0.9686
 9071SOL     OW38845   4.332   4.665  14.587 -0.0895  0.6696  0.1408
 9071SOL    HW138846   4.345   4.699  14.676  0.4046 -2.8735  1.4236
 9071SOL    HW238847   4.238   4.669  14.575 -0.0583 -0.7603 -0.6221
 9072SOL     OW38848   4.641   4.641  17.535 -0.4393 -0.2032 -0.2248
 9072SOL    HW138849   4.641   4.673  17.625 -0.1326  2.8385 -1.2926
 9072SOL    HW238850   4.571   4.575  17.536  0.5449 -1.2519 -1.0120
 9073SOL     OW38851   0.797   3.700   1.297 -0.0404  0.8607 -0.5824
 9073SOL    HW138852   0.701   3.694   1.293  0.1441 -2.3233 -0.3294
 9073SOL    HW238853   0.790   3.686   1.392 -0.2571  1.6911 -0.4761
 9074SOL     OW38854   0.566   1.227  11.880 -0.1863  0.3207 -0.5958
 9074SOL    HW138855   0.527   1.147  11.917  1.7410  0.8632  2.5403
 9074SOL    HW238856   0.656   1.198  11.867 -0.6256 -1.0860 -0.5882
 9075SOL     OW38857   4.459   0.146  11.580  0.0222  0.0763  0.0959
 9075SOL    HW138858   4.439   0.234  11.548  0.2465  0.3917  0.8339
 9075SOL    HW238859   4.401   0.092  11.526  0.6922  0.0828 -0.6449
 9076SOL     OW38860   2.492   4.313   6.134  0.2380  0.4805  0.2266
 9076SOL    HW138861   2.422   4.249   6.144  0.2772  0.7114  2.0243
 9076SOL    HW238862   2.500   4.330   6.228  2.1685 -0.5769  0.2623
 9077SOL     OW38863   3.245   3.425   3.307  0.6687  0.0271 -0.0305
 9077SOL    HW138864   3.288   3.402   3.389 -1.4494  1.0191  1.3521
 9077SOL    HW238865   3.274   3.342   3.269 -1.2113 -0.8743  0.4780
 9078SOL     OW38866   1.490   1.640   6.655 -0.1528  0.2141  0.1487
 9078SOL    HW138867   1.498   1.545   6.659 -0.2742  0.2011  0.0807
 9078SOL    HW238868   1.568   1.664   6.705 -1.4946  2.2537  1.2799
 9079SOL     OW38869   1.793   1.567   4.683 -0.0888 -0.3427 -0.2920
 9079SOL    HW138870   1.796   1.475   4.657  1.5485  0.2146 -2.1279
 9079SOL    HW238871   1.742   1.557   4.763  0.0678 -2.4954 -0.4767
 9080SOL     OW38872   3.197   1.262  17.560 -0.1169  0.0229  0.0706
 9080SOL    HW138873   3.213   1.307  17.477  1.4729 -0.5718  0.0593
 9080SOL    HW238874   3.279   1.214  17.568 -1.0372 -1.3324  1.3017
 9081SOL     OW38875   1.641   1.866  11.175  0.4953 -0.1110  0.3818
 9081SOL    HW138876   1.677   1.935  11.119  1.6868 -2.4376 -1.6905
 9081SOL    HW238877   1.669   1.788  11.128 -2.5082  0.0409 -1.6431
 9082SOL     OW38878   3.594   4.609  16.523  0.1177  0.3371  0.1525
 9082SOL    HW138879   3.649   4.553  16.468  0.7573  0.4220  0.7103
 9082SOL    HW238880   3.539   4.652  16.457  1.0815 -0.6785 -1.3124
 9083SOL     OW38881   3.345   2.657  10.479  0.0913  0.3056 -0.0437
 9083SOL    HW138882   3.390   2.647  10.395 -1.6613 -2.8974 -0.6289
 9083SOL    HW238883   3.422   2.659  10.535  0.0359 -2.6221  0.1528
 9084SOL     OW38884   2.725   2.147   4.244 -0.1503 -0.1733  0.3022
 9084SOL    HW138885   2.705   2.063   4.285 -1.6079 -0.6195 -1.3306
 9084SOL    HW238886   2.762   2.116   4.161 -0.0695 -2.2933  1.1294
 9085SOL     OW38887   0.165   2.788   5.702 -0.0587  0.3531 -0.0209
 9085SOL    HW138888   0.144   2.716   5.761 -1.3123  0.0827 -0.8038
 9085SOL    HW238889   0.126   2.757   5.620  0.2387 -1.6771  0.6186
 9086SOL     OW38890   2.281   2.451   1.354  0.7258 -0.1138  0.4577
 9086SOL    HW138891   2.350   2.397   1.393  0.8871  1.0821  1.8639
 9086SOL    HW238892   2.241   2.396   1.287  0.3177 -1.7049  2.0137
 9087SOL     OW38893   4.710   1.169   3.754  0.2164  0.3160 -0.3699
 9087SOL    HW138894   4.650   1.127   3.815 -0.3551  0.5421 -0.7755
 9087SOL    HW238895   4.671   1.146   3.669  0.4511  1.3333 -0.7588
 9088SOL     OW38896   4.101   0.526   6.509  0.1812 -0.2263  0.2936
 9088SOL    HW138897   4.020   0.475   6.505 -0.9347  1.6313 -0.9447
 9088SOL    HW238898   4.104   0.543   6.603 -0.9911  0.4041  0.2270
 9089SOL     OW38899   2.213   3.648   1.877 -0.6520 -0.1837 -0.2510
 9089SOL    HW138900   2.132   3.694   1.856 -0.6365  1.1503  2.6366
 9089SOL    HW238901   2.233   3.630   1.785 -1.1686  2.8753 -0.9463
 9090SOL     OW38902   2.689   2.830   4.054 -0.6814  0.0236 -0.2118
 9090SOL    HW138903   2.663   2.785   4.134  0.1856  0.0725  0.0955
 9090SOL    HW238904   2.609   2.818   4.002  0.5082  1.8098 -2.4670
 9091SOL     OW38905   3.266   1.002   8.205 -0.4200  0.0285 -0.0224
 9091SOL    HW138906   3.322   0.953   8.144 -1.4969 -2.5176  1.0110
 9091SOL    HW238907   3.325   1.007   8.280 -0.2755 -1.3650 -0.0339
 9092SOL     OW38908   4.213   1.630   7.744  0.0436 -0.0040 -0.0881
 9092SOL    HW138909   4.255   1.707   7.706  2.2929  0.3571  3.1655
 9092SOL    HW238910   4.278   1.615   7.812 -0.3326 -0.9019  0.0771
 9093SOL     OW38911   0.205   3.581  15.157 -0.7988 -0.6174  0.5783
 9093SOL    HW138912   0.240   3.557  15.071 -0.1747  1.2406  0.3039
 9093SOL    HW238913   0.275   3.552  15.216  1.7853  1.5724 -1.4050
 9094SOL     OW38914   3.865   1.126   4.962  0.2891 -0.8050  0.3852
 9094SOL    HW138915   3.786   1.098   5.007  0.3424 -0.1047  0.9034
 9094SOL    HW238916   3.916   1.166   5.033  1.0682  0.2703 -0.7795
 9095SOL     OW38917   0.354   1.834   7.159 -0.3549  0.1062  0.4720
 9095SOL    HW138918   0.331   1.775   7.231  2.1429  0.3393  1.4774
 9095SOL    HW238919   0.413   1.773   7.113 -0.7664 -2.2531  3.1255
 9096SOL     OW38920   0.542   2.027   4.290  0.1148  0.5840  0.0713
 9096SOL    HW138921   0.530   2.014   4.196 -0.4564 -0.6839  0.3137
 9096SOL    HW238922   0.525   1.941   4.329  2.3986  1.1137  2.2681
 9097SOL     OW38923   3.805   2.305   5.718 -0.3321  0.4858  0.1894
 9097SOL    HW138924   3.874   2.312   5.652 -0.2019  1.7286  0.4605
 9097SOL    HW238925   3.732   2.360   5.687 -1.4389 -0.2152  1.5477
 9098SOL     OW38926   3.094   3.856  13.207  0.7226  0.5706  0.0624
 9098SOL    HW138927   3.045   3.880  13.286 -0.4588  1.5373 -0.9748
 9098SOL    HW238928   3.020   3.838  13.149 -0.2423 -1.3708  1.8590
 9099SOL     OW38929   0.994   0.290   3.096 -0.0119 -0.0530  0.3336
 9099SOL    HW138930   0.980   0.369   3.045  1.7951 -0.4567 -0.7584
 9099SOL    HW238931   1.063   0.304   3.161  0.8597  0.2403 -0.6693
 9100SOL     OW38932   1.783   2.934   6.089  0.0573  0.0854 -0.0898
 9100SOL    HW138933   1.797   2.943   6.183 -0.8725 -0.6199  0.1170
 9100SOL    HW238934   1.715   2.997   6.066  1.0707  0.8822 -0.8768
 9101SOL     OW38935   2.697   3.202  13.056  0.4115  0.4151 -0.4905
 9101SOL    HW138936   2.634   3.140  13.093  0.6426 -0.4717 -1.5749
 9101SOL    HW238937   2.761   3.141  13.018 -1.6746 -1.4133 -1.0214
 9102SOL     OW38938   0.954   3.451   7.974  0.5641  0.2681 -0.1459
 9102SOL    HW138939   0.930   3.541   7.995 -0.5770 -0.3724  1.3006
 9102SOL    HW238940   0.987   3.418   8.057  1.1681  0.3444 -0.3588
 9103SOL     OW38941   0.072   4.402   8.795  0.3115 -0.6192  0.5415
 9103SOL    HW138942   0.040   4.482   8.754  0.7271 -1.3416 -1.1913
 9103SOL    HW238943   0.010   4.384   8.866 -1.9931  0.3988 -1.1866
 9104SOL     OW38944   4.695   4.538  10.474 -0.6927  0.0533  0.3281
 9104SOL    HW138945   4.654   4.484  10.541  1.5693  0.1424  1.7682
 9104SOL    HW238946   4.737   4.606  10.526 -0.6378  2.2997 -2.6129
 9105SOL     OW38947   2.049   4.273  16.620  0.0685 -0.0695  0.0472
 9105SOL    HW138948   2.035   4.323  16.540 -0.8995  0.0189  0.2762
 9105SOL    HW238949   2.035   4.187  16.580 -0.0431 -0.7148  1.4633
 9106SOL     OW38950   4.648   1.305   2.520 -0.5575 -0.7041  0.1041
 9106SOL    HW138951   4.687   1.348   2.597 -0.8490 -0.1058 -0.0788
 9106SOL    HW238952   4.679   1.215   2.532 -2.1389 -1.2163  0.3331
 9107SOL     OW38953   1.727   0.258   2.733  0.1907 -0.1542  0.2302
 9107SOL    HW138954   1.662   0.211   2.786 -1.7786 -0.3214 -2.3677
 9107SOL    HW238955   1.765   0.320   2.795 -0.3711 -1.6276  2.0714
 9108SOL     OW38956   4.550   4.649  14.408  0.0322 -0.3285 -0.5230
 9108SOL    HW138957   4.499   4.649  14.489  0.8936 -2.0129  0.0160
 9108SOL    HW238958   4.575   4.557  14.409 -0.1166 -0.3632  0.0526
 9109SOL     OW38959   4.335   1.476  13.629 -0.1312 -0.6362  0.3844
 9109SOL    HW138960   4.254   1.521  13.653 -0.3374 -0.8364  0.0627
 9109SOL    HW238961   4.341   1.494  13.535 -0.6863  0.5348  0.5687
 9110SOL     OW38962   1.462   2.205   8.070 -0.7860 -0.7955 -0.1693
 9110SOL    HW138963   1.549   2.176   8.041  0.7258  1.6343  2.0003
 9110SOL    HW238964   1.435   2.132   8.126 -1.3777 -1.1676 -0.9332
 9111SOL     OW38965   1.997   2.034   8.265  0.2896  0.1799 -0.0583
 9111SOL    HW138966   2.022   2.126   8.259 -2.9392  0.9683 -1.0683
 9111SOL    HW238967   2.085   1.997   8.263  1.7267  3.8564 -3.7416
 9112SOL     OW38968   0.357   2.267   3.199  0.0590  0.0599  0.5880
 9112SOL    HW138969   0.392   2.199   3.142 -2.7917  0.0995 -1.2224
 9112SOL    HW238970   0.262   2.257   3.187  0.1325 -1.5906  1.3984
 9113SOL     OW38971   3.957   2.313   5.203  0.1895 -0.1072 -0.3605
 9113SOL    HW138972   4.042   2.335   5.166  0.8702 -1.9142  0.1285
 9113SOL    HW238973   3.964   2.218   5.200 -0.2724 -0.2203  1.9984
 9114SOL     OW38974   2.766   4.202   6.276 -0.3241 -0.3722  0.1051
 9114SOL    HW138975   2.733   4.126   6.228  3.0486 -1.2575 -0.7865
 9114SOL    HW238976   2.746   4.160   6.360 -0.6370 -1.0343 -0.2926
 9115SOL     OW38977   0.499   3.567   9.591 -0.2968  0.9127  0.3580
 9115SOL    HW138978   0.478   3.616   9.511 -3.3485 -0.5866  0.2295
 9115SOL    HW238979   0.407   3.555   9.618  0.1551  2.4078  2.5514
 9116SOL     OW38980   0.576   3.334   6.791 -0.0929  0.2398  0.5148
 9116SOL    HW138981   0.606   3.423   6.772 -1.3000  0.6774  0.6359
 9116SOL    HW238982   0.644   3.278   6.753  0.2043  2.2311 -1.8930
 9117SOL     OW38983   2.662   0.285   0.296  0.1508  0.3671 -0.3727
 9117SOL    HW138984   2.649   0.193   0.276  0.2677  0.2247  0.2087
 9117SOL    HW238985   2.659   0.327   0.210  3.3031 -0.8209 -1.0731
 9118SOL     OW38986   1.091   0.427   9.241 -0.1373 -0.0137  0.0027
 9118SOL    HW138987   1.047   0.417   9.157 -1.7665  1.5861  0.6706
 9118SOL    HW238988   1.150   0.501   9.227 -0.2244  0.0534 -0.0044
 9119SOL     OW38989   0.272   2.741  15.478  0.6457 -0.2871 -0.2468
 9119SOL    HW138990   0.201   2.680  15.457 -0.0512  1.2910 -2.3840
 9119SOL    HW238991   0.255   2.745  15.572 -0.2538 -0.2028 -0.4155
 9120SOL     OW38992   1.795   1.572  14.892 -0.2878 -0.5440  0.4896
 9120SOL    HW138993   1.849   1.503  14.929 -2.2452 -1.7633  1.0818
 9120SOL    HW238994   1.732   1.532  14.833  2.8216 -2.1429 -1.7071
 9121SOL     OW38995   1.879   3.149  12.389  0.4110  0.2906  0.4392
 9121SOL    HW138996   1.818   3.171  12.459  0.4400  2.0412 -0.1027
 9121SOL    HW238997   1.931   3.080  12.432 -2.1708 -2.1511 -0.3165
 9122SOL     OW38998   1.065   4.198   6.166 -0.5727 -0.1657 -0.4055
 9122SOL    HW138999   1.094   4.255   6.237 -1.2491  2.1688 -2.0033
 9122SOL    HW239000   1.065   4.112   6.209  0.2620 -1.3078 -2.6965
 9123SOL     OW39001   1.965   4.124  16.852 -0.4296 -0.6634 -0.0853
 9123SOL    HW139002   1.939   4.180  16.780 -0.0578  1.0310  1.0878
 9123SOL    HW239003   2.051   4.088  16.829  0.3583  0.8205  0.5612
 9124SOL     OW39004   1.187   2.056   3.695  0.5388 -0.2348 -0.8244
 9124SOL    HW139005   1.216   1.996   3.626 -1.2811  0.5457 -2.3005
 9124SOL    HW239006   1.095   2.038   3.674  0.7068 -1.3370 -0.5938
 9125SOL     OW39007   0.645   4.005   1.227 -0.9512  0.3194  0.0957
 9125SOL    HW139008   0.725   4.042   1.189 -0.3642 -0.2929  0.7273
 9125SOL    HW239009   0.651   4.048   1.312 -1.3844 -3.4639  2.0236
 9126SOL     OW39010   4.741   4.294  14.431 -0.6671 -0.1033  0.2656
 9126SOL    HW139011   0.033   4.215  14.473 -1.4313 -0.1941  0.6985
 9126SOL    HW239012   0.023   4.363  14.492  1.2174  1.7528 -2.5299
 9127SOL     OW39013   3.740   0.030   4.329 -0.9629  0.6611  0.2689
 9127SOL    HW139014   3.821   4.739   4.288 -0.1439  1.8959  0.8827
 9127SOL    HW239015   3.775   0.116   4.353 -0.2901  0.5834 -0.4179
 9128SOL     OW39016   3.891   1.578   7.234  0.3520  0.3555 -0.2225
 9128SOL    HW139017   3.804   1.549   7.207  1.2446 -1.5616 -0.9997
 9128SOL    HW239018   3.928   1.500   7.274 -0.8384  0.2405  0.6739
 9129SOL     OW39019   2.160   3.344   5.743 -0.2380  0.2444 -0.5243
 9129SOL    HW139020   2.250   3.314   5.735 -0.9915 -1.4025 -2.5801
 9129SOL    HW239021   2.170   3.436   5.719  1.3466 -0.2789 -1.8750
 9130SOL     OW39022   2.182   0.026   6.131 -0.2785 -0.3928  0.2567
 9130SOL    HW139023   2.236   0.017   6.052 -1.5613 -2.6492 -0.3370
 9130SOL    HW239024   2.125   4.693   6.113 -1.5888  0.5317  0.5629
 9131SOL     OW39025   0.430   3.777   3.992 -0.6824 -0.0820  0.8970
 9131SOL    HW139026   0.501   3.831   4.026  0.4751  0.1446 -1.8815
 9131SOL    HW239027   0.351   3.819   4.025 -1.8832 -1.2960 -0.4210
 9132SOL     OW39028   0.034   3.325   7.502  0.5789 -1.1372 -0.1498
 9132SOL    HW139029   0.002   3.252   7.450 -0.7385 -0.8465  0.2615
 9132SOL    HW239030   0.124   3.332   7.469  0.4303  1.3268 -0.0090
 9133SOL     OW39031   0.568   3.583  12.973  0.5275 -0.1982 -0.1709
 9133SOL    HW139032   0.557   3.525  12.898  0.2578  0.9714 -1.0393
 9133SOL    HW239033   0.484   3.570  13.018  0.2134  0.4387 -0.5649
 9134SOL     OW39034   4.418   1.493   8.380 -0.9777  0.1032 -0.1318
 9134SOL    HW139035   4.484   1.462   8.441 -0.6433  3.1605  1.0792
 9134SOL    HW239036   4.341   1.475   8.435 -1.7689  2.1024 -0.5781
 9135SOL     OW39037   3.090   1.770  11.482  0.0400 -0.4364  0.3650
 9135SOL    HW139038   3.148   1.822  11.537 -0.3462  2.1082 -1.6072
 9135SOL    HW239039   3.014   1.823  11.457  0.2540 -0.2870  0.0211
 9136SOL     OW39040   3.321   3.721   8.836 -0.0303  0.1782  0.3340
 9136SOL    HW139041   3.396   3.727   8.895 -1.3416  0.6743  1.9446
 9136SOL    HW239042   3.293   3.630   8.846 -0.6174  0.4054  0.7659
 9137SOL     OW39043   3.163   1.832   7.012  0.0131 -0.7089  0.3057
 9137SOL    HW139044   3.104   1.761   6.988 -0.1132 -0.2459 -0.7819
 9137SOL    HW239045   3.242   1.787   6.982  0.4982  0.1070  0.3408
 9138SOL     OW39046   0.286   4.022   5.316  0.2850  0.1824 -0.3284
 9138SOL    HW139047   0.257   4.112   5.306 -0.1890  0.0532 -0.1299
 9138SOL    HW239048   0.312   4.007   5.225 -0.9305 -0.7691 -0.5196
 9139SOL     OW39049   3.735   0.792  13.035 -0.1314  0.6122  0.0855
 9139SOL    HW139050   3.804   0.809  13.099  2.5643  0.2546 -2.7271
 9139SOL    HW239051   3.787   0.769  12.958  0.1492 -0.3315  0.5494
 9140SOL     OW39052   1.611   0.916  16.928 -0.5628 -0.7092  0.1895
 9140SOL    HW139053   1.555   0.840  16.939  1.3075 -2.2240 -0.8472
 9140SOL    HW239054   1.620   0.948  17.018  2.4628  0.6541 -0.5651
 9141SOL     OW39055   2.758   1.458   2.838  0.4866  0.1377  0.8691
 9141SOL    HW139056   2.828   1.460   2.904  0.1703  4.3053  1.0616
 9141SOL    HW239057   2.683   1.416   2.879 -0.9020  2.3283  0.5735
 9142SOL     OW39058   1.369   3.855   3.111  0.1437  0.4573 -0.5386
 9142SOL    HW139059   1.303   3.808   3.060 -0.7099 -0.7682  1.6854
 9142SOL    HW239060   1.399   3.918   3.045 -2.3270  0.6143 -1.5078
 9143SOL     OW39061   0.808   2.619  12.454 -0.0617 -0.7898  0.1554
 9143SOL    HW139062   0.849   2.684  12.511 -1.0078 -0.3260  0.3166
 9143SOL    HW239063   0.804   2.672  12.374  1.8487 -0.4919  0.2575
 9144SOL     OW39064   2.955   3.132   3.741  0.1811  0.1067 -0.0365
 9144SOL    HW139065   2.927   3.044   3.718  0.3481 -0.8321  3.3347
 9144SOL    HW239066   2.906   3.139   3.822 -0.2714  1.1369 -0.3931
 9145SOL     OW39067   2.260   3.155   1.405 -0.4636  0.0467 -0.2184
 9145SOL    HW139068   2.297   3.227   1.456 -2.6321  1.0001 -0.0209
 9145SOL    HW239069   2.319   3.082   1.423 -1.2054 -0.2101  1.2070
 9146SOL     OW39070   0.346   1.716   8.568 -0.1326 -0.1064  0.2179
 9146SOL    HW139071   0.256   1.687   8.556 -0.5683  1.2577  0.1416
 9146SOL    HW239072   0.388   1.632   8.548  0.0211  0.3172 -1.2523
 9147SOL     OW39073   1.640   0.637   6.106  0.2253 -0.3541 -0.1299
 9147SOL    HW139074   1.651   0.724   6.066  0.1217 -0.2502  0.0692
 9147SOL    HW239075   1.545   0.629   6.115  0.3655  0.1873  1.7985
 9148SOL     OW39076   2.792   2.269  12.149  0.1789  0.2406  0.3805
 9148SOL    HW139077   2.841   2.192  12.179  1.1399  0.5290 -0.4405
 9148SOL    HW239078   2.841   2.284  12.068  0.3245  2.3502  0.8703
 9149SOL     OW39079   4.259   1.687   5.664  0.0613  0.0576  0.5098
 9149SOL    HW139080   4.245   1.741   5.587 -0.5980 -1.9209 -0.7658
 9149SOL    HW239081   4.347   1.720   5.685  0.2180 -0.1230  0.1335
 9150SOL     OW39082   3.467   1.862  17.316 -0.0114 -0.0049  0.4904
 9150SOL    HW139083   3.468   1.776  17.358  0.3623  1.4790  3.5042
 9150SOL    HW239084   3.507   1.907  17.391 -4.1081  2.8545  0.9609
 9151SOL     OW39085   0.856   3.254   9.569  0.0149 -0.2691 -0.2189
 9151SOL    HW139086   0.824   3.236   9.481 -1.0942  0.7159 -0.0292
 9151SOL    HW239087   0.792   3.314   9.608 -1.4278 -1.4152 -0.8432
 9152SOL     OW39088   1.674   4.442   8.841  0.3380  0.0570 -0.6765
 9152SOL    HW139089   1.632   4.417   8.923 -2.2343  3.3353 -1.0007
 9152SOL    HW239090   1.764   4.462   8.868 -0.7369  1.5237  1.8431
 9153SOL     OW39091   4.386   0.306   6.638 -0.3036  0.2285 -0.5226
 9153SOL    HW139092   4.383   0.344   6.550  1.5877  0.8088 -0.3184
 9153SOL    HW239093   4.475   0.321   6.668 -0.5593  2.9866 -1.1589
 9154SOL     OW39094   0.417   0.193  16.877 -0.0313  0.2620  1.0286
 9154SOL    HW139095   0.459   0.274  16.850 -1.3810  0.1791 -1.3165
 9154SOL    HW239096   0.421   0.195  16.973  1.1130 -1.1902  1.0071
 9155SOL     OW39097   2.608   0.997   4.771 -0.4221 -0.9041 -0.4955
 9155SOL    HW139098   2.629   0.904   4.773 -0.6692 -0.9470  0.1911
 9155SOL    HW239099   2.650   1.030   4.851 -1.0088 -1.1048 -0.1074
 9156SOL     OW39100   3.054   2.934   8.371 -0.1030  0.1718  0.2132
 9156SOL    HW139101   3.032   2.886   8.291 -1.3696  0.8248  0.1643
 9156SOL    HW239102   3.112   3.004   8.342 -0.3735  0.7144  0.9609
 9157SOL     OW39103   3.245   3.418  16.439  0.1240  0.0153 -0.2375
 9157SOL    HW139104   3.286   3.369  16.510  0.3145  0.5851  0.0375
 9157SOL    HW239105   3.167   3.455  16.480 -1.5707 -2.1483 -1.4890
 9158SOL     OW39106   1.117   0.303   8.561 -0.4662 -0.5558 -0.2848
 9158SOL    HW139107   1.127   0.222   8.512 -1.5255  0.2741 -1.8945
 9158SOL    HW239108   1.189   0.352   8.520  0.8448 -1.8054  0.5378
 9159SOL     OW39109   2.312   4.079   9.595 -0.4883  0.0276 -0.4515
 9159SOL    HW139110   2.274   4.098   9.681  0.5015  0.7380 -0.1760
 9159SOL    HW239111   2.303   4.161   9.547  1.6557  1.0122  0.8537
 9160SOL     OW39112   3.615   0.593   7.376 -0.2100 -0.2077  0.4743
 9160SOL    HW139113   3.701   0.551   7.375  0.3134  0.8586  0.7720
 9160SOL    HW239114   3.587   0.577   7.466  1.5847  0.4578  1.1481
 9161SOL     OW39115   3.865   1.216   2.702  0.0076 -0.1791 -0.6678
 9161SOL    HW139116   3.859   1.250   2.613  0.6732  0.8046 -0.3352
 9161SOL    HW239117   3.960   1.204   2.714 -0.0221  1.4578  1.1818
 9162SOL     OW39118   1.734   1.300  10.940  0.0222  0.3734 -0.0824
 9162SOL    HW139119   1.800   1.369  10.929  0.9962 -0.8028 -1.5508
 9162SOL    HW239120   1.700   1.322  11.027  0.6666  1.0602  0.0002
 9163SOL     OW39121   3.830   2.477   2.806 -0.0023 -0.0841 -0.3424
 9163SOL    HW139122   3.795   2.453   2.721  0.9799 -2.4032 -0.1022
 9163SOL    HW239123   3.818   2.572   2.810 -2.9547 -0.4708 -0.5618
 9164SOL     OW39124   4.162   4.607  11.278 -0.1461 -0.9320 -0.4204
 9164SOL    HW139125   4.181   4.514  11.296  1.3232 -0.5010  0.2636
 9164SOL    HW239126   4.173   4.643  11.366  0.8439 -0.3913 -0.7652
 9165SOL     OW39127   4.106   0.097  11.737  0.2865 -0.3584 -0.0170
 9165SOL    HW139128   4.069   0.114  11.824 -0.4465 -0.7922 -0.2424
 9165SOL    HW239129   4.052   0.156  11.684  0.2936 -0.7049 -0.4072
 9166SOL     OW39130   3.726   1.811   0.829 -0.9715 -0.6519 -0.6618
 9166SOL    HW139131   3.717   1.805   0.734  0.0106 -1.4475 -0.6985
 9166SOL    HW239132   3.815   1.845   0.839 -0.1109 -3.3042  0.4772
 9167SOL     OW39133   3.482   3.553   2.894 -0.1978 -0.3244 -0.0376
 9167SOL    HW139134   3.425   3.580   2.966 -1.2942  0.2991 -1.1462
 9167SOL    HW239135   3.554   3.514   2.944  0.6820 -1.6769 -2.3685
 9168SOL     OW39136   4.344   3.758   3.841 -0.1882  0.0052 -0.0970
 9168SOL    HW139137   4.396   3.679   3.827 -1.6208 -0.8895 -0.3505
 9168SOL    HW239138   4.417   3.815   3.865 -1.8998  1.7930  0.8553
 9169SOL     OW39139   2.070   3.232   4.921  0.2505  0.0478  0.4478
 9169SOL    HW139140   2.029   3.179   4.852  0.7246  0.9999 -0.5498
 9169SOL    HW239141   2.046   3.184   5.000  1.1648 -1.6104 -0.2785
 9170SOL     OW39142   3.579   3.899  17.285 -0.2017 -0.7750  0.0804
 9170SOL    HW139143   3.662   3.868  17.248 -0.8068 -0.0362 -1.8798
 9170SOL    HW239144   3.536   3.931  17.206 -0.5127  0.3276  0.7010
 9171SOL     OW39145   2.461   0.634   9.224 -0.3132  0.2868  0.3738
 9171SOL    HW139146   2.426   0.723   9.219  0.8349  0.7274  0.1339
 9171SOL    HW239147   2.470   0.616   9.317 -0.9346 -0.3964  0.3007
 9172SOL     OW39148   0.746   3.587  16.176 -0.0703  0.0526  0.4965
 9172SOL    HW139149   0.726   3.655  16.111  0.0270  0.6746  1.1160
 9172SOL    HW239150   0.710   3.508  16.137 -2.1989  2.0800 -1.6912
 9173SOL     OW39151   4.638   2.149   5.377  0.2098 -0.3186 -0.1600
 9173SOL    HW139152   4.700   2.214   5.342 -1.8418  1.2715 -0.8609
 9173SOL    HW239153   4.655   2.070   5.327  1.6974 -0.4528  0.5586
 9174SOL     OW39154   2.144   0.623   4.007 -0.0631  0.7601 -0.2876
 9174SOL    HW139155   2.135   0.634   3.912  1.5747 -0.8290 -0.6241
 9174SOL    HW239156   2.104   0.703   4.041 -1.4706 -0.2471  0.4162
 9175SOL     OW39157   0.304   0.812   3.955  0.2578 -0.0943  0.0223
 9175SOL    HW139158   0.265   0.897   3.936 -1.7444 -0.8033  0.9563
 9175SOL    HW239159   0.233   0.748   3.948  1.3761 -1.0024 -2.8754
 9176SOL     OW39160   1.261   4.192   2.973 -0.1216  0.0983 -0.0072
 9176SOL    HW139161   1.187   4.140   2.941 -1.2233  1.0798  0.9271
 9176SOL    HW239162   1.242   4.216   3.063  0.3022  1.6853 -0.3377
 9177SOL     OW39163   2.875   1.957   8.049  0.3974  0.6255 -0.5561
 9177SOL    HW139164   2.907   1.913   7.970  1.0012  1.5155 -0.8102
 9177SOL    HW239165   2.792   2.000   8.032  1.1764  1.8093 -1.3637
 9178SOL     OW39166   3.689   2.834  11.005  0.1672  0.5293  0.2651
 9178SOL    HW139167   3.624   2.794  11.062  1.8722  0.7032  2.3080
 9178SOL    HW239168   3.766   2.829  11.061  1.6790  1.9357 -1.6892
 9179SOL     OW39169   4.673   2.380  13.098 -0.0568 -0.1281  0.2498
 9179SOL    HW139170   4.700   2.404  13.186  1.0886  2.1958 -0.7214
 9179SOL    HW239171   4.600   2.320  13.111  0.5854 -0.8994  0.2484
 9180SOL     OW39172   1.998   3.787  17.195  0.4835  0.0419  0.1055
 9180SOL    HW139173   2.005   3.874  17.156 -0.4937 -0.1764 -0.5697
 9180SOL    HW239174   2.092   3.771  17.182  0.4087  0.0186 -0.4321
 9181SOL     OW39175   2.719   1.591   7.535 -0.2896  0.6987 -0.4972
 9181SOL    HW139176   2.724   1.499   7.509 -0.7507  0.5126  0.0601
 9181SOL    HW239177   2.734   1.642   7.456  0.3044 -1.1978 -1.5995
 9182SOL     OW39178   3.559   1.801   2.701  0.5150 -0.5634  0.4193
 9182SOL    HW139179   3.630   1.771   2.645 -0.8476 -0.3411 -1.4346
 9182SOL    HW239180   3.484   1.742   2.686 -1.1934  1.2812  1.7924
 9183SOL     OW39181   3.379   2.734   4.595  0.0877 -0.1353  0.2268
 9183SOL    HW139182   3.346   2.779   4.517 -0.7834  1.5990  1.6005
 9183SOL    HW239183   3.297   2.688   4.617  1.4271 -0.7264  4.0088
 9184SOL     OW39184   0.761   3.353   4.141  0.0746  0.3565 -0.1619
 9184SOL    HW139185   0.719   3.439   4.137 -2.9422 -1.1612 -1.5915
 9184SOL    HW239186   0.850   3.378   4.166 -1.3973  0.6390  4.8501
 9185SOL     OW39187   0.613   3.727   7.343  0.3555 -0.0387 -0.0998
 9185SOL    HW139188   0.594   3.703   7.433 -1.1389  2.0591  0.1600
 9185SOL    HW239189   0.708   3.717   7.345  0.4328  0.9126  0.9415
 9186SOL     OW39190   2.512   4.335   6.410  0.0724 -0.2440 -0.3602
 9186SOL    HW139191   2.546   4.351   6.498  0.2288  1.9330 -0.8342
 9186SOL    HW239192   2.508   4.239   6.407  1.4129 -0.3536  1.2895
 9187SOL     OW39193   1.919   0.144  15.595  0.0393  0.8862 -0.6542
 9187SOL    HW139194   1.888   0.069  15.645  2.6315  0.8945  0.9593
 9187SOL    HW239195   1.900   0.105  15.509 -0.6358  1.6494 -0.8561
 9188SOL     OW39196   3.595   2.845   7.708 -0.1885  0.0849 -0.0770
 9188SOL    HW139197   3.544   2.765   7.721 -0.2649  0.5028  2.1975
 9188SOL    HW239198   3.588   2.866   7.615 -1.3686 -0.8633 -0.1954
 9189SOL     OW39199   3.798   4.731   2.942  0.4185 -0.1322 -0.0147
 9189SOL    HW139200   3.726   4.668   2.937  0.2421  0.1335 -0.8014
 9189SOL    HW239201   3.813   4.708   3.034 -1.6930  1.6300  0.7625
 9190SOL     OW39202   3.735   3.547   8.183 -0.5922 -0.1263  0.9820
 9190SOL    HW139203   3.741   3.528   8.277 -0.7528 -2.3741  0.5282
 9190SOL    HW239204   3.781   3.631   8.177 -0.6301 -0.1664  0.1404
 9191SOL     OW39205   0.731   2.536   3.528  0.2322  0.3444 -0.4469
 9191SOL    HW139206   0.768   2.601   3.588  1.2429 -0.9842  0.3505
 9191SOL    HW239207   0.658   2.578   3.482  0.1988 -0.4114 -1.0768
 9192SOL     OW39208   0.380   1.799   4.251  0.2047 -0.4994  0.4401
 9192SOL    HW139209   0.345   1.851   4.179  1.0108 -0.8395 -0.1874
 9192SOL    HW239210   0.408   1.715   4.215  0.8117  1.0488 -2.7327
 9193SOL     OW39211   4.531   0.143   4.246 -0.2914  0.5480 -0.8518
 9193SOL    HW139212   4.561   0.150   4.155 -0.1330  0.7861 -0.7793
 9193SOL    HW239213   4.531   0.236   4.268 -0.6157  1.4773 -4.6931
 9194SOL     OW39214   3.560   4.348  11.578 -0.0538  0.5062  0.3046
 9194SOL    HW139215   3.508   4.273  11.548 -0.6789  2.0690 -2.5013
 9194SOL    HW239216   3.563   4.408  11.504 -0.6906  1.0803  0.7378
 9195SOL     OW39217   4.448   4.038   6.320 -0.1407 -1.0924  1.0452
 9195SOL    HW139218   4.415   3.955   6.286 -0.3526 -0.9354  0.8627
 9195SOL    HW239219   4.360   4.072   6.336 -0.8797 -3.2257  1.5069
 9196SOL     OW39220   1.426   1.138   3.319  0.2718  0.2272  0.2995
 9196SOL    HW139221   1.336   1.134   3.350  0.2728 -2.6842 -0.0835
 9196SOL    HW239222   1.427   1.055   3.271  0.3373  1.1904 -1.3386
 9197SOL     OW39223   3.976   2.747  17.334  0.4124 -0.3471 -0.6576
 9197SOL    HW139224   4.015   2.833  17.353 -0.6513  0.0826 -0.3868
 9197SOL    HW239225   3.887   2.760  17.368  0.8326 -0.6755  0.5431
 9198SOL     OW39226   3.753   3.142   5.791 -0.1151 -0.2398  0.1019
 9198SOL    HW139227   3.748   3.226   5.836 -0.1247 -1.5149  2.4466
 9198SOL    HW239228   3.700   3.146   5.711  1.4400 -0.0980 -0.9402
 9199SOL     OW39229   0.569   0.431   5.556  0.2239  0.2970 -0.2187
 9199SOL    HW139230   0.652   0.401   5.519 -1.5166 -2.9488 -1.5120
 9199SOL    HW239231   0.601   0.486   5.628 -2.1550  1.3644  0.0142
 9200SOL     OW39232   1.193   3.184   4.607  0.0820 -0.0947 -0.2909
 9200SOL    HW139233   1.137   3.117   4.648 -0.0911 -0.3116 -0.8803
 9200SOL    HW239234   1.124   3.207   4.546  1.7509  1.4668 -1.5670
 9201SOL     OW39235   1.536   4.021   4.486 -0.1238 -0.2002 -0.5118
 9201SOL    HW139236   1.441   4.010   4.485 -0.3809  1.7956  1.8097
 9201SOL    HW239237   1.571   3.939   4.522  2.1409  0.6596 -0.7673
 9202SOL     OW39238   1.355   2.194  14.964  0.4425  0.7245 -0.5760
 9202SOL    HW139239   1.301   2.217  15.040 -1.1080 -1.0439 -1.1468
 9202SOL    HW239240   1.284   2.199  14.900  0.0906 -2.6359 -0.4494
 9203SOL     OW39241   3.453   2.671   5.892  0.0504  0.4090 -0.8260
 9203SOL    HW139242   3.394   2.672   5.967  0.1484 -0.8313 -0.7340
 9203SOL    HW239243   3.397   2.635   5.823 -0.7213 -0.4254  0.2262
 9204SOL     OW39244   3.743   3.482  13.604  0.5406 -0.1240  0.5424
 9204SOL    HW139245   3.701   3.568  13.613 -0.8991 -0.6885 -0.8211
 9204SOL    HW239246   3.739   3.479  13.508  0.8893  0.2059  0.5184
 9205SOL     OW39247   0.583   0.204  16.609  0.0903  0.2428  0.3064
 9205SOL    HW139248   0.510   0.217  16.548 -0.4038 -0.7571  0.6858
 9205SOL    HW239249   0.571   0.273  16.675  0.7631 -2.3913  3.1748
 9206SOL     OW39250   2.086   4.227   3.367 -0.0407 -0.0613  0.0304
 9206SOL    HW139251   2.138   4.253   3.443 -0.6266 -2.0472  1.1069
 9206SOL    HW239252   2.159   4.197   3.313 -2.7325 -0.2619 -3.5237
 9207SOL     OW39253   1.795   0.045   9.292 -0.8646 -0.0786 -0.7127
 9207SOL    HW139254   1.739   0.102   9.344 -1.2039 -1.8436  0.8624
 9207SOL    HW239255   1.862   0.104   9.258 -0.9625 -0.3436 -1.3653
 9208SOL     OW39256   2.713   1.218   3.898  0.0806 -0.1512  0.5047
 9208SOL    HW139257   2.670   1.134   3.884  1.1260 -0.5057 -0.6129
 9208SOL    HW239258   2.802   1.198   3.869 -0.6441  1.5819 -2.9544
 9209SOL     OW39259   4.386   2.524  14.085 -0.7596  0.1356  0.0240
 9209SOL    HW139260   4.432   2.510  14.168  2.5708  2.8192 -1.3680
 9209SOL    HW239261   4.338   2.442  14.088  0.0182 -0.3487 -0.8008
 9210SOL     OW39262   0.421   3.280  12.593 -0.2817 -0.3844 -0.6066
 9210SOL    HW139263   0.421   3.280  12.497  0.7772 -0.7174 -0.6075
 9210SOL    HW239264   0.441   3.186  12.598 -1.7016 -0.8529 -3.5465
 9211SOL     OW39265   4.659   4.435   6.424  0.4778 -0.3901  0.5037
 9211SOL    HW139266   4.704   4.519   6.420 -0.0436 -0.1379  0.0462
 9211SOL    HW239267   4.652   4.419   6.330  2.8490 -2.4730  0.6748
 9212SOL     OW39268   0.933   0.153   6.054  0.6318 -0.1934  0.1575
 9212SOL    HW139269   0.929   0.247   6.074  1.5762  0.5959 -3.3587
 9212SOL    HW239270   0.850   0.114   6.028  1.1871 -1.0918 -0.2645
 9213SOL     OW39271   0.908   3.406   2.331 -0.2693 -0.0573  0.1191
 9213SOL    HW139272   0.878   3.331   2.383  1.2740 -1.6557 -1.3138
 9213SOL    HW239273   0.952   3.444   2.407 -0.2391  0.4000 -0.1317
 9214SOL     OW39274   1.875   3.284  12.175 -0.4006 -0.7051 -0.4519
 9214SOL    HW139275   1.872   3.242  12.261  0.1791 -0.2680 -0.2236
 9214SOL    HW239276   1.902   3.372  12.199 -3.6781  0.0424  0.4823
 9215SOL     OW39277   0.928   3.932   7.913 -0.0449 -0.4269  0.5793
 9215SOL    HW139278   0.894   3.880   7.840 -1.4676 -1.4723  1.9770
 9215SOL    HW239279   0.973   4.001   7.864  0.5964  0.0468  1.8398
 9216SOL     OW39280   3.204   1.083  12.136  0.3268 -0.0818  0.6114
 9216SOL    HW139281   3.259   1.144  12.087  0.6586 -1.5821 -0.9021
 9216SOL    HW239282   3.181   1.141  12.209  0.1765  1.2817 -0.5287
 9217SOL     OW39283   1.585   1.563   3.326  0.5838  0.2055  0.4872
 9217SOL    HW139284   1.671   1.563   3.283  0.9633  0.7542  1.2661
 9217SOL    HW239285   1.577   1.468   3.339 -0.7349  0.4342  1.2540
 9218SOL     OW39286   3.139   3.932  17.150 -0.7212 -0.0778 -1.1518
 9218SOL    HW139287   3.084   4.009  17.161  0.7318  1.2611 -3.1933
 9218SOL    HW239288   3.148   3.907  17.242  2.3286  1.0343 -1.1443
 9219SOL     OW39289   4.000   3.225   0.062 -0.1678 -0.5350 -0.0670
 9219SOL    HW139290   4.034   3.140   0.034  1.4762 -0.4223  1.6430
 9219SOL    HW239291   3.906   3.204   0.065  0.0321 -1.2664  0.8456
 9220SOL     OW39292   4.728   2.161  10.888 -0.5602  0.0382 -0.0257
 9220SOL    HW139293   0.061   2.110  10.917 -1.0714  0.1169  1.4233
 9220SOL    HW239294   0.033   2.244  10.892  2.3562 -1.6686  1.2468
 9221SOL     OW39295   3.972   1.573  15.565  0.0971  0.9209 -0.3033
 9221SOL    HW139296   4.058   1.531  15.557  0.2714  1.3407 -0.6831
 9221SOL    HW239297   3.945   1.585  15.474 -0.4588  0.5214 -0.1869
 9222SOL     OW39298   4.448   3.731  16.992  0.3461  0.5500 -0.3337
 9222SOL    HW139299   4.393   3.653  17.002 -2.3443  2.5670  0.7082
 9222SOL    HW239300   4.393   3.788  16.937  0.1926  2.2013  1.5174
 9223SOL     OW39301   3.405   2.579   8.664 -0.2440 -0.1002  0.1439
 9223SOL    HW139302   3.318   2.563   8.626 -0.2958  0.9489 -0.1682
 9223SOL    HW239303   3.415   2.672   8.644 -0.0675 -0.2729 -0.5730
 9224SOL     OW39304   4.337   2.696   6.839 -0.3824  0.0298  0.6033
 9224SOL    HW139305   4.263   2.653   6.882  0.1064 -0.1820  1.2249
 9224SOL    HW239306   4.295   2.777   6.808 -1.6341 -1.7078 -2.2510
 9225SOL     OW39307   2.647   2.676  15.803  0.1262  0.4738 -0.0592
 9225SOL    HW139308   2.590   2.752  15.800 -1.6927 -0.8927  0.2696
 9225SOL    HW239309   2.710   2.688  15.732  0.0360  0.9324 -0.0618
 9226SOL     OW39310   3.361   2.570   3.103 -0.1226 -0.0864 -0.2613
 9226SOL    HW139311   3.393   2.582   3.192  2.4865 -0.0494 -1.1832
 9226SOL    HW239312   3.436   2.536   3.053  0.3047  0.4860 -0.0075
 9227SOL     OW39313   1.813   1.473  10.048  0.3613  0.1542  0.4347
 9227SOL    HW139314   1.722   1.449  10.028 -0.4392  3.7801 -0.2539
 9227SOL    HW239315   1.870   1.397  10.038 -0.4872 -0.1612 -2.0186
 9228SOL     OW39316   4.376   0.791  12.524 -0.1537  0.0607  0.2532
 9228SOL    HW139317   4.401   0.882  12.540  0.8678 -0.3387  0.8928
 9228SOL    HW239318   4.308   0.819  12.462 -0.6407  0.0589  0.7763
 9229SOL     OW39319   2.717   3.962   5.449  0.3046  0.0461  0.1656
 9229SOL    HW139320   2.807   3.950   5.419  0.5334 -0.2373  0.9709
 9229SOL    HW239321   2.733   3.984   5.541  0.0215 -0.0665  0.2412
 9230SOL     OW39322   1.031   0.590   4.515 -0.7764  0.4037  0.2749
 9230SOL    HW139323   0.981   0.645   4.454  1.2757  1.2565 -0.6240
 9230SOL    HW239324   0.958   0.562   4.570 -0.2139 -2.6289 -0.5326
 9231SOL     OW39325   4.270   4.072   6.872  0.1064 -0.0396 -0.2064
 9231SOL    HW139326   4.224   4.156   6.867  1.2444  0.7009  1.7166
 9231SOL    HW239327   4.291   4.076   6.966  1.0366 -0.4978 -0.3976
 9232SOL     OW39328   2.603   2.690   9.289 -0.0990 -0.5065 -0.0321
 9232SOL    HW139329   2.613   2.771   9.339  1.0716  0.6357 -2.0993
 9232SOL    HW239330   2.630   2.725   9.204  0.4537  0.4244  0.5228
 9233SOL     OW39331   0.239   4.623   3.857 -0.3830 -0.0438  0.6058
 9233SOL    HW139332   0.275   4.545   3.814  0.0073  0.6915 -0.3859
 9233SOL    HW239333   0.290   4.626   3.938 -0.1745 -2.1327  0.5628
 9234SOL     OW39334   1.688   0.742   7.631  0.1166  0.1747  0.0984
 9234SOL    HW139335   1.608   0.693   7.652 -0.1286  0.0877 -1.0183
 9234SOL    HW239336   1.669   0.823   7.678 -2.3080 -0.9675  1.0987
 9235SOL     OW39337   1.906   2.924   3.746 -0.1055  0.5553 -0.0584
 9235SOL    HW139338   1.854   3.003   3.728 -0.4208  0.1027 -1.1932
 9235SOL    HW239339   1.979   2.947   3.689  0.3892 -3.4814 -1.0716
 9236SOL     OW39340   1.672   2.103   5.713  0.1947  0.0454  0.3547
 9236SOL    HW139341   1.633   2.166   5.774 -1.4864  0.1653 -0.8589
 9236SOL    HW239342   1.594   2.048   5.711  0.8946 -0.8824 -1.3596
 9237SOL     OW39343   3.356   0.552   5.834  0.0311  0.3620 -0.2027
 9237SOL    HW139344   3.374   0.527   5.925  1.6343 -1.1857 -0.9457
 9237SOL    HW239345   3.439   0.526   5.794 -0.2339  0.4292 -0.7856
 9238SOL     OW39346   1.422   0.838  13.602 -0.3173  0.3559 -0.0200
 9238SOL    HW139347   1.462   0.923  13.618 -0.7679  1.0563 -2.5498
 9238SOL    HW239348   1.490   0.783  13.641 -0.2360 -0.5490 -1.4278
 9239SOL     OW39349   4.336   3.923   7.141  0.1139  0.2232  0.0161
 9239SOL    HW139350   4.322   3.828   7.143  0.0934  0.2192 -0.3318
 9239SOL    HW239351   4.247   3.949   7.166  0.1803  0.4993 -0.0330
 9240SOL     OW39352   2.055   2.821   5.436  0.4620  0.1904 -0.7922
 9240SOL    HW139353   1.966   2.806   5.402 -0.4137 -0.3177  1.7549
 9240SOL    HW239354   2.068   2.913   5.414  1.3610 -0.2140 -1.9445
 9241SOL     OW39355   4.374   0.724   7.395 -0.1229  0.1177 -0.1491
 9241SOL    HW139356   4.369   0.762   7.483  1.0761 -0.7299  0.2916
 9241SOL    HW239357   4.445   0.771   7.351  1.7979 -1.2636  1.4783
 9242SOL     OW39358   1.209   3.636   7.018  0.0198 -0.0130 -0.0579
 9242SOL    HW139359   1.143   3.680   7.072 -0.0930  1.3706 -1.3333
 9242SOL    HW239360   1.280   3.700   7.023  1.5535 -1.9751  3.0638
 9243SOL     OW39361   3.070   1.158   2.157 -0.1158  0.0545 -0.4102
 9243SOL    HW139362   3.015   1.121   2.089  0.3357 -0.9725 -0.2193
 9243SOL    HW239363   3.140   1.094   2.144  0.6903  0.8519 -0.0139
 9244SOL     OW39364   0.806   4.609   3.306 -0.4705  0.0141  0.2773
 9244SOL    HW139365   0.887   4.651   3.333  0.1248 -2.1561  1.8941
 9244SOL    HW239366   0.764   4.580   3.387 -1.3384  0.4010 -0.0388
 9245SOL     OW39367   1.905   3.594   4.473 -0.6686 -0.1913  0.3341
 9245SOL    HW139368   1.924   3.567   4.563  1.0309 -0.9095 -0.2383
 9245SOL    HW239369   1.922   3.510   4.430  2.0629 -1.1463  3.2741
 9246SOL     OW39370   0.610   3.205   2.866 -0.0965 -0.2324  0.5423
 9246SOL    HW139371   0.636   3.115   2.887  0.6515  0.1135  1.1438
 9246SOL    HW239372   0.547   3.188   2.797  2.5964 -2.2230 -1.4459
 9247SOL     OW39373   3.165   4.497   7.260 -0.3769  0.6896 -0.6229
 9247SOL    HW139374   3.227   4.474   7.329 -2.2769  0.9415  1.1511
 9247SOL    HW239375   3.079   4.469   7.289 -0.3694  1.0239 -0.2665
 9248SOL     OW39376   1.651   2.623   7.042  0.4138 -0.0257 -0.0642
 9248SOL    HW139377   1.581   2.589   7.099 -0.6792  1.5953 -0.4507
 9248SOL    HW239378   1.622   2.606   6.953 -0.1472 -0.1827  0.1457
 9249SOL     OW39379   3.759   2.504   2.204  0.1710  0.3977  0.2889
 9249SOL    HW139380   3.666   2.518   2.221  0.1277  1.2908 -0.6780
 9249SOL    HW239381   3.744   2.434   2.140  0.9557  0.6919 -0.2219
 9250SOL     OW39382   4.738   1.659   4.250 -0.2944 -0.2065 -0.1349
 9250SOL    HW139383   4.724   1.600   4.324 -0.0771 -1.5180 -1.1547
 9250SOL    HW239384   4.707   1.740   4.292 -0.7023  0.7652 -2.3030
 9251SOL     OW39385   4.210   2.808  14.073 -0.1174  0.5856 -0.0174
 9251SOL    HW139386   4.164   2.802  14.157  1.2543  1.0791  0.7615
 9251SOL    HW239387   4.162   2.882  14.035 -4.1511 -1.3184  1.3529
 9252SOL     OW39388   4.296   2.755   0.378  0.0771  0.9418 -0.3451
 9252SOL    HW139389   4.278   2.844   0.348  0.7666  1.2373  0.1029
 9252SOL    HW239390   4.380   2.776   0.418  0.1927 -2.0932  1.0394
 9253SOL     OW39391   1.747   3.619   2.102 -0.1777  0.5065 -0.6892
 9253SOL    HW139392   1.778   3.621   2.011  1.2483  1.2806 -0.1956
 9253SOL    HW239393   1.738   3.524   2.110 -1.5029  0.6480 -0.5368
 9254SOL     OW39394   1.015   0.849  10.875  0.6102 -0.6881 -0.0519
 9254SOL    HW139395   0.962   0.857  10.796 -0.4976 -0.2679  0.7233
 9254SOL    HW239396   1.034   0.940  10.895  0.2891 -0.6131 -0.0952
 9255SOL     OW39397   0.005   0.662   7.386 -0.6351  0.5934 -0.3447
 9255SOL    HW139398   4.728   0.636   7.477  2.8454 -1.5634 -0.2795
 9255SOL    HW239399   0.090   0.626   7.364  0.0142  1.8304  0.1397
 9256SOL     OW39400   4.088   3.524  12.919 -0.0704  0.4522 -0.1023
 9256SOL    HW139401   3.994   3.517  12.903  0.0578 -0.5132 -0.4329
 9256SOL    HW239402   4.090   3.548  13.011  1.6733 -0.5681  0.1148
 9257SOL     OW39403   1.766   1.048  11.052 -0.2358  0.0249 -0.2232
 9257SOL    HW139404   1.785   1.137  11.021  1.1417  0.0900  0.8088
 9257SOL    HW239405   1.674   1.034  11.031 -0.3514  1.8692 -0.9300
 9258SOL     OW39406   2.470   2.305   7.454 -0.2215  0.1350  0.0661
 9258SOL    HW139407   2.536   2.362   7.415  0.6783  0.0132  1.3907
 9258SOL    HW239408   2.485   2.342   7.541 -1.7358  0.9448  0.0054
 9259SOL     OW39409   0.168   2.427   8.388  0.0246  0.1329 -0.7433
 9259SOL    HW139410   0.188   2.412   8.296  0.5288  1.5504 -0.8670
 9259SOL    HW239411   0.237   2.380   8.434 -1.2351  0.9385  1.9877
 9260SOL     OW39412   1.187   0.792   3.649 -0.2505  0.0484  0.0011
 9260SOL    HW139413   1.239   0.712   3.658  0.0076  0.0818 -1.1937
 9260SOL    HW239414   1.114   0.759   3.596  0.3688  0.3576 -1.0622
 9261SOL     OW39415   1.180   3.904   7.228 -0.4711 -0.0128 -0.3216
 9261SOL    HW139416   1.226   3.987   7.210 -2.3861  1.0205 -0.4959
 9261SOL    HW239417   1.134   3.899   7.144 -1.2953 -1.5671  0.2276
 9262SOL     OW39418   4.653   2.392   5.508  0.3233 -0.7899  0.1361
 9262SOL    HW139419   4.741   2.376   5.542  0.4547 -1.3467 -0.4707
 9262SOL    HW239420   4.621   2.304   5.486 -0.4943 -0.3717 -0.3288
 9263SOL     OW39421   4.000   2.385   9.217  0.2296 -0.2691  0.4346
 9263SOL    HW139422   3.925   2.362   9.272 -1.6852  1.8591 -1.2240
 9263SOL    HW239423   4.033   2.298   9.196 -2.7262 -1.5142  0.9327
 9264SOL     OW39424   4.017   2.338   2.220 -0.8801  0.2242  0.2252
 9264SOL    HW139425   3.951   2.388   2.269  0.3438  0.7234  1.3523
 9264SOL    HW239426   4.008   2.382   2.135  0.5856  1.0046  0.4773
 9265SOL     OW39427   1.985   4.517   2.949 -0.4529  0.1165  0.3358
 9265SOL    HW139428   1.926   4.510   3.023 -1.2594  1.7193 -0.1685
 9265SOL    HW239429   2.020   4.606   2.955  0.0906 -0.2463  2.5098
 9266SOL     OW39430   4.366   3.912   9.318 -0.1954 -0.1057  0.1377
 9266SOL    HW139431   4.341   3.962   9.396 -0.6528  0.0790 -0.1277
 9266SOL    HW239432   4.314   3.960   9.253 -2.1109 -0.3299  1.4994
 9267SOL     OW39433   4.186   3.336  12.466 -0.2509  1.0689  0.1963
 9267SOL    HW139434   4.259   3.277  12.448 -0.5349  1.6342 -2.7959
 9267SOL    HW239435   4.217   3.385  12.542 -0.2184 -1.1010  1.6009
 9268SOL     OW39436   1.949   4.002   1.561 -0.0573 -0.3937  0.5264
 9268SOL    HW139437   1.964   3.987   1.468 -1.7593 -1.7798  0.4934
 9268SOL    HW239438   1.856   4.021   1.567 -0.2061 -1.0506  0.1831
 9269SOL     OW39439   3.435   2.892   1.536  0.8967  0.5207  0.4548
 9269SOL    HW139440   3.419   2.897   1.442 -0.2982  0.5539  0.6546
 9269SOL    HW239441   3.407   2.977   1.569 -1.9321 -1.2941  2.7442
 9270SOL     OW39442   2.562   4.481  16.746 -0.1046  0.1656 -0.2030
 9270SOL    HW139443   2.495   4.451  16.684 -0.9877 -1.4426  1.5264
 9270SOL    HW239444   2.633   4.434  16.700 -1.3046  0.5025 -2.3924
 9271SOL     OW39445   2.878   1.096  14.899  0.8068 -0.0485 -0.1341
 9271SOL    HW139446   2.908   1.016  14.856  0.4552  0.1521 -0.7492
 9271SOL    HW239447   2.948   1.091  14.965 -1.5841 -1.2033  2.3437
 9272SOL     OW39448   3.340   0.336   9.916  0.0992 -0.1119 -0.2656
 9272SOL    HW139449   3.320   0.394   9.989 -4.3425 -0.0980 -1.5155
 9272SOL    HW239450   3.285   0.261   9.936 -1.6660  1.4708  0.8346
 9273SOL     OW39451   1.458   2.990  16.624 -0.0933 -0.8464 -0.1851
 9273SOL    HW139452   1.369   2.958  16.612 -0.6767 -0.0367  2.0904
 9273SOL    HW239453   1.451   3.035  16.708  1.5416  0.7081 -0.8878
 9274SOL     OW39454   4.056   2.566   6.834  0.1906 -0.0298 -0.3837
 9274SOL    HW139455   3.984   2.619   6.867  1.1359  0.9772  0.0527
 9274SOL    HW239456   4.082   2.613   6.754  0.1499  1.1614  0.2977
 9275SOL     OW39457   4.212   2.144   2.258 -0.3901  0.0190 -0.5302
 9275SOL    HW139458   4.153   2.218   2.270 -3.0279 -1.9117 -1.6099
 9275SOL    HW239459   4.151   2.073   2.240 -1.6142  1.1775 -0.9276
 9276SOL     OW39460   3.451   1.189   2.179 -0.4421  0.2983  0.0088
 9276SOL    HW139461   3.520   1.210   2.116  0.4037 -1.0794  0.4800
 9276SOL    HW239462   3.399   1.122   2.134  0.3137 -0.3705  0.1365
 9277SOL     OW39463   1.212   4.730   6.849  0.4058  0.1692  0.8439
 9277SOL    HW139464   1.227   0.073   6.892  2.6219  0.7683 -1.1131
 9277SOL    HW239465   1.116   4.730   6.851  0.3928  0.2659  0.3603
 9278SOL     OW39466   3.871   3.905   6.545  0.1613 -0.3908 -0.1540
 9278SOL    HW139467   3.942   3.845   6.566  0.8441 -0.8156 -3.6112
 9278SOL    HW239468   3.800   3.850   6.578  1.3833 -1.0310  1.4127
 9279SOL     OW39469   1.584   3.022   2.874  0.8052 -0.0062 -0.0999
 9279SOL    HW139470   1.659   2.987   2.826 -0.7285 -0.7304 -1.9666
 9279SOL    HW239471   1.618   3.020   2.963  0.9092 -0.3078 -0.1488
 9280SOL     OW39472   1.851   1.042   6.882 -0.6269 -0.0366  0.3119
 9280SOL    HW139473   1.852   1.000   6.968  1.1574  1.5529  1.0564
 9280SOL    HW239474   1.874   1.131   6.906  0.8744 -0.1405 -0.7253
 9281SOL     OW39475   3.424   0.903   3.627 -0.2549  0.2913  0.0247
 9281SOL    HW139476   3.445   0.992   3.600  0.3985  0.3816  0.8219
 9281SOL    HW239477   3.332   0.904   3.602  0.5057  2.4294 -2.6584
 9282SOL     OW39478   4.014   1.799   6.111 -0.1602  0.0838 -0.3381
 9282SOL    HW139479   4.068   1.746   6.053  0.4657  0.5597 -0.1888
 9282SOL    HW239480   4.015   1.777   6.205 -0.1599  2.8389  0.3056
 9283SOL     OW39481   0.269   1.749   3.498 -0.3018 -0.0619  0.1505
 9283SOL    HW139482   0.225   1.716   3.420  2.1420 -0.1856 -1.1619
 9283SOL    HW239483   0.220   1.705   3.568 -1.3749 -2.1000 -1.8737
 9284SOL     OW39484   0.270   0.826   5.272 -0.7266 -0.5414  0.0768
 9284SOL    HW139485   0.283   0.861   5.184  1.1792  1.5025  1.1484
 9284SOL    HW239486   0.282   0.906   5.324  0.6706 -1.0647  0.5705
 9285SOL     OW39487   1.374   3.860  17.194 -0.3424 -0.1904 -0.0729
 9285SOL    HW139488   1.405   3.777  17.231  0.4352 -0.7462 -1.9774
 9285SOL    HW239489   1.312   3.881  17.264 -0.0765 -2.7713  0.9422
 9286SOL     OW39490   4.296   4.414  12.224 -0.1808 -0.2531 -0.5179
 9286SOL    HW139491   4.269   4.324  12.203  0.4886 -1.1431  2.3305
 9286SOL    HW239492   4.221   4.433  12.280  0.3573  0.6016 -0.0737
 9287SOL     OW39493   3.787   0.333   4.410 -0.0523 -0.3804 -0.2119
 9287SOL    HW139494   3.763   0.335   4.317  0.1696 -1.7687 -0.2985
 9287SOL    HW239495   3.709   0.366   4.455 -1.1068 -3.1364  0.0044
 9288SOL     OW39496   4.567   3.009   8.784  0.2668 -0.0006 -0.2994
 9288SOL    HW139497   4.473   3.024   8.780  0.3136  0.5498  0.8031
 9288SOL    HW239498   4.591   3.060   8.706  0.1913  1.6668  0.7770
 9289SOL     OW39499   1.726   3.943   2.430 -0.3347 -0.3375  0.2787
 9289SOL    HW139500   1.701   3.850   2.426  1.4256 -0.8101  0.2553
 9289SOL    HW239501   1.820   3.940   2.447 -0.7611 -1.9707  2.3111
 9290SOL     OW39502   0.623   4.644   8.600  0.4878 -0.4586 -0.3733
 9290SOL    HW139503   0.620   4.587   8.676  0.9070 -0.3246 -0.2570
 9290SOL    HW239504   0.613   4.578   8.531  2.0855 -0.5539 -0.5165
 9291SOL     OW39505   4.241   3.715  17.414 -0.4364  0.0579 -0.1434
 9291SOL    HW139506   4.189   3.795  17.410 -0.3000  0.2256  1.4201
 9291SOL    HW239507   4.248   3.699  17.508 -0.2615  0.9372 -0.0139
 9292SOL     OW39508   2.081   1.106   7.859 -0.1226 -0.1775  0.8087
 9292SOL    HW139509   2.163   1.083   7.816 -0.2928 -1.2652  1.0567
 9292SOL    HW239510   2.099   1.073   7.947 -0.1522 -2.1147  0.1011
 9293SOL     OW39511   1.693   0.017   8.686 -0.0159  0.2988 -0.3395
 9293SOL    HW139512   1.629   4.731   8.751  0.1014 -0.2917 -0.4740
 9293SOL    HW239513   1.629   0.026   8.615 -0.3553  0.4284 -0.0108
 9294SOL     OW39514   1.897   3.493   8.747 -0.2009  0.1197 -0.2610
 9294SOL    HW139515   1.858   3.477   8.833  0.3906  1.1876  0.2025
 9294SOL    HW239516   1.982   3.523   8.777 -0.3888  1.1178 -0.7199
 9295SOL     OW39517   3.392   1.432   4.586  1.4202  0.1457 -0.1787
 9295SOL    HW139518   3.399   1.526   4.573  0.4590  0.0075 -1.7512
 9295SOL    HW239519   3.477   1.415   4.627  1.0353  1.8949  1.3799
 9296SOL     OW39520   1.734   1.109  10.745 -0.2136  0.6682  0.2546
 9296SOL    HW139521   1.731   1.016  10.764 -1.9866  0.6148 -0.3784
 9296SOL    HW239522   1.739   1.158  10.827 -1.3972 -0.2524  0.8725
 9297SOL     OW39523   1.396   0.696   6.229  0.0329 -0.1099 -0.1584
 9297SOL    HW139524   1.368   0.775   6.275  0.6019 -0.8405  1.4229
 9297SOL    HW239525   1.344   0.628   6.272 -2.2649  0.2613 -2.3149
 9298SOL     OW39526   0.401   2.860  11.538  0.2386 -0.4746  0.2358
 9298SOL    HW139527   0.469   2.918  11.504  0.0003 -0.4227 -0.1495
 9298SOL    HW239528   0.435   2.773  11.514  0.8904 -0.5657  1.5135
 9299SOL     OW39529   3.227   2.437   6.533 -0.3763  0.5526  0.2970
 9299SOL    HW139530   3.307   2.400   6.571  0.5193  0.3229 -1.7999
 9299SOL    HW239531   3.167   2.376   6.575 -1.0219  0.3765 -0.8892
 9300SOL     OW39532   4.213   3.332   4.003 -0.1373 -0.5162 -0.9534
 9300SOL    HW139533   4.222   3.369   3.915 -0.3390  0.1958 -0.6708
 9300SOL    HW239534   4.191   3.409   4.054  0.0512 -1.2279  0.2139
 9301SOL     OW39535   3.419   3.397   7.035  0.2623 -0.5504  0.7473
 9301SOL    HW139536   3.360   3.423   7.106  0.6643  2.5833 -0.0661
 9301SOL    HW239537   3.437   3.482   6.996 -1.1559 -0.6696 -0.1658
 9302SOL     OW39538   4.722   4.574   3.927  0.2523 -0.2748 -0.2651
 9302SOL    HW139539   4.717   4.508   3.996 -0.1671  0.4185  0.3684
 9302SOL    HW239540   0.074   4.592   3.915  0.6480 -1.4872  1.1091
 9303SOL     OW39541   3.412   4.404   2.474 -0.1543 -0.3746  0.2837
 9303SOL    HW139542   3.426   4.390   2.567  3.1567  1.1273 -0.0122
 9303SOL    HW239543   3.466   4.328   2.451  0.7408  0.7972 -1.4562
 9304SOL     OW39544   2.229   0.132   9.517  0.2618  0.0162  0.0236
 9304SOL    HW139545   2.148   0.108   9.563  0.8400  0.3508  1.1949
 9304SOL    HW239546   2.202   0.198   9.453  1.5778 -0.1332 -0.6765
 9305SOL     OW39547   2.776   2.332  12.590 -0.2334 -0.4493  0.3194
 9305SOL    HW139548   2.708   2.289  12.641 -0.0407  0.4786  1.3654
 9305SOL    HW239549   2.726   2.382  12.525  2.6591  0.3113 -1.3245
 9306SOL     OW39550   2.062   2.882  10.733 -0.1326 -0.4478 -0.4793
 9306SOL    HW139551   1.987   2.822  10.731 -2.0652  1.8568  1.4229
 9306SOL    HW239552   2.105   2.859  10.816 -1.1446  0.1953  0.2304
 9307SOL     OW39553   3.960   0.207   4.040  0.2697  0.8789 -0.5290
 9307SOL    HW139554   3.873   0.227   4.074  0.8108  0.8428  0.8832
 9307SOL    HW239555   3.996   0.294   4.057  1.7731 -0.3150  2.3937
 9308SOL     OW39556   4.621   4.486   1.566 -0.1064  1.2875 -0.6949
 9308SOL    HW139557   4.681   4.493   1.640 -0.4523  1.1126 -0.3974
 9308SOL    HW239558   4.671   4.427   1.510 -0.3408  1.9724 -1.6491
 9309SOL     OW39559   0.459   4.734   2.372 -0.4401  0.5623 -0.1602
 9309SOL    HW139560   0.468   4.660   2.432 -0.8715  0.6373  0.0047
 9309SOL    HW239561   0.489   0.067   2.424  0.9503 -0.9452  1.2048
 9310SOL     OW39562   3.471   4.520  17.266  0.0915 -0.2233 -0.1742
 9310SOL    HW139563   3.548   4.548  17.316 -0.2897 -4.8175  2.9914
 9310SOL    HW239564   3.467   4.425  17.273  1.1786 -0.2694 -0.1724
 9311SOL     OW39565   0.109   0.595  13.907  0.4341 -0.3833  0.4376
 9311SOL    HW139566   0.029   0.624  13.864 -0.7943 -0.3199  2.7864
 9311SOL    HW239567   0.081   0.632  13.990  0.0330 -1.9596  1.0178
 9312SOL     OW39568   3.679   0.779   6.600 -0.0307 -0.3040 -0.0012
 9312SOL    HW139569   3.604   0.839   6.605  0.7294  0.6763 -0.3739
 9312SOL    HW239570   3.749   0.823   6.649 -1.5445 -1.1993  2.9772
 9313SOL     OW39571   2.935   1.391   5.809 -0.5706  0.0264  0.5400
 9313SOL    HW139572   2.850   1.411   5.847 -1.3340 -0.6524 -0.7723
 9313SOL    HW239573   2.980   1.381   5.893 -2.4555 -1.2116  1.4036
 9314SOL     OW39574   1.098   0.727   7.574 -0.4410 -0.2823 -0.3527
 9314SOL    HW139575   1.057   0.806   7.609 -2.6810 -0.8045 -1.7709
 9314SOL    HW239576   1.052   0.653   7.615  0.6035 -0.3508  0.6995
 9315SOL     OW39577   0.818   2.419   3.821 -0.0491 -0.2027 -0.2850
 9315SOL    HW139578   0.827   2.362   3.744  1.2657 -0.4389  0.0389
 9315SOL    HW239579   0.902   2.423   3.866 -0.4176  0.5599  0.3136
 9316SOL     OW39580   1.239   4.029  11.148  0.1088  0.3826 -0.1681
 9316SOL    HW139581   1.291   3.949  11.147  0.4957  0.6442 -0.9704
 9316SOL    HW239582   1.233   4.054  11.240 -0.5382 -0.9349  0.1443
 9317SOL     OW39583   3.062   2.657   1.851  0.0353 -0.0377 -0.5891
 9317SOL    HW139584   3.012   2.686   1.775 -0.2119 -0.7625 -0.7043
 9317SOL    HW239585   2.993   2.643   1.916  1.3270  0.2081  0.8284
 9318SOL     OW39586   4.499   0.310   8.632  0.2006  0.0618  0.2313
 9318SOL    HW139587   4.529   0.344   8.548  1.2298  1.4978  1.1880
 9318SOL    HW239588   4.407   0.288   8.618  0.2023 -0.7854  1.5059
 9319SOL     OW39589   3.689   1.208   4.037  0.0296  0.0177  0.3480
 9319SOL    HW139590   3.643   1.129   4.063  1.6375 -1.2399 -0.6385
 9319SOL    HW239591   3.658   1.276   4.097  2.1902 -1.5080  3.1702
 9320SOL     OW39592   1.229   3.163   1.371 -0.6897 -0.5871 -0.2150
 9320SOL    HW139593   1.150   3.109   1.374 -0.2995 -1.0552  1.7922
 9320SOL    HW239594   1.257   3.148   1.281  2.5419  2.1410  0.3313
 9321SOL     OW39595   2.202   2.739   3.796 -0.1100  0.1277 -0.1893
 9321SOL    HW139596   2.206   2.830   3.764 -0.7811 -0.0269 -0.7079
 9321SOL    HW239597   2.292   2.724   3.825  0.3502 -0.4741 -1.9665
 9322SOL     OW39598   0.473   2.739  10.833 -0.1616  0.1476 -0.1349
 9322SOL    HW139599   0.487   2.662  10.777 -0.5089 -0.4939  0.6707
 9322SOL    HW239600   0.556   2.741  10.881  1.4543  0.0668 -2.9107
 9323SOL     OW39601   2.965   2.283   6.310  0.1735 -0.3599  0.3655
 9323SOL    HW139602   3.007   2.336   6.241 -0.6073  0.5760  0.6126
 9323SOL    HW239603   2.902   2.229   6.262  1.4919 -2.3752  0.9408
 9324SOL     OW39604   1.275   0.848   9.104 -0.2359  0.4171 -0.3152
 9324SOL    HW139605   1.262   0.888   9.018 -0.7421  0.2870 -0.3032
 9324SOL    HW239606   1.187   0.864   9.138 -0.7964 -0.8390 -1.1620
 9325SOL     OW39607   4.345   1.202   4.056 -0.8222  0.4812 -0.1893
 9325SOL    HW139608   4.362   1.144   3.982  2.8602 -0.0336  1.0335
 9325SOL    HW239609   4.286   1.267   4.018  1.6069  1.4611 -2.2705
 9326SOL     OW39610   4.632   0.085  14.230  0.3494  0.1840  1.0112
 9326SOL    HW139611   4.582   0.045  14.302  1.3282  0.9867  2.1303
 9326SOL    HW239612   4.702   0.021  14.224 -1.0026 -1.2312  0.3624
 9327SOL     OW39613   2.393   1.397   7.417 -0.2608  0.3032 -0.0074
 9327SOL    HW139614   2.404   1.314   7.370  0.6278  0.0823  0.5956
 9327SOL    HW239615   2.435   1.460   7.359 -1.6323 -0.1012 -1.4296
 9328SOL     OW39616   0.720   2.869   6.791 -0.0212 -0.6018 -0.0161
 9328SOL    HW139617   0.712   2.965   6.790 -1.3174 -0.6749  2.6357
 9328SOL    HW239618   0.811   2.854   6.816 -0.3299 -0.6246  1.1187
 9329SOL     OW39619   4.036   1.718   6.360  0.1060  0.0152 -0.7090
 9329SOL    HW139620   4.033   1.622   6.354  1.0098 -0.1546  1.5711
 9329SOL    HW239621   4.060   1.719   6.453 -0.7800 -0.4163 -0.4754
 9330SOL     OW39622   4.150   3.274   3.323  0.1187 -0.6572 -0.2783
 9330SOL    HW139623   4.132   3.193   3.275  1.8154  0.4223 -2.6868
 9330SOL    HW239624   4.163   3.247   3.414  3.3766 -0.3071 -0.6416
 9331SOL     OW39625   0.931   3.996  11.238 -0.3709  0.0100  0.4682
 9331SOL    HW139626   1.012   3.971  11.193 -0.9206 -0.1725 -0.4194
 9331SOL    HW239627   0.880   3.915  11.241 -0.1758 -0.0569  2.4483
 9332SOL     OW39628   0.140   2.291   9.971 -0.2299 -0.2295  0.0894
 9332SOL    HW139629   0.171   2.299   9.880 -1.9020 -0.5621 -0.5117
 9332SOL    HW239630   0.193   2.226  10.016 -0.2085 -0.7700 -0.7185
 9333SOL     OW39631   2.973   0.229   3.874 -0.2082  0.5362  0.2889
 9333SOL    HW139632   2.943   0.155   3.926 -1.5960  1.7032  1.1210
 9333SOL    HW239633   3.067   0.214   3.862 -0.7740 -2.7838 -0.1304
 9334SOL     OW39634   4.477   0.310   6.109  0.2728  0.2739 -0.7786
 9334SOL    HW139635   4.386   0.331   6.130 -0.5911 -2.7549 -1.5283
 9334SOL    HW239636   4.480   0.216   6.092 -0.5072  0.1449 -0.2144
 9335SOL     OW39637   2.719   3.103   4.850 -0.0011 -0.6517  0.4045
 9335SOL    HW139638   2.787   3.075   4.911 -0.4161  1.1052  1.6904
 9335SOL    HW239639   2.695   3.014   4.825 -1.2686  0.0509 -0.8589
 9336SOL     OW39640   1.131   2.238   1.343  0.0183  0.3289 -0.4031
 9336SOL    HW139641   1.077   2.304   1.299 -0.4489 -0.3348 -0.8219
 9336SOL    HW239642   1.218   2.264   1.311  0.0372  1.4038  0.5404
 9337SOL     OW39643   4.122   1.302   4.370  0.0437  0.7655 -0.1565
 9337SOL    HW139644   4.049   1.285   4.430  0.3513  1.0426  0.2930
 9337SOL    HW239645   4.099   1.390   4.340  1.6985  0.9325 -0.9427
 9338SOL     OW39646   3.470   2.702   3.939 -0.3055 -0.2825 -0.2924
 9338SOL    HW139647   3.380   2.698   3.972  0.0267 -1.0357  0.5250
 9338SOL    HW239648   3.486   2.789   3.974  0.3589 -0.3869 -0.3417
 9339SOL     OW39649   3.049   1.733   2.757 -0.6688 -0.2736  0.1163
 9339SOL    HW139650   2.977   1.737   2.693 -0.0116  2.4843 -0.4395
 9339SOL    HW239651   3.113   1.778   2.702 -1.0390  0.0956 -0.0107
 9340SOL     OW39652   4.590   0.333   8.340 -0.4720 -0.4439 -0.1335
 9340SOL    HW139653   4.572   0.242   8.365  3.9514 -1.7162 -1.6081
 9340SOL    HW239654   4.652   0.320   8.268  1.0423  0.2888  1.0269
 9341SOL     OW39655   4.192   0.180   4.682  0.1978  0.1541  0.2431
 9341SOL    HW139656   4.150   0.250   4.633  0.6508 -1.1419 -1.9715
 9341SOL    HW239657   4.161   0.203   4.770  2.7130  0.8633  0.9503
 9342SOL     OW39658   1.564   1.606   8.557 -0.7575 -0.1130  0.3669
 9342SOL    HW139659   1.558   1.609   8.461  1.8965  0.7169  0.2205
 9342SOL    HW239660   1.471   1.598   8.578 -0.7820  1.3927  0.8762
 9343SOL     OW39661   3.128   4.059   9.776  0.4276 -0.6929 -0.0930
 9343SOL    HW139662   3.145   4.094   9.688  1.0282 -2.0212 -0.4976
 9343SOL    HW239663   3.212   4.063   9.820  0.7574 -1.8382 -0.6170
 9344SOL     OW39664   2.792   2.229   5.677  0.0509  0.1997  0.4136
 9344SOL    HW139665   2.834   2.155   5.722  0.7196  1.2463  1.5083
 9344SOL    HW239666   2.851   2.293   5.715  0.5725 -0.2009  0.2889
 9345SOL     OW39667   3.569   3.086   0.913 -0.6712 -0.3389 -0.1518
 9345SOL    HW139668   3.657   3.117   0.893 -1.1016  1.0864  0.1231
 9345SOL    HW239669   3.568   3.059   1.005  3.3973  1.0668  0.3023
 9346SOL     OW39670   0.417   3.010  12.618  0.5606  0.2832 -0.0198
 9346SOL    HW139671   0.393   3.017  12.710 -0.0349 -2.2034  0.0135
 9346SOL    HW239672   0.380   2.924  12.595 -0.0466  0.4024  0.5265
 9347SOL     OW39673   0.577   3.451  12.718  0.1241 -0.0004  0.1174
 9347SOL    HW139674   0.522   3.401  12.658 -1.9890  4.7016 -1.8489
 9347SOL    HW239675   0.664   3.455  12.679  0.4014  1.7422  0.9000
 9348SOL     OW39676   1.733   2.838  11.977 -0.0190 -0.3735  0.1964
 9348SOL    HW139677   1.735   2.778  12.051  0.5319 -0.6712 -0.0655
 9348SOL    HW239678   1.824   2.867  11.972 -0.5836  1.1393 -1.4500
 9349SOL     OW39679   3.685   4.090   9.587  0.1694 -0.0249 -0.3552
 9349SOL    HW139680   3.714   4.115   9.500 -1.8988  0.2461 -0.9665
 9349SOL    HW239681   3.683   4.174   9.632 -0.4681 -0.8347  1.1435
 9350SOL     OW39682   0.376   1.348   3.925 -0.1099 -0.3612  0.2301
 9350SOL    HW139683   0.425   1.289   3.983  1.2207  0.0047 -0.5120
 9350SOL    HW239684   0.409   1.430   3.962  0.6748 -0.5427 -0.0537
 9351SOL     OW39685   0.885   4.355  16.713  0.4949  0.2634 -0.3475
 9351SOL    HW139686   0.904   4.412  16.788  1.3881 -2.0040  1.1449
 9351SOL    HW239687   0.967   4.306  16.706  0.4370 -0.3607  3.0592
 9352SOL     OW39688   4.207   3.249   5.046  0.3635  0.2893  0.5025
 9352SOL    HW139689   4.245   3.325   5.090  1.0077  0.0932  0.2859
 9352SOL    HW239690   4.171   3.294   4.970 -1.0607  0.2089  1.1292
 9353SOL     OW39691   0.264   0.099  12.605  0.3334  0.2861 -0.2363
 9353SOL    HW139692   0.199   0.029  12.602  2.2423 -1.4682 -0.5729
 9353SOL    HW239693   0.202   0.171  12.617 -1.2776 -0.8669 -1.5023
 9354SOL     OW39694   0.476   4.096  10.307 -0.2163 -0.5029  0.6440
 9354SOL    HW139695   0.511   4.126  10.391 -0.6783  0.4095  0.5052
 9354SOL    HW239696   0.416   4.026  10.335  0.2504 -0.7858  0.9336
 9355SOL     OW39697   1.957   0.951   3.202 -0.5844 -0.7795 -0.0892
 9355SOL    HW139698   2.042   0.908   3.188 -0.7692 -1.2265  0.1498
 9355SOL    HW239699   1.979   0.996   3.284  0.3614 -4.3455  1.6222
 9356SOL     OW39700   3.590   4.634   2.573  0.5228  0.0645 -0.2922
 9356SOL    HW139701   3.570   4.727   2.562 -1.1771 -0.1921  0.6734
 9356SOL    HW239702   3.535   4.594   2.505  1.8260 -1.7690 -0.2789
 9357SOL     OW39703   4.487   4.354   5.321 -0.0822 -0.2105 -0.1660
 9357SOL    HW139704   4.398   4.319   5.321  1.1655 -3.3769  0.6079
 9357SOL    HW239705   4.478   4.430   5.380  1.8526 -0.4592  0.4867
 9358SOL     OW39706   3.972   1.182   7.100  0.0185  0.3314  0.5918
 9358SOL    HW139707   3.998   1.091   7.113 -0.5250  0.0380 -0.3348
 9358SOL    HW239708   3.988   1.222   7.185  0.2698  0.9560  0.2524
 9359SOL     OW39709   2.877   1.130   4.178 -0.0536 -0.1788  0.2983
 9359SOL    HW139710   2.809   1.132   4.245 -0.4485  0.2589 -0.1222
 9359SOL    HW239711   2.912   1.219   4.188 -1.3911  0.4284 -0.4761
 9360SOL     OW39712   1.808   1.264   3.333  0.4046  0.0061 -0.5585
 9360SOL    HW139713   1.850   1.348   3.348  1.1040 -0.8092  2.0155
 9360SOL    HW239714   1.873   1.206   3.373  0.8589  0.2982 -0.8807
 9361SOL     OW39715   1.744   2.931  12.718 -0.2235  0.4043  0.1355
 9361SOL    HW139716   1.738   2.836  12.710 -0.3171  0.5144 -1.1421
 9361SOL    HW239717   1.839   2.936  12.717 -0.2546  0.8205 -1.9573
 9362SOL     OW39718   3.375   2.944  10.884 -0.1273 -0.4423 -0.2537
 9362SOL    HW139719   3.335   3.031  10.884  0.1254 -0.3283 -0.4830
 9362SOL    HW239720   3.311   2.881  10.850  1.3671 -2.3361  0.4332
 9363SOL     OW39721   3.245   4.170  12.708 -0.5303  0.2095  0.3337
 9363SOL    HW139722   3.176   4.237  12.710 -0.7109  0.0005  1.3818
 9363SOL    HW239723   3.191   4.100  12.671 -0.1664 -1.2447  2.5824
 9364SOL     OW39724   1.627   2.702   6.537  0.2508  0.0760 -0.0185
 9364SOL    HW139725   1.639   2.693   6.443 -1.1055  1.5291 -0.3246
 9364SOL    HW239726   1.603   2.794   6.530 -2.5965 -0.7179 -0.6014
 9365SOL     OW39727   0.268   1.145   2.185 -0.4416 -0.1407 -0.4236
 9365SOL    HW139728   0.222   1.180   2.109  2.4834 -0.7483 -2.4662
 9365SOL    HW239729   0.353   1.186   2.168 -0.3741  0.7762  2.1220
 9366SOL     OW39730   1.412   0.991  10.213  0.2834  0.0716  0.0836
 9366SOL    HW139731   1.316   0.992  10.210  0.2840 -2.4373 -0.9264
 9366SOL    HW239732   1.429   0.897  10.224 -1.4537 -0.2372  0.1320
 9367SOL     OW39733   1.564   3.132  11.468  0.1148  1.0629  0.1534
 9367SOL    HW139734   1.637   3.181  11.431 -0.1151  2.6801  1.8541
 9367SOL    HW239735   1.599   3.047  11.494 -0.8798  0.7060  0.3565
 9368SOL     OW39736   0.711   0.217   7.620  0.5252  0.7770  0.5630
 9368SOL    HW139737   0.802   0.246   7.622  1.3422 -2.0236  3.1689
 9368SOL    HW239738   0.672   0.291   7.666 -2.9371 -0.0036 -1.1315
 9369SOL     OW39739   0.529   4.168   6.977  0.2482  0.0541 -0.0210
 9369SOL    HW139740   0.549   4.116   6.899 -0.8986 -2.5930  1.4348
 9369SOL    HW239741   0.489   4.243   6.934  0.0107 -0.0334  0.0470
 9370SOL     OW39742   2.530   1.200   7.616 -0.3371  0.0581  0.1540
 9370SOL    HW139743   2.511   1.293   7.627 -1.5579 -0.3442  1.5628
 9370SOL    HW239744   2.498   1.178   7.529  0.4249 -1.5218  0.2616
 9371SOL     OW39745   1.362   0.567   5.669  0.4387 -0.1316 -0.1107
 9371SOL    HW139746   1.405   0.509   5.732  0.3746  0.1609  0.2029
 9371SOL    HW239747   1.314   0.617   5.734  0.7690  2.6725 -2.0275
 9372SOL     OW39748   3.473   0.500   7.590 -0.0160 -0.3116  0.0376
 9372SOL    HW139749   3.432   0.423   7.629 -0.0397 -0.8623 -1.0816
 9372SOL    HW239750   3.549   0.511   7.647  0.4502 -0.9612 -0.4578
 9373SOL     OW39751   0.790   1.588  11.670 -0.3901 -0.3113  0.7535
 9373SOL    HW139752   0.772   1.562  11.580  1.0267 -2.5811  1.1181
 9373SOL    HW239753   0.791   1.683  11.667  0.2420 -0.3092  1.0294
 9374SOL     OW39754   2.468   0.455   2.973 -0.3520  0.5278 -0.2797
 9374SOL    HW139755   2.433   0.499   2.896  0.0095 -0.8566 -1.2441
 9374SOL    HW239756   2.498   0.371   2.937 -1.5034 -0.0584  0.1405
 9375SOL     OW39757   4.544   1.482   8.863  0.0222 -0.0045  0.1637
 9375SOL    HW139758   4.628   1.440   8.847 -0.1254 -0.9127  1.7776
 9375SOL    HW239759   4.541   1.452   8.953 -1.8111  0.1348  0.1542
 9376SOL     OW39760   4.083   3.881  16.073  0.1205  0.2020  0.5180
 9376SOL    HW139761   3.994   3.903  16.044 -0.2503 -0.3567  1.2205
 9376SOL    HW239762   4.107   3.938  16.146 -0.2198  1.7374 -0.5754
 9377SOL     OW39763   3.381   3.112   2.945 -0.0006  0.0933  0.2143
 9377SOL    HW139764   3.451   3.143   2.888 -0.5721  2.0761  0.5821
 9377SOL    HW239765   3.396   3.017   2.949  2.6613  0.4628 -1.4566
 9378SOL     OW39766   0.498   0.772  13.204 -0.0472 -0.4284  0.1140
 9378SOL    HW139767   0.512   0.717  13.281 -0.1128 -0.5887  0.0118
 9378SOL    HW239768   0.507   0.855  13.251  0.6615 -0.0035 -0.7639
 9379SOL     OW39769   0.265   4.185   4.434 -0.7141  0.2997 -0.0865
 9379SOL    HW139770   0.328   4.143   4.375 -0.4506 -1.4478  1.4437
 9379SOL    HW239771   0.309   4.265   4.460  0.3127  0.6339 -2.8023
 9380SOL     OW39772   4.078   0.272   3.277  0.1075 -0.2392  0.0569
 9380SOL    HW139773   3.994   0.228   3.262  1.1117 -1.7212 -1.1362
 9380SOL    HW239774   4.140   0.233   3.216 -0.0888 -0.4598 -0.0022
 9381SOL     OW39775   0.790   0.847   6.806  0.6877  0.2642  0.0621
 9381SOL    HW139776   0.720   0.901   6.842  0.7835 -1.6078  3.1125
 9381SOL    HW239777   0.750   0.768   6.769  1.9813  0.5104 -1.8806
 9382SOL     OW39778   0.670   4.590   1.152  0.0271 -0.2803  0.5340
 9382SOL    HW139779   0.708   4.629   1.073  2.0706 -1.4105  0.9479
 9382SOL    HW239780   0.685   4.654   1.221  2.3233 -0.3298  0.0813
 9383SOL     OW39781   3.235   4.048  14.264 -0.4334 -0.1414 -0.2735
 9383SOL    HW139782   3.298   4.120  14.266 -1.0342  0.4207 -1.9262
 9383SOL    HW239783   3.297   3.976  14.248 -1.2686 -1.0012  0.3380
 9384SOL     OW39784   4.326   1.079   7.386  0.5513  0.1702  0.2809
 9384SOL    HW139785   4.411   1.036   7.387  0.4432 -0.0515 -0.2382
 9384SOL    HW239786   4.278   1.028   7.452  0.6592 -0.7363 -0.3398
 9385SOL     OW39787   0.914   4.381   3.104  0.0343 -0.1974 -0.4811
 9385SOL    HW139788   0.964   4.462   3.100 -2.6555  1.5071  0.4187
 9385SOL    HW239789   0.916   4.356   3.196 -0.7455 -1.0885 -0.7098
 9386SOL     OW39790   2.865   3.962   2.881  0.2991 -0.7662  0.1398
 9386SOL    HW139791   2.897   3.893   2.939  2.6650 -0.5790 -0.9484
 9386SOL    HW239792   2.808   4.017   2.934  1.2718  0.2465  0.1553
 9387SOL     OW39793   3.056   3.896   8.174 -0.1540  0.3884  0.0844
 9387SOL    HW139794   3.022   3.829   8.233  2.2303 -0.3771  0.5939
 9387SOL    HW239795   3.125   3.928   8.233  0.9412  0.4966 -1.2717
 9388SOL     OW39796   1.959   0.945   5.848  0.2289  0.3838  0.6236
 9388SOL    HW139797   1.961   0.894   5.767  1.1894 -1.1422  1.5971
 9388SOL    HW239798   2.020   1.018   5.838 -2.3068  2.3028 -1.0404
 9389SOL     OW39799   2.493   4.474   6.953 -0.4699  0.4373 -0.2565
 9389SOL    HW139800   2.532   4.418   7.020  1.6548  2.5768  0.3020
 9389SOL    HW239801   2.558   4.542   6.940  0.7511 -0.9971 -1.6894
 9390SOL     OW39802   0.068   1.984   7.223  0.0090  0.3669 -0.0719
 9390SOL    HW139803   0.140   2.039   7.256 -0.0986  0.1344  0.5612
 9390SOL    HW239804   0.100   1.895   7.239 -0.1671  0.1632 -0.8563
 9391SOL     OW39805   2.247   3.609   1.617  0.6223 -0.3989  0.1658
 9391SOL    HW139806   2.170   3.552   1.613  0.3513  0.0308 -0.7758
 9391SOL    HW239807   2.229   3.688   1.565 -0.5164 -0.8924 -0.1998
 9392SOL     OW39808   3.508   3.896   4.537 -0.0847 -0.1468 -0.0657
 9392SOL    HW139809   3.596   3.932   4.554  0.0558 -1.6525  2.5228
 9392SOL    HW239810   3.454   3.962   4.494 -0.7350 -0.7516 -0.1713
 9393SOL     OW39811   3.197   2.839   6.870 -0.0219 -0.0551 -0.3280
 9393SOL    HW139812   3.200   2.766   6.808 -2.4660 -0.1865 -0.3159
 9393SOL    HW239813   3.188   2.916   6.814  1.1816  0.2780 -0.0468
 9394SOL     OW39814   3.156   2.632  17.440 -0.2423 -0.4059  0.2633
 9394SOL    HW139815   3.094   2.636  17.367  0.2195  1.4404 -0.0263
 9394SOL    HW239816   3.164   2.722  17.469 -1.9568 -0.0551 -0.3822
 9395SOL     OW39817   0.803   1.548   8.078  0.4712 -0.2202  0.0142
 9395SOL    HW139818   0.742   1.615   8.111  0.1459  0.3629 -1.7633
 9395SOL    HW239819   0.848   1.593   8.006  0.4864 -1.7479 -0.9283
 9396SOL     OW39820   2.531   3.176  16.707 -0.0595 -0.2504  0.3950
 9396SOL    HW139821   2.451   3.156  16.659  0.2205 -0.5157  0.0387
 9396SOL    HW239822   2.490   3.238  16.767 -1.8094 -0.0604 -0.9923
 9397SOL     OW39823   4.391   4.185   2.794 -0.7329 -0.2030  0.0367
 9397SOL    HW139824   4.449   4.151   2.862 -0.2521 -0.7644 -0.6407
 9397SOL    HW239825   4.424   4.275   2.799  0.0328 -0.5159  0.7298
 9398SOL     OW39826   3.400   0.474   6.671  0.1916  0.3215 -0.3406
 9398SOL    HW139827   3.480   0.480   6.724 -1.2033 -0.8507  1.9128
 9398SOL    HW239828   3.418   0.390   6.628  2.5276  0.3341  0.6072
 9399SOL     OW39829   0.404   4.204   3.441 -0.2411  0.5310 -0.1197
 9399SOL    HW139830   0.432   4.292   3.419 -1.0687  0.5692 -1.0158
 9399SOL    HW239831   0.334   4.189   3.377 -0.6582 -0.1879  0.5050
 9400SOL     OW39832   1.311   2.916   4.475 -0.3160  0.1930 -0.0382
 9400SOL    HW139833   1.295   3.009   4.489  0.0849  0.5373 -1.9357
 9400SOL    HW239834   1.280   2.904   4.386 -1.6227 -0.1185  0.4547
 9401SOL     OW39835   4.219   1.980  15.763  0.2079 -0.6321  0.5793
 9401SOL    HW139836   4.176   1.928  15.830  0.5975 -1.5425  0.1169
 9401SOL    HW239837   4.268   2.039  15.821  2.4386  0.1259 -2.0621
 9402SOL     OW39838   0.208   3.971  12.488 -0.3166  0.5975  0.0237
 9402SOL    HW139839   0.227   3.926  12.570  0.4728  1.1642  0.1548
 9402SOL    HW239840   0.273   3.932  12.429  0.4998 -0.2102  1.4393
 9403SOL     OW39841   3.982   0.841   7.893 -0.0751  0.0961 -0.5184
 9403SOL    HW139842   4.071   0.818   7.921 -0.5332  0.3088  1.1062
 9403SOL    HW239843   3.980   0.937   7.890 -0.8031  0.2107  3.5048
 9404SOL     OW39844   2.892   0.323  15.898  0.1850  0.3974  0.6441
 9404SOL    HW139845   2.932   0.264  15.834 -1.9862 -0.5330  0.1330
 9404SOL    HW239846   2.942   0.295  15.975 -0.6506 -0.5897  0.8415
 9405SOL     OW39847   4.203   0.664   9.402  0.1194 -0.4200  0.7036
 9405SOL    HW139848   4.194   0.571   9.423 -0.5057 -0.8551 -1.4190
 9405SOL    HW239849   4.289   0.674   9.362  0.0914 -1.2413  0.4315
 9406SOL     OW39850   3.885   2.220   1.050 -0.6440  0.0162 -0.1516
 9406SOL    HW139851   3.810   2.275   1.070 -1.0008 -0.1879 -0.9447
 9406SOL    HW239852   3.856   2.184   0.966 -3.0609  0.3815  0.5341
 9407SOL     OW39853   0.989   2.441  17.554  0.1019 -0.0674 -0.2602
 9407SOL    HW139854   1.042   2.501  17.501  1.7770 -0.1414  1.3231
 9407SOL    HW239855   1.005   2.354  17.518 -0.2209 -0.5201  0.7001
 9408SOL     OW39856   0.592   4.346   9.052  0.2079 -0.1228  0.2535
 9408SOL    HW139857   0.656   4.318   9.118 -0.5832  0.2250  1.1748
 9408SOL    HW239858   0.586   4.267   8.999  2.6473 -0.1239 -0.0125
 9409SOL     OW39859   3.379   1.363   8.712 -0.6237  0.5695 -0.0007
 9409SOL    HW139860   3.352   1.432   8.652  0.8831  0.6578 -0.5856
 9409SOL    HW239861   3.461   1.397   8.747 -1.7866  0.4537  2.8538
 9410SOL     OW39862   1.782   3.423   7.039  0.2689 -0.1648 -0.2779
 9410SOL    HW139863   1.743   3.337   7.024 -0.0819 -0.3134  1.4887
 9410SOL    HW239864   1.715   3.468   7.092  1.1691  1.0264 -0.1528
 9411SOL     OW39865   3.064   1.472   8.805 -0.8712 -0.1011 -0.9761
 9411SOL    HW139866   3.127   1.541   8.828  0.7883 -1.8335 -0.3323
 9411SOL    HW239867   3.070   1.482   8.710 -1.3264 -2.8499 -1.2778
 9412SOL     OW39868   2.799   3.619  13.998 -0.4978  0.0392 -0.2226
 9412SOL    HW139869   2.846   3.619  13.914  1.4033 -0.0038  0.8383
 9412SOL    HW239870   2.750   3.702  13.995 -0.5668  0.0036 -0.0694
 9413SOL     OW39871   4.287   0.540   6.874 -0.1054 -0.2221 -0.7902
 9413SOL    HW139872   4.281   0.444   6.877 -0.2436 -0.2886 -2.7717
 9413SOL    HW239873   4.271   0.565   6.965 -0.9740 -3.1547 -0.1194
 9414SOL     OW39874   2.686   2.028   4.815 -0.1436  0.3747 -0.1328
 9414SOL    HW139875   2.772   2.068   4.829 -0.6052  0.7535  1.6330
 9414SOL    HW239876   2.673   1.978   4.895  1.4094  1.3743  0.7580
 9415SOL     OW39877   0.986   3.978   7.658 -0.3949  0.3279  0.2912
 9415SOL    HW139878   0.926   3.970   7.583  0.7579  0.4248 -0.6365
 9415SOL    HW239879   1.067   3.999   7.611  0.0136  1.5865  1.5672
 9416SOL     OW39880   0.806   0.830  17.102 -0.1184  0.1707  0.2933
 9416SOL    HW139881   0.832   0.918  17.129  0.1438  0.6799 -1.6004
 9416SOL    HW239882   0.725   0.844  17.053 -0.0283 -1.1082 -0.2332
 9417SOL     OW39883   3.265   1.312   3.360 -0.1443  0.5957 -0.1067
 9417SOL    HW139884   3.175   1.280   3.353 -0.0426  0.7498 -2.2475
 9417SOL    HW239885   3.289   1.260   3.437  0.8512  0.8739 -0.2355
 9418SOL     OW39886   4.521   0.274   9.340  0.6365 -0.2379  0.1378
 9418SOL    HW139887   4.569   0.201   9.299 -0.5834  0.5381 -2.6545
 9418SOL    HW239888   4.468   0.238   9.410 -0.9016 -0.0720 -0.9436
 9419SOL     OW39889   1.334   4.597   2.041 -0.3197  0.2689 -0.1491
 9419SOL    HW139890   1.308   4.688   2.029 -0.2904  0.3483  0.3683
 9419SOL    HW239891   1.307   4.555   1.960 -0.3651  1.2578 -0.6493
 9420SOL     OW39892   4.224   3.534   3.265 -0.2077  0.1270  0.4170
 9420SOL    HW139893   4.175   3.459   3.299  0.7903 -0.7070  0.0086
 9420SOL    HW239894   4.225   3.509   3.173 -1.4145  1.4253  0.0460
 9421SOL     OW39895   2.942   0.753  15.315  0.2125 -0.0773 -0.1897
 9421SOL    HW139896   2.923   0.847  15.312  1.8474  0.2582  0.2547
 9421SOL    HW239897   2.891   0.725  15.239  0.1698  0.0717 -0.2174
 9422SOL     OW39898   1.365   0.730   4.064 -0.5334  0.5788 -0.3988
 9422SOL    HW139899   1.404   0.766   3.984 -0.3602  0.5055 -0.3472
 9422SOL    HW239900   1.332   0.808   4.110  1.4398  2.0395 -1.4508
 9423SOL     OW39901   1.590   2.129   6.886  0.7233 -0.2704 -0.3641
 9423SOL    HW139902   1.676   2.088   6.894  0.6493 -0.4974 -0.7210
 9423SOL    HW239903   1.558   2.065   6.822  0.8723  0.0243 -0.7264
 9424SOL     OW39904   2.083   3.674   3.671  0.3724 -0.5460 -0.2405
 9424SOL    HW139905   2.142   3.637   3.605  2.1055  1.4836  0.1359
 9424SOL    HW239906   2.084   3.769   3.660 -0.5015 -0.6269 -1.0106
 9425SOL     OW39907   0.892   0.765  10.427 -0.0399 -0.4496  0.2167
 9425SOL    HW139908   0.848   0.744  10.345 -1.0235 -1.2936  0.9616
 9425SOL    HW239909   0.983   0.740  10.411  0.4604  1.1342  0.5706
 9426SOL     OW39910   0.481   0.784   5.924 -0.6627  0.2575 -0.7626
 9426SOL    HW139911   0.412   0.777   5.858 -1.2300 -1.0734 -0.0356
 9426SOL    HW239912   0.438   0.837   5.991  1.6969  0.2436  0.7557
 9427SOL     OW39913   0.814   2.461   1.314  0.1852  0.3570 -0.1969
 9427SOL    HW139914   0.871   2.433   1.243  2.2785 -0.4931  1.8201
 9427SOL    HW239915   0.767   2.539   1.283  0.3015  0.5532  0.1249
 9428SOL     OW39916   2.796   3.698  15.999  0.2034  0.5322  0.0543
 9428SOL    HW139917   2.741   3.672  15.924 -0.7153  2.1730  0.1658
 9428SOL    HW239918   2.745   3.773  16.028 -0.4840 -0.7770  2.1888
 9429SOL     OW39919   1.710   2.947  15.314  0.3372 -0.4876 -0.0928
 9429SOL    HW139920   1.637   2.892  15.340 -0.8446  0.9809 -0.3138
 9429SOL    HW239921   1.787   2.890  15.318  0.0399 -0.9993 -1.5492
 9430SOL     OW39922   1.421   3.797  16.813  0.2961  0.2902  0.5543
 9430SOL    HW139923   1.428   3.724  16.751  0.0900  0.9737 -0.2719
 9430SOL    HW239924   1.442   3.868  16.753  1.3002 -0.9745 -0.6105
 9431SOL     OW39925   3.705   1.103   6.983  0.1573 -0.4690  0.0908
 9431SOL    HW139926   3.639   1.134   7.045 -0.1402 -0.1317 -0.3844
 9431SOL    HW239927   3.786   1.129   7.025  0.2360 -1.6783  0.6778
 9432SOL     OW39928   4.324   2.833   4.143 -0.3141  0.2491  0.5215
 9432SOL    HW139929   4.384   2.907   4.140 -1.6206  1.3353  1.3036
 9432SOL    HW239930   4.313   2.833   4.048  1.0921 -0.9348  0.3549
 9433SOL     OW39931   1.499   2.398   2.613 -0.4440 -0.4229  0.1463
 9433SOL    HW139932   1.501   2.345   2.692  0.1656 -2.2084 -1.0823
 9433SOL    HW239933   1.434   2.462   2.642 -1.0519  0.2056 -2.5658
 9434SOL     OW39934   3.655   1.834   1.917  0.1503 -0.1692 -0.4737
 9434SOL    HW139935   3.694   1.912   1.877 -0.2120  0.4999  0.4852
 9434SOL    HW239936   3.586   1.813   1.854 -1.3295 -0.4727  1.2340
 9435SOL     OW39937   1.195   0.849  11.183 -0.5878 -0.2077 -0.3510
 9435SOL    HW139938   1.126   0.785  11.202  0.8027 -1.7539 -0.6023
 9435SOL    HW239939   1.139   0.926  11.174  0.3000  0.7160  1.9903
 9436SOL     OW39940   2.755   4.556   1.733  0.0267  0.0438 -0.5882
 9436SOL    HW139941   2.811   4.533   1.807  0.3548 -1.1860 -1.2265
 9436SOL    HW239942   2.816   4.619   1.693  1.2358 -0.6572  0.1438
 9437SOL     OW39943   4.250   3.098   8.929  0.1480 -0.8812 -0.6793
 9437SOL    HW139944   4.156   3.091   8.944  0.5622 -1.5113  1.6488
 9437SOL    HW239945   4.282   3.090   9.019 -1.2578  0.1788 -0.1058
 9438SOL     OW39946   3.857   2.124   7.125 -0.4893  0.1730  0.8772
 9438SOL    HW139947   3.832   2.038   7.159  1.6179 -1.0347 -0.6887
 9438SOL    HW239948   3.949   2.134   7.147 -0.2210  0.0390 -0.1585
 9439SOL     OW39949   1.633   2.946   8.444 -0.8301  0.4311  0.1414
 9439SOL    HW139950   1.717   2.980   8.413  0.1394 -2.6010 -0.5923
 9439SOL    HW239951   1.568   2.999   8.397  0.4418  1.7649 -0.0884
 9440SOL     OW39952   1.742   3.738   4.912 -0.5184  0.1740 -0.3114
 9440SOL    HW139953   1.741   3.832   4.925  2.2347  0.2608 -0.6117
 9440SOL    HW239954   1.836   3.725   4.895  0.0578 -0.6295  3.2958
 9441SOL     OW39955   1.830   0.207   4.966  0.3171 -0.2415 -0.5071
 9441SOL    HW139956   1.847   0.197   4.872  3.8498 -1.7108  0.3012
 9441SOL    HW239957   1.745   0.164   4.976  0.0128 -0.1716 -2.7880
 9442SOL     OW39958   2.620   2.946   6.230  0.0579 -0.5485 -0.2759
 9442SOL    HW139959   2.562   2.888   6.182 -0.3706  0.1709 -0.6252
 9442SOL    HW239960   2.696   2.889   6.220 -1.0760 -1.9155 -0.9630
 9443SOL     OW39961   2.851   2.639   3.735 -0.0592 -0.6702  0.2855
 9443SOL    HW139962   2.821   2.606   3.820 -0.8813  1.0952  0.6745
 9443SOL    HW239963   2.917   2.573   3.715 -0.5333 -0.6491 -1.3608
 9444SOL     OW39964   1.579   2.231  17.693  0.0001 -0.0892  0.1152
 9444SOL    HW139965   1.612   2.285   0.002  1.6839 -0.8864 -0.0539
 9444SOL    HW239966   1.643   2.269  17.632 -0.0608  0.4185  0.3675
 9445SOL     OW39967   3.793   0.972   2.042 -0.2636  0.0407  0.1965
 9445SOL    HW139968   3.882   0.999   2.020  0.0750 -0.8664  0.4601
 9445SOL    HW239969   3.775   1.048   2.097 -0.1200  1.1181 -1.2422
 9446SOL     OW39970   1.839   0.933   4.463 -0.2788 -0.0581 -0.4574
 9446SOL    HW139971   1.920   0.888   4.487 -0.0826  1.2281  1.3312
 9446SOL    HW239972   1.873   1.007   4.413 -3.0814  1.9386  0.5952
 9447SOL     OW39973   2.684   4.674   6.915 -0.2604  0.0754 -0.1259
 9447SOL    HW139974   2.707   0.003   6.854  0.7195 -0.5442 -0.4795
 9447SOL    HW239975   2.770   4.631   6.920 -0.6041 -0.7009 -0.9366
 9448SOL     OW39976   3.271   3.329   3.735  0.6235  0.1438 -0.1892
 9448SOL    HW139977   3.300   3.327   3.826 -0.3391  0.2126  0.1217
 9448SOL    HW239978   3.269   3.234   3.723  0.9421  0.1305 -0.1268
 9449SOL     OW39979   2.556   3.919   2.175  0.4086 -0.2073 -0.4178
 9449SOL    HW139980   2.473   3.889   2.137 -0.6510  1.4040  0.5757
 9449SOL    HW239981   2.565   4.010   2.146  0.5150  0.1116  0.5982
 9450SOL     OW39982   4.684   0.081   8.966 -0.1552 -0.0414 -0.4246
 9450SOL    HW139983   4.600   0.041   8.946  0.1151 -0.0854 -1.5173
 9450SOL    HW239984   4.738   0.014   9.007  0.4897 -0.2530 -1.6183
 9451SOL     OW39985   2.430   1.979   9.344  0.3448 -0.2687  0.2159
 9451SOL    HW139986   2.407   2.006   9.433  1.0908 -0.7164  0.5526
 9451SOL    HW239987   2.505   2.034   9.321  0.0965  0.0608  0.1943
 9452SOL     OW39988   3.872   3.812   8.103  0.0100  0.3211 -0.0629
 9452SOL    HW139989   3.848   3.904   8.093 -0.8513  0.1362  0.3272
 9452SOL    HW239990   3.921   3.795   8.023 -1.6053 -0.9980 -0.7478
 9453SOL     OW39991   3.149   0.737  11.618  0.2273 -0.2786 -0.2424
 9453SOL    HW139992   3.215   0.804  11.599 -0.5586  0.1650 -1.3679
 9453SOL    HW239993   3.067   0.786  11.629  1.3572  0.9797  2.6496
 9454SOL     OW39994   4.266   0.216   7.814 -0.6577  0.0123 -0.0750
 9454SOL    HW139995   4.315   0.154   7.759  0.6818 -0.0658  1.2004
 9454SOL    HW239996   4.189   0.165   7.839 -1.2242  0.4330 -0.9629
 9455SOL     OW39997   1.391   0.745  11.333 -0.0685  0.6622 -0.6279
 9455SOL    HW139998   1.350   0.679  11.389  0.9329  0.7083  0.1454
 9455SOL    HW239999   1.322   0.750  11.267  1.6718  1.0352 -2.3989
 9456SOL     OW40000   0.087   3.211   5.755  0.2985  0.2366  0.1014
 9456SOL    HW140001   0.015   3.259   5.715  0.5936  0.4993 -0.1121
 9456SOL    HW240002   0.038   3.135   5.786 -2.0929  1.2471 -1.1668
 9457SOL     OW40003   4.575   4.433   0.738 -0.2119  0.1821  0.4363
 9457SOL    HW140004   4.622   4.517   0.734 -1.0997  0.8671  3.7902
 9457SOL    HW240005   4.637   4.386   0.683  1.5238  2.1185  0.7232
 9458SOL     OW40006   4.192   1.003   3.534 -0.3146 -0.0978 -1.5506
 9458SOL    HW140007   4.224   0.972   3.449  0.5270 -0.3829 -1.1236
 9458SOL    HW240008   4.156   0.928   3.581  2.4464 -0.5664 -0.2340
 9459SOL     OW40009   0.732   3.985  11.540 -0.1794  0.5063 -0.3474
 9459SOL    HW140010   0.796   4.052  11.516  0.1818 -0.2799 -1.5910
 9459SOL    HW240011   0.755   3.974  11.632  2.9210 -2.2103 -1.4553
 9460SOL     OW40012   4.367   2.709   9.441 -0.3116  0.1001 -0.1890
 9460SOL    HW140013   4.427   2.740   9.508  0.0624 -1.2753  0.0992
 9460SOL    HW240014   4.284   2.738   9.481 -0.4169 -0.7469  0.2050
 9461SOL     OW40015   2.343   2.273  12.824 -0.3110 -0.2217 -0.2245
 9461SOL    HW140016   2.359   2.320  12.905  0.6221  1.5102 -1.4101
 9461SOL    HW240017   2.293   2.201  12.863  0.7875 -0.3797  0.8919
 9462SOL     OW40018   1.538   2.387   8.796  0.2202 -0.6935 -0.3128
 9462SOL    HW140019   1.527   2.449   8.724 -0.7476  0.7955  1.1255
 9462SOL    HW240020   1.597   2.322   8.759  1.9553 -0.5795  2.2199
 9463SOL     OW40021   1.111   1.648   8.070  0.4869  0.0550  0.5197
 9463SOL    HW140022   1.036   1.666   8.013  1.3356  0.5184 -0.4428
 9463SOL    HW240023   1.161   1.594   8.008  1.1336  1.6301 -0.3215
 9464SOL     OW40024   3.503   0.562  13.129 -0.0379 -0.1072  0.2760
 9464SOL    HW140025   3.503   0.652  13.097 -0.8441 -0.0525  0.4310
 9464SOL    HW240026   3.437   0.530  13.067 -0.4057  0.2163  0.5025
 9465SOL     OW40027   2.802   4.612   9.568  0.4561 -0.2399  0.6372
 9465SOL    HW140028   2.746   4.680   9.532  1.2791  0.0958 -0.0165
 9465SOL    HW240029   2.783   4.615   9.662  0.3589 -2.2093  0.6891
 9466SOL     OW40030   0.224   3.007   2.329 -0.4715 -0.3749  0.4559
 9466SOL    HW140031   0.175   2.958   2.263 -1.7609  0.5361  0.7198
 9466SOL    HW240032   0.145   3.030   2.378 -0.1448 -0.3835  0.9776
 9467SOL     OW40033   4.631   0.690   2.702 -0.0430  0.1556  0.4422
 9467SOL    HW140034   4.586   0.742   2.635  0.7438  0.3111  0.0318
 9467SOL    HW240035   4.724   0.704   2.684  0.2723  1.8397  3.3720
 9468SOL     OW40036   0.778   2.490   8.507  0.1380  0.3338  0.3832
 9468SOL    HW140037   0.777   2.583   8.529 -1.9106  0.1579  1.0130
 9468SOL    HW240038   0.692   2.473   8.469 -1.3317  2.1833  2.9026
 9469SOL     OW40039   2.059   1.159   2.822 -0.5234  0.1839 -0.7283
 9469SOL    HW140040   2.034   1.251   2.827 -4.2493 -0.9446  1.0854
 9469SOL    HW240041   2.102   1.156   2.907 -1.0084  0.3270 -0.4830
 9470SOL     OW40042   4.021   1.821   8.925 -0.2000 -0.2055  0.1868
 9470SOL    HW140043   4.068   1.844   8.845 -0.1826  0.2880  0.3366
 9470SOL    HW240044   4.075   1.774   8.989 -0.0302  1.5528  1.3366
 9471SOL     OW40045   0.813   4.257   6.821  0.0955  0.3715  0.5005
 9471SOL    HW140046   0.853   4.205   6.751  0.6522  1.5113 -0.0253
 9471SOL    HW240047   0.747   4.197   6.856  1.3188 -0.8151  0.7389
 9472SOL     OW40048   0.189   0.287   5.643  0.3222  0.1168 -0.3409
 9472SOL    HW140049   0.178   0.366   5.696 -0.7233 -0.9407  0.9954
 9472SOL    HW240050   0.166   0.222   5.708 -0.7880 -0.7081 -1.5506
 9473SOL     OW40051   0.306   3.633   5.224  0.2971 -0.4408 -0.1294
 9473SOL    HW140052   0.393   3.669   5.242  0.6225 -1.0218 -0.5366
 9473SOL    HW240053   0.300   3.599   5.313 -0.5187 -0.0987 -0.0548
 9474SOL     OW40054   2.410   0.814   2.284  0.0125 -0.1402  0.0890
 9474SOL    HW140055   2.363   0.874   2.342 -1.4168 -1.6646  0.5150
 9474SOL    HW240056   2.465   0.874   2.234  0.8700 -1.0108 -0.0139
 9475SOL     OW40057   4.368   2.941   6.205  0.1208  0.9182 -0.1517
 9475SOL    HW140058   4.353   2.852   6.239 -0.4958  1.5129  1.1511
 9475SOL    HW240059   4.288   2.989   6.226 -0.6738 -0.2284 -0.5380
 9476SOL     OW40060   4.724   4.028   6.368 -0.1120  0.0154 -0.1298
 9476SOL    HW140061   4.722   4.083   6.447 -1.2975  0.0143 -0.1504
 9476SOL    HW240062   4.633   4.027   6.338  0.8759  1.2011 -3.1661
 9477SOL     OW40063   1.428   3.245   4.509  0.5649 -0.1064 -0.3426
 9477SOL    HW140064   1.352   3.213   4.557  0.5644  0.0721 -0.2242
 9477SOL    HW240065   1.397   3.229   4.420  1.4693 -1.4675 -0.4075
 9478SOL     OW40066   4.251   1.737   2.339 -0.4405  0.5861 -0.3408
 9478SOL    HW140067   4.311   1.694   2.400 -0.2191 -1.4593 -2.0177
 9478SOL    HW240068   4.215   1.799   2.402  1.4900  1.4551 -0.0818
 9479SOL     OW40069   1.124   1.543  14.895  0.1792  0.0045 -0.1687
 9479SOL    HW140070   1.160   1.605  14.959 -0.3674  0.5220 -0.3697
 9479SOL    HW240071   1.062   1.489  14.943  0.4139  1.0753  1.3435
 9480SOL     OW40072   4.430   0.844   8.758  0.1438  0.3896  0.0374
 9480SOL    HW140073   4.451   0.774   8.696  0.8010  1.6420 -1.1466
 9480SOL    HW240074   4.495   0.834   8.828  1.5668  0.6594 -1.2613
 9481SOL     OW40075   1.037   1.120  11.652 -0.4829  0.0919 -0.5677
 9481SOL    HW140076   1.094   1.172  11.595  0.9441 -1.4154 -0.5057
 9481SOL    HW240077   0.995   1.067  11.585 -0.9321 -0.3549  0.0752
 9482SOL     OW40078   2.037   3.432   7.499  0.4164  0.4262 -0.4425
 9482SOL    HW140079   2.012   3.362   7.438 -1.0412 -0.1492  0.8154
 9482SOL    HW240080   2.129   3.421   7.473  0.5710  1.8993 -0.5363
 9483SOL     OW40081   1.772   3.451   8.992  0.0528  0.1774  0.4095
 9483SOL    HW140082   1.838   3.381   8.997 -1.7315 -1.3513  2.2103
 9483SOL    HW240083   1.706   3.413   9.049 -0.1445 -0.9562 -0.5620
 9484SOL     OW40084   3.889   3.475   0.413  0.1272 -1.0005 -0.1005
 9484SOL    HW140085   3.888   3.458   0.318 -0.4970 -2.2410  0.1157
 9484SOL    HW240086   3.794   3.481   0.421  0.0775 -1.7720 -0.0735
 9485SOL     OW40087   3.204   1.924   8.777 -0.7719 -0.6696 -0.0447
 9485SOL    HW140088   3.222   1.907   8.869  0.5676 -1.3882 -0.4315
 9485SOL    HW240089   3.269   1.990   8.753 -2.0118 -0.9635 -4.1863
 9486SOL     OW40090   3.909   3.695   7.027  0.4830 -0.9083  0.6336
 9486SOL    HW140091   3.860   3.616   7.002  0.8894 -0.1958 -2.4280
 9486SOL    HW240092   3.936   3.729   6.942  1.2132 -1.9691  0.4351
 9487SOL     OW40093   4.696   0.268   2.972 -0.7207  0.5054  0.1970
 9487SOL    HW140094   4.626   0.219   2.930 -0.1280 -0.2236  0.0605
 9487SOL    HW240095   4.659   0.336   3.028 -1.2380 -0.8031  1.4296
 9488SOL     OW40096   0.399   3.839  14.923  0.4785  0.1072  0.5682
 9488SOL    HW140097   0.350   3.861  15.002 -2.0051  0.1393 -0.9724
 9488SOL    HW240098   0.464   3.779  14.959  0.7835  0.0313 -0.0986
 9489SOL     OW40099   2.239   1.733  11.719  0.3594  0.0211 -0.3419
 9489SOL    HW140100   2.320   1.769  11.685  0.7828  1.1381  1.8441
 9489SOL    HW240101   2.182   1.808  11.703  0.4634  0.0173 -0.7247
 9490SOL     OW40102   1.703   1.476  15.677 -0.4066  0.3958  0.5410
 9490SOL    HW140103   1.767   1.492  15.608 -1.1883 -0.2135 -0.3312
 9490SOL    HW240104   1.758   1.410  15.719 -1.2475 -0.8098 -0.2636
 9491SOL     OW40105   1.941   0.602   3.273 -0.2222  0.3024 -0.1835
 9491SOL    HW140106   1.980   0.635   3.354  1.8596 -1.8693 -0.3144
 9491SOL    HW240107   2.021   0.587   3.224  0.0432  2.2908 -0.3497
 9492SOL     OW40108   2.225   4.413   8.198  0.1286  0.0363  0.1549
 9492SOL    HW140109   2.156   4.466   8.239  1.1520  1.5065 -0.0065
 9492SOL    HW240110   2.247   4.468   8.123 -1.3562  1.3736  0.6862
 9493SOL     OW40111   1.833   1.967   1.978  0.6168  0.3577  0.2412
 9493SOL    HW140112   1.828   1.874   1.957  1.5129  0.2085  0.6820
 9493SOL    HW240113   1.745   1.985   2.011  0.2187  0.2592 -0.7554
 9494SOL     OW40114   1.831   1.958  15.432 -0.1589  0.4269 -0.0153
 9494SOL    HW140115   1.823   2.027  15.498 -1.5117 -0.1111  0.3879
 9494SOL    HW240116   1.755   1.978  15.377  0.1527  0.8559 -0.2875
 9495SOL     OW40117   0.443   2.193  14.225  0.0185  0.4694  0.3910
 9495SOL    HW140118   0.535   2.178  14.247  0.6729  2.1430 -1.2255
 9495SOL    HW240119   0.409   2.231  14.305 -3.3245 -1.2171 -0.2457
 9496SOL     OW40120   0.911   1.537   2.773  0.3137 -0.0045  0.3160
 9496SOL    HW140121   0.961   1.567   2.697 -0.9185 -0.4106 -0.6597
 9496SOL    HW240122   0.926   1.611   2.832 -1.5101  0.5418  0.0948
 9497SOL     OW40123   3.973   4.039   5.630  0.0869 -0.8929 -0.4243
 9497SOL    HW140124   3.998   4.066   5.542  1.2200  0.5312  0.3450
 9497SOL    HW240125   3.877   4.037   5.627  0.0234  1.3660  0.4401
 9498SOL     OW40126   0.383   3.297   7.053 -0.0909  0.7137  0.0064
 9498SOL    HW140127   0.405   3.205   7.068  1.1564  1.0388  0.1381
 9498SOL    HW240128   0.415   3.296   6.963 -2.4689  0.0521 -0.8260
 9499SOL     OW40129   0.476   1.708   5.013 -0.2424  0.2274  0.8036
 9499SOL    HW140130   0.382   1.723   5.018 -0.2464  0.6512 -0.7489
 9499SOL    HW240131   0.477   1.624   4.967  3.6253  0.8002 -0.1467
 9500SOL     OW40132   4.485   0.505   4.891 -0.3023  0.2563  0.4582
 9500SOL    HW140133   4.446   0.472   4.810 -1.0407  2.6664 -0.1643
 9500SOL    HW240134   4.406   0.543   4.930 -0.3719 -0.1338  0.6945
 9501SOL     OW40135   0.741   1.018  10.851 -0.3236 -0.4822 -0.2357
 9501SOL    HW140136   0.800   1.002  10.778 -2.1191  1.8202 -2.1916
 9501SOL    HW240137   0.682   1.077  10.803 -0.8727  1.4221  2.7691
 9502SOL     OW40138   0.203   2.059   7.488  0.3250 -0.4471  0.4245
 9502SOL    HW140139   0.295   2.064   7.515  0.2312  1.7242  0.4187
 9502SOL    HW240140   0.161   2.012   7.560 -0.8469  0.0159  0.0464
 9503SOL     OW40141   0.500   1.827   2.483 -0.1959  0.4871  0.2754
 9503SOL    HW140142   0.593   1.818   2.503  0.0601 -0.3553 -1.3344
 9503SOL    HW240143   0.492   1.919   2.457 -1.2921 -0.5506 -3.0795
 9504SOL     OW40144   0.817   3.851   9.501 -0.1959  0.3050  0.1990
 9504SOL    HW140145   0.754   3.902   9.553 -1.6670 -0.1141 -1.1411
 9504SOL    HW240146   0.880   3.825   9.567 -0.0610 -0.5393 -0.2640
 9505SOL     OW40147   3.837   4.596  14.006 -0.4978  0.2170  0.0439
 9505SOL    HW140148   3.748   4.582  13.974 -0.5091 -0.3564  0.3156
 9505SOL    HW240149   3.863   4.516  14.052  1.1533  1.1484  0.7069
 9506SOL     OW40150   3.954   1.924  16.173 -0.1816  0.1865  0.0002
 9506SOL    HW140151   3.993   2.010  16.189 -1.4231  1.0297 -1.4302
 9506SOL    HW240152   3.873   1.915  16.222  1.1339 -0.0153  2.1317
 9507SOL     OW40153   3.956   1.774  12.924 -0.0114  0.2348 -0.1684
 9507SOL    HW140154   4.021   1.821  12.871 -0.0730  1.9895  1.3301
 9507SOL    HW240155   3.899   1.847  12.949  1.1883  0.8829  0.6886
 9508SOL     OW40156   3.142   0.306  16.853 -0.5029  0.4546 -0.6950
 9508SOL    HW140157   3.056   0.306  16.810 -1.8246  1.1530  1.9501
 9508SOL    HW240158   3.191   0.288  16.773 -1.2866  0.3384 -1.1535
 9509SOL     OW40159   0.020   2.630   5.875  0.2887 -0.7726  0.7352
 9509SOL    HW140160   4.668   2.621   5.858  0.0052  1.4593  1.0807
 9509SOL    HW240161   0.038   2.546   5.917 -0.7819 -1.8055 -0.8681
 9510SOL     OW40162   1.084   0.793   7.070 -0.2594  0.4925 -0.6253
 9510SOL    HW140163   1.166   0.744   7.075 -0.2179  0.4525 -1.9356
 9510SOL    HW240164   1.016   0.728   7.090 -1.4647  2.3897  1.3920
 9511SOL     OW40165   3.010   1.526   3.472 -0.2354  0.3570 -0.2775
 9511SOL    HW140166   2.988   1.608   3.517  0.9379 -0.4891  1.8329
 9511SOL    HW240167   2.953   1.462   3.514  0.3546 -0.3446 -0.5402
 9512SOL     OW40168   0.032   0.558   1.186  0.0694  0.1375  0.7018
 9512SOL    HW140169   4.684   0.585   1.166 -0.5330 -3.0497 -0.9228
 9512SOL    HW240170   0.076   0.635   1.222 -0.7615 -0.0272  2.0460
 9513SOL     OW40171   2.058   2.217   5.774  0.4627 -0.5993  0.0912
 9513SOL    HW140172   2.036   2.141   5.721  0.3787  0.3451 -1.2388
 9513SOL    HW240173   2.131   2.267   5.737 -0.5522 -0.0037 -1.1230
 9514SOL     OW40174   3.402   2.897   9.337 -0.0483 -0.5738 -0.1737
 9514SOL    HW140175   3.401   2.914   9.431 -1.5747  0.5815 -0.4054
 9514SOL    HW240176   3.369   2.982   9.310 -0.4014 -1.1522 -1.5779
 9515SOL     OW40177   2.144   0.826  15.132  0.6850  0.4168  0.5395
 9515SOL    HW140178   2.185   0.877  15.062  2.0349 -1.9219 -0.3803
 9515SOL    HW240179   2.059   0.867  15.150  0.6600 -0.1859  1.8154
 9516SOL     OW40180   0.692   0.148   5.793  0.0426 -0.1389  0.2704
 9516SOL    HW140181   0.689   0.243   5.792  2.1958 -0.0833  1.9466
 9516SOL    HW240182   0.696   0.135   5.698 -0.0630  2.0704 -0.0297
 9517SOL     OW40183   0.082   3.592   3.004  0.0765 -0.2800  0.6752
 9517SOL    HW140184   0.056   3.634   2.923  1.5872  0.3670  0.5331
 9517SOL    HW240185   0.035   3.645   3.069 -1.0412  0.7726 -1.0080
 9518SOL     OW40186   2.353   4.611   3.063 -0.4006 -0.3400  0.5076
 9518SOL    HW140187   2.442   4.615   3.028 -0.7241 -0.4399 -0.3467
 9518SOL    HW240188   2.329   4.704   3.060 -1.0134 -0.5363 -1.1127
 9519SOL     OW40189   3.278   4.124   3.897 -0.3857 -0.5322  0.1017
 9519SOL    HW140190   3.206   4.158   3.845  1.1219  1.2159 -0.8375
 9519SOL    HW240191   3.343   4.119   3.827 -1.0584 -0.2249 -0.5523
 9520SOL     OW40192   1.270   1.518   7.542  0.1415  0.2561 -0.0932
 9520SOL    HW140193   1.262   1.432   7.583  1.2364 -0.3757 -1.1699
 9520SOL    HW240194   1.182   1.551   7.558 -0.3187 -0.0727 -1.8794
 9521SOL     OW40195   4.301   3.181   8.357 -0.0249  0.4810  0.1920
 9521SOL    HW140196   4.222   3.236   8.358 -0.4893 -0.1045 -3.2523
 9521SOL    HW240197   4.279   3.115   8.422 -0.9256 -0.0566 -0.6508
 9522SOL     OW40198   4.613   2.626   9.901  0.1731 -0.3410 -0.9256
 9522SOL    HW140199   4.533   2.641   9.950  0.9131  2.1996 -0.5105
 9522SOL    HW240200   4.579   2.577   9.826  0.4091 -0.2599 -1.0845
 9523SOL     OW40201   3.684   0.267   7.472 -0.1760  0.4712  0.1101
 9523SOL    HW140202   3.651   0.203   7.409 -0.0256  0.8068 -0.3112
 9523SOL    HW240203   3.609   0.280   7.530  0.2974 -0.1698  0.8635
 9524SOL     OW40204   0.634   4.350  17.516  0.1212  0.0811 -0.5150
 9524SOL    HW140205   0.568   4.384  17.457 -0.4681 -1.2369 -0.6031
 9524SOL    HW240206   0.715   4.380  17.475  0.8127 -1.8348 -0.5666
 9525SOL     OW40207   4.259   1.954  16.020  0.8453 -0.3916  0.2101
 9525SOL    HW140208   4.248   2.039  16.063  2.2466 -0.6365  1.0437
 9525SOL    HW240209   4.247   1.894  16.094  2.5249  0.5942  1.2898
 9526SOL     OW40210   4.126   4.136   2.698  0.3618 -0.0806  0.7086
 9526SOL    HW140211   4.110   4.189   2.620 -0.0091  1.4156  1.8102
 9526SOL    HW240212   4.216   4.156   2.722  0.1615  0.8716  0.6437
 9527SOL     OW40213   4.562   2.413   9.740 -0.1057 -0.3677 -0.0287
 9527SOL    HW140214   4.480   2.381   9.702  0.8312 -1.5030 -1.1059
 9527SOL    HW240215   4.618   2.352   9.693  0.7446  2.5767 -2.8296
 9528SOL     OW40216   1.926   1.816   3.422  0.0199 -0.3822 -0.1308
 9528SOL    HW140217   1.862   1.868   3.471  1.0774 -1.5536  2.5074
 9528SOL    HW240218   1.945   1.880   3.354 -2.3076  0.2660 -0.1895
 9529SOL     OW40219   1.724   2.453   4.981 -0.1335 -0.3365 -0.2531
 9529SOL    HW140220   1.729   2.362   5.011 -1.1166 -0.3353 -0.0699
 9529SOL    HW240221   1.753   2.481   5.068  2.1773 -0.3114 -1.0477
 9530SOL     OW40222   2.874   4.630   8.032 -0.3339 -0.4671 -0.3093
 9530SOL    HW140223   2.882   4.692   7.959  1.0720 -0.6866 -0.3470
 9530SOL    HW240224   2.779   4.632   8.042 -0.3954 -3.4776 -0.4205
 9531SOL     OW40225   1.959   0.279   3.535  0.0646  0.0813  0.2842
 9531SOL    HW140226   2.039   0.274   3.586  0.0278 -1.4165  0.1826
 9531SOL    HW240227   1.921   0.358   3.575 -0.8728 -0.3968  0.3379
 9532SOL     OW40228   4.422   3.606   4.120 -0.2507 -0.1862 -0.5742
 9532SOL    HW140229   4.458   3.582   4.205  0.1706  2.6828  0.0566
 9532SOL    HW240230   4.485   3.666   4.082  0.8449 -0.1787  1.2658
 9533SOL     OW40231   1.061   1.438   5.046  0.6074 -0.1837  0.9014
 9533SOL    HW140232   1.113   1.492   4.986 -0.3904  0.6517  0.7858
 9533SOL    HW240233   0.972   1.448   5.014  0.7401 -0.9278  0.3080
 9534SOL     OW40234   4.463   4.393   7.948  0.4701  0.0648  0.1508
 9534SOL    HW140235   4.523   4.320   7.931 -0.9364 -1.2344  0.7408
 9534SOL    HW240236   4.435   4.370   8.036 -0.9668 -0.5213 -0.4489
 9535SOL     OW40237   3.033   1.856   4.008  0.4165  0.1452  0.1142
 9535SOL    HW140238   3.116   1.843   3.962 -0.9610  0.0621 -2.3100
 9535SOL    HW240239   3.042   1.950   4.026 -2.2302  1.0795 -3.4979
 9536SOL     OW40240   2.381   3.199  11.336  0.4039 -0.0638  0.1416
 9536SOL    HW140241   2.333   3.121  11.365  1.7564 -1.3192 -1.0260
 9536SOL    HW240242   2.320   3.231  11.269 -0.5400 -2.1263  0.0222
 9537SOL     OW40243   1.620   0.574   9.453 -0.5237 -0.4521  0.0503
 9537SOL    HW140244   1.698   0.572   9.508 -1.6636  0.2302  1.6885
 9537SOL    HW240245   1.561   0.610   9.519 -0.8050  1.6412 -1.3325
 9538SOL     OW40246   3.683   1.122   2.900  0.2769 -0.3436 -0.0186
 9538SOL    HW140247   3.619   1.059   2.867 -0.8601 -0.5077  2.4757
 9538SOL    HW240248   3.728   1.152   2.821  0.0808 -1.7552 -0.6810
 9539SOL     OW40249   1.613   0.722   8.805 -0.2146 -0.1580 -0.5673
 9539SOL    HW140250   1.664   0.656   8.852 -1.1097 -1.0940 -0.9131
 9539SOL    HW240251   1.614   0.796   8.867  1.5674  0.2260 -1.0640
 9540SOL     OW40252   1.694   1.771   1.536 -0.2999 -0.0465 -0.4075
 9540SOL    HW140253   1.789   1.781   1.529 -0.1242  0.2299  2.5532
 9540SOL    HW240254   1.697   1.784   1.630  0.2015 -0.1141 -0.4153
 9541SOL     OW40255   2.078   3.669   8.107  0.7449  0.0190 -0.0737
 9541SOL    HW140256   2.079   3.755   8.150  0.7168 -0.3486  0.6623
 9541SOL    HW240257   2.136   3.614   8.159 -0.6249 -0.0278  1.3934
 9542SOL     OW40258   4.523   0.094   7.059  0.0415  0.0112  0.0754
 9542SOL    HW140259   4.593   0.065   7.117 -0.4907  0.7911  1.1037
 9542SOL    HW240260   4.580   0.098   6.983  2.1282  1.7288  1.7126
 9543SOL     OW40261   1.767   3.303   9.530 -0.3989  0.1956  0.2136
 9543SOL    HW140262   1.829   3.245   9.487 -0.1242 -0.1992  1.1484
 9543SOL    HW240263   1.803   3.289   9.617 -2.2174 -1.3828  0.7182
 9544SOL     OW40264   2.237   0.368   2.255 -0.1070 -0.2208 -0.0114
 9544SOL    HW140265   2.185   0.313   2.197  0.9256  1.3035 -2.3989
 9544SOL    HW240266   2.319   0.363   2.205 -0.0809  1.5307 -0.1546
 9545SOL     OW40267   4.358   4.571   1.058 -0.4167  0.2267  0.1130
 9545SOL    HW140268   4.306   4.637   1.011  2.0134  1.9261 -0.1654
 9545SOL    HW240269   4.327   4.488   1.021 -0.3059  0.5565 -0.7070
 9546SOL     OW40270   1.577   3.791   1.549 -0.4403 -0.1802 -0.2057
 9546SOL    HW140271   1.571   3.887   1.555  0.6169  0.2029 -5.1427
 9546SOL    HW240272   1.668   3.772   1.525 -0.3005  1.9168 -1.4266
 9547SOL     OW40273   1.281   3.454  14.281 -0.4085 -0.2141 -0.2963
 9547SOL    HW140274   1.211   3.444  14.345  0.8367 -1.0488  0.9403
 9547SOL    HW240275   1.358   3.446  14.337 -0.1954  0.1331 -0.5362
 9548SOL     OW40276   1.939   2.675   3.811 -0.3487  0.2678 -0.2100
 9548SOL    HW140277   1.925   2.768   3.794 -1.0034  0.4411  1.2958
 9548SOL    HW240278   2.034   2.681   3.801 -0.3776 -0.8818 -1.2051
 9549SOL     OW40279   2.264   2.163   2.043  0.1261 -0.3406  0.1621
 9549SOL    HW140280   2.338   2.139   1.987  0.4828 -0.6487  0.7720
 9549SOL    HW240281   2.216   2.081   2.055  0.8743 -0.7482  0.3631
 9550SOL     OW40282   2.291   0.817   4.939 -0.0191  0.6851 -0.5511
 9550SOL    HW140283   2.212   0.770   4.964  2.1053 -1.9221  1.3335
 9550SOL    HW240284   2.329   0.751   4.881 -1.9976 -1.0912  0.1872
 9551SOL     OW40285   1.701   1.401   6.948  0.4420 -0.2620  0.1923
 9551SOL    HW140286   1.615   1.440   6.966 -0.7716 -1.7299 -2.3923
 9551SOL    HW240287   1.692   1.338   6.877 -0.6776 -0.2418  0.3078
 9552SOL     OW40288   3.491   4.503   7.815  0.1914  0.0498 -0.1785
 9552SOL    HW140289   3.486   4.422   7.764  0.6486  0.8689 -1.5310
 9552SOL    HW240290   3.398   4.523   7.807  0.3149  1.1774  1.2588
 9553SOL     OW40291   2.786   3.666  16.700  0.4180  0.2183  0.2986
 9553SOL    HW140292   2.770   3.656  16.606 -0.4749  0.2161  0.4525
 9553SOL    HW240293   2.763   3.577  16.729  0.8672 -0.5035 -1.5334
 9554SOL     OW40294   2.529   2.415   5.316  0.2611 -0.0532 -0.1405
 9554SOL    HW140295   2.478   2.449   5.390  0.7461 -0.4895  0.3872
 9554SOL    HW240296   2.480   2.335   5.300  2.7670 -2.0411  2.1324
 9555SOL     OW40297   1.107   1.758  16.454  0.3910 -0.3165  0.9171
 9555SOL    HW140298   1.019   1.724  16.436  0.6706  0.1537 -1.3094
 9555SOL    HW240299   1.087   1.845  16.490 -1.4784  0.9818 -3.2745
 9556SOL     OW40300   0.980   3.190   2.628 -0.0485 -0.0926 -0.5167
 9556SOL    HW140301   0.995   3.264   2.686  0.8392  0.2120 -1.1285
 9556SOL    HW240302   1.068   3.170   2.597 -0.3786 -2.0596 -0.1945
 9557SOL     OW40303   0.844   2.196   4.038 -0.9022 -0.3675 -0.4857
 9557SOL    HW140304   0.878   2.116   4.080 -0.4823 -0.1376 -0.3883
 9557SOL    HW240305   0.911   2.240   3.987 -1.3065  0.6583 -0.1295
 9558SOL     OW40306   2.255   0.022   9.174  0.0824 -0.3056 -0.4676
 9558SOL    HW140307   2.247   4.686   9.119  0.5089 -0.7398  0.0965
 9558SOL    HW240308   2.228   4.735   9.261 -0.9721  0.7837 -0.4295
 9559SOL     OW40309   1.383   3.601   0.732 -0.0407 -0.1993  0.2192
 9559SOL    HW140310   1.414   3.587   0.822 -0.8093 -0.6201  0.4211
 9559SOL    HW240311   1.325   3.677   0.733 -0.6340 -0.6328 -1.4876
 9560SOL     OW40312   4.196   4.223   0.535 -0.6675  0.4817 -0.1701
 9560SOL    HW140313   4.158   4.205   0.621  0.7896  1.8055  0.7476
 9560SOL    HW240314   4.237   4.308   0.549 -0.9129  0.3183  1.4708
 9561SOL     OW40315   2.459   4.345   2.712 -0.2378  0.5254  0.6826
 9561SOL    HW140316   2.457   4.369   2.620 -0.1673  2.3106  1.1437
 9561SOL    HW240317   2.390   4.405   2.742 -0.0261  0.8460  0.5318
 9562SOL     OW40318   0.520   1.889  13.810  0.0641 -0.5060 -0.2977
 9562SOL    HW140319   0.553   1.799  13.814  0.8587 -0.3480 -3.1543
 9562SOL    HW240320   0.598   1.944  13.821  0.9082 -2.3863  3.1220
 9563SOL     OW40321   2.037   2.914  13.355  0.3384  0.4287 -0.1483
 9563SOL    HW140322   1.967   2.970  13.321  0.0573 -0.1709 -0.5557
 9563SOL    HW240323   1.985   2.842  13.390  0.8011 -0.0824 -0.5128
 9564SOL     OW40324   2.258   3.800   3.103 -0.3240 -0.8315  0.1786
 9564SOL    HW140325   2.326   3.798   3.036 -2.0264 -2.4789 -1.5379
 9564SOL    HW240326   2.308   3.847   3.169 -0.0130 -1.4723  0.4051
 9565SOL     OW40327   3.522   3.465   4.143 -0.0172  0.5143 -0.3093
 9565SOL    HW140328   3.501   3.384   4.190  1.4567  1.1828  1.5147
 9565SOL    HW240329   3.473   3.523   4.201  1.3317 -0.4003  1.7610
 9566SOL     OW40330   4.573   0.672   1.638  0.2006 -0.5230 -0.6723
 9566SOL    HW140331   4.542   0.583   1.621  0.5648 -0.2418 -2.8232
 9566SOL    HW240332   4.585   0.667   1.733  0.6263 -0.0227 -0.6999
 9567SOL     OW40333   3.085   0.328   5.814  0.0088  0.4861 -0.5323
 9567SOL    HW140334   3.008   0.271   5.806  0.1792  0.0919  0.6380
 9567SOL    HW240335   3.137   0.277   5.876 -0.3980  0.2217 -0.4074
 9568SOL     OW40336   1.118   1.278  11.181 -0.8090  0.1592 -0.0952
 9568SOL    HW140337   1.054   1.343  11.154 -0.1571 -0.3404 -2.8348
 9568SOL    HW240338   1.081   1.201  11.139  1.4420 -0.3994 -1.0333
 9569SOL     OW40339   2.842   4.449   5.810 -0.3497 -0.3272  0.3563
 9569SOL    HW140340   2.820   4.386   5.741 -0.7312 -0.4642  0.6039
 9569SOL    HW240341   2.937   4.443   5.815 -0.2031  2.4321  0.6341
 9570SOL     OW40342   1.377   2.609   0.142 -0.0040 -0.2351 -0.1013
 9570SOL    HW140343   1.454   2.599   0.086  0.2990 -0.5943  0.3749
 9570SOL    HW240344   1.344   2.693   0.110  1.3643 -0.4658 -2.1691
 9571SOL     OW40345   3.157   0.843   1.876 -0.3987  0.0073 -0.0825
 9571SOL    HW140346   3.145   0.934   1.848 -0.2601  0.2861  0.7641
 9571SOL    HW240347   3.063   0.826   1.870 -0.5761 -0.0036  2.7331
   4.74160   4.74160  17.76359
