Membrane in water
40347
    1TMC1    C1    1   2.172   3.293  11.279 -0.2289 -0.2310  0.1792
    1TMC1    C2    2   2.049   3.321  11.340  0.5093  0.0447  0.4782
    1TMC1    C3    3   1.945   3.252  11.284 -0.1904  0.2130  0.1833
    1TMC1    C4    4   2.196   3.213  11.166 -0.0371  0.8119  0.1476
    1TMC1    C5    5   2.077   3.164  11.113  0.2844 -0.1732  0.3316
    1TMC1    C6    6   1.952   3.179  11.164 -0.5170 -0.3111 -0.5845
    1TMC1     C    7   2.274   3.283  11.386  0.0361 -0.5158  0.4821
    1TMC1     O    8   2.254   3.354  11.482 -0.1304 -0.2379 -0.6780
    1TMC1     H    9   2.043   3.377  11.432 -1.3158 -0.4568  0.6572
    1TMC1    H1   10   2.294   3.205  11.121  0.7037  2.8416  1.3873
    1TMC1    H2   11   1.879   3.108  11.128 -1.3520  0.1443  0.2011
    1TMC1    C7   12   2.087   3.079  10.994 -0.2687 -0.4279  0.6593
    1TMC1    C8   13   1.813   3.295  11.321  0.4739  0.0018 -0.6594
    1TMC1    O1   14   1.989   3.021  10.945 -0.4718 -0.0933  0.2646
    1TMC1    O2   15   1.804   3.387  11.399  0.6322 -0.7089  0.0840
    1TMC1    O3   16   2.201   3.105  10.924 -0.3175  0.0610  0.4592
    1TMC1    H3   17   2.265   3.169  10.961  1.9306 -1.6592 -0.4625
    1TMC1    O5   18   1.733   3.186  11.323 -0.3080  0.6290 -0.4715
    1TMC1    H5   19   1.763   3.110  11.268 -1.4523 -1.0093  1.1423
    2MPD2     C   20   2.488   2.935  11.688 -0.1890 -0.0606 -0.7235
    2MPD2    C1   21   2.441   3.064  11.717 -0.1297  0.0313  0.4962
    2MPD2    C2   22   2.410   3.148  11.611 -0.8011 -0.4288  0.2212
    2MPD2    C3   23   2.409   3.099  11.482 -0.3761 -0.1712  1.0079
    2MPD2    C4   24   2.473   2.977  11.457  0.3791 -0.2395 -0.8381
    2MPD2    C5   25   2.509   2.898  11.561 -0.0142  0.0968  0.1916
    2MPD2     H   26   2.375   3.247  11.634 -0.2149  0.2262 -1.7243
    2MPD2    H1   27   2.482   2.941  11.355  2.0247 -1.0777 -0.4034
    2MPD2    H2   28   2.517   2.866  11.766  0.1027  0.7256 -0.1353
    2MPD2    H3   29   2.560   2.806  11.535  0.4236  0.4347 -0.1360
    2MPD2     N   30   2.343   3.167  11.376 -0.6415 -0.1226 -0.0305
    2MPD2    H5   31   2.339   3.109  11.292  0.2912  0.6280 -0.5907
    2MPD2    N1   32   2.422   3.118  11.847 -0.4759 -0.8265 -0.3925
    2MPD2    H7   33   2.384   3.212  11.852  0.6982 -0.1917 -3.2964
    3TMC1    C1   34   1.644   4.478  10.735  0.5371 -0.3718 -0.0907
    3TMC1    C2   35   1.568   4.511  10.628 -0.1919  0.1142  0.6815
    3TMC1    C3   36   1.610   4.600  10.542  0.4841 -0.4339  0.0743
    3TMC1    C4   37   1.770   4.527  10.749  0.0173  0.1784  0.0264
    3TMC1    C5   38   1.817   4.610  10.650  0.2735  0.4854 -0.3902
    3TMC1    C6   39   1.742   4.642  10.540 -0.4594 -1.1006 -0.3515
    3TMC1     C   40   1.573   4.440  10.856 -0.0605  0.4943  0.2240
    3TMC1     O   41   1.472   4.372  10.840  0.3039  0.2197  0.7652
    3TMC1     H   42   1.460   4.501  10.625  0.0718 -2.5814  0.3477
    3TMC1    H1   43   1.833   4.501  10.833  1.0566 -0.5108 -0.9755
    3TMC1    H2   44   1.770   4.705  10.456 -0.7853 -0.2398  0.1861
    3TMC1    C7   45   1.963   4.643  10.646  0.5322  0.3623  0.0247
    3TMC1    C8   46   1.528   4.619  10.425  0.0631  0.0459 -0.2340
    3TMC1    O1   47   2.045   4.605  10.731  0.1901  0.0072 -0.2041
    3TMC1    O2   48   1.522   4.530  10.338  0.5096 -0.2892 -0.6659
    3TMC1    O3   49   1.986   0.029  10.581 -0.6644 -0.0481  0.6683
    3TMC1    H3   50   1.907   0.070  10.539 -0.8343 -1.1580 -0.0902
    3TMC1    O5   51   1.511   0.016  10.410  0.1738 -0.2165  0.0049
    3TMC1    H5   52   1.522   0.069  10.492 -0.0468 -2.0977  1.2346
    4MPD2     C   53   1.488   4.442  11.354  0.6956  0.0664  0.1044
    4MPD2    C1   54   1.542   4.564  11.319 -0.8297  0.0777  0.8889
    4MPD2    C2   55   1.580   4.587  11.185 -1.4201 -0.2004 -0.5357
    4MPD2    C3   56   1.578   4.485  11.092 -0.0254  0.7288  0.8116
    4MPD2    C4   57   1.515   4.366  11.135  0.2437 -0.3836 -0.1798
    4MPD2    C5   58   1.477   4.349  11.260 -0.0544 -0.1187  0.4771
    4MPD2     H   59   1.623   4.685  11.169 -2.6152  0.6812  1.7219
    4MPD2    H1   60   1.498   4.286  11.064  0.0934 -1.2770  0.8609
    4MPD2    H2   61   1.462   4.423  11.457 -1.7535 -1.4100 -0.7975
    4MPD2    H3   62   1.448   4.251  11.297 -0.9043 -0.6563 -1.6235
    4MPD2     N   63   1.613   4.514  10.963  0.2065  0.3528  0.2560
    4MPD2    H5   64   1.669   4.596  10.944  2.0887 -1.0541 -0.2128
    4MPD2    N1   65   1.559   4.669  11.408  0.1715 -0.2271 -0.1796
    4MPD2    H7   66   1.599   0.022  11.374  0.4544 -0.1148  0.4401
    5TCq1    O1   67   2.316   2.224  11.744 -0.2242  0.0140 -0.1235
    5TCq1    C1   68   2.244   2.209  11.634  0.2146  0.3035 -0.2399
    5TCq1    O2   69   2.291   2.218  11.522 -0.1624 -0.9106  0.0240
    5TCq1    C2   70   2.105   2.169  11.668  0.1048 -0.4239  0.3291
    5TCq1    C3   71   2.049   2.202  11.786 -0.4709 -1.1110 -0.5394
    5TCq1    C4   72   1.922   2.151  11.813  0.2151  0.3256  0.0439
    5TCq1    C5   73   1.858   2.072  11.724  0.1106  0.1364 -0.7630
    5TCq1    C6   74   1.931   2.030  11.610  0.1516  0.0566 -0.1722
    5TCq1    C7   75   2.058   2.079  11.581  0.3690 -0.1201  0.2797
    5TCq1    C8   76   1.876   1.948  11.508 -0.5920  0.4890  0.0325
    5TCq1    O4   77   1.945   1.921  11.411  0.0847 -0.4897  0.5010
    5TCq1    C9   78   1.849   2.179  11.939  0.5616 -0.1147 -0.4018
    5TCq1    O5   79   1.732   2.136  11.955  0.4989 -0.2595  0.3620
    5TCq1    O6   80   1.907   2.254  12.023 -0.3735 -0.0174  0.0084
    5TCq1    H1   81   2.269   2.183  11.820 -1.2247  1.5039  0.0462
    5TCq1    H2   82   2.097   2.262  11.863 -1.7579  1.6507 -1.9038
    5TCq1    H3   83   1.757   2.045  11.752  0.9288 -1.3159  0.7690
    5TCq1    H4   84   2.116   2.038  11.499  1.5725  0.7089  0.7195
    6MPD2     C   85   1.537   1.795  11.506 -0.5069  0.2145  0.3752
    6MPD2    C1   86   1.668   1.812  11.477 -0.4758  0.1790  0.0892
    6MPD2    C2   87   1.728   1.717  11.394  0.5792  0.2663 -0.3403
    6MPD2    C3   88   1.664   1.604  11.345 -0.4796 -0.6609 -0.0808
    6MPD2    C4   89   1.531   1.587  11.378  0.4681  0.2654 -0.0738
    6MPD2    C5   90   1.471   1.681  11.451 -0.4449  0.1236 -0.1220
    6MPD2     H   91   1.834   1.725  11.373  0.7867 -0.5590  0.3975
    6MPD2    H1   92   1.475   1.496  11.356 -1.4767  1.6867 -1.0784
    6MPD2    H2   93   1.470   1.853  11.570 -3.5679 -0.4186 -2.2644
    6MPD2    H3   94   1.365   1.667  11.472 -0.4208  1.7739  1.1604
    6MPD2     N   95   1.739   1.510  11.270 -0.5086  0.2433 -0.1751
    6MPD2    H5   96   1.840   1.518  11.264 -0.4202  1.0507  2.3328
    6MPD2    N1   97   1.743   1.913  11.534  0.3058 -0.5646 -0.3949
    6MPD2    H7   98   1.691   1.971  11.599  0.6376 -2.6146  1.6991
    7TCq1    O1   99   4.352   1.359  12.610  0.7872  0.0262 -0.1945
    7TCq1    C1  100   4.335   1.237  12.662 -0.1710 -0.0025 -0.3166
    7TCq1    O2  101   4.244   1.159  12.642 -0.4794  0.1676  0.2507
    7TCq1    C2  102   4.436   1.202  12.758 -0.0434  0.1665  0.1662
    7TCq1    C3  103   4.502   1.294  12.830 -0.1467 -0.4543  0.4094
    7TCq1    C4  104   4.592   1.251  12.930 -0.3793  0.4740 -0.4299
    7TCq1    C5  105   4.614   1.116  12.955  0.3691 -0.1501 -0.7245
    7TCq1    C6  106   4.555   1.021  12.873  0.1059 -0.6028 -0.0522
    7TCq1    C7  107   4.463   1.062  12.772 -0.8341  0.2642  1.0187
    7TCq1    C8  108   4.554   0.882  12.921  0.4078  0.1954  0.4230
    7TCq1    O4  109   4.645   0.849  12.999  0.7290  0.0131 -0.0620
    7TCq1    C9  110   4.652   1.347  13.017  0.6798 -0.3974 -0.0847
    7TCq1    O5  111   0.022   1.307  13.080  0.2334 -0.3598  0.3805
    7TCq1    O6  112   4.595   1.455  13.025  0.6211  0.3279 -0.2242
    7TCq1    H1  113   4.447   1.379  12.624  1.0845 -1.1403 -0.5134
    7TCq1    H2  114   4.486   1.402  12.828  1.6108 -0.1926  0.2953
    7TCq1    H3  115   4.668   1.090  13.045  1.2166  0.0894 -1.1649
    7TCq1    H4  116   4.407   0.985  12.720 -2.1531  0.4528  2.1617
    8MPD2     C  117   4.312   0.432  12.954  0.5443 -0.8477  0.1262
    8MPD2    C1  118   4.443   0.452  12.974 -0.4191  0.1717  1.1769
    8MPD2    C2  119   4.497   0.582  12.953  0.1239  0.7639  0.1467
    8MPD2    C3  120   4.404   0.679  12.910 -0.1357 -0.2153 -0.3153
    8MPD2    C4  121   4.268   0.656  12.891  0.3779 -0.0441 -0.6073
    8MPD2    C5  122   4.223   0.528  12.908 -0.2993 -0.2380  0.2608
    8MPD2     H  123   4.598   0.610  12.981  0.3827  0.1216 -0.1381
    8MPD2    H1  124   4.199   0.730  12.852 -1.3043 -1.2069  0.1835
    8MPD2    H2  125   4.261   0.336  12.951  1.1380 -1.1629  0.2206
    8MPD2    H3  126   4.116   0.511  12.902 -0.4318  0.6717 -0.0097
    8MPD2     N  127   4.448   0.812  12.886 -0.7529  0.3837 -0.8070
    8MPD2    H5  128   4.383   0.881  12.848  0.3002  1.4756 -0.6290
    8MPD2    N1  129   4.521   0.341  13.011 -0.4473  0.3736  0.1706
    8MPD2    H7  130   4.474   0.252  13.001  0.4266  0.0319 -0.9935
    9TMC1    C1  131   2.462   4.039  11.009  0.2546  0.6843  0.0981
    9TMC1    C2  132   2.343   3.985  11.002  0.4622 -0.1553 -0.3564
    9TMC1    C3  133   2.339   3.877  10.923  0.3585  0.0775 -0.3215
    9TMC1    C4  134   2.568   3.999  10.936  0.2077  0.9806  0.4308
    9TMC1    C5  135   2.552   3.898  10.850 -0.2006  0.3669  0.0372
    9TMC1    C6  136   2.436   3.829  10.841  0.2620 -0.3777 -0.3706
    9TMC1     C  137   2.467   4.168  11.078 -0.3131 -0.8447 -0.5406
    9TMC1     O  138   2.551   4.242  11.025  0.5441  0.1947  0.0235
    9TMC1     H  139   2.261   4.009  11.068  0.0959  1.7899 -1.5280
    9TMC1    H1  140   2.667   4.042  10.946 -0.0722  1.5976  0.5585
    9TMC1    H2  141   2.418   3.749  10.770 -1.6266 -1.5296  1.4192
    9TMC1    C7  142   2.672   3.818  10.827 -0.4003 -1.1055  0.1236
    9TMC1    C8  143   2.208   3.836  10.871  0.1379  0.5694 -0.3193
    9TMC1    O1  144   2.660   3.696  10.823 -0.2172 -0.0020  0.3011
    9TMC1    O2  145   2.175   3.724  10.831 -0.2493 -0.6626  0.0274
    9TMC1    O3  146   2.755   3.884  10.749  0.9726  0.3704 -0.6848
    9TMC1    H3  147   2.736   3.980  10.750  1.0401  0.3716  0.4992
    9TMC1    O5  148   2.159   3.959  10.836 -0.1859 -0.5591  0.0651
    9TMC1    H5  149   2.216   4.034  10.864 -1.3457  0.1964  0.4017
   10MPD2     C  150   2.428   4.426  11.234 -0.0891  0.0157 -0.2602
   10MPD2    C1  151   2.377   4.303  11.266 -0.2542 -0.9781  0.3798
   10MPD2    C2  152   2.320   4.279  11.396 -0.9975 -0.4723  0.4331
   10MPD2    C3  153   2.298   4.386  11.485  0.2315  0.4755 -0.4602
   10MPD2    C4  154   2.349   4.505  11.451 -1.2041 -0.4810  0.4939
   10MPD2    C5  155   2.426   4.522  11.332  0.1812 -0.2884  0.0100
   10MPD2     H  156   2.281   4.179  11.412  0.0210 -0.8621  0.4451
   10MPD2    H1  157   2.339   4.589  11.518 -0.2916 -0.9928  1.2795
   10MPD2    H2  158   2.484   4.442  11.142  1.9173 -0.0641  0.9462
   10MPD2    H3  159   2.469   4.620  11.318  0.5526 -0.3090  1.0039
   10MPD2     N  160   2.225   4.380  11.609  0.2369 -0.0189 -0.1846
   10MPD2    H5  161   2.235   4.460  11.671  2.4105 -1.8927  1.9221
   10MPD2    N1  162   2.392   4.182  11.194  0.3383  0.1789  0.3475
   10MPD2    H7  163   2.345   4.105  11.240  0.9354 -0.4537 -0.1136
   11TCq1    O1  164   2.578   3.948  14.635  0.6724 -0.1663 -0.0745
   11TCq1    C1  165   2.534   3.904  14.519 -0.1170  0.5524  0.2238
   11TCq1    O2  166   2.597   3.839  14.442  0.4366 -0.2280  0.3167
   11TCq1    C2  167   2.392   3.900  14.535  0.0320  0.3569  0.2787
   11TCq1    C3  168   2.335   4.018  14.547 -0.6536  0.6562  0.1425
   11TCq1    C4  169   2.196   4.029  14.525  0.4388 -0.5044  0.3522
   11TCq1    C5  170   2.129   3.924  14.464 -0.0069 -0.3287  0.1676
   11TCq1    C6  171   2.198   3.805  14.444  0.3395  0.0329 -0.4888
   11TCq1    C7  172   2.328   3.792  14.478 -0.4352 -0.8410  0.0488
   11TCq1    C8  173   2.124   3.709  14.363 -0.6705 -0.1018  0.0941
   11TCq1    O4  174   2.003   3.731  14.360  0.1402  0.4265  0.1176
   11TCq1    C9  175   2.131   4.150  14.535 -0.0957  0.1222  0.7427
   11TCq1    O5  176   2.017   4.169  14.482 -0.1500  0.1597  0.4949
   11TCq1    O6  177   2.195   4.244  14.589  0.0286 -0.3310 -0.6009
   11TCq1    H1  178   2.505   3.994  14.680 -0.3725 -1.7274 -0.1669
   11TCq1    H2  179   2.376   4.109  14.589  1.4181  0.3279 -1.1754
   11TCq1    H3  180   2.021   3.926  14.455  0.0555  2.2784 -0.2365
   11TCq1    H4  181   2.381   3.702  14.448 -0.4779 -0.7799 -0.2113
   12MPD2     C  182   2.046   3.549  14.123 -0.8258 -0.5567  0.1357
   12MPD2    C1  183   2.153   3.526  14.203  0.1617  0.5528  0.0248
   12MPD2    C2  184   2.223   3.409  14.175  0.4265  0.3127  0.4353
   12MPD2    C3  185   2.193   3.323  14.076 -0.5975  0.3614 -0.8150
   12MPD2    C4  186   2.094   3.348  13.992 -0.4010 -0.2382  0.4678
   12MPD2    C5  187   2.015   3.464  14.020  0.1845  0.1541  0.3591
   12MPD2     H  188   2.311   3.391  14.236  1.8672  1.6984 -1.2318
   12MPD2    H1  189   2.074   3.285  13.907 -1.1076  2.8790 -1.6992
   12MPD2    H2  190   1.987   3.639  14.133 -1.5516 -1.0885  0.6440
   12MPD2    H3  191   1.938   3.484  13.947  0.4179 -1.5243 -0.3467
   12MPD2     N  192   2.263   3.203  14.044 -0.2224 -0.0425  0.3029
   12MPD2    H5  193   2.274   3.190  13.944 -0.8934 -1.0727  0.3650
   12MPD2    N1  194   2.199   3.609  14.304  0.1717 -0.3524  0.9394
   12MPD2    H7  195   2.297   3.603  14.330 -0.7722 -0.9335  4.3271
   13TCq1    O1  196   2.514   4.102  10.456  0.3621 -0.6500 -0.2497
   13TCq1    C1  197   2.422   4.137  10.546  0.3135 -0.1915  0.1222
   13TCq1    O2  198   2.423   4.100  10.662  0.5010 -0.1782 -0.3190
   13TCq1    C2  199   2.318   4.221  10.490 -0.6661  0.2013  0.9944
   13TCq1    C3  200   2.356   4.304  10.387 -0.0232  0.2695  0.2720
   13TCq1    C4  201   2.250   4.381  10.347  0.1340 -0.0536  0.5561
   13TCq1    C5  202   2.117   4.362  10.393  0.8968 -0.1979 -0.0194
   13TCq1    C6  203   2.090   4.275  10.498 -0.1305  0.1413 -0.7166
   13TCq1    C7  204   2.193   4.202  10.547 -0.5271 -0.0923  0.1373
   13TCq1    C8  205   1.947   4.266  10.541 -0.5588  0.4242 -0.4812
   13TCq1    O4  206   1.859   4.317  10.468 -0.2399 -0.1146  0.3013
   13TCq1    C9  207   2.278   4.478  10.246 -0.1935  0.3181 -0.5230
   13TCq1    O5  208   2.396   4.494  10.204  0.3218 -0.0616  0.6229
   13TCq1    O6  209   2.182   4.553  10.212 -0.0856  0.1984 -0.2743
   13TCq1    H1  210   2.493   4.124  10.363 -0.9881  0.1001  0.2353
   13TCq1    H2  211   2.458   4.318  10.352 -0.0329 -1.0944 -0.2907
   13TCq1    H3  212   2.031   4.415  10.353  0.8703 -0.4336 -0.2767
   13TCq1    H4  213   2.179   4.133  10.629 -1.7002 -0.6088 -0.5037
   14MPD2     C  214   1.707   4.148  10.684  0.4920 -0.3278 -0.1263
   14MPD2    C1  215   1.824   4.189  10.742 -0.0255 -0.5008 -0.1349
   14MPD2    C2  216   1.838   4.181  10.881 -0.3850 -0.1653 -0.3322
   14MPD2    C3  217   1.731   4.146  10.965  0.0641 -0.4876 -0.0777
   14MPD2    C4  218   1.616   4.106  10.901 -0.1922 -0.5780 -0.5154
   14MPD2    C5  219   1.609   4.095  10.767 -0.1560  0.1176 -0.2737
   14MPD2     H  220   1.932   4.206  10.929 -0.9987  0.7293  0.4131
   14MPD2    H1  221   1.533   4.062  10.956  0.0133 -1.6437 -1.0574
   14MPD2    H2  222   1.693   4.143  10.577  1.4479  0.5218 -0.2885
   14MPD2    H3  223   1.529   4.036  10.723  0.5791 -2.1918  1.4340
   14MPD2     N  224   1.739   4.150  11.108 -0.4617 -0.5811  0.5890
   14MPD2    H5  225   1.826   4.181  11.151 -1.4099  1.3835  1.0937
   14MPD2    N1  226   1.940   4.229  10.672 -0.4918  0.6701  0.4264
   14MPD2    H7  227   2.024   4.250  10.725 -1.2582  0.8930  1.5687
   15TCq1    O1  228   3.213   2.590   2.090  0.0892 -0.0492 -0.0280
   15TCq1    C1  229   3.279   2.515   1.999 -0.2653  0.2894  0.3591
   15TCq1    O2  230   3.378   2.443   2.017  0.1382 -0.0278  0.1740
   15TCq1    C2  231   3.224   2.544   1.872 -0.1095 -0.7160  0.1948
   15TCq1    C3  232   3.099   2.600   1.849  0.0543  0.0148  0.1345
   15TCq1    C4  233   3.058   2.617   1.719 -0.3365  0.2847 -0.0413
   15TCq1    C5  234   3.142   2.588   1.619 -0.0568  0.1452  0.1747
   15TCq1    C6  235   3.265   2.544   1.642 -0.3459 -0.2818 -0.2467
   15TCq1    C7  236   3.313   2.529   1.773 -0.1010 -0.8093 -0.1238
   15TCq1    C8  237   3.362   2.534   1.527 -0.4166 -0.3853  0.7444
   15TCq1    O4  238   3.479   2.509   1.559  0.3725 -0.0685 -0.6154
   15TCq1    C9  239   2.935   2.686   1.694  0.4823 -0.0563 -0.1779
   15TCq1    O5  240   2.914   2.712   1.573 -0.2936 -0.1802  0.5663
   15TCq1    O6  241   2.863   2.718   1.793  0.0906  0.0159 -0.3551
   15TCq1    H1  242   3.154   2.658   2.052  0.3525  1.0643  1.5640
   15TCq1    H2  243   3.025   2.616   1.927  0.5507  0.1118  0.5869
   15TCq1    H3  244   3.107   2.609   1.519  0.6245 -0.4791 -0.1963
   15TCq1    H4  245   3.414   2.495   1.790  1.0091  1.8994 -1.3156
   16MPD2     C  246   3.319   2.660   1.174  0.0326 -0.6362  0.6094
   16MPD2    C1  247   3.386   2.609   1.287 -0.1770 -0.0343 -0.3627
   16MPD2    C2  248   3.521   2.566   1.275  0.4506  0.6373 -0.4744
   16MPD2    C3  249   3.593   2.592   1.163 -0.5717 -0.8569 -0.4511
   16MPD2    C4  250   3.527   2.647   1.056 -0.2943  0.0594 -0.1229
   16MPD2    C5  251   3.396   2.693   1.063 -0.0481 -0.3120 -0.2658
   16MPD2     H  252   3.583   2.532   1.357  2.0011  2.7990 -0.7772
   16MPD2    H1  253   3.570   2.663   0.958  1.4376  2.4204  1.0213
   16MPD2    H2  254   3.213   2.680   1.171 -0.3496 -2.7300 -0.2465
   16MPD2    H3  255   3.338   2.727   0.977 -0.6680  2.1799  1.1263
   16MPD2     N  256   3.725   2.531   1.148 -0.3584  0.1837  0.0648
   16MPD2    H5  257   3.777   2.492   1.225 -1.1392  2.0662  1.5713
   16MPD2    N1  258   3.309   2.583   1.405  0.0595  0.1467  0.3021
   16MPD2    H7  259   3.215   2.620   1.403  0.2689  0.7528  2.7439
   17TMC1    C1  260   1.735   3.762  10.730  0.1760  0.1706  0.1101
   17TMC1    C2  261   1.819   3.771  10.833 -0.0694 -0.3005 -0.1322
   17TMC1    C3  262   1.771   3.750  10.958  0.4142  0.1527  0.2119
   17TMC1    C4  263   1.602   3.721  10.744  0.0372  0.3122 -0.0027
   17TMC1    C5  264   1.562   3.687  10.873  0.3196 -0.0833 -0.6576
   17TMC1    C6  265   1.644   3.705  10.980 -0.0025 -0.8171 -0.0940
   17TMC1     C  266   1.790   3.784  10.600  0.0338 -0.4176 -1.0000
   17TMC1     O  267   1.710   3.823  10.519  0.4929  0.1071 -0.6911
   17TMC1     H  268   1.914   3.824  10.828  0.0860 -0.6147 -0.5214
   17TMC1    H1  269   1.544   3.717  10.652 -2.1903  0.7654  1.3882
   17TMC1    H2  270   1.604   3.679  11.078  1.1798  0.9817  0.8788
   17TMC1    C7  271   1.453   3.599  10.882 -0.0448 -0.0346 -0.0037
   17TMC1    C8  272   1.863   3.764  11.066 -0.4065  0.3996 -0.1019
   17TMC1    O1  273   1.409   3.552  10.781 -0.5966 -0.6738 -0.4399
   17TMC1    O2  274   1.972   3.822  11.061  0.2386  0.0515 -0.4274
   17TMC1    O3  275   1.393   3.608  11.006 -0.1326 -0.0654 -0.0587
   17TMC1    H3  276   1.433   3.666  11.074  0.7033  0.8258 -1.3225
   17TMC1    O5  277   1.827   3.672  11.161 -0.2073 -0.1527  0.4057
   17TMC1    H5  278   1.902   3.664  11.224  1.2688 -2.7500 -1.6561
   18MPD2     C  279   1.981   3.915  10.408  0.3029 -0.6868 -0.1130
   18MPD2    C1  280   2.018   3.822  10.502  0.7068  0.2914 -0.4636
   18MPD2    C2  281   2.145   3.783  10.503 -0.0162  0.4357 -0.7271
   18MPD2    C3  282   2.245   3.834  10.422 -0.1080 -0.5033 -1.0327
   18MPD2    C4  283   2.210   3.927  10.332  0.4809  0.0799 -0.3217
   18MPD2    C5  284   2.076   3.960  10.317  0.1221  0.1389 -0.6169
   18MPD2     H  285   2.169   3.714  10.582  1.2783  0.7530 -0.8402
   18MPD2    H1  286   2.283   3.976  10.269 -1.1439  1.0785 -1.4373
   18MPD2    H2  287   1.882   3.959  10.418  0.6835  0.4292 -1.1332
   18MPD2    H3  288   2.045   4.033  10.243  2.1763  0.1314 -1.5108
   18MPD2     N  289   2.378   3.786  10.413  0.3088  0.5656  0.4709
   18MPD2    H5  290   2.441   3.832  10.347  3.0817 -2.6255  0.9145
   18MPD2    N1  291   1.930   3.767  10.599  0.6812  0.0537 -0.1602
   18MPD2    H7  292   1.981   3.733  10.679  0.2312 -0.5986 -0.1563
   19TMC2    C1  293   3.331   4.126  14.292  0.3252  0.3477 -0.4683
   19TMC2    C2  294   3.264   4.181  14.184  0.1994  0.0842 -0.7417
   19TMC2    C3  295   3.181   4.102  14.102 -0.0319  0.8685  0.0038
   19TMC2    C4  296   3.321   3.987  14.313  0.1571 -0.2673  0.5394
   19TMC2    C5  297   3.235   3.917  14.234  0.2995  0.2920 -0.0958
   19TMC2    C6  298   3.162   3.970  14.130 -0.0196 -0.4939  0.0427
   19TMC2     C  299   3.446   4.204  14.348  0.1913 -0.0203  0.4362
   19TMC2     O  300   3.450   4.321  14.313 -0.8904 -0.0553  0.3794
   19TMC2     H  301   3.273   4.289  14.172 -2.8989  0.2118 -1.7768
   19TMC2    H1  302   3.351   3.938  14.404  1.7013  1.4421  0.9683
   19TMC2    H2  303   3.107   3.902  14.065 -0.6268 -0.9071  0.9884
   19TMC2    C7  304   3.235   3.776  14.251  0.0694  0.5051 -0.5606
   19TMC2    C8  305   3.090   4.171  14.013  0.3445  0.2558 -0.6015
   19TMC2    O1  306   3.334   3.722  14.286  0.4405 -0.1143 -0.1572
   19TMC2    O2  307   2.980   4.131  13.991 -0.4816 -0.6573 -0.2123
   19TMC2    O5  308   3.159   4.266  13.944  0.3019 -0.0766 -0.0190
   19TMC2    H5  309   3.256   4.258  13.951  0.2756 -0.1606  0.2505
   20MPD2     C  310   3.664   4.315  14.541  0.1494 -0.0419  0.4528
   20MPD2    C1  311   3.637   4.182  14.528  0.5092  0.2279 -1.3382
   20MPD2    C2  312   3.708   4.091  14.609 -0.3482 -0.3690  0.9544
   20MPD2    C3  313   3.808   4.137  14.687 -0.3333  0.3534 -0.4278
   20MPD2    C4  314   3.820   4.272  14.710 -0.1661  0.0845  0.9039
   20MPD2    C5  315   3.747   4.362  14.638 -0.2443 -0.0973  0.3754
   20MPD2     H  316   3.689   3.986  14.590  1.9381 -0.1487 -2.5059
   20MPD2    H1  317   3.891   4.318  14.778 -1.7092 -0.1716  2.6559
   20MPD2    H2  318   3.621   4.390  14.476 -0.4972  0.2832  1.2488
   20MPD2    H3  319   3.755   4.469  14.651 -0.3109 -0.1647  0.9711
   20MPD2     N  320   3.899   4.057  14.762 -0.1951  0.2226 -0.1790
   20MPD2    H5  321   3.977   4.112  14.797  1.2822 -1.4406 -0.8843
   20MPD2    N1  322   3.534   4.130  14.438 -0.0316  0.7124 -0.0805
   20MPD2    H7  323   3.529   4.029  14.432 -2.0354  0.8781 -1.2590
   21TMC2    C1  324   0.960   3.475  14.731  0.1329  0.1367 -0.0019
   21TMC2    C2  325   1.070   3.393  14.745 -0.4084 -0.1758  0.4597
   21TMC2    C3  326   1.178   3.438  14.818  0.2879 -1.4758  0.6279
   21TMC2    C4  327   0.958   3.594  14.792 -0.0946  0.7524 -0.5092
   21TMC2    C5  328   1.063   3.628  14.872 -1.6837  0.3894 -0.6902
   21TMC2    C6  329   1.172   3.556  14.883 -0.4271 -0.2381 -0.2549
   21TMC2     C  330   0.880   3.437  14.610  0.0438 -0.0107  0.2233
   21TMC2     O  331   0.859   3.321  14.580 -0.2091  0.3820 -0.4165
   21TMC2     H  332   1.070   3.292  14.705 -0.0402 -0.0472  0.1248
   21TMC2    H1  333   0.876   3.662  14.770  1.0115  2.2799  0.0363
   21TMC2    H2  334   1.253   3.606  14.935 -0.2883 -0.9582  0.2290
   21TMC2    C7  335   1.073   3.773  14.906 -0.0864 -0.2841  0.3757
   21TMC2    C8  336   1.262   3.330  14.862  0.5866 -0.0192 -0.1731
   21TMC2    O1  337   1.142   3.792  15.003  0.0057 -0.1337 -0.1864
   21TMC2    O2  338   1.236   3.216  14.823 -0.3731  0.1167  0.3056
   21TMC2    O5  339   1.324   3.358  14.981  0.0982 -0.0818 -0.4189
   21TMC2    H5  340   1.331   3.450  15.014  0.5888 -0.1371 -0.3708
   22MPD2     C  341   0.995   3.905  14.466  0.0181  0.5414 -0.0318
   22MPD2    C1  342   1.078   3.800  14.498  0.8809 -0.1217 -0.0610
   22MPD2    C2  343   1.016   3.687  14.525  0.7304 -0.0357  0.0875
   22MPD2    C3  344   0.876   3.672  14.529 -0.3159 -0.6424 -0.1573
   22MPD2    C4  345   0.800   3.774  14.482 -0.0036  0.8116  0.4851
   22MPD2    C5  346   0.861   3.895  14.470 -0.1361 -0.3130  0.8427
   22MPD2     H  347   1.079   3.601  14.543  0.3363 -0.1560  0.9011
   22MPD2    H1  348   0.692   3.763  14.481 -0.3141  3.8785  1.8293
   22MPD2    H2  349   1.036   3.997  14.427  0.4333 -0.4858 -2.0486
   22MPD2    H3  350   0.804   3.982  14.440 -0.6858 -1.0891 -0.3772
   22MPD2     N  351   0.823   3.545  14.545 -0.3786  0.2236  0.4311
   22MPD2    H5  352   0.730   3.519  14.514  0.1503  0.6177 -1.4736
   22MPD2    N1  353   1.216   3.799  14.483  0.3979 -0.3683 -0.0458
   22MPD2    H7  354   1.266   3.711  14.489  2.2489  0.5710 -1.6696
   23TMC2    C1  355   2.457   0.332  14.424  0.0179 -0.2352  0.8788
   23TMC2    C2  356   2.441   0.329  14.286  0.3987 -0.4373  0.2071
   23TMC2    C3  357   2.328   0.387  14.234  0.2407 -0.3145 -0.0554
   23TMC2    C4  358   2.357   0.363  14.504 -0.2179 -0.8369  0.0221
   23TMC2    C5  359   2.236   0.405  14.451 -0.1648  0.2526 -0.5239
   23TMC2    C6  360   2.222   0.422  14.319  0.4705 -0.5388  0.6855
   23TMC2     C  361   2.581   0.280  14.482  0.2794  0.8185  0.3254
   23TMC2     O  362   2.586   0.286  14.604  0.5527 -0.4765  0.3232
   23TMC2     H  363   2.529   0.336  14.223  0.4362 -2.8191 -0.0228
   23TMC2    H1  364   2.364   0.350  14.612  0.0879  0.0742  0.1135
   23TMC2    H2  365   2.125   0.453  14.281  1.5158  0.4083 -1.2090
   23TMC2    C7  366   2.123   0.347  14.520 -0.8800 -0.4040  0.1086
   23TMC2    C8  367   2.333   0.442  14.098  0.2612 -0.1674  0.0289
   23TMC2    O1  368   2.146   0.253  14.592 -0.2945  0.1302  0.3069
   23TMC2    O2  369   2.435   0.420  14.033 -0.0936  0.2624 -0.1446
   23TMC2    O5  370   2.209   0.450  14.060  0.1889 -0.5023 -0.1831
   23TMC2    H5  371   2.136   0.441  14.124 -0.2535 -3.1572 -1.0886
   24MPD2     C  372   3.029   0.028  14.495 -0.3977  0.9815  0.1365
   24MPD2    C1  373   2.933   0.037  14.594 -0.2289  0.9130 -0.0449
   24MPD2    C2  374   2.817   0.111  14.565 -0.7424  0.5887  0.6064
   24MPD2    C3  375   2.796   0.176  14.436  0.1057  0.1346 -0.3464
   24MPD2    C4  376   2.892   0.142  14.334 -0.1037  0.3538 -0.3010
   24MPD2    C5  377   3.005   0.079  14.372 -0.1795 -0.1944  0.5271
   24MPD2     H  378   2.741   0.114  14.642  0.1673  1.4227  1.4792
   24MPD2    H1  379   2.884   0.192  14.238 -0.8305  1.8272  0.5196
   24MPD2    H2  380   3.128   4.720  14.509 -0.3247  0.9221 -0.5735
   24MPD2    H3  381   3.089   0.072  14.303 -1.3836  3.3348 -1.3084
   24MPD2     N  382   2.680   0.243  14.398  0.4712  0.1584 -0.2277
   24MPD2    H5  383   2.668   0.267  14.300  0.3695 -0.6461 -0.4155
   24MPD2    N1  384   2.956   4.720  14.723 -0.3726  0.2006 -0.5112
   24MPD2    H7  385   2.879   0.005  14.786  0.4083 -0.6835  0.7112
   25TMC2    C1  386   1.927   3.381  11.795  0.0201  0.3016  0.2121
   25TMC2    C2  387   1.994   3.487  11.742 -0.7159 -0.0067  0.4217
   25TMC2    C3  388   1.920   3.599  11.715  0.3277  0.5463  0.4843
   25TMC2    C4  389   1.792   3.383  11.814 -0.2381 -0.5227 -0.0430
   25TMC2    C5  390   1.723   3.494  11.767 -0.2974 -0.6416 -0.5996
   25TMC2    C6  391   1.786   3.607  11.719 -0.6418  0.1701  0.2321
   25TMC2     C  392   1.992   3.258  11.768 -0.5157 -0.7042 -0.1899
   25TMC2     O  393   2.102   3.235  11.815 -0.0621 -0.1222 -0.3092
   25TMC2     H  394   2.100   3.470  11.727 -0.5932 -0.4008  1.8053
   25TMC2    H1  395   1.737   3.297  11.850 -1.1233  0.0813  0.0359
   25TMC2    H2  396   1.727   3.695  11.699 -0.6311 -0.2601 -1.7345
   25TMC2    C7  397   1.580   3.486  11.766  0.1109 -0.2889  0.0675
   25TMC2    C8  398   1.988   3.715  11.653  0.6564  0.4849 -0.4579
   25TMC2    O1  399   1.522   3.573  11.700 -0.1670  0.4402 -0.0419
   25TMC2    O2  400   1.912   3.780  11.578  0.0503 -0.6638 -0.2614
   25TMC2    O5  401   2.114   3.689  11.624  0.0828 -0.2108 -0.3258
   25TMC2    H5  402   2.167   3.674  11.706 -1.1165  0.6568  0.6088
   26MPD2     C  403   2.021   2.831  11.485  0.3219  0.9236 -0.1455
   26MPD2    C1  404   1.888   2.859  11.507  0.2629  0.8391 -0.7169
   26MPD2    C2  405   1.853   2.970  11.581 -0.0211 -0.2874 -0.7618
   26MPD2    C3  406   1.948   3.060  11.632 -0.1487 -0.9643 -0.4263
   26MPD2    C4  407   2.082   3.027  11.609  0.9638 -0.1835  0.2795
   26MPD2    C5  408   2.116   2.914  11.543  0.4658 -0.9655 -0.1581
   26MPD2     H  409   1.749   2.996  11.564 -0.5109 -2.4190 -0.9481
   26MPD2    H1  410   2.168   3.085  11.643  0.8823  0.7023 -1.0227
   26MPD2    H2  411   2.048   2.748  11.421  0.1341  0.7651 -0.0155
   26MPD2    H3  412   2.223   2.901  11.534  0.6665  1.6410 -1.6538
   26MPD2     N  413   1.904   3.172  11.706 -0.0866  0.2141 -0.2540
   26MPD2    H5  414   1.806   3.199  11.706  0.0784  0.8100  1.5893
   26MPD2    N1  415   1.798   2.770  11.454  0.8545  0.2181  0.1038
   26MPD2    H7  416   1.834   2.707  11.383  1.4850 -0.5124  1.0535
   27TMC2    C1  417   0.803   0.397  12.019 -0.4874 -0.2484  0.2492
   27TMC2    C2  418   0.751   0.508  11.965 -0.2508 -0.0748  0.1248
   27TMC2    C3  419   0.769   0.622  12.039 -0.0858  0.4063  0.3214
   27TMC2    C4  420   0.865   0.387  12.136 -0.2149  0.2393 -0.5596
   27TMC2    C5  421   0.875   0.505  12.210  0.9845  0.0102 -0.2545
   27TMC2    C6  422   0.825   0.626  12.162  0.0493 -0.6273 -0.5830
   27TMC2     C  423   0.736   0.275  11.980 -0.4160 -0.0888  0.0966
   27TMC2     O  424   0.743   0.235  11.863 -0.2673 -0.1855 -0.3448
   27TMC2     H  425   0.708   0.509  11.866 -1.1952  0.7839  0.5400
   27TMC2    H1  426   0.912   0.292  12.163  1.3168  1.0281 -0.4572
   27TMC2    H2  427   0.841   0.718  12.217  0.2542 -1.7067  1.1905
   27TMC2    C7  428   0.860   0.477  12.349  0.7783 -0.8876  0.5425
   27TMC2    C8  429   0.723   0.739  11.976 -0.2849  0.5008  0.0854
   27TMC2    O1  430   0.816   0.366  12.381  0.1983 -0.1673  0.2080
   27TMC2    O2  431   0.757   0.846  12.021 -0.5061 -0.2018 -0.2619
   27TMC2    O5  432   0.613   0.721  11.900 -0.6029 -0.3793 -0.0981
   27TMC2    H5  433   0.581   0.629  11.888 -2.1756 -0.0389  1.4208
   28MPD2     C  434   0.444   4.615  12.119  0.8462 -0.2968  0.2825
   28MPD2    C1  435   0.450   4.698  12.228 -0.1427 -0.0052  0.0846
   28MPD2    C2  436   0.539   0.074  12.215  0.2693 -0.1798  0.1896
   28MPD2    C3  437   0.598   0.102  12.092  0.5100  0.7355 -1.2275
   28MPD2    C4  438   0.585   0.018  11.985 -0.2742  0.1840 -0.1826
   28MPD2    C5  439   0.507   4.641  12.005  0.1681 -1.0762 -1.0274
   28MPD2     H  440   0.542   0.146  12.296  0.9824  0.8925 -0.7968
   28MPD2    H1  441   0.635   0.042  11.891  2.3672 -1.8023  0.7558
   28MPD2    H2  442   0.379   4.529  12.124 -2.9342  2.4034 -1.6009
   28MPD2    H3  443   0.496   4.563  11.930 -1.3104  0.5797 -2.5076
   28MPD2     N  444   0.675   0.219  12.093  0.4237  0.1724  0.5671
   28MPD2    H5  445   0.683   0.272  12.179 -1.1319  2.2313 -0.5523
   28MPD2    N1  446   0.368   4.666  12.337 -1.1119  0.0813 -0.2602
   28MPD2    H7  447   0.309   4.584  12.326 -1.4372  0.2790  0.0064
   29TMC2    C1  448   0.029   2.744  14.128 -0.1771  0.0473 -0.5009
   29TMC2    C2  449   4.684   2.792  14.226 -0.2359  0.3673  0.9193
   29TMC2    C3  450   4.715   2.898  14.305 -0.1888  0.3393  0.0006
   29TMC2    C4  451   0.150   2.796  14.106  0.1952  0.2474 -0.7283
   29TMC2    C5  452   0.187   2.906  14.187 -0.0238  0.4967 -1.0870
   29TMC2    C6  453   0.109   2.948  14.289  0.5572 -0.8199 -0.6113
   29TMC2     C  454   4.684   2.669  14.026 -0.1807 -0.8324 -0.7073
   29TMC2     O  455   4.568   2.702  14.003 -0.0468  0.6789 -0.1140
   29TMC2     H  456   4.583   2.754  14.237 -0.7226  0.7671 -2.3363
   29TMC2    H1  457   0.213   2.769  14.022 -0.3307 -3.5928  0.1216
   29TMC2    H2  458   0.140   3.028  14.355 -0.8297 -0.6370 -0.1830
   29TMC2    C7  459   0.330   2.947  14.180  0.4284 -0.0777  0.1415
   29TMC2    C8  460   4.659   2.907  14.440  0.2572  0.1780 -0.2555
   29TMC2    O1  461   0.380   2.925  14.070  0.1550  0.3744 -0.5404
   29TMC2    O2  462   4.620   2.818  14.514 -0.2093  0.1992  0.2550
   29TMC2    O5  463   4.654   3.039  14.477  0.3539  0.1770 -0.2126
   29TMC2    H5  464   4.661   3.101  14.402  0.9553  0.5853  0.1817
   30MPD2     C  465   4.595   2.254  13.726  0.5883 -0.2201 -0.0906
   30MPD2    C1  466   4.687   2.218  13.816  0.7289 -0.2265 -0.5534
   30MPD2    C2  467   0.004   2.316  13.896  0.3734  0.3660  0.1061
   30MPD2    C3  468   4.692   2.449  13.896 -0.2782  0.4007 -0.5409
   30MPD2    C4  469   4.587   2.479  13.813  0.2188  0.0693 -0.4995
   30MPD2    C5  470   4.547   2.385  13.720 -0.2411  0.6494 -0.3279
   30MPD2     H  471   0.075   2.302  13.977 -2.7724  2.8819  3.3580
   30MPD2    H1  472   4.543   2.576  13.793 -0.2397  0.4779  2.5115
   30MPD2    H2  473   4.542   2.186  13.660  1.7760 -0.8149 -0.4248
   30MPD2    H3  474   4.469   2.412  13.649  0.0776  3.9789  0.5686
   30MPD2     N  475   0.006   2.548  13.988 -0.7545 -0.3857  0.7354
   30MPD2    H5  476   0.098   2.527  14.024 -0.4811  1.1289  0.9159
   30MPD2    N1  477   0.009   2.092  13.834  0.0642  0.7103  0.3075
   30MPD2    H7  478   0.070   2.068  13.912  1.2027 -1.6591 -1.3350
   31TMC2    C1  479   2.562   1.122  15.371  0.1700 -0.6121 -0.4959
   31TMC2    C2  480   2.438   1.128  15.313  0.0143  0.7581  0.1140
   31TMC2    C3  481   2.333   1.087  15.390  0.4839 -0.2530 -0.2890
   31TMC2    C4  482   2.581   1.069  15.496 -0.2025  0.6404 -0.4543
   31TMC2    C5  483   2.466   1.032  15.564 -0.1323 -0.5467  0.1600
   31TMC2    C6  484   2.338   1.042  15.516 -0.1229  0.2152  0.3125
   31TMC2     C  485   2.666   1.168  15.287  0.2451 -0.1869  0.1162
   31TMC2     O  486   2.641   1.207  15.174 -0.0226  0.0306 -0.3744
   31TMC2     H  487   2.420   1.164  15.212  1.7308  1.0195 -0.0879
   31TMC2    H1  488   2.674   1.066  15.551 -0.0687  0.4567 -0.6852
   31TMC2    H2  489   2.246   1.012  15.565 -0.5230  1.2733  0.2023
   31TMC2    C7  490   2.488   0.950  15.676 -0.9557  0.2330 -0.3754
   31TMC2    C8  491   2.210   1.064  15.320  0.3408 -1.1224  0.2589
   31TMC2    O1  492   2.594   0.888  15.682  0.5281 -0.1123  1.0025
   31TMC2    O2  493   2.180   1.117  15.214 -0.1916  0.7230 -0.2437
   31TMC2    O5  494   2.203   0.934  15.345 -0.4303 -0.2806 -0.0031
   31TMC2    H5  495   2.250   0.898  15.423 -0.7369 -0.0559  0.2823
   32MPD2     C  496   3.141   1.230  15.151 -0.3172 -0.2521  0.5837
   32MPD2    C1  497   3.030   1.283  15.095 -0.6339 -0.0429 -0.2693
   32MPD2    C2  498   2.911   1.261  15.160  0.0329  0.6096 -0.3728
   32MPD2    C3  499   2.907   1.164  15.263 -0.2356  0.4298  0.2610
   32MPD2    C4  500   3.020   1.102  15.307 -0.2373 -0.0098  0.4749
   32MPD2    C5  501   3.139   1.138  15.254  0.2822 -0.2949 -0.4241
   32MPD2     H  502   2.827   1.326  15.140 -0.2446 -0.1597 -1.6403
   32MPD2    H1  503   3.017   1.032  15.391  0.4412 -0.0315  0.4856
   32MPD2    H2  504   3.237   1.231  15.100  0.3629  1.7302  1.9047
   32MPD2    H3  505   3.233   1.095  15.287 -0.2514 -1.4158 -0.3555
   32MPD2     N  506   2.787   1.145  15.338  0.3636  0.2112  0.2941
   32MPD2    H5  507   2.800   1.095  15.425 -0.3690  1.6815  1.2515
   32MPD2    N1  508   3.051   1.349  14.977 -0.0653  0.7626  0.3598
   32MPD2    H7  509   3.144   1.342  14.937 -0.3614  0.1449 -0.2268
   33TMC2    C1  510   3.180   4.119   9.832 -0.4787 -0.0188 -0.6758
   33TMC2    C2  511   3.067   4.160   9.766  0.0235  0.4198  0.2469
   33TMC2    C3  512   3.078   4.256   9.667  0.7643 -0.6262 -0.2041
   33TMC2    C4  513   3.308   4.172   9.809 -0.5394  0.2071 -0.2446
   33TMC2    C5  514   3.309   4.267   9.709 -0.1242  0.0260 -0.1281
   33TMC2    C6  515   3.201   4.308   9.630  0.0100 -1.0852  0.4489
   33TMC2     C  516   3.155   4.027   9.944  0.1594 -0.1181 -0.0287
   33TMC2     O  517   3.046   3.977   9.969  0.3014  0.2026  0.4967
   33TMC2     H  518   2.977   4.103   9.785  0.4308 -0.6933 -1.0924
   33TMC2    H1  519   3.394   4.134   9.863 -0.4598 -1.6062 -1.6629
   33TMC2    H2  520   3.210   4.380   9.550 -1.8512 -1.1438  0.1856
   33TMC2    C7  521   3.437   4.331   9.692  0.2163  0.0721  0.1468
   33TMC2    C8  522   2.960   4.323   9.607  0.4598 -0.0019  0.0359
   33TMC2    O1  523   3.527   4.299   9.770 -0.1950 -0.1754 -0.0805
   33TMC2    O2  524   2.964   4.397   9.508  0.0374  0.3299  0.2850
   33TMC2    O5  525   2.872   4.333   9.703  0.1414  0.0715 -0.0576
   33TMC2    H5  526   2.875   4.280   9.785  1.4432 -1.6323 -1.2030
   34MPD2     C  527   3.243   3.832  10.403 -0.3125 -0.3913 -0.6489
   34MPD2    C1  528   3.125   3.873  10.343  0.4455 -0.0685  0.4509
   34MPD2    C2  529   3.129   3.933  10.218  0.1616  0.7022 -1.1525
   34MPD2    C3  530   3.253   3.950  10.151  0.3371 -0.4365 -0.1567
   34MPD2    C4  531   3.368   3.919  10.220  0.4937  1.0477 -0.5175
   34MPD2    C5  532   3.365   3.852  10.340  0.3522 -0.0491  0.0441
   34MPD2     H  533   3.033   3.973  10.186  0.3145  1.0866 -1.1264
   34MPD2    H1  534   3.463   3.954  10.180 -0.0946  1.0631 -1.8888
   34MPD2    H2  535   3.239   3.768  10.490 -2.6669 -3.6408 -3.1607
   34MPD2    H3  536   3.453   3.818  10.392  1.8516 -0.0271 -2.4861
   34MPD2     N  537   3.261   4.017  10.029  0.6444 -0.4487 -0.0644
   34MPD2    H5  538   3.348   4.058   9.997 -0.3626  1.8695  0.1636
   34MPD2    N1  539   3.006   3.820  10.400 -0.3957  0.1252 -0.5161
   34MPD2    H7  540   3.018   3.767  10.486 -0.8467  0.4730 -0.2390
   35TMC2    C1  541   3.775   0.447  11.257  0.5037  1.1830  0.7785
   35TMC2    C2  542   3.751   0.470  11.125 -0.0724  0.1779  0.0356
   35TMC2    C3  543   3.636   0.427  11.072  0.3305 -0.1907 -0.2963
   35TMC2    C4  544   3.679   0.393  11.341 -0.6180 -0.5841  0.9013
   35TMC2    C5  545   3.568   0.346  11.284  0.2711 -0.3260  0.0476
   35TMC2    C6  546   3.538   0.363  11.153  0.1129 -0.1414 -0.2230
   35TMC2     C  547   3.900   0.491  11.312  0.0314  0.2461 -0.1903
   35TMC2     O  548   3.944   0.594  11.260  0.0904  0.4736 -0.1486
   35TMC2     H  549   3.825   0.522  11.064  0.2010  0.0308  0.2387
   35TMC2    H1  550   3.696   0.386  11.448 -0.5855 -2.6329  0.7763
   35TMC2    H2  551   3.452   0.317  11.106 -0.0991  1.5986 -1.5327
   35TMC2    C7  552   3.489   0.260  11.359  1.0547  0.1514  0.4613
   35TMC2    C8  553   3.648   0.403  10.930  0.3666  0.1070  0.6070
   35TMC2    O1  554   3.538   0.195  11.453 -0.1929  0.7090 -0.1693
   35TMC2    O2  555   3.754   0.411  10.870  0.4580 -0.3298 -0.0506
   35TMC2    O5  556   3.525   0.378  10.874  0.0648  0.3445  0.5427
   35TMC2    H5  557   3.453   0.403  10.936  0.1826  0.8771  0.4664
   36MPD2     C  558   4.365   0.401  11.512  0.1398  0.0324 -0.0746
   36MPD2    C1  559   4.282   0.302  11.544  1.0351 -0.5245 -0.2245
   36MPD2    C2  560   4.149   0.294  11.502  0.2913 -0.4604 -0.3675
   36MPD2    C3  561   4.089   0.403  11.438 -0.0259  0.0526  0.4399
   36MPD2    C4  562   4.181   0.508  11.402 -0.0751 -0.0954  0.1853
   36MPD2    C5  563   4.321   0.501  11.434 -0.3679  0.4758  0.0104
   36MPD2     H  564   4.087   0.220  11.552 -1.7045  0.1535 -1.9751
   36MPD2    H1  565   4.145   0.595  11.349 -0.0824 -2.3979 -3.5337
   36MPD2    H2  566   4.465   0.403  11.553 -0.2349  2.8438  0.6893
   36MPD2    H3  567   4.379   0.590  11.411  0.1969 -0.1212 -0.8380
   36MPD2     N  568   3.954   0.398  11.395 -0.1617  0.3427 -0.0718
   36MPD2    H5  569   3.905   0.316  11.429  0.7364  0.2235  0.9579
   36MPD2    N1  570   4.341   0.203  11.633 -0.1420  0.0034  0.5572
   36MPD2    H7  571   4.438   0.222  11.656 -0.7512  0.6210  2.6113
   37TMC2    C1  572   1.660   0.995  12.214 -0.1869 -0.2080 -0.6552
   37TMC2    C2  573   1.642   1.088  12.114  0.6288  0.2675 -0.1662
   37TMC2    C3  574   1.750   1.127  12.035 -0.1446  0.4308  0.1611
   37TMC2    C4  575   1.786   0.934  12.232 -0.5328  0.0722 -0.3726
   37TMC2    C5  576   1.881   0.968  12.144 -0.2974 -0.4891  0.1669
   37TMC2    C6  577   1.870   1.069  12.049  0.1078 -0.6342 -0.1526
   37TMC2     C  578   1.541   0.933  12.274 -0.1842 -0.3626  0.7624
   37TMC2     O  579   1.435   0.980  12.252  0.4771  0.0315  0.1649
   37TMC2     H  580   1.549   1.144  12.107  0.8973  0.8346  0.7376
   37TMC2    H1  581   1.802   0.843  12.288 -0.5178  0.6628  0.5911
   37TMC2    H2  582   1.955   1.088  11.985  0.6017  2.1687  1.3557
   37TMC2    C7  583   2.015   0.945  12.202  0.2932  0.0175  0.3067
   37TMC2    C8  584   1.725   1.211  11.917  1.1008  0.2075  0.5883
   37TMC2    O1  585   2.020   0.865  12.292 -0.1859  0.2291  0.0697
   37TMC2    O2  586   1.612   1.254  11.904 -0.0268  0.1422 -0.0439
   37TMC2    O5  587   1.788   1.147  11.818 -0.4385 -0.0440  0.4736
   37TMC2    H5  588   1.856   1.082  11.844 -0.1504 -0.0811 -0.3483
   38MPD2     C  589   1.330   0.603  12.601  0.0868  0.5596  0.6648
   38MPD2    C1  590   1.460   0.556  12.578 -0.8516 -0.2255 -0.5835
   38MPD2    C2  591   1.532   0.628  12.482 -0.0427 -0.1079 -0.7245
   38MPD2    C3  592   1.487   0.740  12.419 -0.0116 -0.2263  0.3685
   38MPD2    C4  593   1.357   0.772  12.437 -0.1987  0.0989  0.3491
   38MPD2    C5  594   1.281   0.706  12.528 -0.0849  0.5620  0.3602
   38MPD2     H  595   1.635   0.600  12.462  0.4753  2.5472 -1.8227
   38MPD2    H1  596   1.302   0.840  12.372  1.9660  3.2680  1.8585
   38MPD2    H2  597   1.269   0.562  12.680  0.5887 -0.4060  0.5578
   38MPD2    H3  598   1.184   0.741  12.558 -1.9272 -2.5804 -1.8991
   38MPD2     N  599   1.573   0.814  12.343  0.1291 -0.2115  0.0802
   38MPD2    H5  600   1.665   0.776  12.323  0.4814 -0.0048  1.3169
   38MPD2    N1  601   1.515   0.435  12.636  0.3252 -0.0327  0.9036
   38MPD2    H7  602   1.610   0.408  12.611  0.0990 -1.5782  1.7031
   39TMC2    C1  603   4.207   1.730   1.751  0.1878  0.1359 -0.0050
   39TMC2    C2  604   4.118   1.725   1.848 -0.5377 -0.3589 -0.1870
   39TMC2    C3  605   4.166   1.761   1.968 -0.6849 -0.6160  0.3453
   39TMC2    C4  606   4.336   1.767   1.770 -1.1275  0.1677  0.6540
   39TMC2    C5  607   4.374   1.813   1.891 -1.0877  0.2673 -0.7778
   39TMC2    C6  608   4.296   1.810   1.999  0.2943 -0.7311 -0.2258
   39TMC2     C  609   4.147   1.724   1.620  0.3338  0.7229 -0.7376
   39TMC2     O  610   4.025   1.739   1.607  0.2441  0.1225  0.4722
   39TMC2     H  611   4.014   1.708   1.820 -0.7411 -1.3615  1.1938
   39TMC2    H1  612   4.409   1.752   1.691  1.0694  2.1253  2.3007
   39TMC2    H2  613   4.319   1.855   2.094 -0.2693 -1.5311  0.2858
   39TMC2    C7  614   4.493   1.892   1.890 -0.0856  0.3618  0.1971
   39TMC2    C8  615   4.075   1.751   2.084 -0.2817  0.0482  0.1452
   39TMC2    O1  616   4.595   1.837   1.847  0.2423 -0.1066  0.1827
   39TMC2    O2  617   4.106   1.798   2.194 -0.3409  0.0704  0.2072
   39TMC2    O5  618   3.989   1.649   2.061  0.2164 -0.0917 -0.4388
   39TMC2    H5  619   3.980   1.630   1.965  0.7576 -1.0612 -0.3073
   40MPD2     C  620   4.322   1.746   1.308 -0.2060 -0.5233 -0.7838
   40MPD2    C1  621   4.217   1.767   1.393 -0.9562  0.1254 -0.8902
   40MPD2    C2  622   4.099   1.812   1.340  0.5347  0.1472  0.2496
   40MPD2    C3  623   4.087   1.826   1.203  0.1177  0.4612 -0.3788
   40MPD2    C4  624   4.192   1.786   1.121 -0.0042 -0.1467  0.4176
   40MPD2    C5  625   4.307   1.744   1.178  0.8085  0.2249 -1.0350
   40MPD2     H  626   4.024   1.852   1.407  0.1603 -1.2462  0.6547
   40MPD2    H1  627   4.186   1.791   1.013 -1.5306 -1.1077  0.4573
   40MPD2    H2  628   4.420   1.711   1.338 -0.3669  0.3242  0.7052
   40MPD2    H3  629   4.387   1.706   1.115  1.1331 -1.2444  0.2814
   40MPD2     N  630   3.967   1.875   1.140 -0.6743  0.3777  0.1657
   40MPD2    H5  631   3.967   1.868   1.038 -0.3644 -0.5099  0.2306
   40MPD2    N1  632   4.237   1.727   1.522  0.3840 -0.2719  0.2776
   40MPD2    H7  633   4.329   1.695   1.551  0.7195 -0.7685 -1.3436
   41TMC2    C1  634   4.207   0.204  13.396 -0.1887 -0.6463 -0.2736
   41TMC2    C2  635   4.294   0.120  13.464  0.4722 -0.9327 -0.0352
   41TMC2    C3  636   4.364   0.033  13.394 -0.1173  0.4497 -0.2206
   41TMC2    C4  637   4.181   0.192  13.265  0.2259  0.1533  0.0641
   41TMC2    C5  638   4.252   0.093  13.202 -0.5400 -0.5145  0.1290
   41TMC2    C6  639   4.358   0.022  13.257  0.0360 -0.7405 -0.1147
   41TMC2     C  640   4.144   0.312  13.468  0.0163  0.8742  0.4120
   41TMC2     O  641   4.107   0.410  13.407 -0.2148  0.2073  0.1963
   41TMC2     H  642   4.310   0.122  13.572 -0.2168 -3.3810  0.1102
   41TMC2    H1  643   4.124   0.270  13.216 -0.7417 -0.6182 -0.0511
   41TMC2    H2  644   4.430   4.693  13.206  0.5771 -2.0009  2.2075
   41TMC2    C7  645   4.255   0.086  13.058  1.0842 -0.1031 -0.5467
   41TMC2    C8  646   4.492   4.725  13.449 -0.3908 -0.0407 -0.3861
   41TMC2    O1  647   4.359   0.106  12.993 -0.5945  0.0487 -0.6734
   41TMC2    O2  648   4.555   4.632  13.395  0.0893 -0.1657 -0.3538
   41TMC2    O5  649   4.543   0.118  13.457 -0.5103  0.7653 -0.0192
   41TMC2    H5  650   4.490   0.180  13.512 -0.1926  1.2642 -0.2699
   42MPD2     C  651   4.082   0.299  13.824 -0.3802  0.7093  0.1018
   42MPD2    C1  652   4.080   0.353  13.697 -0.0193  0.6975  0.0492
   42MPD2    C2  653   4.018   0.473  13.676 -0.3453 -0.0694 -0.2914
   42MPD2    C3  654   3.950   0.536  13.773  0.2279  0.1977 -0.6711
   42MPD2    C4  655   3.947   0.476  13.896  0.7480  0.0520 -0.1818
   42MPD2    C5  656   4.025   0.366  13.932 -0.2377 -0.0325  0.0829
   42MPD2     H  657   4.001   0.517  13.579 -0.1165  0.7507  0.0388
   42MPD2    H1  658   3.882   0.508  13.977 -0.2230  1.6346 -1.5949
   42MPD2    H2  659   4.116   0.198  13.842  3.1991  1.6450 -1.2932
   42MPD2    H3  660   4.013   0.329  14.033 -0.2649 -0.4887 -0.0867
   42MPD2     N  661   3.864   0.646  13.748 -0.3356  0.1433  0.7668
   42MPD2    H5  662   3.816   0.677  13.832 -0.3815 -1.6421  1.3933
   42MPD2    N1  663   4.139   0.277  13.598 -0.5500  0.1852 -0.2368
   42MPD2    H7  664   4.165   0.187  13.637 -1.1018  0.1097 -0.0528
   43TMC2    C1  665   4.344   3.050   1.083 -0.3497 -0.0499  0.1402
   43TMC2    C2  666   4.262   3.156   1.114 -0.3189  0.0646 -0.2938
   43TMC2    C3  667   4.194   3.144   1.232 -0.3997 -0.0986  0.0096
   43TMC2    C4  668   4.354   2.936   1.158 -0.0465  0.1993 -0.2310
   43TMC2    C5  669   4.289   2.932   1.272 -0.0115  0.0349 -0.1629
   43TMC2    C6  670   4.203   3.033   1.312 -0.1097  0.7026 -0.2416
   43TMC2     C  671   4.448   3.071   0.987 -0.4490  0.0317 -0.1107
   43TMC2     O  672   4.489   2.970   0.936 -0.2326 -0.8067 -0.5397
   43TMC2     H  673   4.252   3.248   1.058 -0.0213  0.7395  0.7608
   43TMC2    H1  674   4.429   2.861   1.135  0.8907  0.9141  0.4564
   43TMC2    H2  675   4.169   3.041   1.414  4.7680  1.9599  1.3040
   43TMC2    C7  676   4.266   2.805   1.345  0.4805 -0.2398  0.1269
   43TMC2    C8  677   4.126   3.263   1.276  0.6996  0.1941  0.2723
   43TMC2    O1  678   4.363   2.735   1.328 -0.0022 -0.2883 -0.0235
   43TMC2    O2  679   4.180   3.372   1.255 -0.1504  0.0951  0.2217
   43TMC2    O5  680   4.041   3.237   1.370  0.2548  0.1453 -0.0664
   43TMC2    H5  681   4.014   3.143   1.380  2.3292 -0.3123  1.0501
   44MPD2     C  682   0.012   3.330   0.647  0.2865  0.7054 -0.4537
   44MPD2    C1  683   0.018   3.197   0.682  0.3811 -0.7147  0.5171
   44MPD2    C2  684   4.654   3.153   0.772 -0.6749 -0.2112 -0.3443
   44MPD2    C3  685   4.559   3.241   0.837 -0.8268  0.0602  0.2776
   44MPD2    C4  686   4.566   3.369   0.800 -0.8933 -0.1453  0.0354
   44MPD2    C5  687   4.660   3.412   0.709  0.1998 -0.9820 -0.0287
   44MPD2     H  688   4.659   3.048   0.797  0.5047 -0.4147 -1.4636
   44MPD2    H1  689   4.496   3.442   0.840 -1.9506  0.6794 -3.3243
   44MPD2    H2  690   0.085   3.373   0.579  0.2342  1.6656  0.1107
   44MPD2    H3  691   4.666   3.518   0.687  0.1212 -0.8184  0.7295
   44MPD2     N  692   4.462   3.202   0.939  0.3284 -0.3459  0.7259
   44MPD2    H5  693   4.414   3.276   0.989 -1.0341 -0.0319 -1.0507
   44MPD2    N1  694   0.115   3.100   0.636 -0.3125  0.1114 -0.4326
   44MPD2    H7  695   0.120   3.008   0.680 -1.7737 -0.2021 -0.9484
   45TMC2    C1  696   1.203   0.767   9.955  0.0060 -0.5512 -0.1552
   45TMC2    C2  697   1.333   0.717   9.982 -0.8360  0.2987 -1.0789
   45TMC2    C3  698   1.414   0.782  10.070 -0.3101 -0.2325  0.2205
   45TMC2    C4  699   1.159   0.884  10.016  0.0706  0.1931 -0.8177
   45TMC2    C5  700   1.245   0.947  10.104  0.0108 -0.0933  0.0129
   45TMC2    C6  701   1.369   0.895  10.129 -0.6498 -0.0993  0.1046
   45TMC2     C  702   1.119   0.677   9.880  0.5816 -0.2443  0.2383
   45TMC2     O  703   1.168   0.566   9.858 -0.5270 -0.6278  0.4193
   45TMC2     H  704   1.355   0.615   9.953 -0.8509  0.6474 -2.3197
   45TMC2    H1  705   1.062   0.919   9.983 -0.4788 -1.5078 -1.0141
   45TMC2    H2  706   1.429   0.950  10.200  1.8267 -2.0262 -0.5081
   45TMC2    C7  707   1.240   1.090  10.121 -0.4698 -0.0915 -0.9635
   45TMC2    C8  708   1.530   0.710  10.119  0.4630 -0.0664 -0.5488
   45TMC2    O1  709   1.346   1.145  10.137  0.4317 -0.4106  0.1959
   45TMC2    O2  710   1.563   0.727  10.235 -0.2565  0.0813 -0.1857
   45TMC2    O5  711   1.592   0.640  10.021 -0.5494  0.5225 -0.0557
   45TMC2    H5  712   1.547   0.644   9.934 -0.5905 -2.2993 -0.1695
   46MPD2     C  713   0.923   0.525   9.712  0.8380  0.8621  0.1643
   46MPD2    C1  714   0.900   0.647   9.776  0.5493 -0.1877  0.6600
   46MPD2    C2  715   0.778   0.707   9.761  0.3118 -0.0572 -0.2047
   46MPD2    C3  716   0.675   0.631   9.703 -0.5568 -0.8405  0.8175
   46MPD2    C4  717   0.696   0.508   9.651 -1.1256 -0.9004  0.2400
   46MPD2    C5  718   0.820   0.465   9.654  0.4941 -0.1278 -0.2885
   46MPD2     H  719   0.761   0.807   9.799  1.9984  0.3476 -0.5205
   46MPD2    H1  720   0.617   0.445   9.614  0.1904 -1.2316 -2.0152
   46MPD2    H2  721   1.015   0.467   9.708 -1.7061 -3.1180 -0.9819
   46MPD2    H3  722   0.849   0.370   9.609  0.9789  0.2336 -0.7414
   46MPD2     N  723   0.544   0.683   9.723 -0.4611 -0.2336  0.1839
   46MPD2    H5  724   0.541   0.771   9.775 -0.0136 -0.4949  0.6524
   46MPD2    N1  725   0.998   0.723   9.843 -0.6678 -0.0347  0.2449
   46MPD2    H7  726   0.966   0.816   9.870  0.9742  0.3698  0.7618
   47TMC2    C1  727   4.354   1.619   9.422  0.0164 -0.4193  0.0898
   47TMC2    C2  728   4.408   1.505   9.380 -0.1005  0.0524  0.0951
   47TMC2    C3  729   4.349   1.450   9.268  0.7660 -1.1468 -0.1482
   47TMC2    C4  730   4.239   1.670   9.365  0.8051  0.5441 -0.1532
   47TMC2    C5  731   4.190   1.617   9.249 -0.2658  0.1043  0.6187
   47TMC2    C6  732   4.243   1.505   9.204  0.4525 -0.3956 -0.1266
   47TMC2     C  733   4.381   1.676   9.549 -0.6059 -0.1268 -0.0978
   47TMC2     O  734   4.373   1.802   9.561 -0.0199 -0.0165  0.0331
   47TMC2     H  735   4.494   1.460   9.428  1.1493 -0.6163 -2.7903
   47TMC2    H1  736   4.196   1.760   9.408  1.0985  0.6591 -0.0987
   47TMC2    H2  737   4.201   1.446   9.123  2.4126  0.5756 -1.8725
   47TMC2    C7  738   4.049   1.631   9.217 -0.0008  0.5555  0.6521
   47TMC2    C8  739   4.404   1.328   9.212  0.0988 -0.0405  0.6038
   47TMC2    O1  740   3.984   1.525   9.199 -0.1483 -0.0568  0.2705
   47TMC2    O2  741   4.360   1.282   9.105 -0.0637 -0.0760 -0.3487
   47TMC2    O5  742   4.444   1.253   9.316 -0.2442  0.4834 -0.7469
   47TMC2    H5  743   4.429   1.304   9.399  2.3962  0.6559 -0.4001
   48MPD2     C  744   4.524   1.732   9.801 -0.7163  0.1258 -0.6336
   48MPD2    C1  745   4.494   1.605   9.760  0.3270 -0.5199  0.3879
   48MPD2    C2  746   4.506   1.498   9.843 -0.3713  0.9447 -0.0460
   48MPD2    C3  747   4.534   1.522   9.974 -0.1758  0.1744  0.7280
   48MPD2    C4  748   4.567   1.649  10.013 -0.0441  0.1808 -0.5937
   48MPD2    C5  749   4.565   1.757   9.934  0.2495 -0.4257 -0.6454
   48MPD2     H  750   4.461   1.402   9.820  2.1373 -0.2307 -0.0902
   48MPD2    H1  751   4.610   1.667  10.111  0.0128  2.2727 -0.9905
   48MPD2    H2  752   4.521   1.817   9.733 -3.3173  0.3567 -0.2348
   48MPD2    H3  753   4.595   1.852   9.976 -0.8267 -0.1133 -0.5906
   48MPD2     N  754   4.537   1.412  10.058 -0.0800 -0.1829  0.2194
   48MPD2    H5  755   4.497   1.327  10.018 -0.6388  0.1557  0.0639
   48MPD2    N1  756   4.429   1.583   9.638 -0.3197  0.1222 -0.1144
   48MPD2    H7  757   4.408   1.487   9.612  1.0446  0.0119 -0.8109
   49TMC2    C1  758   2.077   3.191  10.445  0.2693  1.1490 -0.3104
   49TMC2    C2  759   2.037   3.064  10.429 -0.4780  0.4188 -0.0051
   49TMC2    C3  760   2.085   2.994  10.327  0.5300  0.3618 -0.2641
   49TMC2    C4  761   2.153   3.248  10.352 -0.2835  0.3412 -0.2136
   49TMC2    C5  762   2.200   3.178  10.245 -0.4729 -0.1504  0.5068
   49TMC2    C6  763   2.177   3.044  10.239 -0.4903 -0.1275  0.3442
   49TMC2     C  764   2.043   3.267  10.563 -0.3731  0.6277 -0.3899
   49TMC2     O  765   2.119   3.362  10.580  0.2466 -0.3027 -0.4988
   49TMC2     H  766   1.978   3.016  10.506  1.4883 -0.6889  0.8402
   49TMC2    H1  767   2.162   3.355  10.365  0.5077 -0.0208  2.2296
   49TMC2    H2  768   2.219   2.986  10.158 -0.0537 -0.4027  0.7683
   49TMC2    C7  769   2.311   3.239  10.175 -1.1391 -0.8529 -0.7211
   49TMC2    C8  770   2.052   2.857  10.305 -0.9778  0.1280  0.1799
   49TMC2    O1  771   2.400   3.159  10.143 -0.1993  0.2779 -0.3796
   49TMC2    O2  772   2.114   2.792  10.218 -0.0908 -0.5248  0.0410
   49TMC2    O5  773   1.919   2.850  10.335  0.7314  0.0721  0.5108
   49TMC2    H5  774   1.887   2.932  10.378 -0.6751 -0.0780 -0.2476
   50MPD2     C  775   1.922   3.385  10.805  0.0475 -0.1593  0.0215
   50MPD2    C1  776   1.869   3.278  10.746 -0.1566 -0.1688 -0.4459
   50MPD2    C2  777   1.747   3.223  10.803  0.2185 -0.0048  0.4745
   50MPD2    C3  778   1.693   3.281  10.915 -0.0673 -0.3853 -0.2788
   50MPD2    C4  779   1.759   3.382  10.978 -0.5063  0.1101  0.1030
   50MPD2    C5  780   1.872   3.429  10.921  0.0621  0.7974 -0.4791
   50MPD2     H  781   1.714   3.131  10.755 -0.6190  0.6233 -0.1487
   50MPD2    H1  782   1.718   3.425  11.068 -0.8804  2.2297 -1.0728
   50MPD2    H2  783   2.013   3.434  10.772 -1.2487  1.8878 -0.5442
   50MPD2    H3  784   1.926   3.511  10.969  1.1270 -0.1790 -0.0017
   50MPD2     N  785   1.574   3.239  10.971  0.1784 -0.3455  0.3538
   50MPD2    H5  786   1.544   3.293  11.051  1.3957  0.0844  0.5291
   50MPD2    N1  787   1.926   3.228  10.628 -0.0225  0.2441 -0.3198
   50MPD2    H7  788   1.880   3.146  10.591  0.4526 -0.1253 -0.0907
   51TMC2    C1  789   1.483   2.542   1.419 -0.1125 -0.4630  0.3018
   51TMC2    C2  790   1.525   2.648   1.342  0.5676 -0.3485 -0.0710
   51TMC2    C3  791   1.430   2.743   1.310 -0.1969 -0.2535  0.1220
   51TMC2    C4  792   1.352   2.509   1.439  0.3139  0.3412  0.6465
   51TMC2    C5  793   1.261   2.586   1.376 -0.3992 -0.0270  0.2791
   51TMC2    C6  794   1.295   2.703   1.319  0.2580  0.2709 -0.5776
   51TMC2     C  795   1.573   2.420   1.442 -0.1453 -0.6519  0.0708
   51TMC2     O  796   1.518   2.314   1.474  0.4042 -0.6893  0.6717
   51TMC2     H  797   1.628   2.678   1.329 -0.0347  2.1333  0.8613
   51TMC2    H1  798   1.318   2.425   1.497 -2.0803  1.0250  0.2419
   51TMC2    H2  799   1.216   2.762   1.274 -1.5478 -2.2380 -0.6451
   51TMC2    C7  800   1.120   2.557   1.390 -0.4040  0.5042  0.0934
   51TMC2    C8  801   1.444   2.825   1.190 -0.1786 -0.1823  0.3171
   51TMC2    O1  802   1.063   2.655   1.435 -0.9275 -0.0177  0.1215
   51TMC2    O2  803   1.390   2.939   1.188 -0.0812  0.5617  1.1031
   51TMC2    O5  804   1.422   2.728   1.100  0.4614 -0.3106 -0.1302
   51TMC2    H5  805   1.456   2.645   1.140 -0.2544  0.9510  3.1207
   52MPD2     C  806   1.995   2.166   1.315 -0.3344  0.3335 -0.0344
   52MPD2    C1  807   1.863   2.118   1.322 -0.0498  0.0673  0.1832
   52MPD2    C2  808   1.767   2.213   1.363  0.5685  0.1454 -0.2216
   52MPD2    C3  809   1.801   2.344   1.384 -0.0271 -0.4067 -0.4185
   52MPD2    C4  810   1.929   2.385   1.374  0.1092  0.1308  0.1868
   52MPD2    C5  811   2.026   2.292   1.350  0.2429  0.5084 -0.3607
   52MPD2     H  812   1.661   2.190   1.356  0.2394  2.1566 -1.9511
   52MPD2    H1  813   1.965   2.486   1.383 -0.5865  0.0196  4.3294
   52MPD2    H2  814   2.076   2.110   1.270 -0.4311 -0.0563  0.2751
   52MPD2    H3  815   2.128   2.330   1.347  1.0241 -1.6355 -1.6190
   52MPD2     N  816   1.707   2.448   1.413 -0.1561 -0.4712 -0.3724
   52MPD2    H5  817   1.744   2.541   1.427  2.1046 -1.5991  1.1178
   52MPD2    N1  818   1.828   1.988   1.267 -0.0547 -0.5566 -0.2294
   52MPD2    H7  819   1.906   1.934   1.231  0.1289 -0.4301 -0.0128
   53TMC2    C1  820   2.526   0.822  12.681  0.4831  0.1078 -0.0107
   53TMC2    C2  821   2.571   0.861  12.802 -0.1561 -0.1703 -0.7358
   53TMC2    C3  822   2.560   0.777  12.908 -0.1609  0.2932  0.6572
   53TMC2    C4  823   2.454   0.704  12.667 -0.0577 -0.8521 -0.0362
   53TMC2    C5  824   2.437   0.626  12.780 -0.0911 -0.3068  0.3777
   53TMC2    C6  825   2.491   0.656  12.903 -0.1472  0.0605  0.2301
   53TMC2     C  826   2.557   0.903  12.562 -0.7306  0.4916 -0.7354
   53TMC2     O  827   2.653   0.978  12.563  1.1046 -0.4360  0.3213
   53TMC2     H  828   2.634   0.949  12.809  0.7713 -0.9599  0.9336
   53TMC2    H1  829   2.428   0.672  12.566  0.4452 -5.0186  1.1505
   53TMC2    H2  830   2.497   0.600  12.995 -1.8572 -0.4959  0.0038
   53TMC2    C7  831   2.305   0.556  12.785  0.2106 -0.5535  0.5129
   53TMC2    C8  832   2.686   0.749  12.975  0.0182  0.1925  0.4473
   53TMC2    O1  833   2.234   0.587  12.690  0.5720  0.8861  0.2188
   53TMC2    O2  834   2.748   0.643  12.964 -0.1148 -0.4066  0.1810
   53TMC2    O5  835   2.673   0.826  13.089  0.0193  0.4576  0.2900
   53TMC2    H5  836   2.611   0.900  13.072 -1.1105 -1.1287 -2.5567
   54MPD2     C  837   2.484   1.089  12.326 -0.6256  0.5386 -0.1935
   54MPD2    C1  838   2.412   0.982  12.368  0.0007  0.9934  0.5222
   54MPD2    C2  839   2.292   0.958  12.310  0.6400  0.1139  0.1599
   54MPD2    C3  840   2.243   1.044  12.214  0.4736  0.2894  0.2072
   54MPD2    C4  841   2.316   1.158  12.182 -0.6006 -0.1720 -0.0556
   54MPD2    C5  842   2.436   1.170  12.233  0.0292  0.1828 -0.3516
   54MPD2     H  843   2.235   0.873  12.347 -0.8271 -0.5395 -3.6118
   54MPD2    H1  844   2.282   1.239  12.118 -0.8974 -0.6162 -0.4598
   54MPD2    H2  845   2.579   1.109  12.374 -0.9615 -0.4048  0.8543
   54MPD2    H3  846   2.483   1.262  12.200  0.9299 -0.0932  0.1644
   54MPD2     N  847   2.111   1.035  12.160  0.3728  0.3123  0.4374
   54MPD2    H5  848   2.084   1.114  12.103  0.4171  1.9245  2.6569
   54MPD2    N1  849   2.452   0.893  12.476  0.5141  0.0550  0.3602
   54MPD2    H7  850   2.389   0.815  12.495  0.2331  0.6408  1.8691
   55TMC2    C1  851   3.012   3.528   0.096 -0.5868 -0.3256  0.0497
   55TMC2    C2  852   3.125   3.600   0.107  0.5618  0.1408  0.0141
   55TMC2    C3  853   3.239   3.533   0.142  0.4650  0.0601  0.0865
   55TMC2    C4  854   2.999   3.400   0.135 -0.3553  0.6862  0.7835
   55TMC2    C5  855   3.116   3.335   0.173 -0.2001 -0.1280 -0.3455
   55TMC2    C6  856   3.237   3.399   0.168 -0.4649 -0.6485  0.5069
   55TMC2     C  857   2.888   3.605   0.094 -0.2145  0.1224 -0.4087
   55TMC2     O  858   2.793   3.552   0.137 -0.7309 -0.5071  0.3135
   55TMC2     H  859   3.135   3.708   0.098  2.2761  0.1358  1.9569
   55TMC2    H1  860   2.906   3.344   0.133 -1.9624  3.3631  1.2328
   55TMC2    H2  861   3.325   3.353   0.212 -0.9561 -1.8286  0.2576
   55TMC2    C7  862   3.113   3.198   0.220 -0.4060  0.1295  0.1501
   55TMC2    C8  863   3.360   3.606   0.145  0.0434  0.6795 -0.0495
   55TMC2    O1  864   3.221   3.147   0.235  0.3727 -1.0103 -0.7103
   55TMC2    O2  865   3.363   3.727   0.160 -0.0646  0.2211 -0.6461
   55TMC2    O5  866   3.463   3.525   0.115 -0.3607  0.9892 -0.4838
   55TMC2    H5  867   3.436   3.439   0.076 -0.9750  0.7791  0.4080
   56MPD2     C  868   2.825   3.944  17.701  0.0942 -0.7709 -0.2439
   56MPD2    C1  869   2.799   3.827   0.041  0.2191 -0.2042 -0.3755
   56MPD2    C2  870   2.670   3.822   0.105 -0.0346 -0.0236 -0.7302
   56MPD2    C3  871   2.589   3.929   0.117 -0.3239 -0.1808 -0.4379
   56MPD2    C4  872   2.627   4.046   0.046 -0.1930  0.3284 -0.3654
   56MPD2    C5  873   2.741   4.050  17.706  0.0061  0.2516  0.0697
   56MPD2     H  874   2.644   3.728   0.151 -1.1800  1.0460  0.8079
   56MPD2    H1  875   2.557   4.128   0.042  0.7719  1.1129 -1.2496
   56MPD2    H2  876   2.912   3.934  17.636  1.5078 -0.3497  1.5872
   56MPD2    H3  877   2.758   4.142  17.651  3.4455 -0.1360  0.4697
   56MPD2     N  878   2.473   3.913   0.194  0.2520 -0.4431 -0.0441
   56MPD2    H5  879   2.461   3.823   0.239 -1.2188  0.3449  1.1492
   56MPD2    N1  880   2.900   3.726   0.032  0.5043  0.2945  0.3560
   56MPD2    H7  881   2.977   3.742  17.703 -0.0957 -0.1937 -0.4836
   57TMC2    C1  882   2.278   3.861  14.014 -0.3985 -0.4823 -0.3915
   57TMC2    C2  883   2.344   3.968  14.076  0.4477 -0.8728 -0.0049
   57TMC2    C3  884   2.473   3.953  14.130  0.1233 -0.7994  1.3396
   57TMC2    C4  885   2.345   3.751  13.991  0.1662 -0.2855  0.8214
   57TMC2    C5  886   2.463   3.733  14.047 -0.4115 -0.2765 -0.2259
   57TMC2    C6  887   2.531   3.827  14.127 -0.0865  0.3172 -0.4560
   57TMC2     C  888   2.132   3.860  14.020 -0.8887 -0.1851 -0.0226
   57TMC2     O  889   2.085   3.912  14.122 -0.1420 -0.2569 -0.5325
   57TMC2     H  890   2.301   4.068  14.075  2.4886  0.0333  1.9046
   57TMC2    H1  891   2.299   3.664  13.944  1.1587 -0.6264  0.4606
   57TMC2    H2  892   2.626   3.801  14.173  0.1060  0.3536 -0.8299
   57TMC2    C7  893   2.497   3.598  14.081  0.0912 -0.9136  0.2891
   57TMC2    C8  894   2.523   4.061  14.208  0.4510  0.3463  0.4487
   57TMC2    O1  895   2.521   3.572  14.199  0.2304 -0.9186  0.0220
   57TMC2    O2  896   2.457   4.150  14.256  0.6907  0.8176  0.1916
   57TMC2    O5  897   2.658   4.062  14.207 -0.1028  0.2197 -0.1735
   57TMC2    H5  898   2.704   3.995  14.153 -0.3188 -0.3158  0.3131
   58MPD2     C  899   1.677   3.766  13.826 -0.2348 -0.1540  0.7554
   58MPD2    C1  900   1.714   3.843  13.932 -0.4455 -0.7210 -0.5433
   58MPD2    C2  901   1.846   3.852  13.964 -0.3078  0.0723 -0.2326
   58MPD2    C3  902   1.941   3.771  13.891 -0.3326 -0.9031 -0.1455
   58MPD2    C4  903   1.897   3.694  13.787 -0.3576  0.2288 -0.2722
   58MPD2    C5  904   1.764   3.691  13.751  0.1567 -0.0123  0.4919
   58MPD2     H  905   1.874   3.924  14.040  0.7407 -0.2609 -0.2962
   58MPD2    H1  906   1.976   3.644  13.734  0.5930  0.0858  1.2661
   58MPD2    H2  907   1.572   3.755  13.800  0.8751 -4.1358 -2.1154
   58MPD2    H3  908   1.735   3.623  13.671 -2.2861 -1.1516  2.3324
   58MPD2     N  909   2.081   3.790  13.911  0.3037 -0.0712  0.1429
   58MPD2    H5  910   2.148   3.746  13.848 -2.2793  0.3449 -2.8498
   58MPD2    N1  911   1.623   3.921  14.013 -0.4580 -0.6150 -0.5832
   58MPD2    H7  912   1.670   3.960  14.095 -2.3813 -0.8280  0.6316
   59TMC2    C1  913   4.631   4.149  12.700 -0.0051 -0.1087 -0.0933
   59TMC2    C2  914   4.602   4.058  12.800 -0.0721 -0.7905  0.1289
   59TMC2    C3  915   4.498   3.977  12.774 -0.4573  0.0542 -0.0171
   59TMC2    C4  916   4.538   4.182  12.603 -0.5271  0.2239 -0.0942
   59TMC2    C5  917   4.424   4.101  12.597 -0.6280  0.7220 -0.3989
   59TMC2    C6  918   4.399   4.000  12.681  0.9706 -0.3839  0.4718
   59TMC2     C  919   0.011   4.240  12.712 -0.0145  0.0687  0.2647
   59TMC2     O  920   0.017   4.317  12.617 -0.2171  0.5626  0.2070
   59TMC2     H  921   4.675   4.035  12.877 -1.3761  0.7883  1.8163
   59TMC2    H1  922   4.544   4.268  12.537  0.7132  0.1501 -0.0645
   59TMC2    H2  923   4.311   3.936  12.673  0.5769  0.3242 -0.8428
   59TMC2    C7  924   4.340   4.100  12.476  0.1283 -0.0344 -0.3760
   59TMC2    C8  925   4.476   3.884  12.882  0.2609  0.4133 -0.4680
   59TMC2    O1  926   4.234   4.037  12.475  0.1226  0.0854  0.4210
   59TMC2    O2  927   4.537   3.893  12.988  0.1987  0.4776 -0.0239
   59TMC2    O5  928   4.383   3.795  12.845  0.1535 -0.5900  0.4232
   59TMC2    H5  929   4.375   3.805  12.747 -0.7402  0.0203  0.5690
   60MPD2     C  930   0.238   4.429  12.767 -0.0470 -0.6083  0.6352
   60MPD2    C1  931   0.174   4.353  12.865 -0.3531  0.8581  0.6796
   60MPD2    C2  932   0.223   4.362  12.996  0.2944  0.1873 -0.4134
   60MPD2    C3  933   0.343   4.433  13.026  0.5191  0.0807  0.0369
   60MPD2    C4  934   0.394   4.509  12.927  0.0754  0.6600 -0.4261
   60MPD2    C5  935   0.357   4.500  12.798  0.6061  0.1059  0.2545
   60MPD2     H  936   0.168   4.306  13.070  1.3240  0.0625  0.2527
   60MPD2    H1  937   0.480   4.564  12.964  2.4813 -2.5507 -1.2504
   60MPD2    H2  938   0.208   4.426  12.663 -1.7804  0.3417  1.1206
   60MPD2    H3  939   0.418   4.556  12.728 -0.5167 -1.3224 -1.8497
   60MPD2     N  940   0.414   4.430  13.149  0.3251 -0.3196 -0.1881
   60MPD2    H5  941   0.502   4.481  13.150  0.6127 -0.8180 -0.0339
   60MPD2    N1  942   0.080   4.252  12.837 -0.0567 -0.0674 -0.5860
   60MPD2    H7  943   0.049   4.200  12.918 -0.7480 -0.4532 -1.1024
   61TMC2    C1  944   3.713   0.971  15.409 -0.2664 -0.0324 -0.5730
   61TMC2    C2  945   3.624   0.923  15.502 -0.5501  0.7924 -0.2711
   61TMC2    C3  946   3.558   1.013  15.577  0.7617  0.4858  0.0566
   61TMC2    C4  947   3.753   1.102  15.409 -0.5714  0.6889  0.0482
   61TMC2    C5  948   3.686   1.194  15.486 -0.1536  0.4311  0.5793
   61TMC2    C6  949   3.593   1.147  15.574  0.0432  0.5939 -0.6326
   61TMC2     C  950   3.765   0.874  15.315 -0.4009  0.5173 -0.4388
   61TMC2     O  951   3.776   0.760  15.356  0.5936 -0.2964  0.1983
   61TMC2     H  952   3.594   0.819  15.510  0.7164  0.3907 -0.6959
   61TMC2    H1  953   3.836   1.139  15.350  0.2304 -0.1752  0.6442
   61TMC2    H2  954   3.532   1.217  15.629  1.0507  0.7269  0.2987
   61TMC2    C7  955   3.742   1.325  15.488 -0.1208 -0.5293  0.4633
   61TMC2    C8  956   3.465   0.964  15.679 -0.0930  0.4003  0.3182
   61TMC2    O1  957   3.812   1.356  15.391 -0.2724  0.1906 -0.1441
   61TMC2    O2  958   3.436   1.012  15.786 -0.8783  0.0549  0.1999
   61TMC2    O5  959   3.392   0.868  15.633  0.1246 -0.1127 -0.0121
   61TMC2    H5  960   3.424   0.834  15.546 -1.1813  0.0409 -0.5474
   62MPD2     C  961   3.884   0.739  15.073 -0.2185 -0.4052 -0.0396
   62MPD2    C1  962   3.886   0.876  15.095 -0.4705  0.1209 -0.1405
   62MPD2    C2  963   3.966   0.955  15.010  0.7057 -0.1093  0.7115
   62MPD2    C3  964   4.022   0.889  14.905 -0.0755 -0.3397 -0.7900
   62MPD2    C4  965   4.012   0.757  14.876  0.3512  0.6533  0.2476
   62MPD2    C5  966   3.934   0.681  14.961  0.1889 -0.3689  0.2832
   62MPD2     H  967   3.985   1.060  15.031 -1.1271 -0.2212  2.9543
   62MPD2    H1  968   4.061   0.722  14.786 -0.9718  0.0683 -0.2427
   62MPD2    H2  969   3.836   0.679  15.149  0.3106 -0.3361  0.3443
   62MPD2    H3  970   3.913   0.575  14.949 -0.7603  0.0893 -2.1868
   62MPD2     N  971   4.075   0.963  14.797  0.4984 -0.2084  0.2345
   62MPD2    H5  972   4.098   0.917  14.710  0.2918  0.9421 -0.4311
   62MPD2    N1  973   3.811   0.938  15.203 -0.3523  0.1410 -0.3928
   62MPD2    H7  974   3.815   1.039  15.196 -1.4143  0.1896 -0.2709
   63TMC2    C1  975   3.410   1.683  10.466 -0.0534 -0.7797  0.0868
   63TMC2    C2  976   3.392   1.815  10.435  0.4773 -0.5042  0.1577
   63TMC2    C3  977   3.506   1.876  10.391 -0.6028 -0.2048  0.1320
   63TMC2    C4  978   3.532   1.621  10.456  0.1566  0.4016  0.0220
   63TMC2    C5  979   3.646   1.685  10.410 -0.7646  0.3476  0.1726
   63TMC2    C6  980   3.627   1.812  10.367  0.3691 -0.6058  0.7018
   63TMC2     C  981   3.290   1.614  10.493 -0.2041  0.1690 -0.4188
   63TMC2     O  982   3.177   1.667  10.479 -0.7245  0.4169  0.1892
   63TMC2     H  983   3.289   1.850  10.439 -0.2803 -2.9549  1.9489
   63TMC2    H1  984   3.532   1.515  10.478 -1.7676  1.1333  3.5315
   63TMC2    H2  985   3.713   1.868  10.333 -0.1535 -0.7255 -0.8086
   63TMC2    C7  986   3.734   1.595  10.337 -0.8819  0.0630  0.1182
   63TMC2    C8  987   3.496   2.003  10.320 -0.1485  0.1835  0.3506
   63TMC2    O1  988   3.712   1.477  10.358 -0.1561  0.2382 -0.3382
   63TMC2    O2  989   3.570   2.046  10.231  0.2666  0.0421 -0.1711
   63TMC2    O5  990   3.373   2.043  10.338  0.0586  0.1051 -0.2398
   63TMC2    H5  991   3.344   2.017  10.428  0.6449 -0.1427 -0.1201
   64MPD2     C  992   3.048   1.181  10.621 -0.4729  0.3088 -0.9498
   64MPD2    C1  993   3.168   1.184  10.683  0.1551  0.3690  0.3917
   64MPD2    C2  994   3.254   1.294  10.661  0.0448  0.4689  0.3422
   64MPD2    C3  995   3.213   1.403  10.588  0.0757  0.4443  0.1993
   64MPD2    C4  996   3.081   1.403  10.538 -0.6237  0.0138  0.6313
   64MPD2    C5  997   3.007   1.289  10.543 -0.0548 -0.1944  0.1488
   64MPD2     H  998   3.355   1.296  10.701 -0.5089  1.4801  1.7026
   64MPD2    H1  999   3.038   1.489  10.489 -1.3282 -0.3261  0.6515
   64MPD2    H2 1000   2.989   1.091  10.624 -1.7908  1.1809 -0.8563
   64MPD2    H3 1001   2.914   1.281  10.488 -1.0279  1.7868  1.4668
   64MPD2     N 1002   3.307   1.493  10.552  0.2910  0.3128 -0.4950
   64MPD2    H5 1003   3.390   1.495  10.611  0.2071 -0.0608 -0.3693
   64MPD2    N1 1004   3.231   1.084  10.754 -0.0285 -0.1096  0.1857
   64MPD2    H7 1005   3.324   1.112  10.784 -0.0629 -1.0710  1.2007
   65TMC2    C1 1006   4.673   0.760  15.870  0.4750 -0.0347  0.3028
   65TMC2    C2 1007   0.051   0.839  15.892  0.6414 -0.2815 -0.1431
   65TMC2    C3 1008   0.047   0.963  15.828  0.3690 -0.3158  0.3297
   65TMC2    C4 1009   4.582   0.799  15.775 -0.5244  0.1798  0.2302
   65TMC2    C5 1010   4.605   0.912  15.695 -0.2322  0.0198 -0.0197
   65TMC2    C6 1011   4.705   0.995  15.723 -0.3406 -0.5023 -0.0406
   65TMC2     C 1012   4.676   0.629  15.930 -0.4391  0.3946  0.3047
   65TMC2     O 1013   0.046   0.597  15.987  0.0608  0.1378  0.3669
   65TMC2     H 1014   0.119   0.814  15.973  0.8245 -2.3212 -0.9292
   65TMC2    H1 1015   4.502   0.728  15.753  1.4272 -1.0693 -2.8942
   65TMC2    H2 1016   4.704   1.081  15.656 -3.6642 -0.5495 -0.0506
   65TMC2    C7 1017   4.491   0.989  15.662  0.2231 -0.3511 -0.2754
   65TMC2    C8 1018   0.134   1.068  15.880 -0.1823  0.0478 -0.1426
   65TMC2    O1 1019   4.479   1.036  15.549 -0.5797 -0.4300  0.3893
   65TMC2    O2 1020   0.224   1.039  15.956 -0.3793  0.2038  0.0782
   65TMC2    O5 1021   0.089   1.191  15.861 -0.5397 -0.1325  0.3717
   65TMC2    H5 1022   0.011   1.212  15.806  0.0509  0.0805 -0.3898
   66MPD2     C 1023   4.647   0.337  15.974 -0.3764  0.4713 -0.2811
   66MPD2    C1 1024   4.542   0.421  15.936 -0.1397  0.3399  0.1080
   66MPD2    C2 1025   4.408   0.372  15.932 -0.3208  0.4174  0.1949
   66MPD2    C3 1026   4.382   0.242  15.971  0.0998  0.1441 -0.5797
   66MPD2    C4 1027   4.486   0.162  16.005  0.2468 -0.2842  0.2899
   66MPD2    C5 1028   4.612   0.208  16.010  0.2340 -0.1682  0.4052
   66MPD2     H 1029   4.331   0.447  15.919  0.7584  1.4085 -0.5133
   66MPD2    H1 1030   4.478   0.059  16.037 -0.3369 -0.7713 -1.4347
   66MPD2    H2 1031   0.015   0.374  15.979 -0.6836  1.7377 -3.3455
   66MPD2    H3 1032   4.689   0.139  16.041  1.5255  1.1805  0.1643
   66MPD2     N 1033   4.251   0.183  15.975  0.0432 -0.5219  0.6059
   66MPD2    H5 1034   4.237   0.092  16.018 -0.5268 -0.9389 -0.4796
   66MPD2    N1 1035   4.558   0.558  15.914 -0.5457 -0.2038 -0.2328
   66MPD2    H7 1036   4.474   0.610  15.893  0.9827  1.7514 -1.5499
   67TMC2    C1 1037   4.640   4.249  14.675  0.0881  0.1735 -0.1667
   67TMC2    C2 1038   4.627   4.157  14.582  0.4570  0.2001 -0.2569
   67TMC2    C3 1039   4.731   4.076  14.548  0.2410 -0.6047  0.2135
   67TMC2    C4 1040   0.026   4.264  14.737  0.4239  0.1598 -0.4747
   67TMC2    C5 1041   0.123   4.178  14.704  0.3327 -1.1828  0.0437
   67TMC2    C6 1042   0.115   4.074  14.612 -0.1819  0.3030 -1.1968
   67TMC2     C 1043   4.553   4.363  14.684  0.0272  0.4328  0.1660
   67TMC2     O 1044   4.584   4.468  14.742  0.2439 -0.2634 -0.5092
   67TMC2     H 1045   4.546   4.157  14.510  0.6882  1.6330 -0.5256
   67TMC2    H1 1046   0.041   4.343  14.809 -1.7853  1.6858 -1.7088
   67TMC2    H2 1047   0.205   4.022  14.581  1.7219  2.0457  1.3615
   67TMC2    C7 1048   0.228   4.164  14.806  0.2403  0.5681  0.5907
   67TMC2    C8 1049   4.725   4.008  14.422  0.1217  0.3115  0.6650
   67TMC2    O1 1050   0.279   4.052  14.794 -0.0852 -0.4087 -0.0006
   67TMC2    O2 1051   4.659   4.059  14.329  0.3764 -0.2470  0.4326
   67TMC2    O5 1052   4.698   3.885  14.460  0.6158 -0.4867  0.0754
   67TMC2    H5 1053   0.005   3.844  14.539  0.6268 -2.4151 -0.9016
   68MPD2     C 1054   4.354   4.558  14.585 -0.0706  0.6778 -0.0438
   68MPD2    C1 1055   4.339   4.420  14.577  0.0545 -0.2776  0.8412
   68MPD2    C2 1056   4.240   4.370  14.497  0.3703  0.5538 -0.0132
   68MPD2    C3 1057   4.147   4.453  14.425  0.4554 -0.4473 -0.4906
   68MPD2    C4 1058   4.160   4.589  14.439  0.5413 -0.2855  0.3124
   68MPD2    C5 1059   4.258   4.639  14.524  0.3273  0.0841  0.4556
   68MPD2     H 1060   4.240   4.262  14.485 -1.7110  0.3504  1.7006
   68MPD2    H1 1061   4.103   4.659  14.380 -0.4629  0.0317  1.6639
   68MPD2    H2 1062   4.432   4.603  14.646 -2.2905  3.1101  1.0307
   68MPD2    H3 1063   4.266   0.011  14.546 -2.3565  0.3138  0.3514
   68MPD2     N 1064   4.061   4.397  14.333 -0.3576  0.3753 -0.5803
   68MPD2    H5 1065   3.998   4.456  14.279 -1.6412 -0.5576 -0.0973
   68MPD2    N1 1066   4.439   4.327  14.617 -0.1299  0.9464 -0.3345
   68MPD2    H7 1067   4.436   4.236  14.574 -1.2791  0.7920  0.0627
   69TMC2    C1 1068   1.842   1.409  12.864  0.8135 -0.7848 -0.2120
   69TMC2    C2 1069   1.803   1.504  12.950 -0.1723 -0.3076 -0.3089
   69TMC2    C3 1070   1.804   1.631  12.907  0.0114  0.8101  0.1074
   69TMC2    C4 1071   1.879   1.430  12.732 -0.2868 -0.3800 -0.2596
   69TMC2    C5 1072   1.883   1.563  12.698 -0.2062  0.0150  0.4790
   69TMC2    C6 1073   1.834   1.664  12.778  0.3300  0.0131  0.3329
   69TMC2     C 1074   1.858   1.272  12.924  0.2609  0.3086 -0.9854
   69TMC2     O 1075   1.790   1.243  13.023 -0.2358  0.5001 -0.2603
   69TMC2     H 1076   1.787   1.479  13.054  1.1001 -1.7794 -0.4629
   69TMC2    H1 1077   1.912   1.353  12.663  0.8682 -0.4281  0.3527
   69TMC2    H2 1078   1.865   1.765  12.756  0.4107 -0.0071  0.3534
   69TMC2    C7 1079   1.956   1.602  12.574  0.4890  0.0309 -0.3250
   69TMC2    C8 1080   1.840   1.735  13.007 -0.1764 -0.0168 -0.1610
   69TMC2    O1 1081   2.042   1.518  12.547  0.6295  0.8023  0.0411
   69TMC2    O2 1082   1.903   1.705  13.109 -0.4488 -0.1235 -0.6571
   69TMC2    O5 1083   1.771   1.847  12.972  0.5725 -0.0757 -0.3575
   69TMC2    H5 1084   1.723   1.822  12.891 -0.9747  0.1674  0.4926
   70MPD2     C 1085   2.117   1.027  12.821  0.7751 -1.1234  0.5280
   70MPD2    C1 1086   2.011   1.078  12.894  0.4681 -0.3568  0.2981
   70MPD2    C2 1087   1.952   0.999  12.999 -0.1464  0.1343  0.0874
   70MPD2    C3 1088   2.015   0.877  13.028 -0.7063  0.5742 -0.0946
   70MPD2    C4 1089   2.127   0.840  12.961 -0.0567  0.1709 -0.6062
   70MPD2    C5 1090   2.176   0.913  12.861 -0.1036 -0.0783  0.7861
   70MPD2     H 1091   1.874   1.039  13.063  0.2636  2.9142 -1.1274
   70MPD2    H1 1092   2.185   0.754  12.989 -0.0980  0.1854 -0.4765
   70MPD2    H2 1093   2.169   1.088  12.748 -0.7347 -1.1180 -0.5222
   70MPD2    H3 1094   2.267   0.880  12.813  0.3528  1.2138  0.7534
   70MPD2     N 1095   1.977   0.796  13.131  0.0183  0.0423  0.0049
   70MPD2    H5 1096   2.046   0.724  13.149 -0.9721 -0.9047  0.0427
   70MPD2    N1 1097   1.970   1.209  12.870  0.2434  0.5253  0.5392
   70MPD2    H7 1098   2.027   1.259  12.803  1.8742  0.4818  1.9008
   71TMC2    C1 1099   3.540   1.327   1.406  0.7259 -0.8879 -0.3680
   71TMC2    C2 1100   3.635   1.315   1.500 -0.6230 -0.2925  0.5831
   71TMC2    C3 1101   3.586   1.333   1.633  0.4064 -0.1952  0.2633
   71TMC2    C4 1102   3.411   1.354   1.442 -0.1435 -0.0981 -1.1344
   71TMC2    C5 1103   3.373   1.381   1.575 -0.2877 -0.4110 -0.3738
   71TMC2    C6 1104   3.459   1.359   1.672 -0.3677  0.5700  0.2496
   71TMC2     C 1105   3.593   1.330   1.275 -0.5254 -0.0905  0.1601
   71TMC2     O 1106   3.716   1.326   1.263 -0.0315  0.1346 -0.0117
   71TMC2     H 1107   3.741   1.295   1.486 -1.1236 -2.9277  0.4700
   71TMC2    H1 1108   3.348   1.388   1.361  1.6557  1.3487 -1.9193
   71TMC2    H2 1109   3.447   1.385   1.777  3.7303  0.2900  0.8001
   71TMC2    C7 1110   3.237   1.410   1.611 -0.3489 -0.6891 -0.6463
   71TMC2    C8 1111   3.682   1.284   1.732  0.0303 -0.3785  0.4526
   71TMC2    O1 1112   3.219   1.441   1.728  0.0951  0.4054  0.0063
   71TMC2    O2 1113   3.804   1.301   1.717  0.1823  0.2858 -0.0368
   71TMC2    O5 1114   3.626   1.213   1.833 -0.7381  0.4280  0.0617
   71TMC2    H5 1115   3.529   1.226   1.832 -0.4504  2.6003  1.4732
   72MPD2     C 1116   3.496   1.389   0.776  0.5494 -0.4278 -0.0547
   72MPD2    C1 1117   3.620   1.397   0.841 -0.2441 -0.1971  0.2785
   72MPD2    C2 1118   3.623   1.375   0.977 -1.1082  0.0789  0.3148
   72MPD2    C3 1119   3.503   1.344   1.047 -0.4763 -0.2324  0.0673
   72MPD2    C4 1120   3.387   1.365   0.986  0.6548  0.2666  0.2543
   72MPD2    C5 1121   3.380   1.384   0.851 -0.1633 -0.2484  0.0583
   72MPD2     H 1122   3.721   1.360   1.020 -1.1641  1.4600  0.9320
   72MPD2    H1 1123   3.297   1.362   1.046 -0.3581 -0.7936 -1.3442
   72MPD2    H2 1124   3.477   1.399   0.670  0.2629 -0.2775  0.0115
   72MPD2    H3 1125   3.282   1.382   0.806  0.8285  1.0052 -2.1424
   72MPD2     N 1126   3.489   1.322   1.185  0.2875  0.0018 -0.1337
   72MPD2    H5 1127   3.397   1.306   1.226  0.2010 -1.7481 -1.0405
   72MPD2    N1 1128   3.735   1.435   0.772 -0.1947 -0.0118 -0.0203
   72MPD2    H7 1129   3.811   1.467   0.832 -0.8765 -0.6649  1.1900
   73TMC2    C1 1130   3.641   3.484  14.348 -0.6497  0.7365 -0.7776
   73TMC2    C2 1131   3.569   3.574  14.419  0.4833 -0.2224 -0.1927
   73TMC2    C3 1132   3.614   3.617  14.542 -0.3453  0.7452  0.4216
   73TMC2    C4 1133   3.754   3.429  14.404 -0.6083 -0.8041 -0.3466
   73TMC2    C5 1134   3.793   3.462  14.529  0.3542  0.2984  0.6070
   73TMC2    C6 1135   3.722   3.559  14.601  0.6360  0.3836  0.8079
   73TMC2     C 1136   3.672   3.534  14.216 -0.7479  0.2865  0.5258
   73TMC2     O 1137   3.769   3.488  14.159  0.2377 -0.1199  0.0954
   73TMC2     H 1138   3.467   3.596  14.392  0.0685  0.3489  1.8870
   73TMC2    H1 1139   3.805   3.356  14.343  1.2065  0.9712 -0.9371
   73TMC2    H2 1140   3.754   3.604  14.694 -0.6842  2.8650  0.0436
   73TMC2    C7 1141   3.935   3.490  14.522  0.0146  0.6588 -0.4861
   73TMC2    C8 1142   3.534   3.706  14.610  0.0524  0.0145 -0.1035
   73TMC2    O1 1143   3.990   3.502  14.631 -0.5920 -0.2925 -0.5440
   73TMC2    O2 1144   3.535   3.724  14.732  0.1973 -0.1840 -0.2283
   73TMC2    O5 1145   3.516   3.801  14.511 -0.0014 -0.1990 -0.9981
   73TMC2    H5 1146   3.541   3.776  14.420 -1.1324 -0.3165 -1.2742
   74MPD2     C 1147   3.633   3.846  13.801 -0.4078  0.4307  0.3337
   74MPD2    C1 1148   3.738   3.765  13.844  0.3424  0.8298 -0.1355
   74MPD2    C2 1149   3.715   3.684  13.960  0.2151  0.4843  0.8956
   74MPD2    C3 1150   3.594   3.678  14.029 -0.2224  0.0247  0.2848
   74MPD2    C4 1151   3.491   3.755  13.976  0.3595  0.1253 -0.3131
   74MPD2    C5 1152   3.516   3.840  13.869  0.1861  0.4964  0.3022
   74MPD2     H 1153   3.805   3.645  14.006  0.3483  0.4473  0.6060
   74MPD2    H1 1154   3.390   3.757  14.013  0.4535 -0.7894 -0.0045
   74MPD2    H2 1155   3.645   3.920  13.723 -2.0954 -0.3102 -0.6388
   74MPD2    H3 1156   3.436   3.902  13.830  0.4459 -0.7191 -2.1789
   74MPD2     N 1157   3.580   3.618  14.158 -0.1369 -0.4290 -0.3325
   74MPD2    H5 1158   3.493   3.632  14.207  1.0618 -0.0263  1.6880
   74MPD2    N1 1159   3.859   3.776  13.775  0.4654  0.1136 -0.3361
   74MPD2    H7 1160   3.865   3.840  13.696  2.8090 -1.1816 -1.2071
   75TMC2    C1 1161   3.923   4.229  14.235  0.2475  0.5601 -0.1152
   75TMC2    C2 1162   3.847   4.121  14.258 -0.3241  0.7981 -0.3266
   75TMC2    C3 1163   3.801   4.053  14.153  0.1879  0.2094 -0.2500
   75TMC2    C4 1164   3.974   4.251  14.104 -0.8210  0.5365  0.0338
   75TMC2    C5 1165   3.933   4.166  14.001 -0.2657 -0.3149 -0.2863
   75TMC2    C6 1166   3.843   4.067  14.027  0.1901 -0.1293  0.4070
   75TMC2     C 1167   4.017   4.262  14.339  0.5869 -0.6517 -0.6531
   75TMC2     O 1168   4.030   4.182  14.431  0.2576 -0.3375  0.1256
   75TMC2     H 1169   3.814   4.086  14.355 -1.9931  1.2044 -0.7425
   75TMC2    H1 1170   4.038   4.337  14.092  0.7760 -0.6920 -0.2175
   75TMC2    H2 1171   3.830   3.989  13.953 -0.9359 -0.6202  1.1355
   75TMC2    C7 1172   3.985   4.191  13.869  0.3086 -0.4398  0.3692
   75TMC2    C8 1173   3.682   3.973  14.169  0.7630  0.1523 -0.0487
   75TMC2    O1 1174   3.926   4.135  13.778  0.2318 -0.0793  0.6515
   75TMC2    O2 1175   3.670   3.917  14.277 -0.2219  0.2397  0.4766
   75TMC2    O5 1176   3.585   4.032  14.103  0.0488 -0.4878 -0.3043
   75TMC2    H5 1177   3.612   4.079  14.021  1.5138 -0.0884  0.4166
   76TMC2    C1 1178   3.026   0.722  11.965 -0.1302 -1.2179 -0.0736
   76TMC2    C2 1179   3.168   0.710  11.954 -0.1253 -0.2787  0.1412
   76TMC2    C3 1180   3.232   0.589  11.961 -0.4334 -0.9289  0.1511
   76TMC2    C4 1181   2.959   0.616  12.017  0.6419  0.4997 -0.4058
   76TMC2    C5 1182   3.025   0.500  12.039  0.7311  0.2309  0.3759
   76TMC2    C6 1183   3.159   0.488  12.008 -0.9369 -0.4174 -0.2183
   76TMC2     C 1184   2.964   0.857  11.961 -0.5443  0.8455  0.3740
   76TMC2     O 1185   2.855   0.870  11.911 -0.3870 -0.0951  0.2879
   76TMC2     H 1186   3.216   0.796  11.909 -0.7008  1.6171  3.1628
   76TMC2    H1 1187   2.856   0.615  12.053  0.8150 -0.2884  0.0597
   76TMC2    H2 1188   3.205   0.391  11.990  1.4923  0.7832 -0.4723
   76TMC2    C7 1189   2.981   0.406  12.141 -0.3443 -0.1805 -0.2667
   76TMC2    C8 1190   3.367   0.567  11.940 -0.6823  0.6106  0.2336
   76TMC2    O1 1191   2.869   0.410  12.186  0.3794 -0.2516  0.1065
   76TMC2    O2 1192   3.450   0.513  12.015  0.5450 -0.6321 -0.0924
   76TMC2    O5 1193   3.396   0.642  11.828  0.0635 -0.3576  0.8346
   76TMC2    H5 1194   3.317   0.676  11.782  1.8494  3.2228  0.3910
   77MPD2     C 1195   2.973   1.338  12.088 -0.0052 -0.0364 -0.4726
   77MPD2    C1 1196   2.880   1.273  12.014 -0.1166  0.0810 -0.2941
   77MPD2    C2 1197   2.908   1.140  11.986  0.0362 -0.1523  0.6202
   77MPD2    C3 1198   3.015   1.071  12.051  0.0068 -0.6724 -0.0447
   77MPD2    C4 1199   3.107   1.144  12.113  0.0108 -0.8452 -0.6051
   77MPD2    C5 1200   3.087   1.274  12.136  0.6077 -0.3767  0.8702
   77MPD2     H 1201   2.843   1.089  11.917  0.1021 -0.3825  0.7260
   77MPD2    H1 1202   3.203   1.105  12.144  0.4434  0.2563 -0.5354
   77MPD2    H2 1203   2.958   1.442  12.114 -0.7144 -0.1111 -0.5767
   77MPD2    H3 1204   3.157   1.332  12.195  1.4055 -0.3912 -0.0691
   77MPD2     N 1205   3.050   0.940  12.023 -0.2714 -0.7034 -0.5738
   77MPD2    H5 1206   3.133   0.898  12.065  0.1759  2.6404  1.9241
   77MPD2    N1 1207   2.762   1.329  11.958 -0.1855  0.2765  0.0011
   77MPD2    H7 1208   2.713   1.281  11.883 -0.3048 -0.9842  0.8783
   78TMC2    C1 1209   3.936   0.973   1.743  0.2451  0.2629 -0.2239
   78TMC2    C2 1210   3.898   0.936   1.868 -0.0519  0.3506  0.1571
   78TMC2    C3 1211   3.934   1.013   1.980 -0.6302  0.6856 -0.0974
   78TMC2    C4 1212   4.019   1.077   1.727 -0.5269  0.4266 -0.1118
   78TMC2    C5 1213   4.059   1.149   1.835 -0.5325  0.6729  0.7138
   78TMC2    C6 1214   4.022   1.118   1.964 -0.4955  0.6771 -0.4404
   78TMC2     C 1215   3.846   0.931   1.632  0.2798  0.8491  0.4912
   78TMC2     O 1216   3.745   0.872   1.663  0.2360 -0.3420 -0.0248
   78TMC2     H 1217   3.825   0.856   1.875  0.7386 -0.2594  1.4440
   78TMC2    H1 1218   4.056   1.104   1.629 -1.3854  0.3385 -0.4566
   78TMC2    H2 1219   4.079   1.156   2.048  0.6277  1.5925 -1.6354
   78TMC2    C7 1220   4.161   1.243   1.809 -0.7803  0.3743 -0.1692
   78TMC2    C8 1221   3.820   1.020   2.074  0.3670  0.5727  0.4769
   78TMC2    O1 1222   4.220   1.235   1.698 -0.1197 -0.1776 -0.6024
   78TMC2    O2 1223   3.737   0.934   2.076 -0.1691  0.1944 -0.3457
   78TMC2    O5 1224   3.816   1.146   2.127  0.0701  0.0403  0.4136
   78TMC2    H5 1225   3.882   1.207   2.088  1.1714 -1.4282 -0.0310
   79MPD1     C 1226   3.641   0.936   1.157  0.1956 -0.0499 -0.2256
   79MPD1    C1 1227   3.609   0.860   1.266 -0.2782  0.2054  0.7129
   79MPD1    C2 1228   3.688   0.871   1.381 -0.0052  0.2678 -0.2406
   79MPD1    C3 1229   3.801   0.959   1.385 -0.2232  0.1023  0.7287
   79MPD1    C4 1230   3.834   1.026   1.271  0.1104 -0.1683 -0.4672
   79MPD1    C5 1231   3.758   1.010   1.154  0.0775 -0.2323  0.2316
   79MPD1     H 1232   3.669   0.809   1.467 -0.7143  0.9994  0.1222
   79MPD1    H1 1233   3.915   1.097   1.262 -1.4676  1.8948  1.6673
   79MPD1    H2 1234   3.578   0.942   1.069  0.2191  1.2367 -0.1597
   79MPD1    H3 1235   3.789   1.072   1.070 -1.2545  2.4277  1.6739
   79MPD1     N 1236   3.878   0.985   1.508  0.3031 -0.3033  0.1302
   79MPD1    H5 1237   3.964   1.038   1.510  0.4269 -0.4404 -1.6232
   79MPD1    N1 1238   3.499   0.770   1.268 -0.5830 -0.8754  0.2772
   79MPD1    H6 1239   3.465   0.732   1.180 -0.1810 -0.2621 -0.1411
   79MPD1    H7 1240   3.523   0.697   1.335  0.4455 -0.6329  0.1743
   80TMC2    C1 1241   2.508   0.057  12.393  0.2117 -0.2908  0.2928
   80TMC2    C2 1242   2.635   0.063  12.340  0.0916 -0.2266 -0.0886
   80TMC2    C3 1243   2.653   0.026  12.211  0.0271 -0.0455  0.0914
   80TMC2    C4 1244   2.396   0.035  12.317  0.0167  0.4159 -0.1735
   80TMC2    C5 1245   2.413   4.729  12.193 -0.4637 -0.4041 -0.5235
   80TMC2    C6 1246   2.541   0.001  12.134 -0.5639 -0.4946 -0.1215
   80TMC2     C 1247   2.492   0.053  12.538  0.3739  0.2340  0.0674
   80TMC2     O 1248   2.593   0.032  12.604 -0.5076  0.2395 -0.0500
   80TMC2     H 1249   2.717   0.095  12.403  0.3131  1.1918 -1.0993
   80TMC2    H1 1250   2.294   0.032  12.352  0.2355 -1.3523  0.3500
   80TMC2    H2 1251   2.571   4.707  12.033 -4.2812  1.5400 -1.7817
   80TMC2    C7 1252   2.307   4.667  12.118 -0.2757 -1.0336  0.0340
   80TMC2    C8 1253   2.770   4.679  12.191 -0.1381 -0.4098 -0.2703
   80TMC2    O1 1254   2.303   4.686  12.000  0.3218 -0.6688  0.3145
   80TMC2    O2 1255   2.855   4.702  12.103  0.0832  0.0334  0.0269
   80TMC2    O5 1256   2.774   4.609  12.308  0.2526 -0.2527 -0.3571
   80TMC2    H5 1257   2.690   4.577  12.346  0.3501 -0.8116 -0.6094
   81MPD2     C 1258   2.393   0.070  12.811 -0.1977 -0.2563  0.2390
   81MPD2    C1 1259   2.316   0.098  12.703 -0.2462  0.1518  0.8731
   81MPD2    C2 1260   2.180   0.125  12.723  0.3454  0.7139  0.0559
   81MPD2    C3 1261   2.122   0.114  12.849  0.1095 -0.0357 -0.1601
   81MPD2    C4 1262   2.206   0.079  12.958  0.0200  0.7734 -0.2926
   81MPD2    C5 1263   2.337   0.048  12.937  0.4378 -0.0378  0.3081
   81MPD2     H 1264   2.115   0.150  12.641 -0.2318  1.6390  0.7981
   81MPD2    H1 1265   2.152   0.072  13.052  0.7658  1.8585  0.2218
   81MPD2    H2 1266   2.494   0.033  12.800 -0.3654 -1.1941  1.7835
   81MPD2    H3 1267   2.401   0.023  13.020 -1.6048  0.3998  2.0110
   81MPD2     N 1268   1.985   0.133  12.877  0.0674  0.3378  0.3495
   81MPD2    H5 1269   1.958   0.114  12.973 -5.0180  1.0420 -0.9741
   81MPD2    N1 1270   2.367   0.092  12.574  0.3344  0.3245 -1.0501
   81MPD2    H7 1271   2.311   0.124  12.495 -1.5162 -1.1224 -0.3265
   82TMC2    C1 1272   0.647   4.240  11.794  0.9618 -1.1446 -0.1907
   82TMC2    C2 1273   0.707   4.221  11.671  0.3882 -0.0327  0.0877
   82TMC2    C3 1274   0.775   4.105  11.653  0.3544 -0.4957 -0.1823
   82TMC2    C4 1275   0.643   4.140  11.888 -0.0001  0.1335  0.2960
   82TMC2    C5 1276   0.701   4.018  11.854  0.0747 -0.0174 -0.4045
   82TMC2    C6 1277   0.767   3.998  11.737 -0.9256 -0.3972 -0.9036
   82TMC2     C 1278   0.533   4.328  11.787 -0.2151  0.2880  0.0473
   82TMC2     O 1279   0.533   4.408  11.692  0.0604 -0.0076 -0.3750
   82TMC2     H 1280   0.702   4.290  11.587  2.6646  0.9576  0.7631
   82TMC2    H1 1281   0.583   4.143  11.978 -1.0347 -0.4041 -0.3830
   82TMC2    H2 1282   0.790   3.901  11.696  0.2137  0.7241 -2.9412
   82TMC2    C7 1283   0.637   3.899  11.927 -0.1827 -0.4284  0.6987
   82TMC2    C8 1284   0.794   4.074  11.514  0.2023  0.2327  0.1563
   82TMC2    O1 1285   0.536   3.929  11.990  0.4256  0.0943 -0.6026
   82TMC2    O2 1286   0.777   3.961  11.466 -0.0434 -0.3532  0.5652
   82TMC2    O5 1287   0.913   4.139  11.489  0.6293  0.3630 -0.1826
   82TMC2    H5 1288   0.932   4.218  11.544  0.7368  0.2692 -0.0868
   83MPD2     C 1289   0.026   4.398  11.807  0.7062  0.0493 -0.2870
   83MPD2    C1 1290   0.118   4.395  11.701 -0.2517  0.4352  0.0606
   83MPD2    C2 1291   0.249   4.364  11.734  0.3040 -0.7977 -0.5515
   83MPD2    C3 1292   0.297   4.337  11.858 -0.1342 -0.0811  0.3352
   83MPD2    C4 1293   0.199   4.333  11.959 -0.4658  0.2689  0.2760
   83MPD2    C5 1294   0.071   4.360  11.928 -0.5700 -0.0406 -0.4805
   83MPD2     H 1295   0.322   4.347  11.655  0.2956 -2.0443 -0.2916
   83MPD2    H1 1296   0.227   4.290  12.054 -1.0604 -1.2449 -0.2372
   83MPD2    H2 1297   4.654   4.418  11.802  0.6612 -0.3736 -0.9600
   83MPD2    H3 1298   0.003   4.365  12.012 -0.3448  0.1327 -0.3093
   83MPD2     N 1299   0.435   4.304  11.875 -0.3962  0.2356 -0.1382
   83MPD2    H5 1300   0.455   4.250  11.958 -1.8082 -0.8043 -0.4689
   83MPD2    N1 1301   0.072   4.427  11.574  0.2750  0.0035  0.3900
   83MPD2    H7 1302   4.712   4.466  11.574 -0.0105 -0.6917 -1.2140
   84TMC2    C1 1303   1.242   3.194  11.183  0.4249  0.2729 -0.0995
   84TMC2    C2 1304   1.221   3.064  11.222  0.2002 -0.1344  0.1474
   84TMC2    C3 1305   1.276   2.963  11.157 -0.0100 -0.5885 -0.0260
   84TMC2    C4 1306   1.332   3.219  11.077  0.0008  0.2698  0.2550
   84TMC2    C5 1307   1.386   3.113  11.014  0.0729 -0.2124  0.9595
   84TMC2    C6 1308   1.359   2.985  11.054 -0.2552  0.3936 -0.5221
   84TMC2     C 1309   1.173   3.309  11.243  0.1903 -0.5458  0.0868
   84TMC2     O 1310   1.221   3.418  11.217 -0.5872  0.4184 -0.8089
   84TMC2     H 1311   1.145   3.037  11.295 -1.2927  0.5191 -1.1650
   84TMC2    H1 1312   1.355   3.321  11.047 -0.1610  0.1315 -0.3450
   84TMC2    H2 1313   1.406   2.902  11.004 -0.3017  0.9939 -1.5770
   84TMC2    C7 1314   1.501   3.131  10.928 -0.1835  0.7919 -0.1125
   84TMC2    C8 1315   1.258   2.836  11.211  0.1574 -0.3886  0.4605
   84TMC2    O1 1316   1.534   3.037  10.854  0.0479 -0.1689  0.1871
   84TMC2    O2 1317   1.232   2.825  11.332 -0.1512 -0.0665  0.4369
   84TMC2    O5 1318   1.237   2.753  11.104  0.6025 -0.2427  0.1223
   84TMC2    H5 1319   1.223   2.790  11.013 -1.9598  0.8919  0.9689
   85TMC2    C1 1320   1.820   1.299  15.867  0.4121 -0.1112 -0.7141
   85TMC2    C2 1321   1.742   1.335  15.763  0.6255 -0.4656  0.3938
   85TMC2    C3 1322   1.797   1.416  15.671 -0.4909  0.4089 -0.0499
   85TMC2    C4 1323   1.958   1.307  15.860  0.0724  0.4229  0.0025
   85TMC2    C5 1324   2.007   1.370  15.746 -0.5810  0.4507 -0.3396
   85TMC2    C6 1325   1.928   1.425  15.650 -0.4621  0.4376 -0.1361
   85TMC2     C 1326   1.767   1.181  15.930  0.5997  0.5715  0.3181
   85TMC2     O 1327   1.710   1.103  15.858  0.2122  0.0328  0.4009
   85TMC2     H 1328   1.634   1.335  15.772  0.5429  2.0526 -0.4141
   85TMC2    H1 1329   2.028   1.247  15.918 -2.2767 -0.0158  2.3724
   85TMC2    H2 1330   1.958   1.480  15.561  0.5891 -0.4410 -0.3219
   85TMC2    C7 1331   2.151   1.363  15.736 -0.2658 -1.3185 -0.1576
   85TMC2    C8 1332   1.710   1.467  15.564  0.5101  0.1259 -0.0360
   85TMC2    O1 1333   2.223   1.358  15.835  0.2241 -0.2666 -0.6896
   85TMC2    O2 1334   1.598   1.426  15.529 -0.1934 -0.0595 -0.0105
   85TMC2    O5 1335   1.747   1.593  15.542 -0.0539 -0.1139 -0.4623
   85TMC2    H5 1336   1.822   1.633  15.591 -0.1336 -0.9256  0.3296
   86MPD2     C 1337   1.593   0.943  16.345 -0.0871 -1.2865 -0.5785
   86MPD2    C1 1338   1.565   0.918  16.215 -0.1090  0.8569  1.2311
   86MPD2    C2 1339   1.631   0.991  16.121  0.9414 -0.6746 -0.7223
   86MPD2    C3 1340   1.724   1.088  16.152  0.3135  0.2129 -0.3866
   86MPD2    C4 1341   1.760   1.100  16.282 -0.6489  1.5933 -0.7562
   86MPD2    C5 1342   1.697   1.024  16.377 -0.1018  0.0910 -0.5492
   86MPD2     H 1343   1.609   0.973  16.016 -2.0573 -2.4827  0.2279
   86MPD2    H1 1344   1.839   1.165  16.317  0.6251 -1.0898  1.4265
   86MPD2    H2 1345   1.559   0.891  16.433  1.5440  2.1933  2.1113
   86MPD2    H3 1346   1.726   1.051  16.478 -1.7446 -1.8442  0.4523
   86MPD2     N 1347   1.785   1.180  16.063  0.0529  0.0713  0.1247
   86MPD2    H5 1348   1.843   1.253  16.102 -0.4260 -0.6107  2.1094
   86MPD2    N1 1349   1.469   0.829  16.173  0.1395  0.0869  0.7890
   86MPD2    H7 1350   1.445   0.839  16.075 -0.9559 -0.3887  1.0086
   87TMC2    C1 1351   0.101   0.190   0.730  0.6288  0.3202 -0.0623
   87TMC2    C2 1352   0.216   0.246   0.778 -0.3903  0.2185  0.3350
   87TMC2    C3 1353   0.212   0.309   0.907  0.3379 -0.5167  0.3757
   87TMC2    C4 1354   4.718   0.199   0.804  0.1100 -0.0816  0.0550
   87TMC2    C5 1355   4.720   0.261   0.932  0.2532  0.7975 -0.8228
   87TMC2    C6 1356   0.098   0.320   0.983 -0.1544 -0.1820  0.0152
   87TMC2     C 1357   0.094   0.130   0.598 -0.4044  0.1209  0.7865
   87TMC2     O 1358   0.008   0.040   0.572  0.0392 -0.5580 -0.3699
   87TMC2     H 1359   0.311   0.231   0.729  1.5553  0.1944  4.0980
   87TMC2    H1 1360   4.629   0.154   0.763 -0.9259  0.6249  1.5024
   87TMC2    H2 1361   0.101   0.374   1.077 -1.9236  1.0561 -0.6514
   87TMC2    C7 1362   4.598   0.313   0.991  0.0075  0.2914  1.2985
   87TMC2    C8 1363   0.328   0.401   0.928  0.5390  0.0843 -0.7954
   87TMC2    O1 1364   4.623   0.387   1.082 -0.5882 -0.2484  0.0705
   87TMC2    O2 1365   0.404   0.410   0.833 -0.0782 -0.5419 -0.0186
   87TMC2    O5 1366   0.361   0.425   1.055 -0.1348  0.2291  0.1738
   87TMC2    H5 1367   0.299   0.400   1.127  0.0119 -0.0263  0.2109
   88MPD2     C 1368   4.239   0.275   0.960  0.5609  0.1882 -0.0162
   88MPD2    C1 1369   4.358   0.341   0.974  0.1151  0.5816 -0.3087
   88MPD2    C2 1370   4.355   0.468   1.035 -0.5350 -0.2458  0.1040
   88MPD2    C3 1371   4.233   0.526   1.067 -0.5503  0.5381  0.8758
   88MPD2    C4 1372   4.114   0.449   1.053  0.0830  0.8847 -0.1287
   88MPD2    C5 1373   4.122   0.331   0.998 -0.5367  0.4359 -0.5990
   88MPD2     H 1374   4.446   0.522   1.062 -0.9054  0.3945  0.0851
   88MPD2    H1 1375   4.012   0.482   1.070  0.3886  1.1085  1.2635
   88MPD2    H2 1376   4.243   0.181   0.905 -0.5354  1.1444 -1.7017
   88MPD2    H3 1377   4.034   0.267   0.997 -1.2785  1.4695 -0.7086
   88MPD2     N 1378   4.222   0.660   1.110 -0.3467  0.0649 -0.2524
   88MPD2    H5 1379   4.129   0.690   1.138  0.2363 -0.1638  1.9058
   88MPD2    N1 1380   4.479   0.277   0.939  0.8112 -0.5902  0.9185
   88MPD2    H7 1381   4.471   0.190   0.887 -0.4235  1.0882 -1.6729
   89TMC2    C1 1382   4.465   2.725   1.921  0.4133  0.2854 -0.7403
   89TMC2    C2 1383   4.378   2.728   2.032 -1.0678 -0.6408  0.0644
   89TMC2    C3 1384   4.283   2.828   2.032 -0.3394 -0.2044 -0.6944
   89TMC2    C4 1385   4.460   2.814   1.812 -0.1723  0.5200  0.4061
   89TMC2    C5 1386   4.355   2.902   1.808 -0.6660  0.4814 -0.1541
   89TMC2    C6 1387   4.259   2.907   1.917 -0.0114  0.5860  0.3153
   89TMC2     C 1388   4.544   2.607   1.895 -0.0715  0.3590 -0.5087
   89TMC2     O 1389   4.646   2.625   1.823  0.1977  0.0105  0.1200
   89TMC2     H 1390   4.406   2.675   2.122  1.5990  1.3022  0.3646
   89TMC2    H1 1391   4.536   2.806   1.735 -0.2863  2.7710  0.0552
   89TMC2    H2 1392   4.177   2.979   1.918 -1.6977 -1.3424  0.4995
   89TMC2    C7 1393   4.353   3.021   1.720 -0.3937  0.2378  0.0446
   89TMC2    C8 1394   4.170   2.819   2.133 -0.3167  0.8393  0.2747
   89TMC2    O1 1395   4.280   3.115   1.746  0.2434  0.0851 -0.3698
   89TMC2    O2 1396   4.054   2.844   2.107  0.2611  0.6195 -0.1915
   89TMC2    O5 1397   4.216   2.777   2.256  0.8357  0.9716  0.1911
   89TMC2    H5 1398   4.310   2.804   2.265  1.3973 -0.6592 -0.6984
   90MPD2     C 1399   4.678   2.116   1.900  0.4300 -0.4657  0.2143
   90MPD2    C1 1400   4.548   2.132   1.932 -0.4665  0.2240  0.2951
   90MPD2    C2 1401   4.490   2.252   1.958  0.1978 -0.1986 -0.1026
   90MPD2    C3 1402   4.566   2.365   1.945 -0.0700  0.1345 -0.6544
   90MPD2    C4 1403   4.696   2.356   1.905  0.4072  0.5475 -0.1912
   90MPD2    C5 1404   0.018   2.233   1.889  0.3718  0.7379  0.5095
   90MPD2     H 1405   4.390   2.244   1.998 -0.8900  0.5071 -2.7287
   90MPD2    H1 1406   0.026   2.441   1.883 -0.9538  0.8546 -2.9092
   90MPD2    H2 1407   4.718   2.017   1.882 -1.3833 -0.5245 -3.4494
   90MPD2    H3 1408   0.124   2.220   1.873  0.0575 -0.9323 -0.3048
   90MPD2     N 1409   4.500   2.490   1.951  0.1810  0.0678 -0.3742
   90MPD2    H5 1410   4.411   2.479   2.000  1.3193  1.1569  1.9423
   90MPD2    N1 1411   4.459   2.022   1.926 -0.1329 -0.4223 -0.4378
   90MPD2    H7 1412   4.362   2.042   1.947 -0.0347 -0.1855 -0.2008
   91TMC2    C1 1413   1.686   2.122  16.618  0.0616  1.0047  0.1502
   91TMC2    C2 1414   1.695   2.174  16.741 -0.1442  0.1088 -0.5492
   91TMC2    C3 1415   1.580   2.169  16.812 -0.6872  1.0923 -0.0739
   91TMC2    C4 1416   1.569   2.084  16.551 -0.6976  0.9039 -1.2471
   91TMC2    C5 1417   1.458   2.086  16.634 -0.4574  0.1900  0.5125
   91TMC2    C6 1418   1.466   2.126  16.762  0.1133 -0.8257 -0.0505
   91TMC2     C 1419   1.809   2.096  16.549 -0.0804 -0.7814 -0.1448
   91TMC2     O 1420   1.793   2.097  16.427 -0.4688  0.3117 -0.2536
   91TMC2     H 1421   1.795   2.185  16.779  0.7487  0.5638 -3.0377
   91TMC2    H1 1422   1.567   2.042  16.451 -0.1581 -0.9287 -0.4896
   91TMC2    H2 1423   1.384   2.096  16.827 -0.0499 -1.8364 -0.7273
   91TMC2    C7 1424   1.334   2.023  16.593 -0.1386 -0.2706  0.6732
   91TMC2    C8 1425   1.583   2.164  16.957  1.3070  0.1710 -0.0383
   91TMC2    O1 1426   1.254   1.985  16.679 -0.4305 -0.2817 -0.2947
   91TMC2    O2 1427   1.496   2.116  17.029  0.1460  0.4465  0.8816
   91TMC2    O5 1428   1.687   2.239  17.002 -0.4490  0.2679 -0.0702
   91TMC2    H5 1429   1.735   2.282  16.927  1.5253 -1.9066 -0.0603
   92MPD2     C 1430   2.076   2.056  16.445  0.1275 -0.3876 -0.2696
   92MPD2    C1 1431   2.044   2.047  16.576 -0.2224  0.4948 -0.8114
   92MPD2    C2 1432   2.137   2.035  16.677 -0.4924 -0.5169  0.0524
   92MPD2    C3 1433   2.266   2.014  16.649 -0.2956  0.2401  0.6305
   92MPD2    C4 1434   2.308   2.022  16.516 -0.0719  0.1311 -0.2117
   92MPD2    C5 1435   2.213   2.027  16.422 -0.2940  0.5934  0.2262
   92MPD2     H 1436   2.103   2.029  16.780 -1.1427  2.5047  0.0088
   92MPD2    H1 1437   2.414   2.024  16.494 -0.2653 -1.0573 -1.2428
   92MPD2    H2 1438   2.009   2.076  16.362  0.5946 -0.2251 -0.6091
   92MPD2    H3 1439   2.245   2.033  16.318 -0.1062  2.9338  0.4279
   92MPD2     N 1440   2.346   2.005  16.765 -0.0944  0.2886  0.1191
   92MPD2    H5 1441   2.304   2.016  16.857  1.0858 -1.8292  0.9116
   92MPD2    N1 1442   1.917   2.065  16.621 -0.4264 -0.1466 -0.4092
   92MPD2    H7 1443   1.897   2.066  16.720  2.5221  1.0027  0.1569
   93TMC2    C1 1444   4.197   2.856  14.063  0.1754 -0.0863 -0.0131
   93TMC2    C2 1445   4.175   2.889  14.194 -0.7473  0.0321 -0.1840
   93TMC2    C3 1446   4.258   2.980  14.253 -0.4706  0.4868 -0.0858
   93TMC2    C4 1447   4.292   2.910  13.988  0.4446  0.6849 -0.1654
   93TMC2    C5 1448   4.387   2.990  14.056 -0.4450 -0.2574  0.0999
   93TMC2    C6 1449   4.367   3.029  14.185 -0.1021  0.0797  0.6632
   93TMC2     C 1450   4.148   2.725  14.019 -0.2150  0.0494  0.1879
   93TMC2     O 1451   4.220   2.648  13.958  0.4800 -0.0583  0.0944
   93TMC2     H 1452   4.093   2.845  14.250  0.6323 -1.1371  0.9474
   93TMC2    H1 1453   4.314   2.867  13.891 -2.1713 -1.4850  0.1898
   93TMC2    H2 1454   4.442   3.088  14.235 -1.5217  2.1770  0.3199
   93TMC2    C7 1455   4.520   3.020  13.991 -0.4407  0.1917 -0.4693
   93TMC2    C8 1456   4.215   3.027  14.379 -0.3224  0.8409 -0.3253
   93TMC2    O1 1457   4.612   3.054  14.059 -0.3439 -0.0335 -0.3600
   93TMC2    O2 1458   4.219   2.970  14.487 -0.3185 -0.2923  0.4361
   93TMC2    O5 1459   4.214   3.157  14.357  0.4174 -0.9792  0.1488
   93TMC2    H5 1460   4.216   3.177  14.261 -0.6730 -2.5638 -0.2058
   94MPD2     C 1461   3.989   2.480  13.987 -0.4539  0.7035 -0.4089
   94MPD2    C1 1462   3.937   2.606  14.016  0.2111 -0.0237 -0.4744
   94MPD2    C2 1463   3.794   2.622  14.007  0.2972  0.4782  0.1858
   94MPD2    C3 1464   3.711   2.506  13.994 -0.3615 -1.1580  0.0944
   94MPD2    C4 1465   3.767   2.387  13.959 -0.2837  0.1612  0.2317
   94MPD2    C5 1466   3.903   2.378  13.959 -0.3700 -0.2200  0.5723
   94MPD2     H 1467   3.746   2.718  14.019 -1.2249 -0.2061 -0.4636
   94MPD2    H1 1468   3.710   2.297  13.939  2.7636 -1.7890  0.3395
   94MPD2    H2 1469   4.094   2.453  13.982 -0.7554 -0.3606 -0.9528
   94MPD2    H3 1470   3.943   2.282  13.928  1.3527  0.2048  1.4557
   94MPD2     N 1471   3.566   2.503  13.990  0.2869 -0.3571 -0.3558
   94MPD2    H5 1472   3.521   2.412  13.991 -0.7713  0.1896  1.0738
   94MPD2    N1 1473   4.014   2.718  14.036 -1.3581 -0.0854  0.1539
   94MPD2    H7 1474   3.970   2.795  14.086  2.0970  0.7541  1.9245
   95TMC2    C1 1475   3.163   0.644  15.760  0.8964  0.6858  0.1558
   95TMC2    C2 1476   3.098   0.651  15.882  0.2655 -0.3698  0.1472
   95TMC2    C3 1477   2.963   0.693  15.874 -0.0008 -0.4593 -0.5367
   95TMC2    C4 1478   3.103   0.685  15.642  0.1509  0.4364 -0.2741
   95TMC2    C5 1479   2.978   0.735  15.652 -0.0259  0.0477  0.1659
   95TMC2    C6 1480   2.898   0.725  15.761  0.0938 -0.3700  0.1485
   95TMC2     C 1481   3.260   0.540  15.753 -0.8137 -0.2544 -0.3688
   95TMC2     O 1482   3.328   0.520  15.852 -0.8343 -0.7280  0.3867
   95TMC2     H 1483   3.131   0.599  15.972  2.7808 -0.0380 -0.5862
   95TMC2    H1 1484   3.169   0.715  15.560  0.0059  0.6822 -0.3000
   95TMC2    H2 1485   2.800   0.772  15.755  0.3421 -0.0857 -1.9457
   95TMC2    C7 1486   2.922   0.764  15.516 -0.4819 -0.1161 -0.0038
   95TMC2    C8 1487   2.873   0.658  15.987  0.6181  0.4227  0.6970
   95TMC2    O1 1488   3.010   0.770  15.430 -0.4468 -0.5694  0.2358
   95TMC2    O2 1489   2.913   0.628  16.098  0.1106  0.4554  0.5270
   95TMC2    O5 1490   2.747   0.629  15.940 -0.0955  0.2047  0.2587
   95TMC2    H5 1491   2.737   0.634  15.842 -1.8533 -0.3727  0.3971
   96MPD2     C 1492   3.494   0.191  15.457 -0.6146  0.3550 -0.4911
   96MPD2    C1 1493   3.531   0.245  15.576  0.0233 -0.7163 -0.9557
   96MPD2    C2 1494   3.458   0.354  15.631 -0.2420  0.7226 -0.1396
   96MPD2    C3 1495   3.337   0.393  15.572 -0.3161 -0.1509 -0.2315
   96MPD2    C4 1496   3.303   0.339  15.451  0.4188  0.0825  0.4475
   96MPD2    C5 1497   3.380   0.241  15.393  1.4230  0.8223 -0.8890
   96MPD2     H 1498   3.482   0.404  15.724  1.2739  0.3941 -0.3613
   96MPD2    H1 1499   3.209   0.361  15.401  0.3663  1.2234  1.0493
   96MPD2    H2 1500   3.542   0.102  15.419  0.6558  0.4156  0.9653
   96MPD2    H3 1501   3.350   0.191  15.302  1.3715 -1.0266  0.1506
   96MPD2     N 1502   3.251   0.486  15.629  0.2974 -0.4015 -0.0574
   96MPD2    H5 1503   3.175   0.514  15.567  0.1046  1.2879  0.9451
   96MPD2    N1 1504   3.644   0.193  15.642  0.5821 -0.7602 -0.3825
   96MPD2    H7 1505   3.686   0.112  15.598  0.2010 -0.1570 -1.8405
   97TMC2    C1 1506   1.368   1.871   0.478  0.2145 -0.3001  0.2423
   97TMC2    C2 1507   1.357   1.787   0.374 -0.1902  0.3568 -0.2437
   97TMC2    C3 1508   1.339   1.849   0.255 -0.3917 -0.0054 -0.0339
   97TMC2    C4 1509   1.357   2.009   0.466 -0.5773 -0.3002 -0.1693
   97TMC2    C5 1510   1.347   2.061   0.347  0.3069 -0.2724 -0.0257
   97TMC2    C6 1511   1.330   1.979   0.232  0.1440  0.8987 -1.0221
   97TMC2     C 1512   1.366   1.800   0.605  0.0486 -1.1714  0.0476
   97TMC2     O 1513   1.306   1.855   0.699  0.1713  0.1877 -0.5457
   97TMC2     H 1514   1.361   1.678   0.376 -0.7823  0.3442  0.4151
   97TMC2    H1 1515   1.368   2.069   0.556 -0.9523 -1.1570  0.4489
   97TMC2    H2 1516   1.334   2.024   0.133 -0.6090 -0.9220 -1.8695
   97TMC2    C7 1517   1.376   2.201   0.333  0.0191  0.2877 -0.4616
   97TMC2    C8 1518   1.293   1.756   0.156 -0.3716  1.1882  0.8008
   97TMC2    O1 1519   1.401   2.273   0.424 -0.3665 -0.6232 -0.1188
   97TMC2    O2 1520   1.299   1.635   0.172  0.8913 -0.0967  0.6748
   97TMC2    O5 1521   1.211   1.815   0.067 -0.5796 -0.2106 -0.2021
   97TMC2    H5 1522   1.184   1.908   0.080 -0.1083 -0.3296  1.6444
   98MPD2     C 1523   1.507   1.363   0.849  0.0397  0.2216  0.3182
   98MPD2    C1 1524   1.403   1.451   0.876 -0.1578 -1.2695 -0.1721
   98MPD2    C2 1525   1.400   1.570   0.800  0.2612 -0.4832  0.2951
   98MPD2    C3 1526   1.480   1.595   0.689 -0.8867  0.8189 -0.7677
   98MPD2    C4 1527   1.583   1.504   0.674 -0.2191  0.1353  0.1275
   98MPD2    C5 1528   1.602   1.392   0.752 -0.4402  0.3856 -0.5206
   98MPD2     H 1529   1.313   1.634   0.810  1.0066  0.5635 -0.0288
   98MPD2    H1 1530   1.642   1.513   0.583 -2.0503 -0.8329 -1.1711
   98MPD2    H2 1531   1.509   1.271   0.906  1.3561 -0.9361 -1.6208
   98MPD2    H3 1532   1.674   1.315   0.727 -1.6315 -1.5735  1.9702
   98MPD2     N 1533   1.462   1.703   0.596 -0.2234  0.4481 -0.5467
   98MPD2    H5 1534   1.518   1.704   0.511 -0.1934 -0.0160 -0.5336
   98MPD2    N1 1535   1.306   1.419   0.974 -0.3837  0.2225 -0.5914
   98MPD2    H7 1536   1.304   1.328   1.018  0.3072  0.9578  0.9770
   99TMC2    C1 1537   3.807   2.656   2.033  0.6390  0.7417 -0.0193
   99TMC2    C2 1538   3.782   2.605   2.155 -0.1496 -0.4159  0.1948
   99TMC2    C3 1539   3.668   2.634   2.222 -0.0995 -0.2274 -0.4130
   99TMC2    C4 1540   3.714   2.739   1.968  0.0780 -0.1373 -0.0446
   99TMC2    C5 1541   3.603   2.772   2.045 -0.1072 -0.6259  0.9291
   99TMC2    C6 1542   3.574   2.710   2.163 -0.3191  0.2253 -0.9920
   99TMC2     C 1543   3.932   2.616   1.963  0.6123  0.3086 -0.0495
   99TMC2     O 1544   3.989   2.517   2.012  0.1576  0.1369 -0.2136
   99TMC2     H 1545   3.857   2.547   2.208  0.0046  0.3803  0.8492
   99TMC2    H1 1546   3.727   2.769   1.865  0.6247  0.2878  0.1524
   99TMC2    H2 1547   3.484   2.736   2.217 -0.8169 -0.5653 -1.4489
   99TMC2    C7 1548   3.495   2.844   1.977 -0.1310  0.3782 -0.4633
   99TMC2    C8 1549   3.630   2.576   2.347  0.2319 -0.7180  0.0202
   99TMC2    O1 1550   3.395   2.876   2.041  0.1650  0.1509 -0.0183
   99TMC2    O2 1551   3.685   2.475   2.383  0.0181 -0.1955  0.3352
   99TMC2    O5 1552   3.584   2.676   2.425  0.4691 -0.0231  0.2981
   99TMC2    H5 1553   3.582   2.767   2.390 -0.9670 -0.1615 -0.0029
  100MPD2     C 1554   4.149   2.563   1.772  0.4358  0.1101 -0.0729
  100MPD2    C1 1555   4.047   2.652   1.745 -0.1860  0.0320 -0.2161
  100MPD2    C2 1556   4.054   2.725   1.622 -0.2388 -0.7254  0.2966
  100MPD2    C3 1557   4.160   2.714   1.534 -0.0234 -0.0951 -0.2295
  100MPD2    C4 1558   4.248   2.610   1.556 -0.4368 -0.3581 -0.7742
  100MPD2    C5 1559   4.235   2.539   1.667  0.7097  0.1114 -0.3206
  100MPD2     H 1560   3.975   2.797   1.601  0.9105  0.1240 -1.1548
  100MPD2    H1 1561   4.326   2.579   1.488  1.5498  1.7513  0.5482
  100MPD2    H2 1562   4.156   2.512   1.867 -1.4087  1.8339  0.9703
  100MPD2    H3 1563   4.311   2.461   1.672  0.1873 -0.4569 -1.1747
  100MPD2     N 1564   4.161   2.801   1.427 -0.0165  0.3519  0.0311
  100MPD2    H5 1565   4.091   2.874   1.424  0.8630  1.0769 -2.7021
  100MPD2    N1 1566   3.950   2.682   1.841  0.0152 -0.0830  0.5521
  100MPD2    H7 1567   3.880   2.752   1.815 -0.3423 -0.4428  0.5519
  101TMC2    C1 1568   0.651   0.653  13.482  0.4566  0.1509 -0.1019
  101TMC2    C2 1569   0.520   0.667  13.441  0.2430 -0.1860  0.2433
  101TMC2    C3 1570   0.498   0.750  13.333  1.2396  0.4632 -0.0798
  101TMC2    C4 1571   0.755   0.721  13.422 -0.5453 -0.3720 -0.0389
  101TMC2    C5 1572   0.726   0.792  13.314  0.0370  0.9631 -0.3862
  101TMC2    C6 1573   0.597   0.815  13.267  0.5618 -0.0064 -0.7249
  101TMC2     C 1574   0.679   0.513  13.508  0.0302 -1.0133 -0.0552
  101TMC2     O 1575   0.613   0.454  13.591  0.0245 -0.1546  0.1992
  101TMC2     H 1576   0.437   0.606  13.475 -0.0120  0.2768  0.4536
  101TMC2    H1 1577   0.859   0.706  13.449  0.1277 -0.6319 -2.8310
  101TMC2    H2 1578   0.591   0.866  13.172  0.6308 -1.1688 -1.3505
  101TMC2    C7 1579   0.836   0.826  13.231  0.0557  0.0987  0.0155
  101TMC2    C8 1580   0.386   0.720  13.249  0.0071 -0.1846 -0.1065
  101TMC2    O1 1581   0.937   0.758  13.243  0.3012 -0.1337 -0.2324
  101TMC2    O2 1582   0.400   0.719  13.126 -0.3675  0.2584 -0.5028
  101TMC2    O5 1583   0.279   0.682  13.312  0.6908 -0.4340 -0.4865
  101TMC2    H5 1584   0.286   0.687  13.410  2.5604 -3.9013 -0.4442
  102MPD2     C 1585   0.924   0.325  13.310  1.1073 -0.5588  0.1610
  102MPD2    C1 1586   0.829   0.345  13.410  0.5711 -0.0988 -0.5133
  102MPD2    C2 1587   0.775   0.235  13.474 -0.0347  0.4333  0.3829
  102MPD2    C3 1588   0.815   0.108  13.443 -0.3354  0.0872 -0.1553
  102MPD2    C4 1589   0.923   0.089  13.357 -0.3195 -0.5331  0.3916
  102MPD2    C5 1590   0.973   0.199  13.288  0.0369  0.0688  0.7122
  102MPD2     H 1591   0.695   0.236  13.547 -1.1637 -1.8841 -0.8177
  102MPD2    H1 1592   0.960   4.726  13.326  0.0275 -0.2017 -0.2217
  102MPD2    H2 1593   0.959   0.401  13.242  0.3247  0.2133  0.6198
  102MPD2    H3 1594   1.039   0.183  13.203 -1.0669 -0.1407 -0.1108
  102MPD2     N 1595   0.731   4.732  13.493 -0.6937  0.3277  0.1711
  102MPD2    H5 1596   0.648   0.027  13.545 -1.6208 -0.4444 -0.8861
  102MPD2    N1 1597   0.786   0.473  13.430 -0.3911 -0.0168  0.3286
  102MPD2    H7 1598   0.824   0.545  13.369 -0.1274 -1.0874 -0.7766
  103TMC2    C1 1599   3.497   4.579  12.435 -0.2676  0.5171  0.6442
  103TMC2    C2 1600   3.565   4.496  12.349 -0.4011  0.3592  0.3003
  103TMC2    C3 1601   3.687   4.444  12.385 -0.2013  0.5602 -0.0988
  103TMC2    C4 1602   3.544   4.589  12.562 -0.3926 -0.7694  0.5847
  103TMC2    C5 1603   3.669   4.535  12.591 -0.6420 -0.0106 -0.2079
  103TMC2    C6 1604   3.745   4.461  12.504 -0.1291 -0.1627  0.3632
  103TMC2     C 1605   3.410   4.669  12.371  0.6705 -0.3174 -0.1348
  103TMC2     O 1606   3.442   4.704  12.260  0.0314  0.3839  0.2316
  103TMC2     H 1607   3.538   4.488  12.245  0.1186 -0.7649  0.2545
  103TMC2    H1 1608   3.507   4.664  12.631  2.2168  1.0982 -0.0626
  103TMC2    H2 1609   3.847   4.437  12.532  0.2354  0.3862 -0.5154
  103TMC2    C7 1610   3.747   4.607  12.699 -0.5828 -0.1384  0.4572
  103TMC2    C8 1611   3.769   4.370  12.288  0.0723 -0.5431 -0.1821
  103TMC2    O1 1612   3.705   4.610  12.815  0.0094 -0.0901  0.0909
  103TMC2    O2 1613   3.892   4.367  12.299 -0.4736  0.0919 -0.2416
  103TMC2    O5 1614   3.695   4.348  12.178  0.8685 -0.6930 -0.3066
  103TMC2    H5 1615   3.599   4.327  12.187 -0.1701  4.5304  0.8143
  104MPD2     C 1616   3.090   0.076  12.518  0.1609 -1.0823 -0.1138
  104MPD2    C1 1617   3.190   0.057  12.419  0.2876  0.7988 -0.0199
  104MPD2    C2 1618   3.178   0.134  12.305 -0.2085 -0.4096  0.4986
  104MPD2    C3 1619   3.072   0.226  12.284  0.6256 -0.1693 -1.0601
  104MPD2    C4 1620   2.982   0.246  12.388 -0.0612 -0.5562  0.9176
  104MPD2    C5 1621   2.994   0.165  12.496  0.7890  0.0378  0.1128
  104MPD2     H 1622   3.255   0.121  12.229 -1.8120 -2.2108 -0.8001
  104MPD2    H1 1623   2.906   0.323  12.394  0.3117 -0.1211  0.0543
  104MPD2    H2 1624   3.082   0.022  12.612  0.5494 -1.9997 -0.6046
  104MPD2    H3 1625   2.922   0.183  12.575  0.8820  0.5872  0.0710
  104MPD2     N 1626   3.076   0.314  12.166  0.4918 -0.5523 -0.0489
  104MPD2    H5 1627   3.145   0.296  12.094 -0.4527 -1.8913 -0.6292
  104MPD2    N1 1628   3.297   4.699  12.440 -0.2689 -0.1011  0.4435
  104MPD2    H7 1629   3.286   4.652  12.529 -0.5507 -0.0492  0.4363
  105TMC2    C1 1630   0.200   4.186  17.691 -0.3557  0.3303 -0.5118
  105TMC2    C2 1631   0.114   4.132   0.045 -0.1103 -0.1000  0.1303
  105TMC2    C3 1632   0.041   4.215   0.121 -0.2402  0.7439 -0.0772
  105TMC2    C4 1633   0.210   4.327  17.685 -0.7077 -0.0698 -0.8038
  105TMC2    C5 1634   0.144   4.403   0.034 -0.8433  0.0904  0.3121
  105TMC2    C6 1635   0.052   4.347   0.123 -0.2581  0.3817  0.7812
  105TMC2     C 1636   0.240   4.097  17.582 -0.2238  0.4287 -0.4953
  105TMC2     O 1637   0.231   3.976  17.608 -0.1633  0.1513 -0.2312
  105TMC2     H 1638   0.075   4.033   0.030  1.9288 -1.0966  1.3854
  105TMC2    H1 1639   0.267   4.371  17.604 -1.2413  1.0058 -0.5993
  105TMC2    H2 1640   4.717   4.404   0.184 -1.2674 -1.9296  1.7937
  105TMC2    C7 1641   0.175   4.548   0.031 -0.0888  0.4866 -0.1594
  105TMC2    C8 1642   4.679   4.146   0.204  0.8155 -0.1386 -0.0966
  105TMC2    O1 1643   0.244   4.586  17.672 -0.0377 -0.2202  0.1920
  105TMC2    O2 1644   4.594   4.216   0.250 -1.5799 -0.0645 -0.1671
  105TMC2    O5 1645   0.031   4.071   0.279 -0.1377  0.1754  0.4799
  105TMC2    H5 1646   0.103   4.021   0.236 -0.6015  0.3819 -0.5464
  106MPD2     C 1647   0.357   4.024  17.081  0.3838 -0.0943  0.1023
  106MPD2    C1 1648   0.331   4.162  17.101  0.0512 -0.3074  0.0281
  106MPD2    C2 1649   0.297   4.204  17.234  0.1647  0.9303  1.1529
  106MPD2    C3 1650   0.290   4.113  17.342  0.1874  0.0920  1.0012
  106MPD2    C4 1651   0.326   3.983  17.318  0.3335 -0.1729 -0.0934
  106MPD2    C5 1652   0.374   3.946  17.190  0.1076  0.7019 -0.0747
  106MPD2     H 1653   0.269   4.306  17.257 -1.2053  0.7577  0.2050
  106MPD2    H1 1654   0.332   3.909  17.396  1.5869  1.4122  1.3331
  106MPD2    H2 1655   0.404   3.980  16.994 -2.1673  0.7547 -1.7098
  106MPD2    H3 1656   0.385   3.839  17.177  0.5854  0.8583 -0.9182
  106MPD2     N 1657   0.245   4.166  17.462  0.0364  0.0830 -0.3489
  106MPD2    H5 1658   0.234   4.267  17.459  0.8692  0.1607 -0.8835
  106MPD2    N1 1659   0.334   4.263  16.999 -0.3105  0.0336 -1.3125
  106MPD2    H7 1660   0.321   4.360  17.024 -2.2196 -1.2141  2.6378
  107TMC2    C1 1661   1.123   4.085  11.812  0.7653 -0.6675  0.5835
  107TMC2    C2 1662   1.181   4.141  11.703  0.2150 -0.7190 -0.2664
  107TMC2    C3 1663   1.203   4.063  11.601  0.7658  0.3859  0.0746
  107TMC2    C4 1664   1.089   3.951  11.816 -0.1086 -0.4516 -0.2160
  107TMC2    C5 1665   1.114   3.878  11.708 -0.4074 -0.1147 -0.3925
  107TMC2    C6 1666   1.177   3.929  11.599 -0.0364 -0.3078 -0.3516
  107TMC2     C 1667   1.076   4.161  11.925 -0.1331  0.1248  0.4571
  107TMC2     O 1668   1.053   4.100  12.027  0.0424 -0.3986  0.4210
  107TMC2     H 1669   1.209   4.245  11.691 -0.1474 -0.3960  1.5922
  107TMC2    H1 1670   1.050   3.907  11.907 -0.3333 -2.1757 -1.1305
  107TMC2    H2 1671   1.199   3.865  11.514  0.7414 -0.2414 -0.2018
  107TMC2    C7 1672   1.023   3.760  11.691 -0.5988  0.0840 -0.4719
  107TMC2    C8 1673   1.284   4.111  11.498  1.3013 -0.3977  0.8120
  107TMC2    O1 1674   0.945   3.743  11.785  0.1023  0.5948 -0.1839
  107TMC2    O2 1675   1.351   4.213  11.500 -0.2075 -0.6256  0.5424
  107TMC2    O5 1676   1.236   4.054  11.385  0.4418 -0.3923  0.2839
  107TMC2    H5 1677   1.162   3.991  11.399  0.3709 -0.4330 -0.2689
  108MPD2     C 1678   0.978   4.518  11.930 -1.2988 -0.5204  0.0503
  108MPD2    C1 1679   1.015   4.395  11.984 -0.3550  0.5455  0.6159
  108MPD2    C2 1680   0.987   4.372  12.120  0.5764  0.8310  0.2077
  108MPD2    C3 1681   0.910   4.465  12.187  0.2784 -0.1046 -0.2748
  108MPD2    C4 1682   0.864   4.579  12.120  0.9967 -0.2375  0.4527
  108MPD2    C5 1683   0.903   4.604  11.997 -0.4055 -0.4008  0.0871
  108MPD2     H 1684   1.011   4.276  12.164 -0.6753 -0.5594 -2.1156
  108MPD2    H1 1685   0.805   4.650  12.177  0.1853 -0.6538  0.1275
  108MPD2    H2 1686   1.006   4.547  11.830 -0.2573 -0.2521  0.4113
  108MPD2    H3 1687   0.868   4.695  11.949 -0.5815  0.1871  1.3402
  108MPD2     N 1688   0.863   4.449  12.317  0.0141  0.2540  0.4798
  108MPD2    H5 1689   0.807   4.523  12.357 -0.3736 -0.9007  2.0893
  108MPD2    N1 1690   1.064   4.291  11.899 -0.1551  0.0613 -0.0709
  108MPD2    H7 1691   1.077   4.321  11.803 -1.4841 -2.6742 -1.1053
  109TMC2    C1 1692   0.453   2.092   0.793  0.6108 -0.3206 -0.8010
  109TMC2    C2 1693   0.508   2.197   0.728 -0.4103 -0.1225 -0.4777
  109TMC2    C3 1694   0.636   2.185   0.678 -0.2026 -0.1159 -1.3091
  109TMC2    C4 1695   0.516   1.972   0.797 -0.1239  0.0089 -0.1350
  109TMC2    C5 1696   0.644   1.963   0.745  0.3639  0.0463  0.2643
  109TMC2    C6 1697   0.699   2.064   0.672  0.3859 -0.1502 -0.1365
  109TMC2     C 1698   0.339   2.123   0.870 -0.2048  1.1392  0.0365
  109TMC2     O 1699   0.313   2.242   0.888 -0.2556 -0.4705  0.6330
  109TMC2     H 1700   0.468   2.298   0.732  0.3135  0.1461  0.1376
  109TMC2    H1 1701   0.466   1.882   0.828 -1.6256  1.3201  1.2681
  109TMC2    H2 1702   0.797   2.061   0.626  1.4201  0.2642  2.0293
  109TMC2    C7 1703   0.722   1.845   0.768 -0.8365  0.0713 -0.2741
  109TMC2    C8 1704   0.679   2.291   0.595 -0.8189 -0.7652  0.0335
  109TMC2    O1 1705   0.676   1.777   0.859 -0.7336 -0.0280 -0.1103
  109TMC2    O2 1706   0.605   2.378   0.554 -0.3783  0.2622  0.1717
  109TMC2    O5 1707   0.806   2.313   0.626 -0.1310 -0.0891  0.1687
  109TMC2    H5 1708   0.846   2.256   0.696  0.2551 -0.3716 -0.2845
  110MPD2     C 1709   4.681   1.975   1.190 -0.0067 -0.2884  0.1095
  110MPD2    C1 1710   0.039   1.871   1.173 -0.1056  0.3591 -0.3615
  110MPD2    C2 1711   0.145   1.883   1.079 -0.2130  0.8702  0.3860
  110MPD2    C3 1712   0.173   2.008   1.022 -0.2678  0.5912 -0.2693
  110MPD2    C4 1713   0.086   2.113   1.038  0.5031 -0.4216  0.2063
  110MPD2    C5 1714   4.706   2.092   1.119 -0.1217  0.4380 -0.1282
  110MPD2     H 1715   0.218   1.805   1.058  2.0229  2.7662  1.1823
  110MPD2    H1 1716   0.096   2.211   0.993  1.6561 -0.4958  0.3149
  110MPD2    H2 1717   4.604   1.969   1.265 -0.6228 -0.7705 -0.5593
  110MPD2    H3 1718   4.640   2.178   1.122  0.8495  1.1372  1.2838
  110MPD2     N 1719   0.289   2.013   0.942  0.0240  0.0221 -0.0942
  110MPD2    H5 1720   0.336   1.924   0.928  0.5925  0.4604 -0.9585
  110MPD2    N1 1721   0.024   1.762   1.258 -0.6228  0.3517  0.2037
  110MPD2    H7 1722   4.695   1.770   1.338  2.0608  0.5690  2.2912
  111TMC2    C1 1723   1.511   1.563  11.925  0.3386  0.2035  0.5073
  111TMC2    C2 1724   1.620   1.602  11.857 -0.6416 -0.0838  0.3059
  111TMC2    C3 1725   1.741   1.596  11.921 -0.2194 -0.1674 -0.5367
  111TMC2    C4 1726   1.515   1.516  12.056 -0.0658 -0.6543  0.2779
  111TMC2    C5 1727   1.640   1.502  12.113 -0.6900  0.1087  0.5515
  111TMC2    C6 1728   1.757   1.540  12.044  0.7791  0.3678 -0.2935
  111TMC2     C 1729   1.381   1.542  11.859  0.0688  0.3555 -0.5600
  111TMC2     O 1730   1.384   1.565  11.741 -0.3830  0.4953 -0.6277
  111TMC2     H 1731   1.601   1.634  11.755  0.6619 -0.0705  0.0640
  111TMC2    H1 1732   1.431   1.497  12.121  2.5436  0.9529  4.1109
  111TMC2    H2 1733   1.849   1.550  12.101  0.6617 -1.8551  0.2809
  111TMC2    C7 1734   1.663   1.413  12.228  0.2591  0.1371 -0.0318
  111TMC2    C8 1735   1.861   1.626  11.845 -0.1349 -0.5596 -0.0865
  111TMC2    O1 1736   1.562   1.375  12.286  0.1521  0.3680  0.7842
  111TMC2    O2 1737   1.970   1.588  11.877 -0.4378  0.4874  0.3414
  111TMC2    O5 1738   1.842   1.751  11.803  0.1494  0.0571  0.0098
  111TMC2    H5 1739   1.750   1.759  11.835  0.8435  2.3999  1.4967
  112MPD2     C 1740   0.880   1.403  11.838 -0.2679 -0.5051  0.5285
  112MPD2    C1 1741   0.980   1.408  11.738 -0.7310  0.4805  0.2926
  112MPD2    C2 1742   1.111   1.438  11.781  0.5775  0.0491  0.0751
  112MPD2    C3 1743   1.145   1.477  11.911 -0.3977 -0.5041 -0.3067
  112MPD2    C4 1744   1.049   1.460  12.005 -0.9498  0.2994  0.7433
  112MPD2    C5 1745   0.921   1.430  11.966  0.1640 -0.5369 -0.1890
  112MPD2     H 1746   1.191   1.430  11.708  1.3936 -3.3328  1.3414
  112MPD2    H1 1747   1.071   1.481  12.109  1.8327 -0.8896  0.3824
  112MPD2    H2 1748   0.775   1.384  11.819 -0.5643 -0.5624  2.2331
  112MPD2    H3 1749   0.845   1.437  12.043  1.0426 -1.1720  0.7375
  112MPD2     N 1750   1.280   1.517  11.947 -0.0513 -0.1709  0.1757
  112MPD2    H5 1751   1.299   1.528  12.046  0.2261  1.4998 -0.0708
  112MPD2    N1 1752   0.945   1.387  11.606 -0.0948  0.2592  0.1227
  112MPD2    H7 1753   1.018   1.411  11.539 -0.3840 -0.5960 -0.4960
  113TMC2    C1 1754   3.138   3.777   0.484 -0.3479 -0.2544  0.3265
  113TMC2    C2 1755   3.000   3.789   0.452  0.6225 -0.3250  0.1168
  113TMC2    C3 1756   2.918   3.679   0.476  0.6785  0.7240 -0.0633
  113TMC2    C4 1757   3.179   3.657   0.536  0.6964 -0.0153  0.3876
  113TMC2    C5 1758   3.097   3.555   0.560  0.4871  0.3559  0.1190
  113TMC2    C6 1759   2.966   3.560   0.529  0.6253  0.3979 -0.0562
  113TMC2     C 1760   3.205   3.901   0.526 -0.0733 -0.0833 -0.0979
  113TMC2     O 1761   3.128   3.995   0.542  0.4270  0.2983 -0.2833
  113TMC2     H 1762   2.959   3.877   0.404 -1.6307 -1.7933 -0.6670
  113TMC2    H1 1763   3.284   3.643   0.558  1.4225 -0.1049 -3.1379
  113TMC2    H2 1764   2.900   3.475   0.542  1.7123 -0.4362  0.1077
  113TMC2    C7 1765   3.164   3.423   0.554  0.5574  0.0190  0.3997
  113TMC2    C8 1766   2.772   3.695   0.465 -0.1397 -0.1558 -0.4699
  113TMC2    O1 1767   3.266   3.421   0.479  0.2017  0.2322 -0.4078
  113TMC2    O2 1768   2.698   3.597   0.472 -0.0782  0.6785 -0.3662
  113TMC2    O5 1769   2.740   3.829   0.473 -0.0796 -0.1223 -0.1206
  113TMC2    H5 1770   2.819   3.877   0.507 -0.7140  0.6194  0.2923
  114MPD2     C 1771   3.601   4.186   0.699 -1.1283  0.2880 -0.1470
  114MPD2    C1 1772   3.470   4.212   0.692  0.3989  0.0596  0.3174
  114MPD2    C2 1773   3.382   4.119   0.637 -0.5962 -0.5048 -0.2555
  114MPD2    C3 1774   3.426   3.998   0.587 -0.1610 -0.2359  0.5977
  114MPD2    C4 1775   3.561   3.975   0.597 -0.0115 -0.1255  0.4311
  114MPD2    C5 1776   3.646   4.070   0.644  0.4253 -0.3328 -0.7958
  114MPD2     H 1777   3.276   4.143   0.637 -0.8256 -1.5504 -0.9570
  114MPD2    H1 1778   3.593   3.874   0.573  0.5378  0.4447 -1.1554
  114MPD2    H2 1779   3.674   4.262   0.724  0.0432 -0.9782  0.2916
  114MPD2    H3 1780   3.752   4.054   0.628 -0.0630 -2.7446 -1.5653
  114MPD2     N 1781   3.342   3.895   0.541  0.4119 -0.1757 -0.2967
  114MPD2    H5 1782   3.391   3.813   0.506  2.2959  1.2411 -0.9677
  114MPD2    N1 1783   3.415   4.339   0.724 -0.0073  0.7529 -0.1063
  114MPD2    H7 1784   3.316   4.355   0.712  0.5351  3.0262 -1.6545
  115TMC2    C1 1785   0.029   1.700   0.090  0.4918 -0.0833 -0.4942
  115TMC2    C2 1786   0.139   1.626   0.095 -0.4842 -0.0380  0.0817
  115TMC2    C3 1787   0.249   1.701   0.128  0.0210 -0.4679 -0.5565
  115TMC2    C4 1788   0.014   1.834   0.118  0.5192 -0.4427  0.3978
  115TMC2    C5 1789   0.132   1.904   0.125  0.1779 -0.3079  0.1124
  115TMC2    C6 1790   0.252   1.835   0.124  0.2927 -0.1439 -0.0356
  115TMC2     C 1791   4.655   1.626   0.022 -0.3521 -0.1149 -0.0687
  115TMC2     O 1792   4.674   1.507   0.002  0.0039 -0.3428 -0.5042
  115TMC2     H 1793   0.151   1.520   0.078 -2.7423 -0.5744  1.8442
  115TMC2    H1 1794   4.661   1.899   0.110 -1.0892 -2.5512  0.7633
  115TMC2    H2 1795   0.344   1.887   0.146  0.8921 -0.6914 -1.2155
  115TMC2    C7 1796   0.126   2.041   0.162 -0.5386 -0.0820  0.2839
  115TMC2    C8 1797   0.381   1.643   0.146  0.0642  0.3213  0.9624
  115TMC2    O1 1798   0.027   2.078   0.217 -0.3186  0.4122  0.1097
  115TMC2    O2 1799   0.474   1.692   0.084 -0.2742 -0.2672  0.0817
  115TMC2    O5 1800   0.388   1.631   0.280 -0.4291 -0.3901  0.3675
  115TMC2    H5 1801   0.298   1.635   0.319 -1.3399  0.1567 -1.7805
  116MPD2     C 1802   4.160   1.554  17.624 -0.7229 -0.5214 -0.6226
  116MPD2    C1 1803   4.270   1.471  17.607  0.1204 -0.0967  0.2793
  116MPD2    C2 1804   4.395   1.505  17.657 -0.1301  0.2124 -0.5094
  116MPD2    C3 1805   4.411   1.639  17.703  0.0578 -0.0553  0.2013
  116MPD2    C4 1806   4.299   1.718  17.717 -0.4628  0.5780  0.8057
  116MPD2    C5 1807   4.176   1.683  17.670  0.2276  0.3838 -0.1822
  116MPD2     H 1808   4.474   1.431  17.656  0.3011  0.6572  2.0390
  116MPD2    H1 1809   4.327   1.813   0.026 -0.2702  1.6605 -1.6244
  116MPD2    H2 1810   4.056   1.530  17.603 -0.1889 -0.6476 -3.1192
  116MPD2    H3 1811   4.094   1.753  17.679 -2.1840 -2.5345  0.5196
  116MPD2     N 1812   4.531   1.689   0.010  0.2851  0.2957  0.4029
  116MPD2    H5 1813   4.523   1.785   0.042  1.1123  0.6945 -0.5895
  116MPD2    N1 1814   4.238   1.347  17.543 -0.0495  0.5207 -0.1036
  116MPD2    H7 1815   4.147   1.334  17.500 -0.1939 -0.0359  0.3712
  117TMC2    C1 1816   3.420   2.881  14.199 -0.0554 -0.2005  0.2722
  117TMC2    C2 1817   3.555   2.885  14.186 -0.0768  0.7314  0.1420
  117TMC2    C3 1818   3.626   3.004  14.172  0.1360  0.3993 -0.3491
  117TMC2    C4 1819   3.348   2.999  14.186 -0.4960  0.6599  0.0697
  117TMC2    C5 1820   3.425   3.115  14.175  0.1385  0.2504  0.3873
  117TMC2    C6 1821   3.565   3.124  14.155 -0.6291  0.3477 -0.6640
  117TMC2     C 1822   3.341   2.764  14.221 -0.5267 -0.0538  1.2044
  117TMC2     O 1823   3.398   2.663  14.269  0.5373  0.4061  0.2235
  117TMC2     H 1824   3.601   2.787  14.182 -0.8271  0.3967 -0.3416
  117TMC2    H1 1825   3.247   3.007  14.224 -1.1851 -1.5014 -1.3740
  117TMC2    H2 1826   3.624   3.215  14.146 -0.3966  0.4535  1.9865
  117TMC2    C7 1827   3.359   3.246  14.193 -0.1097 -0.2888  0.3867
  117TMC2    C8 1828   3.772   2.998  14.168  0.1455  0.6344 -0.2843
  117TMC2    O1 1829   3.428   3.343  14.222  0.5614 -0.3632 -0.4887
  117TMC2    O2 1830   3.838   3.059  14.086 -0.3654  0.3174  0.6114
  117TMC2    O5 1831   3.811   2.883  14.230  0.0459  0.3880 -0.4070
  117TMC2    H5 1832   3.748   2.868  14.304  3.5669 -1.4885  2.1636
  118MPD2     C 1833   3.007   3.325  14.195  0.5338 -0.0133  0.6421
  118MPD2    C1 1834   3.141   3.356  14.200  0.2411  0.4269  0.5011
  118MPD2    C2 1835   3.181   3.490  14.215  0.0446 -0.0326  0.0749
  118MPD2    C3 1836   3.086   3.585  14.225 -0.3694 -0.0587 -0.2896
  118MPD2    C4 1837   2.954   3.553  14.220 -0.1876 -0.0116  0.1120
  118MPD2    C5 1838   2.916   3.424  14.207  0.0974  0.4257 -0.4169
  118MPD2     H 1839   3.284   3.523  14.222 -0.2094  0.6855  0.4356
  118MPD2    H1 1840   2.871   3.623  14.223 -0.5776 -0.4914  0.4115
  118MPD2    H2 1841   2.975   3.224  14.170 -0.0679  0.8372 -2.0708
  118MPD2    H3 1842   2.811   3.400  14.206 -0.2524  1.9646 -1.3227
  118MPD2     N 1843   3.114   3.722  14.235  0.1230  0.2824 -0.4950
  118MPD2    H5 1844   3.034   3.784  14.229 -0.2938 -0.0748  1.2114
  118MPD2    N1 1845   3.221   3.244  14.178  0.4429  0.0178 -0.5609
  118MPD2    H7 1846   3.180   3.154  14.154 -1.9017  0.9049  0.0954
  119TMC2    C1 1847   1.177   4.362  13.652 -0.8296 -0.7644 -0.0765
  119TMC2    C2 1848   1.197   4.442  13.545 -0.1877 -0.9049  0.1942
  119TMC2    C3 1849   1.115   4.431  13.436  0.0368 -0.3959 -0.6617
  119TMC2    C4 1850   1.082   4.270  13.654 -0.3274  0.4588  0.0447
  119TMC2    C5 1851   1.002   4.262  13.546  0.0826 -0.0929 -0.7987
  119TMC2    C6 1852   1.024   4.328  13.427 -0.2888  0.2199  0.1366
  119TMC2     C 1853   1.258   4.367  13.774 -0.5810  0.7774  0.0876
  119TMC2     O 1854   1.201   4.371  13.883 -0.0021 -0.0815 -0.0773
  119TMC2     H 1855   1.280   4.512  13.540  0.8317 -2.1013  0.3283
  119TMC2    H1 1856   1.074   4.216  13.747 -0.8129  2.1287  0.9627
  119TMC2    H2 1857   0.964   4.311  13.339 -0.7089 -0.6267  0.5843
  119TMC2    C7 1858   0.890   4.178  13.538 -0.4416  0.2762  0.0942
  119TMC2    C8 1859   1.180   4.462  13.313  0.5148  0.5007  0.3201
  119TMC2    O1 1860   0.814   4.191  13.448  0.3291 -0.0972 -1.0233
  119TMC2    O2 1861   1.302   4.453  13.300  0.2692  0.5411  0.1592
  119TMC2    O5 1862   1.093   4.550  13.259  0.0676  0.5026  0.2888
  119TMC2    H5 1863   1.010   4.550  13.312 -0.5899  0.4701 -0.7311
  120MPD2     C 1864   1.711   4.433  14.017 -0.0949  0.6183  0.1526
  120MPD2    C1 1865   1.581   4.415  14.062 -0.3617 -0.4362 -0.2773
  120MPD2    C2 1866   1.475   4.406  13.976  0.0734  0.0186  0.0044
  120MPD2    C3 1867   1.494   4.418  13.842 -0.5039 -0.0792 -0.2349
  120MPD2    C4 1868   1.621   4.440  13.805  0.5430  0.4135  0.1907
  120MPD2    C5 1869   1.730   4.447  13.880 -0.7867 -0.4976  0.2400
  120MPD2     H 1870   1.376   4.394  14.018 -0.8537  2.9113 -1.3829
  120MPD2    H1 1871   1.634   4.463  13.700 -1.9037  0.4238 -0.1008
  120MPD2    H2 1872   1.794   4.436  14.086  2.3037 -0.3635 -2.6324
  120MPD2    H3 1873   1.824   4.464  13.828 -0.9098 -1.7808 -0.4173
  120MPD2     N 1874   1.393   4.400  13.744 -0.1064 -0.8681  0.0320
  120MPD2    H5 1875   1.428   4.395  13.649 -0.6606 -1.9086 -0.1169
  120MPD2    N1 1876   1.562   4.404  14.196  0.0408  0.4146  0.1150
  120MPD2    H7 1877   1.627   4.453  14.255 -1.2482  2.6172 -0.3018
  121TMC2    C1 1878   3.188   1.269  14.275 -0.4554 -0.0870  0.0155
  121TMC2    C2 1879   3.185   1.224  14.406  1.1046 -0.2160  0.0938
  121TMC2    C3 1880   3.087   1.140  14.448 -0.4875  0.1137  0.3562
  121TMC2    C4 1881   3.090   1.234  14.188  0.5661  0.0994  0.0202
  121TMC2    C5 1882   2.992   1.149  14.234  0.4429  0.3916  0.7760
  121TMC2    C6 1883   2.988   1.101  14.365  0.0750 -0.1739  0.8001
  121TMC2     C 1884   3.264   1.390  14.250  0.3258  0.3910 -0.4731
  121TMC2     O 1885   3.305   1.451  14.350 -0.0575  0.2859  0.2701
  121TMC2     H 1886   3.254   1.256  14.483 -0.4719  3.1089  0.1021
  121TMC2    H1 1887   3.086   1.263  14.083  0.1200 -1.3106 -0.3563
  121TMC2    H2 1888   2.911   1.030  14.394 -0.4723  1.9518  4.5781
  121TMC2    C7 1889   2.884   1.124  14.138  0.4576  0.2979 -0.1187
  121TMC2    C8 1890   3.086   1.111  14.593 -0.1111  0.7895 -0.0588
  121TMC2    O1 1891   2.915   1.125  14.020 -0.0202 -0.0267 -0.1002
  121TMC2    O2 1892   3.179   1.133  14.666 -0.2110 -0.6098  0.2844
  121TMC2    O5 1893   2.958   1.095  14.638  0.3565  0.9789  0.2845
  121TMC2    H5 1894   2.897   1.113  14.563 -0.2081  0.2486  0.5607
  122MPD2     C 1895   3.295   1.669  14.149 -0.2312 -0.4043 -0.1727
  122MPD2    C1 1896   3.293   1.549  14.069 -0.2090 -0.0353  0.0890
  122MPD2    C2 1897   3.301   1.560  13.931  0.3741 -0.1614  0.3645
  122MPD2    C3 1898   3.313   1.690  13.876 -0.4242  0.5060  0.1662
  122MPD2    C4 1899   3.332   1.802  13.955 -0.1546  0.2202  0.0410
  122MPD2    C5 1900   3.314   1.789  14.089 -0.0676 -0.0616  0.1160
  122MPD2     H 1901   3.301   1.470  13.871 -0.3631 -0.6222  1.0609
  122MPD2    H1 1902   3.332   1.905  13.923 -1.0077  0.7774  1.7889
  122MPD2    H2 1903   3.284   1.668  14.257 -1.5462 -4.5111 -0.3607
  122MPD2    H3 1904   3.306   1.875  14.154  0.0138 -0.6220  0.8612
  122MPD2     N 1905   3.281   1.717  13.737 -0.3296  0.2339 -0.1367
  122MPD2    H5 1906   3.252   1.811  13.711 -1.3185  0.1945  0.8184
  122MPD2    N1 1907   3.264   1.426  14.120 -0.3021  0.7787  0.3665
  122MPD2    H7 1908   3.259   1.347  14.056 -1.9518  2.3771 -1.4811
  123TMC2    C1 1909   2.172   3.491   9.765  0.3677 -0.4284 -0.2071
  123TMC2    C2 1910   2.303   3.529   9.762  0.1663 -0.2876  0.6665
  123TMC2    C3 1911   2.325   3.662   9.738  0.0479 -0.5761 -0.3237
  123TMC2    C4 1912   2.074   3.573   9.701  0.2782  0.2043 -0.3660
  123TMC2    C5 1913   2.109   3.696   9.661  0.6469 -0.2454  0.0214
  123TMC2    C6 1914   2.236   3.747   9.678 -0.3631 -0.0197 -1.0041
  123TMC2     C 1915   2.133   3.388   9.858  0.3472 -0.2078  0.0958
  123TMC2     O 1916   2.207   3.288   9.864  0.5814  0.4238 -0.6883
  123TMC2     H 1917   2.379   3.468   9.810  1.0528  1.2188  1.1930
  123TMC2    H1 1918   1.971   3.540   9.689  0.0294  0.7471  0.2520
  123TMC2    H2 1919   2.273   3.837   9.631  0.3134 -0.3280 -1.0770
  123TMC2    C7 1920   1.992   3.788   9.669 -0.6470 -0.0487  0.3321
  123TMC2    C8 1921   2.446   3.717   9.796  0.1281  0.1032  0.9418
  123TMC2    O1 1922   1.888   3.734   9.708  0.2757 -0.2871 -0.0796
  123TMC2    O2 1923   2.552   3.692   9.745 -0.0680 -0.0363  0.6493
  123TMC2    O5 1924   2.420   3.840   9.846  0.4116 -0.2494 -0.3482
  123TMC2    H5 1925   2.343   3.830   9.906 -1.4062 -2.3829 -3.0568
  124MPD2     C 1926   1.820   3.133  10.163  0.1539  0.7203  1.2285
  124MPD2    C1 1927   1.811   3.268  10.191 -0.5280 -0.2892  0.5976
  124MPD2    C2 1928   1.870   3.356  10.105  0.5327 -0.3407 -0.0739
  124MPD2    C3 1929   1.952   3.312  10.003 -0.0658 -0.1933 -0.5941
  124MPD2    C4 1930   1.966   3.179   9.980  0.3644  0.1272 -0.4188
  124MPD2    C5 1931   1.891   3.089  10.054  0.0780 -0.7138 -0.9570
  124MPD2     H 1932   1.857   3.462  10.124  0.9639 -0.2851 -0.0864
  124MPD2    H1 1933   2.023   3.140   9.896  2.2660  0.8078  0.5649
  124MPD2    H2 1934   1.785   3.057  10.232  0.0175  0.3738  0.7818
  124MPD2    H3 1935   1.905   2.982  10.049 -1.0119 -0.8866 -0.2121
  124MPD2     N 1936   2.013   3.410   9.923 -0.1133 -0.6237  0.6354
  124MPD2    H5 1937   1.985   3.508   9.921  0.0731 -0.5807  0.2178
  124MPD2    N1 1938   1.732   3.306  10.294  0.6260 -0.5697  0.0563
  124MPD2    H7 1939   1.660   3.239  10.322 -1.8837  1.3282 -1.9329
  125TMC2    C1 1940   3.157   1.484   9.431 -0.0264 -0.3939 -0.2247
  125TMC2    C2 1941   3.230   1.366   9.424  0.2330  0.3082  0.3592
  125TMC2    C3 1942   3.336   1.361   9.339  0.6158 -0.1807  0.0627
  125TMC2    C4 1943   3.206   1.599   9.383  0.0871 -0.1237 -0.4080
  125TMC2    C5 1944   3.327   1.591   9.317 -0.8051  0.3252  0.9766
  125TMC2    C6 1945   3.389   1.477   9.290  0.6126  0.2408 -0.3114
  125TMC2     C 1946   3.023   1.485   9.495 -0.5367  0.3894  0.6186
  125TMC2     O 1947   2.974   1.591   9.531  0.3101  0.2205 -0.6449
  125TMC2     H 1948   3.197   1.278   9.477 -0.1613  1.7962  2.5920
  125TMC2    H1 1949   3.150   1.691   9.391  0.0028 -0.1580 -0.6065
  125TMC2    H2 1950   3.466   1.471   9.213  1.9223 -1.3021  1.1041
  125TMC2    C7 1951   3.400   1.722   9.303  0.9362 -0.1628  0.1779
  125TMC2    C8 1952   3.421   1.243   9.318  0.6141  0.1892 -1.5386
  125TMC2    O1 1953   3.334   1.822   9.281  0.5720 -0.2593 -0.1196
  125TMC2    O2 1954   3.536   1.261   9.281  0.1050 -0.1984 -0.1106
  125TMC2    O5 1955   3.363   1.126   9.356 -0.0109 -0.1735  0.1580
  125TMC2    H5 1956   3.266   1.134   9.369 -0.1218 -0.9330 -0.2056
  126MPD1     C 1957   2.598   1.263   9.639 -0.4109  0.4745  0.1056
  126MPD1    C1 1958   2.641   1.199   9.527  0.1207  0.1028  0.0455
  126MPD1    C2 1959   2.764   1.227   9.477  1.1211  0.1151  0.6727
  126MPD1    C3 1960   2.838   1.327   9.532 -0.9166 -0.7550 -0.5713
  126MPD1    C4 1961   2.801   1.384   9.651 -0.2049  0.4471 -0.2178
  126MPD1    C5 1962   2.682   1.350   9.699  0.0088  0.0133 -0.4683
  126MPD1     H 1963   2.795   1.177   9.386  0.6462  0.4257  0.3380
  126MPD1    H1 1964   2.860   1.459   9.703  0.1096  0.9080 -1.2372
  126MPD1    H2 1965   2.496   1.250   9.675 -1.0458  1.2076 -1.4396
  126MPD1    H3 1966   2.649   1.405   9.787 -0.5650 -0.7912 -0.1716
  126MPD1     N 1967   2.962   1.359   9.475  0.1754  0.6019 -0.3496
  126MPD1    H5 1968   3.005   1.292   9.413 -0.0654  0.9583 -0.9002
  126MPD1    N1 1969   2.557   1.124   9.450  0.6362  0.2767  0.4348
  126MPD1    H6 1970   2.471   1.093   9.497  1.1720 -3.2885 -0.9463
  126MPD1    H7 1971   2.599   1.044   9.404 -1.0374 -0.1255 -0.4140
  127TMC2    C1 1972   3.979   0.318  10.067  0.2589 -0.1957  0.5113
  127TMC2    C2 1973   3.903   0.284  10.177 -0.0427  0.0143  0.5161
  127TMC2    C3 1974   3.789   0.205  10.164 -0.6024 -0.1281  0.4046
  127TMC2    C4 1975   3.935   0.277   9.947 -0.1281 -0.3383 -0.3776
  127TMC2    C5 1976   3.830   0.184   9.937  0.5450 -0.2224  0.6430
  127TMC2    C6 1977   3.756   0.146  10.045 -0.6859  0.8995  0.4729
  127TMC2     C 1978   4.085   0.411  10.087 -0.3835  0.2932  0.4121
  127TMC2     O 1979   4.079   0.477  10.190 -0.3180  0.2922 -0.0250
  127TMC2     H 1980   3.933   0.318  10.275 -0.2064 -0.9330  0.8878
  127TMC2    H1 1981   3.978   0.323   9.859  1.4325  0.9153  1.0341
  127TMC2    H2 1982   3.673   0.078  10.027  1.0892 -1.0710 -0.1242
  127TMC2    C7 1983   3.795   0.143   9.800 -0.5983 -0.0952 -0.0789
  127TMC2    C8 1984   3.738   0.160  10.291 -0.5780  0.9637 -0.3201
  127TMC2    O1 1985   3.832   0.217   9.709 -0.4040 -0.4402 -0.6160
  127TMC2    O2 1986   3.804   0.128  10.391 -0.7345 -0.4643 -0.3671
  127TMC2    O5 1987   3.617   0.115  10.259  0.2615  0.2789  0.0171
  127TMC2    H5 1988   3.586   0.153  10.174  2.4640 -1.4820 -1.5603
  128MPD2     C 1989   4.361   0.497   9.849 -0.5519 -0.2569  0.4729
  128MPD2    C1 1990   4.280   0.519   9.964  0.2539 -0.5658  0.2617
  128MPD2    C2 1991   4.300   0.635  10.038 -0.2352 -0.7138  0.4476
  128MPD2    C3 1992   4.390   0.735   9.997 -0.2367  0.4862  0.3446
  128MPD2    C4 1993   4.470   0.705   9.885  0.3894 -0.5375 -0.5033
  128MPD2    C5 1994   4.458   0.586   9.813  0.2569 -0.2272 -0.6262
  128MPD2     H 1995   4.232   0.645  10.122 -0.1656 -1.9997  0.6552
  128MPD2    H1 1996   4.554   0.771   9.863  0.1799  0.4276  1.5490
  128MPD2    H2 1997   4.355   0.409   9.786  3.0708 -2.2231  2.8704
  128MPD2    H3 1998   4.536   0.568   9.740 -0.3480 -2.3357 -0.7576
  128MPD2     N 1999   4.417   0.839  10.082  0.1934  0.0682  0.3413
  128MPD2    H5 2000   4.369   0.831  10.171  2.0965  0.9998  1.4416
  128MPD2    N1 2001   4.175   0.422   9.985  0.2374  0.2011  0.3115
  128MPD2    H7 2002   4.156   0.366   9.902 -1.2348 -1.8563  2.0517
  129TMC2    C1 2003   0.775   1.678   1.728  0.1752 -0.4216  0.4099
  129TMC2    C2 2004   0.772   1.801   1.666  0.3585  0.0157 -0.0138
  129TMC2    C3 2005   0.689   1.893   1.723  0.1693  0.5027  0.5322
  129TMC2    C4 2006   0.689   1.650   1.833  0.3715 -0.3063 -0.5454
  129TMC2    C5 2007   0.606   1.744   1.881 -0.5294 -0.8201 -0.2115
  129TMC2    C6 2008   0.609   1.866   1.832  0.6071 -0.2509  1.2171
  129TMC2     C 2009   0.872   1.565   1.702  0.2939 -0.3781  0.4517
  129TMC2     O 2010   0.862   1.465   1.774  0.3678 -0.0524  0.2632
  129TMC2     H 2011   0.836   1.825   1.582 -0.6583 -0.7860 -1.0252
  129TMC2    H1 2012   0.705   1.562   1.894 -0.7230  1.6969  2.6192
  129TMC2    H2 2013   0.554   1.948   1.877  0.7001 -0.0254  0.9188
  129TMC2    C7 2014   0.490   1.719   1.962 -0.6214  0.1927  0.2747
  129TMC2    C8 2015   0.681   2.030   1.683 -0.6796 -0.2329 -0.0007
  129TMC2    O1 2016   0.455   1.815   2.024  0.3180  0.0372 -0.2380
  129TMC2    O2 2017   0.574   2.085   1.649  0.3187 -0.0392 -0.5322
  129TMC2    O5 2018   0.808   2.082   1.681  0.1661 -0.2991 -0.3200
  129TMC2    H5 2019   0.877   2.017   1.708  1.5757  1.0502 -0.7234
  130MPD2     C 2020   1.080   1.374   1.604  0.1415  0.8234 -0.2906
  130MPD2    C1 2021   1.062   1.507   1.564  0.3685  0.2010  0.1095
  130MPD2    C2 2022   1.165   1.563   1.486 -0.1560  0.1195  0.4040
  130MPD2    C3 2023   1.274   1.487   1.441 -0.1521  0.1890  0.4649
  130MPD2    C4 2024   1.277   1.357   1.469 -0.0661 -0.4604  0.0460
  130MPD2    C5 2025   1.182   1.298   1.548 -0.5296 -0.2659  0.0901
  130MPD2     H 2026   1.171   1.665   1.451 -1.8764  0.1688  0.2622
  130MPD2    H1 2027   1.365   1.299   1.443 -0.3765 -0.4033 -1.1368
  130MPD2    H2 2028   1.000   1.334   1.664 -0.6771  1.6664 -0.8379
  130MPD2    H3 2029   1.189   1.194   1.580 -0.5506 -0.3970 -0.3406
  130MPD2     N 2030   1.370   1.563   1.367 -0.5186 -0.7636 -0.1754
  130MPD2    H5 2031   1.354   1.663   1.360 -1.9933 -1.0049 -0.2575
  130MPD2    N1 2032   0.962   1.594   1.608 -0.0234 -0.2094 -0.0144
  130MPD2    H7 2033   0.962   1.683   1.560  0.9530 -0.6474 -0.8352
  131TMC2    C1 2034   1.791   4.284  10.136  0.4231  0.0880 -0.7564
  131TMC2    C2 2035   1.778   4.417  10.156  0.1999 -0.2279 -0.5281
  131TMC2    C3 2036   1.877   4.502  10.116 -0.1972  0.2346 -0.1039
  131TMC2    C4 2037   1.896   4.231  10.074  0.8684 -0.5035  0.3037
  131TMC2    C5 2038   1.986   4.316  10.019  0.0355  0.2025 -0.1233
  131TMC2    C6 2039   1.980   4.454  10.038 -0.5100 -0.0466 -0.2839
  131TMC2     C 2040   1.697   4.188  10.197 -0.0440  0.1324 -0.4024
  131TMC2     O 2041   1.730   4.069  10.176  0.2182 -0.3779  0.0712
  131TMC2     H 2042   1.702   4.462  10.219  1.4479  0.2888  0.6063
  131TMC2    H1 2043   1.889   4.128  10.044  0.4971 -0.5934  0.7089
  131TMC2    H2 2044   2.043   4.526   9.987 -0.3401 -1.3359 -1.8845
  131TMC2    C7 2045   2.098   4.256   9.950  0.6357 -0.3992 -0.4288
  131TMC2    C8 2046   1.862   4.641  10.152 -0.3432  0.1718 -0.5064
  131TMC2    O1 2047   2.119   4.139   9.980 -0.3243 -0.0399  1.0423
  131TMC2    O2 2048   1.758   4.704  10.165 -0.9570 -0.1496 -0.0421
  131TMC2    O5 2049   1.987   4.690  10.155 -0.1803  0.1483 -0.2872
  131TMC2    H5 2050   2.066   4.632  10.158 -1.1405 -1.2469 -2.3714
  132MPD2     C 2051   1.401   4.231  10.402 -0.2366 -0.0547 -1.8091
  132MPD2    C1 2052   1.505   4.170  10.343 -0.0044  0.4723  0.3396
  132MPD2    C2 2053   1.507   4.033  10.351 -0.5944  0.5875  0.6098
  132MPD2    C3 2054   1.414   3.958  10.416  0.1687 -0.2132 -0.6430
  132MPD2    C4 2055   1.312   4.025  10.483 -0.1403 -0.3429  0.6586
  132MPD2    C5 2056   1.305   4.161  10.472 -0.4172  0.0797 -0.2537
  132MPD2     H 2057   1.595   3.979  10.318 -2.4820 -0.8086 -2.1667
  132MPD2    H1 2058   1.230   3.975  10.532 -0.7148  0.2738  0.3209
  132MPD2    H2 2059   1.397   4.340  10.408  0.6798 -0.0781 -0.7341
  132MPD2    H3 2060   1.228   4.210  10.531 -1.9873 -1.4441 -1.0345
  132MPD2     N 2061   1.433   3.820  10.421  0.9126  0.0317  0.4644
  132MPD2    H5 2062   1.529   3.797  10.398  0.4291 -2.8778  1.2985
  132MPD2    N1 2063   1.597   4.248  10.269  0.1891  0.2747  0.0435
  132MPD2    H7 2064   1.581   4.348  10.279 -1.4979 -0.0637  0.7972
  133TMC2    C1 2065   4.301   0.144  10.235 -0.4612 -0.6620  0.0614
  133TMC2    C2 2066   4.254   0.125  10.360  0.0293  0.9800 -0.4116
  133TMC2    C3 2067   4.152   0.026  10.369 -0.4454 -0.0321  0.3792
  133TMC2    C4 2068   4.253   0.077  10.131  0.0933 -0.4256 -0.1210
  133TMC2    C5 2069   4.152   4.724  10.141  0.4476 -0.2205  0.4285
  133TMC2    C6 2070   4.098   4.690  10.266  0.0882 -0.5376 -0.0394
  133TMC2     C 2071   4.398   0.247  10.193  0.1865 -0.3660  0.1774
  133TMC2     O 2072   4.455   0.251  10.090 -0.6134 -0.0627 -0.2081
  133TMC2     H 2073   4.302   0.170  10.446  1.0186 -2.3055  0.7716
  133TMC2    H1 2074   4.299   0.108  10.038 -2.4332 -0.2731 -1.2932
  133TMC2    H2 2075   4.011   4.625  10.273 -0.9084  0.5244 -2.1671
  133TMC2    C7 2076   4.084   4.673  10.025  0.0283 -0.6585  0.1320
  133TMC2    C8 2077   4.082   0.011  10.494  0.2230  0.6829 -0.0092
  133TMC2    O1 2078   3.983   4.617  10.056 -0.2950 -0.5454 -0.2293
  133TMC2    O2 2079   4.007   4.652  10.513 -0.0117 -0.2184  0.0386
  133TMC2    O5 2080   4.053   0.139  10.530  0.0722  0.6997  0.6098
  133TMC2    H5 2081   4.111   0.209  10.494 -0.5794  2.1438  2.4265
  134MPD2     C 2082   4.432   0.562  10.386 -0.0441 -0.5269  0.3557
  134MPD2    C1 2083   4.466   0.467  10.290  0.5003  0.1894 -0.6366
  134MPD2    C2 2084   4.571   0.496  10.204 -0.7011 -0.4065 -0.4325
  134MPD2    C3 2085   4.642   0.617  10.211 -0.5817 -0.1566 -0.1205
  134MPD2    C4 2086   4.609   0.711  10.307  0.7698  0.0409  0.7524
  134MPD2    C5 2087   4.505   0.681  10.390 -0.1193 -0.2546  0.5061
  134MPD2     H 2088   4.601   0.422  10.130  0.8466  1.2895 -1.5200
  134MPD2    H1 2089   4.663   0.805  10.309  0.9205  0.0105 -1.6243
  134MPD2    H2 2090   4.353   0.539  10.457  0.2547  2.8183  1.7840
  134MPD2    H3 2091   4.481   0.749  10.471  0.1935 -0.8632  1.1083
  134MPD2     N 2092   0.012   0.660  10.121 -0.2126  0.5422  0.4504
  134MPD2    H5 2093   0.031   0.759  10.130  1.3041  0.4512 -1.7899
  134MPD2    N1 2094   4.392   0.349  10.286 -0.1457  0.1529  0.1146
  134MPD2    H7 2095   4.311   0.360  10.346 -0.7962  1.5067 -1.0017
  135TMC2    C1 2096   3.643   2.106   9.591  0.6120 -0.2092 -1.1978
  135TMC2    C2 2097   3.520   2.160   9.560 -0.1617 -0.3966  0.1026
  135TMC2    C3 2098   3.408   2.082   9.552 -0.3553  0.5095  0.0598
  135TMC2    C4 2099   3.660   1.972   9.601  0.2986 -0.2080  0.3984
  135TMC2    C5 2100   3.542   1.893   9.584 -0.4556  0.2919 -0.8803
  135TMC2    C6 2101   3.419   1.946   9.571 -0.1998 -0.0712  0.2571
  135TMC2     C 2102   3.750   2.201   9.586  0.6965 -0.4206  0.5668
  135TMC2     O 2103   3.719   2.317   9.610  0.0300 -0.6002 -0.1618
  135TMC2     H 2104   3.506   2.267   9.549  1.4193 -0.3097 -1.0552
  135TMC2    H1 2105   3.756   1.926   9.621  1.0307  0.5462 -1.3905
  135TMC2    H2 2106   3.331   1.882   9.570 -2.2385  2.7445 -1.0779
  135TMC2    C7 2107   3.568   1.750   9.606 -0.4607  0.5987  0.3085
  135TMC2    C8 2108   3.306   2.139   9.464  0.1123  0.3918  0.0045
  135TMC2    O1 2109   3.680   1.709   9.585  0.1589 -0.1676 -0.9155
  135TMC2    O2 2110   3.281   2.259   9.463  0.7799  0.1293 -0.1147
  135TMC2    O5 2111   3.239   2.041   9.400 -0.3114 -0.3515  0.0163
  135TMC2    H5 2112   3.295   1.963   9.379  1.2980  1.4184 -2.3611
  136MPD2     C 2113   4.000   2.352   9.567  0.2102 -0.2528  0.2430
  136MPD2    C1 2114   3.987   2.220   9.533 -0.3414 -0.2309 -0.3736
  136MPD2    C2 2115   4.097   2.150   9.483  0.6150  0.3224  0.6308
  136MPD2    C3 2116   4.222   2.218   9.468 -0.2346  0.5566  0.5805
  136MPD2    C4 2117   4.235   2.345   9.518 -0.2490 -0.0592 -0.3063
  136MPD2    C5 2118   4.121   2.413   9.556 -0.5203 -0.1180 -0.9136
  136MPD2     H 2119   4.086   2.047   9.452 -1.5561  1.3580 -1.9523
  136MPD2    H1 2120   4.327   2.402   9.511 -1.1171  1.2698 -0.8854
  136MPD2    H2 2121   3.920   2.412   9.610  0.0182  0.5655 -1.2430
  136MPD2    H3 2122   4.134   2.517   9.583  0.1001 -0.7050  1.0690
  136MPD2     N 2123   4.338   2.154   9.421 -0.0420  0.0851  0.2467
  136MPD2    H5 2124   4.426   2.204   9.417 -0.1758  0.1986 -1.2481
  136MPD2    N1 2125   3.867   2.144   9.545 -0.2707  0.0392 -0.5145
  136MPD2    H7 2126   3.874   2.044   9.525  2.1579 -0.0768  0.8984
  137TMC2    C1 2127   3.054   4.324  10.652  0.6928  0.3248 -0.0545
  137TMC2    C2 2128   3.138   4.300  10.757  0.3218  0.7038  0.1093
  137TMC2    C3 2129   3.259   4.252  10.724  0.1258 -0.4062  0.0518
  137TMC2    C4 2130   3.090   4.310  10.521 -0.2091 -0.3211 -0.2180
  137TMC2    C5 2131   3.208   4.262  10.486 -0.0697 -0.8118  0.5621
  137TMC2    C6 2132   3.296   4.236  10.589 -0.7667 -0.1220  0.4742
  137TMC2     C 2133   2.949   4.419  10.672 -0.1673  0.5789  0.0661
  137TMC2     O 2134   2.901   4.471  10.574 -0.6696 -0.6691  0.2833
  137TMC2     H 2135   3.128   4.309  10.864  2.9398 -4.3914  0.7934
  137TMC2    H1 2136   3.010   4.319  10.448  0.5459  1.5363 -0.8084
  137TMC2    H2 2137   3.393   4.194  10.564 -2.3216 -1.3483 -3.5035
  137TMC2    C7 2138   3.264   4.284  10.357 -0.1567  0.2817 -0.5574
  137TMC2    C8 2139   3.363   4.296  10.814  0.3991 -0.4079 -0.6046
  137TMC2    O1 2140   3.373   4.238  10.329 -0.4702  0.4521 -0.0507
  137TMC2    O2 2141   3.348   4.384  10.897 -0.6596  0.0768  0.4197
  137TMC2    O5 2142   3.482   4.247  10.783  0.6731  0.4520  0.1072
  137TMC2    H5 2143   3.475   4.169  10.723 -1.0264  1.1753 -0.6201
  138MPD2     C 2144   2.751   4.535  10.949 -0.5137 -0.4773  0.9089
  138MPD2    C1 2145   2.838   4.543  10.840  0.5870  0.3120 -0.0697
  138MPD2    C2 2146   2.837   4.661  10.771 -0.5737 -1.2605 -0.2985
  138MPD2    C3 2147   2.760   0.032  10.803  0.7033 -0.3066 -0.2309
  138MPD2    C4 2148   2.671   0.016  10.905 -0.3817  0.2616 -0.1106
  138MPD2    C5 2149   2.668   4.641  10.985 -0.0098  0.3240 -1.0051
  138MPD2     H 2150   2.915   4.676  10.696  0.6299  0.0246  1.2170
  138MPD2    H1 2151   2.597   0.091  10.930  0.7062  1.4539 -0.5275
  138MPD2    H2 2152   2.751   4.446  11.011  0.7083 -0.9144  0.3056
  138MPD2    H3 2153   2.598   4.630  11.067  1.5666 -2.3574 -0.0243
  138MPD2     N 2154   2.789   0.159  10.742  0.3282  0.1106 -0.0757
  138MPD2    H5 2155   2.870   0.166  10.681  0.0556  1.3921 -0.2882
  138MPD2    N1 2156   2.919   4.435  10.803 -0.0224  0.3339  0.0573
  138MPD2    H7 2157   2.926   4.355  10.865  0.6616  1.1802  1.0834
  139TMC2    C1 2158   3.038   3.995  13.576 -0.3563 -0.4527 -0.5766
  139TMC2    C2 2159   3.048   3.970  13.439  0.2704 -0.1754 -0.8255
  139TMC2    C3 2160   2.955   4.038  13.366 -0.5726 -0.0707 -0.0688
  139TMC2    C4 2161   2.941   4.070  13.639  0.4727  0.5144 -0.5096
  139TMC2    C5 2162   2.852   4.137  13.557  0.5585 -0.3886 -0.1414
  139TMC2    C6 2163   2.852   4.105  13.417 -0.2629 -0.6980 -0.2413
  139TMC2     C 2164   3.131   3.916  13.660  0.2977  0.4395  0.1527
  139TMC2     O 2165   3.252   3.931  13.635 -0.1551 -0.2983  0.1552
  139TMC2     H 2166   3.136   3.918  13.402 -0.4512 -0.5227 -2.0383
  139TMC2    H1 2167   2.943   4.070  13.747  1.2526 -0.7952 -0.5306
  139TMC2    H2 2168   2.789   4.159  13.347  1.0526  0.4868 -0.5286
  139TMC2    C7 2169   2.750   4.224  13.605 -0.3592  0.3175 -1.1007
  139TMC2    C8 2170   2.963   4.022  13.223 -0.3056 -0.6798  0.1458
  139TMC2    O1 2171   2.657   4.250  13.529  0.6087 -0.3907  0.4183
  139TMC2    O2 2172   2.880   3.959  13.154 -0.0699 -0.3889  0.3936
  139TMC2    O5 2173   3.092   4.042  13.198 -0.9724  0.1283 -0.0556
  139TMC2    H5 2174   3.128   4.109  13.258  1.6311 -2.2572  1.0292
  140MPD2     C 2175   3.023   3.636  13.869 -0.0841  0.4515 -0.4362
  140MPD2    C1 2176   3.115   3.708  13.802  0.3755  0.8693  0.2068
  140MPD2    C2 2177   3.240   3.649  13.776  0.6886  0.4074 -0.6489
  140MPD2    C3 2178   3.272   3.526  13.823 -0.9939 -0.1502  0.7489
  140MPD2    C4 2179   3.174   3.449  13.876 -0.4660 -0.1960 -0.5581
  140MPD2    C5 2180   3.054   3.503  13.900 -0.4054  0.1697 -0.1413
  140MPD2     H 2181   3.304   3.708  13.711  0.8054  0.2244 -0.6994
  140MPD2    H1 2182   3.173   3.344  13.904 -0.0221 -0.1381 -0.3196
  140MPD2    H2 2183   2.919   3.662  13.888  0.0100 -1.0457  2.1793
  140MPD2    H3 2184   2.984   3.427  13.935 -2.6093  1.6844 -1.2854
  140MPD2     N 2185   3.404   3.473  13.792  0.4631 -0.4545  0.4272
  140MPD2    H5 2186   3.472   3.523  13.735 -1.7192  0.4354 -1.3901
  140MPD2    N1 2187   3.066   3.832  13.748  0.7232  0.2928  0.0452
  140MPD2    H7 2188   2.966   3.845  13.757  0.2779 -1.8879 -1.5736
  141TMC2    C1 2189   3.736   0.802  13.622 -0.1245 -0.1494 -0.1489
  141TMC2    C2 2190   3.667   0.824  13.507  0.3136  0.5570 -0.4806
  141TMC2    C3 2191   3.568   0.919  13.512  0.2150  0.3973 -0.4157
  141TMC2    C4 2192   3.721   0.863  13.739 -0.1484  0.7374  0.0572
  141TMC2    C5 2193   3.615   0.957  13.732 -0.5895 -0.6927 -0.9396
  141TMC2    C6 2194   3.536   0.980  13.627  0.2485  0.3001  0.1727
  141TMC2     C 2195   3.823   0.689  13.621  0.0916 -0.4673 -0.0673
  141TMC2     O 2196   3.857   0.661  13.508 -0.3426 -0.6037  0.1310
  141TMC2     H 2197   3.686   0.772  13.414 -0.6916 -0.2749 -0.2208
  141TMC2    H1 2198   3.768   0.849  13.835  0.2741  2.8984  0.1642
  141TMC2    H2 2199   3.453   1.049  13.636 -0.1926 -0.1778 -0.2005
  141TMC2    C7 2200   3.559   0.994  13.856  0.1309  0.3359  1.1564
  141TMC2    C8 2201   3.490   0.936  13.390  1.0974  0.4641  0.0278
  141TMC2    O1 2202   3.439   0.973  13.867 -0.4913  0.7562 -0.0456
  141TMC2    O2 2203   3.536   0.899  13.284  0.0882  0.1445 -0.8818
  141TMC2    O5 2204   3.397   1.034  13.408 -0.3923 -0.1704 -0.0838
  141TMC2    H5 2205   3.344   1.014  13.488 -0.5193  1.4993  0.2506
  142TMC2    C1 2206   1.291   3.901  10.084 -0.2618 -1.1098 -0.1088
  142TMC2    C2 2207   1.220   4.014  10.112 -0.0790 -0.3065  0.0873
  142TMC2    C3 2208   1.276   4.128  10.068  0.5484  0.7511  0.3183
  142TMC2    C4 2209   1.398   3.884  10.003  0.1507 -0.7363  0.4854
  142TMC2    C5 2210   1.451   4.000   9.959  0.2667 -0.3974 -0.4990
  142TMC2    C6 2211   1.392   4.121   9.992  0.0914  0.6813 -0.3114
  142TMC2     C 2212   1.221   3.778  10.148 -0.0030  0.1831 -0.2242
  142TMC2     O 2213   1.104   3.791  10.163  0.0272 -0.3617 -0.0024
  142TMC2     H 2214   1.158   4.011  10.201 -0.3827  1.1284 -0.0810
  142TMC2    H1 2215   1.452   3.792   9.984  1.6827 -0.2003  2.2850
  142TMC2    H2 2216   1.427   4.213   9.948 -1.6455  1.5995  0.2239
  142TMC2    C7 2217   1.575   3.991   9.880 -0.2086  0.4179  0.1005
  142TMC2    C8 2218   1.199   4.254  10.086  0.5708  0.9633  1.8082
  142TMC2    O1 2219   1.612   3.877   9.853 -0.4078  0.1772 -0.3282
  142TMC2    O2 2220   1.248   4.368  10.079  0.3227 -0.3976  0.0486
  142TMC2    O5 2221   1.069   4.226  10.109  0.3327  0.3923 -0.1163
  142TMC2    H5 2222   1.033   4.138  10.086 -1.9238  1.3336 -0.2840
  143MPD2     C 2223   1.141   3.272  10.185  0.0461  0.2240  0.3105
  143MPD2    C1 2224   1.069   3.373  10.244  0.3057 -0.4400  0.0746
  143MPD2    C2 2225   1.112   3.502  10.212  0.7432 -0.6935 -0.5061
  143MPD2    C3 2226   1.225   3.532  10.137  0.2477  0.5232 -0.3887
  143MPD2    C4 2227   1.294   3.426  10.087  0.8238 -0.1595 -0.7442
  143MPD2    C5 2228   1.252   3.298  10.110  0.6186  0.0656 -0.5579
  143MPD2     H 2229   1.054   3.586  10.249  2.6239  1.0153 -1.4605
  143MPD2    H1 2230   1.376   3.450  10.021  1.1457 -0.0294 -0.2982
  143MPD2    H2 2231   1.110   3.168  10.193  0.8170 -0.0979 -0.8269
  143MPD2    H3 2232   1.290   3.214  10.052  2.0235  1.9351 -2.3409
  143MPD2     N 2233   1.279   3.659  10.117 -0.8849 -0.2473 -0.1703
  143MPD2    H5 2234   1.370   3.671  10.074 -1.2855 -0.4179 -1.0600
  143MPD2    N1 2235   0.951   3.328  10.320 -0.3777  0.5192 -0.4105
  143MPD2    H7 2236   0.925   3.230  10.316 -0.4515  0.5017  0.5223
  144TMC2    C1 2237   3.873   2.375   0.307 -0.4181  0.9375 -0.1355
  144TMC2    C2 2238   3.972   2.292   0.257 -0.5683 -0.2483 -0.6948
  144TMC2    C3 2239   4.081   2.265   0.332 -0.0189 -0.2863 -0.4833
  144TMC2    C4 2240   3.891   2.439   0.426  0.1766 -0.0499  0.7953
  144TMC2    C5 2241   4.006   2.424   0.499 -0.0288  0.2486  0.1046
  144TMC2    C6 2242   4.096   2.332   0.452  0.0786  0.2156  0.2716
  144TMC2     C 2243   3.750   2.388   0.232 -0.3362 -1.0063  0.0627
  144TMC2     O 2244   3.725   2.295   0.148 -0.0155 -0.1471  0.2349
  144TMC2     H 2245   3.962   2.251   0.158 -0.4138 -0.1676 -0.7436
  144TMC2    H1 2246   3.808   2.491   0.474  0.1240  1.7452 -1.2406
  144TMC2    H2 2247   4.179   2.306   0.517  0.5792  0.8612 -0.1042
  144TMC2    C7 2248   4.038   2.492   0.622 -0.3871  0.7570 -0.0157
  144TMC2    C8 2249   4.183   2.190   0.265 -0.3129  0.4857 -0.1657
  144TMC2    O1 2250   4.139   2.455   0.685 -0.3308  0.3473 -0.0801
  144TMC2    O2 2251   4.194   2.175   0.146  1.0560 -0.5991 -0.4283
  144TMC2    O5 2252   4.224   2.104   0.358 -0.1024  0.1023  0.1152
  144TMC2    H5 2253   4.152   2.090   0.422 -1.3382 -1.9314 -1.7221
  145MPD2     C 2254   3.388   2.668   0.019 -0.2240  0.2462 -0.1885
  145MPD2    C1 2255   3.426   2.541  17.719  0.0232 -0.5474 -0.5034
  145MPD2    C2 2256   3.527   2.485   0.057 -0.1888 -0.6044  0.9863
  145MPD2    C3 2257   3.581   2.554   0.165 -0.3212  0.5714  0.4367
  145MPD2    C4 2258   3.547   2.689   0.186 -0.1123  0.3725  0.3680
  145MPD2    C5 2259   3.450   2.749   0.108 -0.5459  0.8452 -0.0291
  145MPD2     H 2260   3.545   2.380   0.035  0.4060 -0.4381  0.6796
  145MPD2    H1 2261   3.598   2.748   0.262 -0.3240  1.9403 -0.7043
  145MPD2    H2 2262   3.308   2.720  17.701  0.9993 -0.0572 -2.3291
  145MPD2    H3 2263   3.408   2.847   0.131 -2.1590  0.7064 -2.3696
  145MPD2     N 2264   3.693   2.508   0.244 -0.0764 -0.5684  0.0795
  145MPD2    H5 2265   3.729   2.575   0.312  0.9313 -1.2330  0.2160
  145MPD2    N1 2266   3.370   2.458  17.616  0.6291 -0.4212 -1.0540
  145MPD2    H7 2267   3.396   2.360  17.607 -0.5610 -1.1084  2.8526
  146TMC2    C1 2268   0.805   1.869  12.795  0.0784  0.8471 -0.0476
  146TMC2    C2 2269   0.817   1.962  12.690 -0.0004  0.0205  0.0759
  146TMC2    C3 2270   0.916   1.936  12.597 -0.6358 -0.8601  0.1323
  146TMC2    C4 2271   0.892   1.763  12.812 -0.0643  0.0738 -0.1112
  146TMC2    C5 2272   0.977   1.746  12.705 -0.8206  0.0519  0.1022
  146TMC2    C6 2273   0.990   1.824  12.595 -0.8484  0.3897 -0.2358
  146TMC2     C 2274   0.706   1.900  12.895 -0.1956  0.0258  0.0240
  146TMC2     O 2275   0.607   1.965  12.868  0.1593 -0.2790 -0.4286
  146TMC2     H 2276   0.759   2.054  12.685 -1.0570 -0.6410  0.1368
  146TMC2    H1 2277   0.870   1.683  12.880  0.4801 -0.7775 -0.9339
  146TMC2    H2 2278   1.072   1.813  12.525  0.1503  2.5136  0.6149
  146TMC2    C7 2279   1.073   1.642  12.710  0.2872 -0.2119 -0.1971
  146TMC2    C8 2280   0.942   2.031  12.489  0.5044  0.1946  0.6851
  146TMC2    O1 2281   1.133   1.619  12.609  0.5679 -0.9211  0.9602
  146TMC2    O2 2282   1.007   1.989  12.391 -0.4616  0.1509 -1.0713
  146TMC2    O5 2283   0.944   2.160  12.532  0.2344  0.6807  0.2450
  146TMC2    H5 2284   0.903   2.172  12.620  1.9997 -2.0027  1.3835
  147MPD2     C 2285   1.408   1.291  12.917 -0.2130 -0.0761  0.1035
  147MPD2    C1 2286   1.295   1.320  13.004 -0.0435  0.2377 -0.4740
  147MPD2    C2 2287   1.203   1.422  12.976 -0.1356  0.0587 -0.6153
  147MPD2    C3 2288   1.202   1.489  12.854 -0.2263  0.3380 -0.7590
  147MPD2    C4 2289   1.311   1.455  12.769  0.4034  0.0521 -0.0175
  147MPD2    C5 2290   1.415   1.365  12.804 -0.2388 -1.1123 -0.1173
  147MPD2     H 2291   1.118   1.440  13.041  0.4520  0.2706  0.1013
  147MPD2    H1 2292   1.330   1.489  12.668  1.6265 -0.9078 -0.1133
  147MPD2    H2 2293   1.480   1.211  12.931  1.0718  0.8339 -1.3615
  147MPD2    H3 2294   1.492   1.339  12.733 -0.3225  0.2726 -0.7093
  147MPD2     N 2295   1.101   1.589  12.834  0.0660 -0.4827 -0.1552
  147MPD2    H5 2296   1.033   1.604  12.908 -0.4979  0.9639 -0.9789
  147MPD2    N1 2297   1.280   1.229  13.110  1.5316  0.0024  0.2952
  147MPD2    H7 2298   1.356   1.163  13.123  3.0711  1.3825 -1.5914
  148TMC2    C1 2299   1.007   0.645  10.683  0.0873  0.3994 -0.0405
  148TMC2    C2 2300   1.000   0.731  10.797  0.0190  0.0807 -0.0709
  148TMC2    C3 2301   1.097   0.710  10.892 -0.2724 -0.3575  0.0447
  148TMC2    C4 2302   1.115   0.568  10.663  0.1261 -0.3709  0.6963
  148TMC2    C5 2303   1.205   0.549  10.756  0.0343 -0.0596 -0.3461
  148TMC2    C6 2304   1.197   0.615  10.873 -0.0047  0.0649 -0.1865
  148TMC2     C 2305   0.887   0.638  10.611 -0.4816  0.5633 -0.0827
  148TMC2     O 2306   0.818   0.737  10.595  0.2184  0.1491  0.2016
  148TMC2     H 2307   0.918   0.800  10.816  0.2639 -0.2894  2.3091
  148TMC2    H1 2308   1.128   0.501  10.579 -2.1154 -1.0233  0.8652
  148TMC2    H2 2309   1.273   0.604  10.950  0.4865  1.6478 -0.4513
  148TMC2    C7 2310   1.262   0.416  10.766 -0.4695  0.5392 -0.0816
  148TMC2    C8 2311   1.100   0.797  11.007  0.2909 -0.0183 -0.3222
  148TMC2    O1 2312   1.303   0.363  10.664  0.0487  0.1140  0.2481
  148TMC2    O2 2313   1.003   0.847  11.059  0.2021 -0.1305  0.1312
  148TMC2    O5 2314   1.226   0.845  11.028  0.6846 -0.0026 -1.0185
  148TMC2    H5 2315   1.281   0.831  10.948  0.3922  2.2805 -1.6295
  149MPD2     C 2316   0.676   0.532  10.408 -0.8792 -0.3127 -0.3964
  149MPD2    C1 2317   0.776   0.454  10.471 -0.3180 -1.0866 -0.0403
  149MPD2    C2 2318   0.757   0.318  10.473 -0.9127 -0.4175 -0.4262
  149MPD2    C3 2319   0.652   0.248  10.407 -0.0083 -0.2497 -0.5210
  149MPD2    C4 2320   0.564   0.329  10.343 -0.2466 -0.3973  0.7228
  149MPD2    C5 2321   0.575   0.464  10.347  0.1401 -0.2498 -0.7262
  149MPD2     H 2322   0.834   0.261  10.525  0.5007  3.3037  1.5113
  149MPD2    H1 2323   0.475   0.290  10.295  0.2370 -2.1218  1.2470
  149MPD2    H2 2324   0.692   0.639  10.404  0.5899 -0.5245 -0.2879
  149MPD2    H3 2325   0.501   0.528  10.299  0.8356 -0.2647 -1.8267
  149MPD2     N 2326   0.625   0.108  10.416 -0.0377  0.8633 -0.2714
  149MPD2    H5 2327   0.552   0.070  10.356 -2.6026 -0.9415  3.9462
  149MPD2    N1 2328   0.879   0.510  10.557 -0.2488 -0.0834 -0.0650
  149MPD2    H7 2329   0.951   0.445  10.586 -0.9332 -1.0320 -0.4482
  150TMC2    C1 2330   3.003   4.332  12.175 -0.3290 -0.1406 -0.1848
  150TMC2    C2 2331   3.029   4.446  12.100 -0.6519  0.1495  0.0542
  150TMC2    C3 2332   3.158   4.477  12.081 -0.1413  0.3909  0.4462
  150TMC2    C4 2333   3.102   4.257  12.242 -0.6304 -0.2618 -0.6935
  150TMC2    C5 2334   3.228   4.301  12.217  0.1186 -0.6291  0.0398
  150TMC2    C6 2335   3.258   4.402  12.133  0.0949 -0.9725 -0.0284
  150TMC2     C 2336   2.867   4.288  12.174  0.2892 -0.5566 -0.3179
  150TMC2     O 2337   2.799   4.313  12.077 -0.1638  0.1671  0.5046
  150TMC2     H 2338   2.942   4.486  12.049 -1.0054  0.0451  0.5804
  150TMC2    H1 2339   3.087   4.166  12.299  0.0414 -0.0048 -0.1050
  150TMC2    H2 2340   3.354   4.452  12.145  1.2336 -3.5544  1.5483
  150TMC2    C7 2341   3.347   4.243  12.266 -0.0677 -0.8140 -0.1166
  150TMC2    C8 2342   3.179   4.564  11.969  0.4417 -0.1815  0.4874
  150TMC2    O1 2343   3.444   4.259  12.195 -0.2493 -0.0498  0.5234
  150TMC2    O2 2344   3.289   4.571  11.915 -0.3260  0.2994 -0.6264
  150TMC2    O5 2345   3.091   4.661  11.974 -0.5248  0.6889  0.0704
  150TMC2    H5 2346   3.008   4.648  12.024  0.6782 -0.4071  1.8313
  151MPD2     C 2347   2.444   4.128  12.407  0.0881 -0.1536  0.5561
  151MPD2    C1 2348   2.468   4.160  12.276  0.3350  0.4081  0.0623
  151MPD2    C2 2349   2.597   4.188  12.236 -0.6308 -0.0002  0.1486
  151MPD2    C3 2350   2.701   4.196  12.326  0.0098 -0.1494 -0.1113
  151MPD2    C4 2351   2.676   4.150  12.455 -0.2336 -0.2876  0.3490
  151MPD2    C5 2352   2.547   4.127  12.503  0.3450 -0.1280 -0.2455
  151MPD2     H 2353   2.612   4.204  12.130  0.1588  0.4072  0.3276
  151MPD2    H1 2354   2.748   4.146  12.536  0.6161  1.2295 -0.3225
  151MPD2    H2 2355   2.340   4.117  12.436 -0.5107  0.4005 -1.4034
  151MPD2    H3 2356   2.532   4.104  12.608  0.2545  1.5482  0.1111
  151MPD2     N 2357   2.832   4.226  12.292  0.0872  0.0473 -0.6508
  151MPD2    H5 2358   2.904   4.233  12.363  0.0304 -1.8475 -0.4230
  151MPD2    N1 2359   2.354   4.170  12.190  0.3688  1.0525  0.4658
  151MPD2    H7 2360   2.265   4.145  12.232  1.0302 -1.7088  0.2365
  152TMC2    C1 2361   2.765   4.073  12.836 -0.0078  0.1755 -0.0428
  152TMC2    C2 2362   2.839   4.018  12.734  0.1334  0.2038 -0.2633
  152TMC2    C3 2363   2.958   4.086  12.706  0.2242 -0.0958 -0.0270
  152TMC2    C4 2364   2.805   4.177  12.910  0.2823 -1.2057 -0.2417
  152TMC2    C5 2365   2.934   4.234  12.883 -0.2252  0.4348 -0.0931
  152TMC2    C6 2366   3.007   4.191  12.776  0.4352  0.0362 -0.0079
  152TMC2     C 2367   2.623   4.026  12.849 -0.6042 -0.3186  0.0975
  152TMC2     O 2368   2.547   4.122  12.850  0.1104 -0.1276  0.5987
  152TMC2     H 2369   2.783   3.956  12.665  0.8098 -0.1981 -0.4636
  152TMC2    H1 2370   2.751   4.206  12.998  0.7952  1.1560 -0.7085
  152TMC2    H2 2371   3.100   4.237  12.743  1.2669 -2.2492 -0.8426
  152TMC2    C7 2372   3.004   4.303  12.994 -0.3337  0.0636  0.6203
  152TMC2    C8 2373   3.027   4.066  12.580 -0.5001 -0.0122 -0.2292
  152TMC2    O1 2374   2.947   4.333  13.095 -0.3725  0.2176 -0.4413
  152TMC2    O2 2375   3.103   4.154  12.536  0.2128  0.0053 -1.0855
  152TMC2    O5 2376   2.983   3.956  12.516  0.6936 -0.5285  0.4218
  152TMC2    H5 2377   2.959   3.885  12.579  2.7001 -1.7556 -0.2065
  153MPD2     C 2378   2.443   3.707  12.907 -0.0343  0.1687 -0.6625
  153MPD2    C1 2379   2.470   3.834  12.854  0.2111  0.5261  0.0303
  153MPD2    C2 2380   2.365   3.904  12.791  0.2649  0.0576  0.7670
  153MPD2    C3 2381   2.243   3.849  12.792  0.1649  0.6302 -0.3097
  153MPD2    C4 2382   2.215   3.721  12.842  0.4343  0.0284 -0.3227
  153MPD2    C5 2383   2.324   3.648  12.888 -0.1477  0.0681  0.5772
  153MPD2     H 2384   2.382   3.999  12.743  4.2474 -1.5076 -0.9616
  153MPD2    H1 2385   2.116   3.679  12.849  1.0700 -1.1590  1.2308
  153MPD2    H2 2386   2.523   3.652  12.956  0.2051  1.0201 -0.0996
  153MPD2    H3 2387   2.313   3.553  12.940 -1.6525  0.1927  0.4825
  153MPD2     N 2388   2.143   3.926  12.726 -0.6898  0.4034  0.1952
  153MPD2    H5 2389   2.169   4.016  12.686  0.2118  0.5336  1.0950
  153MPD2    N1 2390   2.596   3.889  12.865  0.1515 -0.5335  0.2542
  153MPD2    H7 2391   2.673   3.834  12.903  2.0569  0.6600 -1.8886
  154TMC2    C1 2392   4.198   4.338   0.145  0.0061  0.0422 -0.0653
  154TMC2    C2 2393   4.149   4.257   0.245 -0.2886  0.4286 -0.2385
  154TMC2    C3 2394   4.199   4.130   0.247 -0.3985  0.3911 -0.0794
  154TMC2    C4 2395   4.281   4.285   0.048 -0.2513  0.7232 -0.1346
  154TMC2    C5 2396   4.317   4.154   0.055 -0.1276 -0.3232  0.0614
  154TMC2    C6 2397   4.278   4.074   0.151 -0.1831  0.0426 -0.0027
  154TMC2     C 2398   4.153   4.478   0.141  0.5977 -0.5074 -0.1346
  154TMC2     O 2399   4.041   4.507   0.183 -0.0452  0.1012  0.3561
  154TMC2     H 2400   4.072   4.294   0.313 -0.8565  0.0983 -0.7028
  154TMC2    H1 2401   4.300   4.349  17.698 -0.2258  0.6869 -0.1561
  154TMC2    H2 2402   4.303   3.968   0.151  2.0961  0.5770 -0.8896
  154TMC2    C7 2403   4.409   4.102  17.688  0.0254 -0.3790 -0.6302
  154TMC2    C8 2404   4.176   4.063   0.373  0.1277 -0.2285  0.1563
  154TMC2    O1 2405   4.423   3.980  17.688 -0.4414 -0.0456 -0.6209
  154TMC2    O2 2406   4.083   4.088   0.451  0.0791 -0.2707 -0.4897
  154TMC2    O5 2407   4.271   3.973   0.386  0.4019 -0.3398 -0.4705
  154TMC2    H5 2408   4.345   3.973   0.322  0.6425 -2.0324 -0.1799
  155MPD2     C 2409   4.291   0.038  17.712 -0.0321 -0.2226 -0.2857
  155MPD2    C1 2410   4.223   4.706   0.072  0.2266 -0.6826  0.1779
  155MPD2    C2 2411   4.121   0.055   0.127  0.2247  0.8640 -0.0770
  155MPD2    C3 2412   4.108   0.191   0.104  0.0267 -0.1669 -0.3797
  155MPD2    C4 2413   4.184   0.250   0.007 -0.2735 -0.6181  0.1313
  155MPD2    C5 2414   4.277   0.169  17.681  0.0706 -0.5692 -0.5804
  155MPD2     H 2415   4.061   0.013   0.207 -0.7906  0.7262 -0.9200
  155MPD2    H1 2416   4.165   0.352  17.710 -0.2059 -0.8291 -0.5755
  155MPD2    H2 2417   4.378   4.723  17.670 -0.8778 -0.4362 -1.7682
  155MPD2    H3 2418   4.334   0.214  17.601  1.9983  0.7048  1.5170
  155MPD2     N 2419   4.002   0.266   0.171 -0.0284 -0.1173  0.1127
  155MPD2    H5 2420   3.933   0.214   0.224  0.5891 -0.3071  0.7246
  155MPD2    N1 2421   4.242   4.567   0.092  0.4050 -0.5316 -0.4844
  155MPD2    H7 2422   4.326   4.517   0.063 -1.7898 -4.0555 -0.7655
  156TMC2    C1 2423   2.401   1.834  11.434  0.5116  0.0636 -0.0573
  156TMC2    C2 2424   2.314   1.730  11.419 -0.5225  0.5524  0.7204
  156TMC2    C3 2425   2.213   1.743  11.326 -0.6607  0.0529 -0.5171
  156TMC2    C4 2426   2.398   1.948  11.350 -0.2557  0.2668 -1.1576
  156TMC2    C5 2427   2.305   1.955  11.257  0.5201 -0.1499 -0.3745
  156TMC2    C6 2428   2.219   1.851  11.242 -0.0813 -0.0299  0.3622
  156TMC2     C 2429   2.505   1.837  11.539 -0.7744 -0.0027  0.2916
  156TMC2     O 2430   2.511   1.937  11.600  0.0407  0.3707 -0.4202
  156TMC2     H 2431   2.315   1.646  11.487  1.0214 -1.8383 -2.2646
  156TMC2    H1 2432   2.461   2.035  11.362 -0.1807  0.1115 -0.4499
  156TMC2    H2 2433   2.155   1.837  11.156 -0.2975  2.7504  0.0707
  156TMC2    C7 2434   2.302   2.070  11.170 -0.2287  0.7353 -0.2823
  156TMC2    C8 2435   2.117   1.641  11.303  0.0874 -1.1174 -0.2241
  156TMC2    O1 2436   2.389   2.157  11.182  0.2321  0.8087  0.1443
  156TMC2    O2 2437   2.048   1.628  11.203  0.0200  0.4829  0.0826
  156TMC2    O5 2438   2.068   1.615  11.427 -0.5979  0.0499  0.0287
  156TMC2    H5 2439   2.120   1.648  11.503 -0.7116 -0.0028  0.1294
  157MPD2     C 2440   2.753   1.570  11.622  0.3048  0.0179 -0.8101
  157MPD2    C1 2441   2.680   1.691  11.634 -0.2425 -0.2773 -0.1654
  157MPD2    C2 2442   2.715   1.777  11.735 -0.2313 -0.5566 -1.5011
  157MPD2    C3 2443   2.824   1.746  11.815  0.7676 -0.0651 -0.3454
  157MPD2    C4 2444   2.900   1.630  11.801  0.1733 -0.5032  0.2558
  157MPD2    C5 2445   2.859   1.543  11.708 -0.3828 -0.4623 -0.9352
  157MPD2     H 2446   2.667   1.873  11.755  1.1286  0.4456 -3.0505
  157MPD2    H1 2447   2.987   1.605  11.861  1.0615 -0.8278 -1.1436
  157MPD2    H2 2448   2.739   1.493  11.547 -0.7718 -1.9302  1.3823
  157MPD2    H3 2449   2.911   1.448  11.702  0.2818 -0.1723  0.3912
  157MPD2     N 2450   2.862   1.852  11.907 -0.3936  0.2843  0.3810
  157MPD2    H5 2451   2.825   1.945  11.892  0.2982  0.6185  0.7490
  157MPD2    N1 2452   2.575   1.719  11.541  0.0633  0.1533  0.1949
  157MPD2    H7 2453   2.562   1.655  11.463 -2.1005  1.1326 -0.2269
  158TMC2    C1 2454   3.400   0.178  13.365 -0.2547  0.5641  0.4518
  158TMC2    C2 2455   3.499   0.217  13.278  0.9778  0.1578 -0.0307
  158TMC2    C3 2456   3.474   0.309  13.180  0.3334 -0.2417  0.8085
  158TMC2    C4 2457   3.273   0.245  13.364 -0.0153 -0.6436  0.2015
  158TMC2    C5 2458   3.255   0.339  13.261 -0.8003  0.0075  0.0924
  158TMC2    C6 2459   3.345   0.373  13.165  0.1425  0.0697  0.7095
  158TMC2     C 2460   3.439   0.091  13.470  0.5108  0.0337  0.0094
  158TMC2     O 2461   3.560   0.064  13.481  0.1941 -0.0037  0.3806
  158TMC2     H 2462   3.593   0.164  13.279  0.0725 -1.4333  1.0160
  158TMC2    H1 2463   3.205   0.233  13.447  2.0997  0.1824  2.0322
  158TMC2    H2 2464   3.331   0.437  13.078 -0.0960 -0.8395  0.0712
  158TMC2    C7 2465   3.124   0.405  13.248 -0.6920 -0.0099 -0.3053
  158TMC2    C8 2466   3.571   0.314  13.069  0.1370 -0.4588  0.6867
  158TMC2    O1 2467   3.123   0.494  13.170  0.9413  0.0674 -0.2301
  158TMC2    O2 2468   3.633   0.212  13.038  0.0828 -0.1062 -0.1681
  158TMC2    O5 2469   3.554   0.425  12.993  0.0648 -0.8289  0.6683
  158TMC2    H5 2470   3.523   0.495  13.054  3.3647  2.0835 -0.9857
  159MPD2     C 2471   3.326   4.561  13.898  0.4320  0.4343  0.0420
  159MPD2    C1 2472   3.217   4.632  13.861  0.5925  1.0419  0.2433
  159MPD2    C2 2473   3.226   4.689  13.734  0.3448  0.2572  0.5646
  159MPD2    C3 2474   3.344   4.710  13.667 -0.0724  0.0168  0.5743
  159MPD2    C4 2475   3.462   4.660  13.724  0.4171 -0.7920  0.1074
  159MPD2    C5 2476   3.450   4.574  13.832 -0.4890  0.8341 -0.0944
  159MPD2     H 2477   3.132   4.724  13.695  0.0014 -0.2172  0.9695
  159MPD2    H1 2478   3.560   4.671  13.679  0.6695 -2.4598  0.2324
  159MPD2    H2 2479   3.323   4.490  13.980 -0.3881 -0.5508 -0.8352
  159MPD2    H3 2480   3.537   4.521  13.869 -0.1611  0.5239 -1.3202
  159MPD2     N 2481   3.335   0.057  13.551 -0.6676  0.2027  0.1851
  159MPD2    H5 2482   3.242   0.097  13.535 -0.3663  0.7441 -0.2093
  159MPD2    N1 2483   3.101   4.632  13.943  0.2402  0.0859  0.2605
  159MPD2    H7 2484   3.110   4.578  14.029 -0.0941 -0.2538  0.0846
  160TMC2    C1 2485   1.888   3.525   1.832  0.3411 -0.2035  0.0137
  160TMC2    C2 2486   1.963   3.616   1.895  0.1290  0.5426 -0.5467
  160TMC2    C3 2487   2.086   3.643   1.855 -0.0335  0.1764  0.4985
  160TMC2    C4 2488   1.941   3.448   1.733  0.4057  0.2169 -0.6339
  160TMC2    C5 2489   2.065   3.479   1.695  0.4311  1.1863  0.0176
  160TMC2    C6 2490   2.141   3.582   1.744 -0.3676 -0.7071 -0.6884
  160TMC2     C 2491   1.751   3.542   1.841  0.8956 -0.0740 -0.3279
  160TMC2     O 2492   1.702   3.581   1.946  0.0792  0.6405 -0.3102
  160TMC2     H 2493   1.914   3.687   1.960 -1.4523 -1.2739  0.2395
  160TMC2    H1 2494   1.882   3.370   1.688 -0.3158  0.6829 -0.4870
  160TMC2    H2 2495   2.247   3.594   1.725  0.2057 -2.5818  1.3640
  160TMC2    C7 2496   2.124   3.395   1.594 -0.3427 -0.3324 -0.3122
  160TMC2    C8 2497   2.163   3.755   1.904  0.0999 -0.4884  0.1924
  160TMC2    O1 2498   2.069   3.289   1.577 -0.6066  0.3223  0.2460
  160TMC2    O2 2499   2.258   3.807   1.843 -0.1816  0.7123  0.0693
  160TMC2    O5 2500   2.169   3.713   2.031  0.0307 -0.3352  0.0258
  160TMC2    H5 2501   2.097   3.650   2.053  0.1779 -0.1656  0.9708
  161MPD2     C 2502   1.458   3.561   1.783 -0.2700 -0.1555  0.5368
  161MPD2    C1 2503   1.552   3.533   1.687  0.1489  0.7462 -0.5415
  161MPD2    C2 2504   1.517   3.527   1.554 -0.5140  0.3811  0.0697
  161MPD2    C3 2505   1.393   3.566   1.510  0.3021  0.8239  0.1868
  161MPD2    C4 2506   1.297   3.583   1.606  0.5465 -0.6409  0.4815
  161MPD2    C5 2507   1.332   3.582   1.739 -0.1297  0.0109 -0.4931
  161MPD2     H 2508   1.601   3.510   1.487 -0.7048 -1.1580  0.2122
  161MPD2    H1 2509   1.196   3.608   1.575  0.5654  0.5422  1.3583
  161MPD2    H2 2510   1.467   3.566   1.891  0.9799 -1.2245  0.4763
  161MPD2    H3 2511   1.252   3.600   1.810 -0.1488 -0.9304 -0.2756
  161MPD2     N 2512   1.369   3.602   1.375  0.0719 -0.1932  0.1008
  161MPD2    H5 2513   1.274   3.621   1.346  0.1312  2.8672  1.9087
  161MPD2    N1 2514   1.692   3.532   1.719  0.2091  0.2608 -0.2674
  161MPD2    H7 2515   1.753   3.514   1.640 -0.9875 -1.1473 -0.8615
  162TMC2    C1 2516   0.204   1.321   0.831  0.7645  0.5512  0.0347
  162TMC2    C2 2517   0.242   1.434   0.756  0.7030  0.3255  0.5477
  162TMC2    C3 2518   0.175   1.552   0.777 -0.5196  0.0321  0.4970
  162TMC2    C4 2519   0.091   1.324   0.911 -0.7715  0.9510 -0.1101
  162TMC2    C5 2520   0.023   1.448   0.926 -0.0043 -0.1486  0.1347
  162TMC2    C6 2521   0.069   1.566   0.864  0.3497  0.3607  0.5420
  162TMC2     C 2522   0.285   1.202   0.824 -0.2364 -0.2364 -0.0354
  162TMC2     O 2523   0.369   1.202   0.733 -0.5798  0.4738 -0.3544
  162TMC2     H 2524   0.332   1.431   0.695  1.0409  0.6158  1.0314
  162TMC2    H1 2525   0.047   1.236   0.957  1.9620 -1.5837 -2.3766
  162TMC2    H2 2526   0.025   1.658   0.900  1.0340  0.5645  0.8566
  162TMC2    C7 2527   4.641   1.464   1.010  0.0827 -0.3554 -0.1784
  162TMC2    C8 2528   0.233   1.678   0.734 -0.0810  0.6466 -0.9555
  162TMC2    O1 2529   4.564   1.553   0.983  0.0047 -0.1552  0.3814
  162TMC2    O2 2530   0.174   1.779   0.723 -0.1173  0.6095  0.2439
  162TMC2    O5 2531   0.362   1.672   0.708 -0.2698 -0.3049  0.1937
  162TMC2    H5 2532   0.404   1.599   0.757  0.9153 -0.4617 -1.0460
  163MPD2     C 2533   0.466   0.739   0.912  0.1750 -0.0745  0.7091
  163MPD2    C1 2534   0.442   0.799   0.793  0.3667 -0.1521  0.0179
  163MPD2    C2 2535   0.381   0.924   0.789  0.4498  0.1715  0.2196
  163MPD2    C3 2536   0.335   0.983   0.910  0.4423  0.1642  0.0956
  163MPD2    C4 2537   0.346   0.915   1.027 -0.0263 -0.4212 -0.6235
  163MPD2    C5 2538   0.410   0.792   1.029 -0.2077 -0.1668  0.3218
  163MPD2     H 2539   0.361   0.978   0.697  1.5193 -0.3894 -0.3335
  163MPD2    H1 2540   0.302   0.953   1.118  1.8068  1.6120 -0.5714
  163MPD2    H2 2541   0.516   0.643   0.916 -1.0736 -0.9204 -3.6838
  163MPD2    H3 2542   0.419   0.743   1.126 -0.5544  0.5163  0.6961
  163MPD2     N 2543   0.262   1.104   0.916 -0.2099 -0.2884  0.8250
  163MPD2    H5 2544   0.220   1.127   1.005  3.1435  0.9126  2.0885
  163MPD2    N1 2545   0.470   0.719   0.682 -0.7455 -0.2195  0.1346
  163MPD2    H7 2546   0.525   0.634   0.691  0.3170  0.2756 -1.8139
  164TMC2    C1 2547   1.511   0.075  11.593  0.1752 -0.0953  0.2872
  164TMC2    C2 2548   1.565   0.099  11.719  0.6223 -0.5050 -0.1806
  164TMC2    C3 2549   1.567   0.227  11.753  0.5885 -0.3357  0.2830
  164TMC2    C4 2550   1.456   0.169  11.514  0.7871  0.3685 -0.4052
  164TMC2    C5 2551   1.466   0.305  11.550  0.3192  0.5646 -0.1022
  164TMC2    C6 2552   1.517   0.333  11.677  0.3307 -0.3022  0.6610
  164TMC2     C 2553   1.520   4.672  11.541  0.0449  0.2726  0.6408
  164TMC2     O 2554   1.493   4.576  11.619 -0.8865  0.0578  0.1384
  164TMC2     H 2555   1.614   0.021  11.776 -0.8212 -1.1567  0.1524
  164TMC2    H1 2556   1.390   0.153  11.430 -0.5721  0.5396  0.6356
  164TMC2    H2 2557   1.519   0.433  11.718  1.3871 -0.1122  0.1473
  164TMC2    C7 2558   1.364   0.395  11.497  0.4560 -0.7616  0.2950
  164TMC2    C8 2559   1.680   0.261  11.835  0.4057  0.8353  0.2110
  164TMC2    O1 2560   1.264   0.345  11.448  0.1090  0.0318 -0.1548
  164TMC2    O2 2561   1.737   0.176  11.899  0.7340  0.4366 -0.3287
  164TMC2    O5 2562   1.740   0.360  11.771  0.8611 -0.0367 -0.1707
  164TMC2    H5 2563   1.702   0.427  11.710 -1.0398 -1.0846 -0.1312
  165TMC2    C1 2564   1.622   2.334   0.983  0.1204 -0.4579  0.4629
  165TMC2    C2 2565   1.620   2.244   0.874  0.0432 -0.1689 -0.3591
  165TMC2    C3 2566   1.748   2.197   0.841  0.5105 -0.3055  0.1158
  165TMC2    C4 2567   1.735   2.393   1.038 -0.2723 -0.8752 -0.1652
  165TMC2    C5 2568   1.859   2.337   1.000  0.3708  0.2449  0.3003
  165TMC2    C6 2569   1.861   2.237   0.903 -0.5602 -0.5363  0.1092
  165TMC2     C 2570   1.493   2.357   1.046  0.3086 -0.5260 -0.3415
  165TMC2     O 2571   1.488   2.456   1.115 -0.1601  0.2058 -0.2599
  165TMC2     H 2572   1.529   2.216   0.822 -1.8601 -0.3473  3.0683
  165TMC2    H1 2573   1.725   2.468   1.115 -0.0459 -2.8450  1.7826
  165TMC2    H2 2574   1.953   2.212   0.851 -0.3721  1.6258 -0.5867
  165TMC2    C7 2575   1.986   2.407   1.011  0.5568  0.6089  0.2142
  165TMC2    C8 2576   1.757   2.130   0.714  0.1247  0.2873 -0.4272
  165TMC2    O1 2577   2.088   2.343   0.986  0.1650  0.5432 -0.1482
  165TMC2    O2 2578   1.845   2.150   0.634 -0.1089 -0.4230  0.7410
  165TMC2    O5 2579   1.662   2.031   0.712  0.3766 -0.6885  0.2181
  165TMC2    H5 2580   1.606   2.032   0.793  1.1923 -0.6384  0.7782
  166MPD2     C 2581   1.050   2.213   1.250  0.3058 -0.3204 -0.5469
  166MPD2    C1 2582   1.121   2.325   1.262  1.1779 -0.3832 -0.0602
  166MPD2    C2 2583   1.233   2.349   1.180  0.0941 -0.1667  0.1759
  166MPD2    C3 2584   1.278   2.253   1.091 -0.1671  0.1975 -0.1380
  166MPD2    C4 2585   1.199   2.139   1.072  0.1070 -0.2765  0.6297
  166MPD2    C5 2586   1.092   2.119   1.159 -0.0743 -0.0342 -0.5908
  166MPD2     H 2587   1.279   2.447   1.178 -0.6970  0.2169  1.1143
  166MPD2    H1 2588   1.231   2.065   1.000  0.5048 -0.0382  0.5604
  166MPD2    H2 2589   0.961   2.197   1.311 -0.6698 -0.4045 -1.9974
  166MPD2    H3 2590   1.030   2.030   1.149 -1.6378  1.0712 -0.6299
  166MPD2     N 2591   1.398   2.265   1.016 -0.0378 -0.1542 -0.2659
  166MPD2    H5 2592   1.421   2.182   0.962  0.9123  0.7345 -1.2269
  166MPD2    N1 2593   1.080   2.423   1.361  0.2645 -0.6495  0.1128
  166MPD2    H7 2594   0.983   2.414   1.389  0.2153 -1.3483 -0.2975
  167TMC2    C1 2595   0.656   0.352  13.063  0.3645 -0.1316 -0.3663
  167TMC2    C2 2596   0.563   0.371  13.161  0.3161 -0.9283  0.4429
  167TMC2    C3 2597   0.490   0.268  13.194  0.8042 -0.3249 -0.1338
  167TMC2    C4 2598   0.698   0.227  13.029 -0.6846 -0.3641  1.0798
  167TMC2    C5 2599   0.631   0.121  13.083  0.1031 -0.1107 -0.2297
  167TMC2    C6 2600   0.529   0.139  13.168  0.2371  0.6801 -0.2655
  167TMC2     C 2601   0.709   0.469  12.995  0.0814  0.0282  1.0089
  167TMC2     O 2602   0.694   0.573  13.054  0.2480  0.0270 -0.1072
  167TMC2     H 2603   0.534   0.472  13.189 -0.5074 -1.6535  2.2042
  167TMC2    H1 2604   0.790   0.215  12.974 -0.4145  1.1476  1.2026
  167TMC2    H2 2605   0.492   0.054  13.225  2.3326  0.8026  1.2788
  167TMC2    C7 2606   0.686   4.717  13.078  0.7022 -0.1198  0.4139
  167TMC2    C8 2607   0.416   0.289  13.313  0.3922  0.0904  0.2793
  167TMC2    O1 2608   0.614   4.633  13.134  0.0669 -0.3772 -0.0490
  167TMC2    O2 2609   0.415   0.211  13.412 -0.8367 -0.1777 -0.2163
  167TMC2    O5 2610   0.311   0.356  13.268 -0.5657 -0.0858  0.1665
  167TMC2    H5 2611   0.327   0.386  13.176 -4.4629 -0.9670 -0.8151
  168MPD2     C 2612   0.866   0.663  12.830  0.2923 -0.2141  0.5346
  168MPD2    C1 2613   0.812   0.545  12.780 -0.0760 -0.5656 -0.6024
  168MPD2    C2 2614   0.825   0.517  12.643 -0.2311  0.7348  0.1201
  168MPD2    C3 2615   0.881   0.610  12.556 -0.4182  0.2240  0.7983
  168MPD2    C4 2616   0.930   0.724  12.617  0.4972  0.6301 -0.3198
  168MPD2    C5 2617   0.920   0.752  12.750  0.8769 -0.0838  0.1661
  168MPD2     H 2618   0.784   0.421  12.615  2.1909  0.0422 -1.0217
  168MPD2    H1 2619   0.985   0.795  12.557  1.7925 -0.6956 -0.7098
  168MPD2    H2 2620   0.864   0.677  12.938 -2.6163 -0.4253  0.5150
  168MPD2    H3 2621   0.973   0.841  12.782 -0.6831  0.2725  1.7164
  168MPD2     N 2622   0.905   0.586  12.421 -0.5341 -0.4131 -0.4860
  168MPD2    H5 2623   0.951   0.659  12.367 -1.6647  1.3841  0.9765
  168MPD2    N1 2624   0.758   0.445  12.867  0.3248 -0.1315 -0.5963
  168MPD2    H7 2625   0.753   0.350  12.832  0.9793 -0.6988  0.8389
  169MPD1     C 2626   3.953   0.293   8.954  0.5588  0.4233 -0.1791
  169MPD1    C1 2627   3.834   0.234   8.986 -0.0662 -0.1125 -0.4856
  169MPD1    C2 2628   3.832   0.105   9.043  0.7775  0.0322 -0.2815
  169MPD1    C3 2629   3.947   0.033   9.052  0.3415  0.1029  0.1064
  169MPD1    C4 2630   4.071   0.092   9.016  0.2689  0.4374 -0.0031
  169MPD1    C5 2631   4.069   0.219   8.975 -0.2265  1.2029  0.4414
  169MPD1     H 2632   3.738   0.073   9.085  0.4819  1.0188 -0.1861
  169MPD1    H1 2633   4.157   0.027   9.024 -0.2512 -0.2055  0.3129
  169MPD1    H2 2634   3.973   0.395   8.923 -0.4664  0.2722 -1.3339
  169MPD1    H3 2635   4.165   0.268   8.961 -0.3580  1.4145  0.2802
  169MPD1     N 2636   3.939   4.638   9.092  0.0501 -0.1951 -0.3503
  169MPD1    H5 2637   3.842   4.606   9.094 -0.1943  0.6932  2.9422
  169MPD1    N1 2638   3.719   0.315   8.997 -0.1424 -0.0941 -0.0337
  169MPD1    H6 2639   3.626   0.274   8.995 -0.0289 -0.3872  0.9275
  169MPD1    H7 2640   3.717   0.387   8.924 -0.4483  1.1137  1.1669
  170MPD1     C 2641   1.489   2.272  12.669  0.3468  0.0081 -0.3132
  170MPD1    C1 2642   1.503   2.399  12.704 -0.5107 -0.8227 -0.2386
  170MPD1    C2 2643   1.518   2.420  12.836 -0.0708 -0.1027 -0.3200
  170MPD1    C3 2644   1.531   2.318  12.931 -0.0701  0.5446  0.1838
  170MPD1    C4 2645   1.533   2.190  12.889  0.3737 -0.2488  0.3365
  170MPD1    C5 2646   1.513   2.168  12.757 -0.1169  0.3230  0.3924
  170MPD1     H 2647   1.521   2.522  12.874  0.8619 -0.2548  0.0094
  170MPD1    H1 2648   1.521   2.100  12.948  0.2082  0.9115  2.0797
  170MPD1    H2 2649   1.473   2.239  12.567  2.7269  1.5024 -1.1839
  170MPD1    H3 2650   1.501   2.067  12.719  2.8511  0.3808 -0.6896
  170MPD1     N 2651   1.541   2.343  13.063 -0.6691  0.2810 -0.0532
  170MPD1    H5 2652   1.504   2.430  13.099  1.2475  0.4420  1.5805
  170MPD1    N1 2653   1.471   2.504  12.615 -0.6572  0.1360 -0.0390
  170MPD1    H6 2654   1.458   2.596  12.657 -0.8434  0.2109 -0.2586
  170MPD1    H7 2655   1.473   2.495  12.514  0.6969  1.7958 -0.1503
  171MPD1     C 2656   4.716   3.396  15.471  0.1286  0.9084 -0.4262
  171MPD1    C1 2657   0.080   3.344  15.390  0.0772 -0.0067 -0.3212
  171MPD1    C2 2658   0.138   3.232  15.431  0.1766  0.4102 -0.2530
  171MPD1    C3 2659   0.123   3.185  15.559  0.5860  0.3216 -0.1411
  171MPD1    C4 2660   0.033   3.251  15.643 -0.8979 -0.9694 -0.2655
  171MPD1    C5 2661   4.688   3.348  15.588  0.7705 -0.0010 -0.4334
  171MPD1     H 2662   0.213   3.189  15.367 -0.8400 -1.2433 -0.3348
  171MPD1    H1 2663   0.009   3.220  15.744 -4.9961  1.4844 -0.5099
  171MPD1    H2 2664   4.660   3.486  15.449  1.3291  1.4682 -1.1361
  171MPD1    H3 2665   4.619   3.403  15.651 -0.3134 -1.0915 -0.6823
  171MPD1     N 2666   0.186   3.073  15.608  0.1044 -0.0657 -0.2338
  171MPD1    H5 2667   0.176   3.061  15.708 -2.6776 -0.4533 -0.5741
  171MPD1    N1 2668   0.084   3.381  15.253  0.2401 -0.3073 -0.3425
  171MPD1    H6 2669   0.062   3.481  15.251 -0.0485 -0.3301  1.6691
  171MPD1    H7 2670   0.181   3.365  15.224 -0.2191  0.3856 -2.2347
  172MPD1     C 2671   3.949   2.250  16.999  0.6357  0.1870 -0.2433
  172MPD1    C1 2672   3.838   2.306  17.052  0.6814 -0.5958  0.0130
  172MPD1    C2 2673   3.842   2.344  17.188  0.1537 -0.0830  0.0026
  172MPD1    C3 2674   3.951   2.320  17.262 -0.7264  0.6992 -0.4073
  172MPD1    C4 2675   4.058   2.268  17.202 -0.5180  0.0456 -0.1741
  172MPD1    C5 2676   4.058   2.229  17.071 -0.4893 -0.3704 -0.2374
  172MPD1     H 2677   3.756   2.391  17.232 -2.1919 -1.3420 -3.2748
  172MPD1    H1 2678   4.150   2.267  17.258 -0.2503 -0.6228 -0.6317
  172MPD1    H2 2679   3.941   2.235  16.892  0.5357  1.7206 -0.4591
  172MPD1    H3 2680   4.145   2.195  17.017 -0.8208  2.0697 -2.2948
  172MPD1     N 2681   3.970   2.349  17.402  0.0657  0.2444 -0.7991
  172MPD1    H5 2682   4.066   2.358  17.431  0.8135  1.3983 -3.6260
  172MPD1    N1 2683   3.724   2.330  16.970  0.4259  0.5120 -0.2927
  172MPD1    H6 2684   3.641   2.362  17.019 -0.9038  0.1821 -2.2872
  172MPD1    H7 2685   3.703   2.253  16.906 -1.1693  1.7816 -1.2950
  173MPD1     C 2686   1.177   3.211  13.926 -0.8822 -0.0497 -0.0881
  173MPD1    C1 2687   1.047   3.189  13.919  0.1822  0.1028  0.0994
  173MPD1    C2 2688   0.999   3.062  13.941  0.7774 -0.1391 -0.3406
  173MPD1    C3 2689   1.087   2.953  13.969 -0.4193 -0.0138  0.0477
  173MPD1    C4 2690   1.219   2.981  13.973  0.0595 -0.5072 -0.3710
  173MPD1    C5 2691   1.266   3.110  13.958  0.9104  0.0846 -0.6723
  173MPD1     H 2692   0.898   3.034  13.914  0.4030  2.0585 -1.2099
  173MPD1    H1 2693   1.296   2.905  13.987  1.0417  0.5860  0.1264
  173MPD1    H2 2694   1.219   3.308  13.900  0.9826 -1.2116 -1.4202
  173MPD1    H3 2695   1.368   3.136  13.983  0.4249  0.3013  1.0609
  173MPD1     N 2696   1.041   2.821  13.978 -0.5236  0.2451 -0.0733
  173MPD1    H5 2697   0.941   2.808  13.971 -0.1872 -0.7405 -2.9154
  173MPD1    N1 2698   0.966   3.288  13.865  0.5834  0.0795  0.4201
  173MPD1    H6 2699   0.871   3.257  13.883 -0.0034  1.1425 -0.7885
  173MPD1    H7 2700   0.991   3.380  13.902  0.3670 -0.6098  2.2819
  174MPD1     C 2701   1.611   2.116  14.342  0.0145  0.2320  0.3157
  174MPD1    C1 2702   1.497   2.135  14.409 -0.1233  0.5809  0.4314
  174MPD1    C2 2703   1.382   2.192  14.346  0.0018  0.6854  0.1544
  174MPD1    C3 2704   1.391   2.234  14.217  0.4214 -0.6702 -0.5591
  174MPD1    C4 2705   1.509   2.219  14.151 -0.0939 -0.0171  0.6525
  174MPD1    C5 2706   1.618   2.163  14.211 -0.1451 -0.7512  1.0617
  174MPD1     H 2707   1.290   2.210  14.401 -0.5804  1.8439 -1.1657
  174MPD1    H1 2708   1.517   2.247  14.047 -0.1235  0.4467  0.7777
  174MPD1    H2 2709   1.696   2.070  14.391  1.2646  3.6894  1.3772
  174MPD1    H3 2710   1.703   2.148  14.146  1.0736  0.4109  2.3738
  174MPD1     N 2711   1.280   2.291  14.148  0.6125  1.0782 -0.0850
  174MPD1    H5 2712   1.311   2.328  14.059  2.2763 -1.2621 -0.4744
  174MPD1    N1 2713   1.500   2.084  14.541  0.0439  0.4520 -0.0109
  174MPD1    H6 2714   1.418   2.108  14.596 -0.6268  0.1822 -0.9015
  174MPD1    H7 2715   1.584   2.111  14.592 -1.1570  2.1386  1.0641
  175MPD1     C 2716   3.482   3.497  15.279 -0.1631  0.4770 -0.2450
  175MPD1    C1 2717   3.539   3.369  15.300  0.5806  0.2339 -0.3067
  175MPD1    C2 2718   3.563   3.333  15.430 -0.3770  0.1750 -0.4352
  175MPD1    C3 2719   3.548   3.419  15.543  0.2024 -0.2483 -0.7278
  175MPD1    C4 2720   3.493   3.543  15.511 -0.2865  0.0051 -0.1893
  175MPD1    C5 2721   3.466   3.587  15.382  0.6612  0.5391 -0.2121
  175MPD1     H 2722   3.604   3.234  15.446 -2.7207 -0.6696  0.2848
  175MPD1    H1 2723   3.496   3.627  15.579 -0.3732 -1.9818  2.2351
  175MPD1    H2 2724   3.461   3.528  15.177  0.6151 -0.9589 -0.8472
  175MPD1    H3 2725   3.448   3.690  15.351 -1.2271  0.6288  1.2412
  175MPD1     N 2726   3.576   3.391  15.680  0.7476  0.4998 -0.1052
  175MPD1    H5 2727   3.563   3.471  15.740  0.4602 -0.4507  1.0935
  175MPD1    N1 2728   3.545   3.283  15.188 -0.2268 -0.4553  0.2262
  175MPD1    H6 2729   3.574   3.340  15.109 -0.3143 -0.8424 -0.0911
  175MPD1    H7 2730   3.619   3.213  15.189  2.1590  2.0742  1.3568
  176MPD1     C 2731   0.160   1.164   0.266 -0.3115  0.3163  0.6574
  176MPD1    C1 2732   0.235   1.191   0.380 -0.4635 -0.9133  0.1840
  176MPD1    C2 2733   0.341   1.279   0.364 -0.0097 -0.1758  0.5195
  176MPD1    C3 2734   0.403   1.294   0.246 -0.1807 -0.1368 -0.1211
  176MPD1    C4 2735   0.327   1.246   0.131  0.0911  0.2270  0.1504
  176MPD1    C5 2736   0.201   1.194   0.141 -0.1801 -0.2955 -0.3780
  176MPD1     H 2737   0.391   1.318   0.452  0.1977 -1.1329  0.8310
  176MPD1    H1 2738   0.345   1.255   0.025  0.9973  1.0051  0.3750
  176MPD1    H2 2739   0.066   1.109   0.270  1.2469 -2.4125 -0.1512
  176MPD1    H3 2740   0.147   1.165   0.052  1.5697 -1.3491 -1.1086
  176MPD1     N 2741   0.533   1.351   0.233  0.2666  0.2388  0.1387
  176MPD1    H5 2742   0.587   1.375   0.315  0.2610 -0.4777  0.3454
  176MPD1    N1 2743   0.167   1.168   0.502 -0.2748  0.0359 -0.7918
  176MPD1    H6 2744   0.109   1.085   0.507  0.9425 -0.6047  2.6400
  176MPD1    H7 2745   0.230   1.154   0.580 -0.5566 -0.3744 -0.6387
  177MPD1     C 2746   4.361   1.139  10.997 -0.7026  0.1572 -0.1372
  177MPD1    C1 2747   4.423   1.253  10.948  0.0828 -0.7303  0.1821
  177MPD1    C2 2748   4.440   1.261  10.810 -0.3595 -0.3860  0.3696
  177MPD1    C3 2749   4.384   1.169  10.729  0.2639 -0.0888  1.2018
  177MPD1    C4 2750   4.302   1.073  10.776  0.3462  0.2071 -1.1116
  177MPD1    C5 2751   4.299   1.049  10.914  0.0605 -1.2657  0.5142
  177MPD1     H 2752   4.504   1.336  10.764 -1.6853  1.3659  1.3901
  177MPD1    H1 2753   4.253   0.997  10.718 -2.6155  0.5358  0.9490
  177MPD1    H2 2754   4.357   1.113  11.103 -1.6012 -0.6603 -0.3772
  177MPD1    H3 2755   4.251   0.960  10.954 -1.5290  0.2333  1.9126
  177MPD1     N 2756   4.414   1.174  10.590  0.1211  0.2042  0.1906
  177MPD1    H5 2757   4.476   1.247  10.558  0.4683 -0.9341 -1.7150
  177MPD1    N1 2758   4.487   1.352  11.034  0.4888  0.2754  0.5677
  177MPD1    H6 2759   4.452   1.349  11.129  1.9498  1.3358  1.1338
  177MPD1    H7 2760   4.489   1.448  10.999 -1.4719 -0.8410 -2.6432
  178MPD1     C 2761   1.341   0.768   0.484 -0.0162 -0.2064  0.9743
  178MPD1    C1 2762   1.248   0.723   0.389  0.2741 -0.0557 -0.0059
  178MPD1    C2 2763   1.257   0.777   0.266 -0.2523 -0.7488  0.4971
  178MPD1    C3 2764   1.340   0.889   0.239 -0.2462 -0.4582 -0.5127
  178MPD1    C4 2765   1.413   0.939   0.337  0.1622  0.0686 -0.1051
  178MPD1    C5 2766   1.420   0.874   0.457  0.4818  0.2098 -0.5591
  178MPD1     H 2767   1.194   0.739   0.186 -0.0983  4.1056 -1.9490
  178MPD1    H1 2768   1.468   1.031   0.319  0.1565  0.1962  0.5283
  178MPD1    H2 2769   1.349   0.719   0.580  1.4937  0.2196  1.0676
  178MPD1    H3 2770   1.497   0.893   0.531 -2.2624  0.5661  2.1905
  178MPD1     N 2771   1.357   0.953   0.112  0.0576  0.2421 -0.3042
  178MPD1    H5 2772   1.421   1.031   0.104  0.8566 -0.6025 -2.1605
  178MPD1    N1 2773   1.180   0.601   0.413 -1.1111 -0.3350 -0.1657
  178MPD1    H6 2774   1.175   0.572   0.511 -0.1519  2.1202  0.6191
  178MPD1    H7 2775   1.090   0.591   0.367 -2.2035 -0.6462  2.0053
  179MPD1     C 2776   1.599   3.771  15.481 -0.4649 -0.5772  0.0786
  179MPD1    C1 2777   1.636   3.698  15.595 -0.2213 -0.8032 -0.1046
  179MPD1    C2 2778   1.552   3.714  15.700  0.1729 -0.3829  0.3376
  179MPD1    C3 2779   1.449   3.806  15.706  0.2048  0.2772 -0.3657
  179MPD1    C4 2780   1.423   3.883  15.595 -0.2394  0.5744 -0.0475
  179MPD1    C5 2781   1.504   3.869  15.490 -0.2970 -0.2405  0.1746
  179MPD1     H 2782   1.565   3.648  15.785 -1.1971  0.0495  0.8771
  179MPD1    H1 2783   1.337   3.949  15.593 -1.1836 -0.7061 -1.7829
  179MPD1    H2 2784   1.662   3.758  15.393  0.6006  0.6617  0.6624
  179MPD1    H3 2785   1.488   3.935  15.405  0.4680 -0.1085  0.1309
  179MPD1     N 2786   1.360   3.822  15.816 -0.7122  0.2922  0.7006
  179MPD1    H5 2787   1.297   3.900  15.804  1.1525  1.7244  0.3460
  179MPD1    N1 2788   1.734   3.605  15.598 -0.4326 -0.2490 -0.6795
  179MPD1    H6 2789   1.776   3.584  15.688 -2.2771  0.4077  0.3429
  179MPD1    H7 2790   1.807   3.630  15.531 -0.7908  0.7958 -0.6830
  180MPD1     C 2791   0.895   1.015  15.800  0.1673 -0.1211 -0.0373
  180MPD1    C1 2792   0.774   0.984  15.753  0.2627 -0.3158 -0.2389
  180MPD1    C2 2793   0.759   0.989  15.617  0.6236 -0.1996  0.3093
  180MPD1    C3 2794   0.863   0.990  15.531  0.4357 -1.2128 -0.0901
  180MPD1    C4 2795   0.993   1.007  15.579 -0.4042 -0.0030 -0.4528
  180MPD1    C5 2796   1.005   1.016  15.715  0.1084 -0.0854  1.2437
  180MPD1     H 2797   0.662   0.980  15.570  0.0412 -0.0782  1.4965
  180MPD1    H1 2798   1.078   1.024  15.513  1.0387  0.9204  1.6302
  180MPD1    H2 2799   0.936   1.022  15.901  1.1777 -0.0373 -0.4459
  180MPD1    H3 2800   1.099   1.051  15.757  0.3766  0.8342 -0.1194
  180MPD1     N 2801   0.831   0.997  15.394  0.1464 -0.3772  0.4074
  180MPD1    H5 2802   0.734   1.021  15.377  0.0938 -2.3410 -1.9798
  180MPD1    N1 2803   0.661   0.984  15.829  0.0966  0.3094  0.2242
  180MPD1    H6 2804   0.668   0.943  15.923 -4.0758  1.3112  0.9503
  180MPD1    H7 2805   0.581   0.936  15.788 -1.6200  2.5760  0.9226
  181MPD1     C 2806   2.854   2.923   9.669 -0.0867 -0.5216 -0.1567
  181MPD1    C1 2807   2.897   3.058   9.679 -0.6409 -0.1500  0.4299
  181MPD1    C2 2808   3.008   3.079   9.764 -0.3150 -0.2320 -0.3437
  181MPD1    C3 2809   3.073   2.980   9.834  0.1755 -1.0175  0.8627
  181MPD1    C4 2810   3.032   2.856   9.817  0.8456 -0.6709  0.6467
  181MPD1    C5 2811   2.917   2.828   9.741  0.4995  0.5639 -0.3338
  181MPD1     H 2812   3.040   3.183   9.767  0.8133 -0.5929  0.1309
  181MPD1    H1 2813   3.067   2.772   9.877  0.3597 -0.1667  1.6304
  181MPD1    H2 2814   2.770   2.884   9.613 -1.6971  1.8693  0.5939
  181MPD1    H3 2815   2.895   2.723   9.730  0.1922  0.4472  1.3452
  181MPD1     N 2816   3.175   3.014   9.930 -0.0834  0.1102 -0.1166
  181MPD1    H5 2817   3.227   2.938   9.972 -1.9548 -1.0523  0.0856
  181MPD1    N1 2818   2.850   3.156   9.592 -0.2392 -0.2575  0.4859
  181MPD1    H6 2819   2.820   3.237   9.647 -0.8588 -0.3286  0.2440
  181MPD1    H7 2820   2.767   3.121   9.546 -0.4108 -0.2962  0.8230
  182MPD1     C 2821   3.561   1.698   1.313 -0.0982 -0.4306 -0.5878
  182MPD1    C1 2822   3.454   1.783   1.307 -0.7424  0.6294 -0.2058
  182MPD1    C2 2823   3.421   1.826   1.182  0.5249 -0.0277  0.3426
  182MPD1    C3 2824   3.469   1.772   1.066 -0.1928 -0.6843  0.1043
  182MPD1    C4 2825   3.571   1.677   1.075  0.1500  0.1828 -0.1883
  182MPD1    C5 2826   3.624   1.654   1.201  0.5421 -0.4205 -0.2076
  182MPD1     H 2827   3.346   1.904   1.184 -1.7898 -2.2550  0.5870
  182MPD1    H1 2828   3.626   1.638   0.989 -0.4584 -1.6954  0.2778
  182MPD1    H2 2829   3.616   1.677   1.404  0.4121  0.0083 -0.7943
  182MPD1    H3 2830   3.706   1.585   1.218  0.8434 -0.1676 -0.6272
  182MPD1     N 2831   3.425   1.792   0.935  0.4711  0.0230  0.0835
  182MPD1    H5 2832   3.481   1.747   0.864  0.2529 -0.0233 -0.0603
  182MPD1    N1 2833   3.396   1.829   1.425  0.2039 -0.3376  0.3317
  182MPD1    H6 2834   3.419   1.773   1.506  0.5962 -0.7060 -0.0363
  182MPD1    H7 2835   3.295   1.841   1.422  0.0905 -1.3491  0.0600
  183MPD1     C 2836   0.078   2.941   8.780  0.0237  0.5694  0.6978
  183MPD1    C1 2837   0.103   3.069   8.821  0.3272 -0.8520 -0.1275
  183MPD1    C2 2838   0.053   3.118   8.941  0.0416  0.7103  0.2123
  183MPD1    C3 2839   4.698   3.040   9.013  0.3263  0.0810 -0.3083
  183MPD1    C4 2840   4.673   2.908   8.971  0.0543 -0.3701 -0.2217
  183MPD1    C5 2841   0.001   2.862   8.860  0.3738  0.3242 -0.5811
  183MPD1     H 2842   0.075   3.221   8.966 -0.3842  0.5608  1.2044
  183MPD1    H1 2843   4.604   2.842   9.022  0.7437 -0.6604  0.3354
  183MPD1    H2 2844   0.112   2.897   8.687 -0.4888  0.1584  0.7003
  183MPD1    H3 2845   4.711   2.760   8.832 -1.7461  0.8369 -0.5764
  183MPD1     N 2846   4.641   3.097   9.129 -0.8864 -0.6093  0.6536
  183MPD1    H5 2847   4.649   3.198   9.139 -1.2384 -0.4280 -0.9322
  183MPD1    N1 2848   0.212   3.131   8.760 -0.1804  1.3910  0.0196
  183MPD1    H6 2849   0.196   3.133   8.659  0.7270 -0.1666 -0.1657
  183MPD1    H7 2850   0.226   3.228   8.789  0.7339  1.0851  0.5893
  184MPD1     C 2851   3.636   0.571  10.268  0.0796  0.4955 -0.3200
  184MPD1    C1 2852   3.614   0.548  10.136  0.2722  0.7381 -0.7931
  184MPD1    C2 2853   3.710   0.592  10.045 -0.3847 -0.1270 -0.0943
  184MPD1    C3 2854   3.825   0.652  10.085 -0.9725  0.7496  0.7560
  184MPD1    C4 2855   3.848   0.675  10.218  0.3306 -0.4262 -0.3004
  184MPD1    C5 2856   3.753   0.634  10.307 -0.5022 -0.0423  1.1053
  184MPD1     H 2857   3.703   0.570   9.939  2.7634 -1.9830  0.0872
  184MPD1    H1 2858   3.941   0.714  10.258 -0.3635  1.9896 -1.0701
  184MPD1    H2 2859   3.575   0.534  10.349 -1.6730 -0.6372 -2.1643
  184MPD1    H3 2860   3.773   0.642  10.413 -0.0808 -0.6041  1.0674
  184MPD1     N 2861   3.926   0.707  10.000  0.0300 -0.1197 -0.7899
  184MPD1    H5 2862   4.008   0.749  10.044  0.4120 -1.5526 -0.1431
  184MPD1    N1 2863   3.483   0.516  10.094 -0.3418  0.2231 -0.1695
  184MPD1    H6 2864   3.438   0.455  10.162  2.0354 -1.6760 -0.2810
  184MPD1    H7 2865   3.471   0.491   9.996  0.8200 -0.1164 -0.2248
  185MPD1     C 2866   4.470   0.368   9.208  0.3246  0.4222 -0.1165
  185MPD1    C1 2867   4.362   0.316   9.281 -0.0321 -0.8010  0.2079
  185MPD1    C2 2868   4.297   0.391   9.377 -0.1303 -0.6255 -0.0550
  185MPD1    C3 2869   4.345   0.518   9.408  0.0082  0.9718  0.3754
  185MPD1    C4 2870   4.446   0.573   9.331 -0.0740  0.3654 -0.3541
  185MPD1    C5 2871   4.504   0.498   9.236 -0.0472 -0.0266  0.6661
  185MPD1     H 2872   4.211   0.350   9.429  0.4431 -0.9024  0.6858
  185MPD1    H1 2873   4.486   0.673   9.347  0.0068  0.5667 -1.8748
  185MPD1    H2 2874   4.507   0.312   9.123 -0.5764 -1.7255  0.9010
  185MPD1    H3 2875   4.588   0.543   9.184  0.3737 -0.8291  0.6500
  185MPD1     N 2876   4.272   0.595   9.501 -0.0125 -0.0914 -0.5812
  185MPD1    H5 2877   4.204   0.543   9.556 -1.7077  1.9214 -0.7822
  185MPD1    N1 2878   4.307   0.195   9.242 -0.1771 -0.7886  0.1156
  185MPD1    H6 2879   4.283   0.137   9.322  1.2027  0.8614  1.7224
  185MPD1    H7 2880   4.371   0.140   9.185  1.3582 -0.2877  1.3630
  186MPD1     C 2881   1.582   4.036  15.941  0.0584  0.6327 -0.2604
  186MPD1    C1 2882   1.604   4.042  16.076 -0.4697  0.3198 -0.0496
  186MPD1    C2 2883   1.517   4.106  16.158 -0.4687 -0.0170 -0.3233
  186MPD1    C3 2884   1.420   4.190  16.099  0.0528  0.0144  0.5642
  186MPD1    C4 2885   1.410   4.190  15.965  0.3658  0.3070  0.0112
  186MPD1    C5 2886   1.487   4.114  15.883  0.0443 -0.1855 -1.1492
  186MPD1     H 2887   1.521   4.095  16.266 -0.0396 -0.6360 -0.4063
  186MPD1    H1 2888   1.344   4.260  15.915  1.2037  0.6632 -0.5921
  186MPD1    H2 2889   1.651   3.981  15.876  1.3512  1.3962  0.4679
  186MPD1    H3 2890   1.479   4.132  15.776  0.0996  1.4308 -0.8777
  186MPD1     N 2891   1.348   4.282  16.165 -0.2553 -0.6139  0.4004
  186MPD1    H5 2892   1.305   4.352  16.105 -0.1178  0.3961  1.4700
  186MPD1    N1 2893   1.693   3.947  16.116  0.4877 -0.1866  0.3316
  186MPD1    H6 2894   1.761   3.917  16.047 -1.4948 -2.1828 -0.7601
  186MPD1    H7 2895   1.741   3.966  16.204  1.8214 -0.9111 -0.2208
  187MPD1     C 2896   0.888   2.392   0.330 -0.2066  0.3850 -0.5229
  187MPD1    C1 2897   0.973   2.286   0.326  1.2514  0.0115 -1.5065
  187MPD1    C2 2898   0.977   2.199   0.215  0.8702 -0.0402  0.3526
  187MPD1    C3 2899   0.901   2.225   0.104 -0.0384  0.4979  0.3943
  187MPD1    C4 2900   0.804   2.326   0.112  0.0762 -0.8442 -0.1701
  187MPD1    C5 2901   0.798   2.408   0.223  0.1783  0.1873 -0.0660
  187MPD1     H 2902   1.052   2.122   0.227  0.2977 -0.1686  3.0548
  187MPD1    H1 2903   0.723   2.339   0.040  0.3652  0.8520 -0.1767
  187MPD1    H2 2904   0.889   2.469   0.407 -2.1220  1.1330 -1.2400
  187MPD1    H3 2905   0.733   2.495   0.219 -1.1141 -0.7536  0.4719
  187MPD1     N 2906   0.909   2.151  17.721 -0.2293 -0.4431  0.2080
  187MPD1    H5 2907   0.846   2.183  17.648  1.3163 -0.4265 -1.1173
  187MPD1    N1 2908   1.057   2.264   0.435  0.2749 -0.0414 -0.4765
  187MPD1    H6 2909   1.151   2.235   0.409  0.1163 -0.1452 -0.9422
  187MPD1    H7 2910   1.059   2.342   0.500  0.3010 -0.1582 -0.3377
  188MPD1     C 2911   1.002   2.294  10.602  0.1449  0.0933  0.0679
  188MPD1    C1 2912   1.053   2.207  10.696  0.4215  0.4508 -0.5963
  188MPD1    C2 2913   1.035   2.069  10.669 -0.1482  1.0141  0.3637
  188MPD1    C3 2914   0.991   2.031  10.545 -0.6942  0.4133  0.0716
  188MPD1    C4 2915   0.966   2.125  10.448  0.1175 -0.5827  0.4182
  188MPD1    C5 2916   0.969   2.256  10.477 -0.1583  0.1107  0.0677
  188MPD1     H 2917   1.056   1.994  10.744 -1.2053 -0.7324 -1.0552
  188MPD1    H1 2918   0.915   2.102  10.356  0.2753  0.6374  0.0170
  188MPD1    H2 2919   0.986   2.397  10.631  2.1546 -0.1673  2.1686
  188MPD1    H3 2920   0.919   2.329  10.414 -1.9158 -1.1132  0.0421
  188MPD1     N 2921   0.969   1.898  10.506  0.1876 -0.4164  0.3038
  188MPD1    H5 2922   0.937   1.878  10.412  0.3360  0.8275 -0.0116
  188MPD1    N1 2923   1.077   2.249  10.828  0.2594 -0.1534 -0.1048
  188MPD1    H6 2924   1.156   2.210  10.878  0.8355  0.5602 -0.4734
  188MPD1    H7 2925   1.103   2.347  10.825  0.2016 -0.1185  0.4490
  189MPD1     C 2926   2.406   3.137   0.458 -0.0219 -0.0786 -0.4148
  189MPD1    C1 2927   2.315   3.229   0.493 -0.0410 -0.0442  0.3342
  189MPD1    C2 2928   2.180   3.185   0.500 -0.3088  0.2661 -0.5954
  189MPD1    C3 2929   2.149   3.055   0.462  0.8163 -0.1476 -0.0490
  189MPD1    C4 2930   2.240   2.967   0.413 -0.0435  0.7084  0.4040
  189MPD1    C5 2931   2.369   3.007   0.435  0.8432  0.0095 -0.5344
  189MPD1     H 2932   2.105   3.250   0.543  0.5439  0.9598 -0.1538
  189MPD1    H1 2933   2.221   2.863   0.391 -1.7866  0.3243  3.6949
  189MPD1    H2 2934   2.512   3.158   0.454  0.1546 -0.6689  1.0871
  189MPD1    H3 2935   2.449   2.935   0.420  2.0881  1.4108 -0.6825
  189MPD1     N 2936   2.011   3.030   0.462  0.0558  0.1409 -0.0842
  189MPD1    H5 2937   1.945   3.091   0.508 -0.1254 -0.4714  0.4662
  189MPD1    N1 2938   2.350   3.364   0.509  0.4086  0.9621  0.0273
  189MPD1    H6 2939   2.447   3.372   0.539  0.3491  1.0477  0.1987
  189MPD1    H7 2940   2.298   3.432   0.565 -1.6701 -1.1883  0.6874
  190MPD1     C 2941   0.851   0.684  14.807  0.8088 -0.5016 -0.2969
  190MPD1    C1 2942   0.967   0.737  14.827  0.5922  0.4068 -0.3705
  190MPD1    C2 2943   1.030   0.717  14.951  0.1808  0.3396 -0.5343
  190MPD1    C3 2944   0.961   0.680  15.063  0.0458  0.1175 -0.7879
  190MPD1    C4 2945   0.830   0.643  15.044  0.0543  0.7911  0.1404
  190MPD1    C5 2946   0.780   0.634  14.915  0.2625  0.1522  0.1398
  190MPD1     H 2947   1.131   0.752  14.964  0.8941 -1.8905 -0.0719
  190MPD1    H1 2948   0.762   0.610  15.122  2.4768  1.4873  2.5445
  190MPD1    H2 2949   0.821   0.660  14.706 -2.5381  0.6521  0.4471
  190MPD1    H3 2950   0.679   0.597  14.907  0.4812  0.0301 -2.3293
  190MPD1     N 2951   1.019   0.687  15.188 -0.6919 -0.0330 -0.2879
  190MPD1    H5 2952   1.111   0.730  15.187  0.3981 -2.2801  0.5937
  190MPD1    N1 2953   1.044   0.775  14.718  0.2202  0.0339 -0.2491
  190MPD1    H6 2954   0.987   0.813  14.642  0.2778  0.1602 -0.2293
  190MPD1    H7 2955   1.108   0.848  14.750  0.3980 -0.7351  1.1402
  191MPD1     C 2956   0.991   2.609  13.335 -0.2126 -0.5415  0.2158
  191MPD1    C1 2957   1.016   2.689  13.223  0.3005  0.3759 -0.4100
  191MPD1    C2 2958   0.911   2.727  13.138 -0.4981  0.0784  0.4684
  191MPD1    C3 2959   0.783   2.711  13.179 -0.3740 -0.3956 -0.0451
  191MPD1    C4 2960   0.755   2.638  13.297  0.0171 -1.2163 -0.9524
  191MPD1    C5 2961   0.860   2.589  13.366  0.1461 -0.3789  0.4522
  191MPD1     H 2962   0.926   2.771  13.040 -0.0435 -1.6088 -0.2173
  191MPD1    H1 2963   0.656   2.618  13.336 -0.3862 -0.5195 -1.6110
  191MPD1    H2 2964   1.073   2.569  13.393 -0.8513 -0.7225  0.9849
  191MPD1    H3 2965   0.845   2.548  13.465  0.9665 -0.1882  0.6571
  191MPD1     N 2966   0.678   2.773  13.100  0.0076  0.4999 -0.0720
  191MPD1    H5 2967   0.709   2.819  13.015 -1.6832 -0.7700 -1.3711
  191MPD1    N1 2968   1.139   2.707  13.169  0.5871 -0.2627  0.2950
  191MPD1    H6 2969   1.147   2.793  13.115 -0.8117 -0.8698 -0.8932
  191MPD1    H7 2970   1.199   2.729  13.249  0.6761 -2.4209  0.8068
  192MPD1     C 2971   4.347   2.896  12.889  0.3864  1.2624 -0.3678
  192MPD1    C1 2972   4.420   2.781  12.875  0.4704 -0.5113  0.1474
  192MPD1    C2 2973   4.557   2.780  12.869  0.1978  0.1388  0.0547
  192MPD1    C3 2974   4.621   2.902  12.881 -0.8754 -0.2139 -0.0583
  192MPD1    C4 2975   4.551   3.013  12.895  0.1623 -0.4826  0.0523
  192MPD1    C5 2976   4.418   3.015  12.895  0.5701 -0.3876 -0.2440
  192MPD1     H 2977   4.625   2.695  12.867  1.1710  0.8821  1.1312
  192MPD1    H1 2978   4.595   3.110  12.913 -0.3033  0.1011 -1.8871
  192MPD1    H2 2979   4.238   2.902  12.887  0.3575  0.8408  0.0601
  192MPD1    H3 2980   4.361   3.105  12.913  2.9423  2.1429 -5.4722
  192MPD1     N 2981   0.028   2.921  12.890 -0.0232  0.1186 -0.0282
  192MPD1    H5 2982   0.062   3.014  12.909 -1.9963  0.7502  0.4819
  192MPD1    N1 2983   4.355   2.658  12.873 -0.2044 -0.2047 -0.1390
  192MPD1    H6 2984   4.258   2.670  12.847  0.4010  0.7199 -1.9634
  192MPD1    H7 2985   4.400   2.584  12.820 -0.3914  0.4016 -1.1337
  193MPD1     C 2986   4.705   2.857  16.020  0.5214 -0.1707  0.1694
  193MPD1    C1 2987   4.671   2.985  16.054  0.6762  0.1527  0.0579
  193MPD1    C2 2988   4.706   3.023  16.182  0.4594  0.4271 -0.6817
  193MPD1    C3 2989   0.066   2.954  16.259 -0.2362  0.0156  0.6519
  193MPD1    C4 2990   0.097   2.827  16.220 -0.2768 -0.0854  1.0221
  193MPD1    C5 2991   0.047   2.780  16.101  0.0648 -0.0766 -0.8273
  193MPD1     H 2992   4.693   3.129  16.200  0.4733  0.6773 -2.1627
  193MPD1    H1 2993   0.169   2.764  16.271  1.8803  1.7804  0.2674
  193MPD1    H2 2994   4.659   2.815  15.931 -0.0149  0.6199  0.0748
  193MPD1    H3 2995   0.060   2.675  16.075 -1.1750 -0.3338 -0.3855
  193MPD1     N 2996   0.133   3.011  16.377  0.2110  0.1939 -0.5041
  193MPD1    H5 2997   0.208   2.958  16.422  0.0313 -0.0524 -0.4963
  193MPD1    N1 2998   4.576   3.056  15.973 -0.4105  0.4024 -0.0138
  193MPD1    H6 2999   4.587   3.156  15.988 -3.5777  1.1243 -2.5064
  193MPD1    H7 3000   4.573   3.029  15.875  0.2272  2.0261 -0.4849
  194MPD1     C 3001   4.062   0.653  16.998 -0.2138  0.3753  0.8982
  194MPD1    C1 3002   3.971   0.635  16.899  0.3861 -0.3295  0.3145
  194MPD1    C2 3003   3.850   0.577  16.930  0.1735  0.0335  0.0183
  194MPD1    C3 3004   3.816   0.552  17.062 -0.6152 -0.8335  0.2691
  194MPD1    C4 3005   3.896   0.604  17.158  0.1223  0.2722 -0.0225
  194MPD1    C5 3006   4.022   0.647  17.128 -0.2554  0.3078  0.5277
  194MPD1     H 3007   3.782   0.553  16.848  1.4416 -1.0260 -0.7278
  194MPD1    H1 3008   3.874   0.602  17.265 -1.3469  0.5635 -0.3274
  194MPD1    H2 3009   4.162   0.691  16.978 -0.5000 -0.2822 -1.6507
  194MPD1    H3 3010   4.076   0.674  17.217  2.3624  1.1764 -1.3395
  194MPD1     N 3011   3.697   0.490  17.102  0.1496  0.1230 -0.5509
  194MPD1    H5 3012   3.684   0.483  17.203  4.2935  0.9492  0.0775
  194MPD1    N1 3013   4.011   0.636  16.763 -0.4235 -0.6503  0.8881
  194MPD1    H6 3014   3.931   0.651  16.703 -0.8413 -2.3176  1.0275
  194MPD1    H7 3015   4.081   0.711  16.757 -0.6503 -0.6186 -1.1124
  195MPD1     C 3016   4.580   2.793   0.565  0.2960 -0.2192 -0.6349
  195MPD1    C1 3017   4.471   2.709   0.583 -0.9216  0.3453  0.3890
  195MPD1    C2 3018   4.491   2.575   0.590  0.1192  0.1479 -0.0174
  195MPD1    C3 3019   4.614   2.526   0.583 -0.1288 -0.3333 -0.3574
  195MPD1    C4 3020   4.725   2.609   0.570 -0.2870 -0.4282 -0.2877
  195MPD1    C5 3021   4.704   2.741   0.553 -0.4693 -0.3755  0.8187
  195MPD1     H 3022   4.406   2.509   0.596 -0.2056  0.6872  1.1847
  195MPD1    H1 3023   0.096   2.584   0.570 -0.8505 -2.7834  0.4368
  195MPD1    H2 3024   4.559   2.899   0.557 -3.3175 -0.9733 -1.0924
  195MPD1    H3 3025   0.049   2.814   0.548 -0.8905  0.0033 -0.3632
  195MPD1     N 3026   4.643   2.384   0.587  0.7096 -0.6200 -0.4539
  195MPD1    H5 3027   0.002   2.349   0.606 -1.0402 -4.0574  1.6874
  195MPD1    N1 3028   4.341   2.764   0.589  0.2359  0.0314 -0.9034
  195MPD1    H6 3029   4.288   2.739   0.672  2.3079  1.5153  0.8795
  195MPD1    H7 3030   4.353   2.864   0.605 -2.4393  0.7933 -3.6921
  196MPD1     C 3031   4.225   0.755   0.430  0.0454 -0.3601  0.0533
  196MPD1    C1 3032   4.277   0.828   0.537  0.0955 -0.6573 -0.1124
  196MPD1    C2 3033   4.229   0.960   0.555 -0.6738 -0.0327 -0.2892
  196MPD1    C3 3034   4.145   1.015   0.461  0.2230 -0.6274 -0.3091
  196MPD1    C4 3035   4.102   0.939   0.355  0.3158  0.2148  0.3847
  196MPD1    C5 3036   4.146   0.814   0.342  0.0386  0.2048  0.4819
  196MPD1     H 3037   4.246   1.014   0.647 -1.4956  0.1167 -0.2238
  196MPD1    H1 3038   4.026   0.971   0.284 -3.5075 -4.1087  2.4970
  196MPD1    H2 3039   4.249   0.651   0.413 -0.7611 -0.5377  0.0359
  196MPD1    H3 3040   4.112   0.756   0.257 -1.3117 -1.0857  1.8830
  196MPD1     N 3041   4.099   1.149   0.477  0.3247  0.3926  0.6385
  196MPD1    H5 3042   4.019   1.173   0.419  1.4895 -0.4020 -1.2758
  196MPD1    N1 3043   4.343   0.762   0.642  0.6513 -0.6103  0.2067
  196MPD1    H6 3044   4.391   0.677   0.616 -0.0867 -1.0338  0.2117
  196MPD1    H7 3045   4.395   0.831   0.697  0.9290 -0.3739 -0.3571
  197MPD1     C 3046   3.409   3.723  17.517  0.3440 -0.4280 -0.1396
  197MPD1    C1 3047   3.433   3.854  17.549  0.0798  0.0196 -0.4808
  197MPD1    C2 3048   3.451   3.939  17.444 -0.0810 -0.3091 -0.2500
  197MPD1    C3 3049   3.459   3.903  17.311 -0.0842  0.4585 -0.3272
  197MPD1    C4 3050   3.436   3.769  17.283 -0.4188 -0.5201  0.3367
  197MPD1    C5 3051   3.415   3.681  17.384 -0.4088  0.3959 -0.1038
  197MPD1     H 3052   3.448   4.045  17.468  0.8615 -0.7962  2.0540
  197MPD1    H1 3053   3.439   3.724  17.184  1.1881 -0.0533  0.1720
  197MPD1    H2 3054   3.396   3.648  17.594 -2.7233 -0.8636 -1.0793
  197MPD1    H3 3055   3.430   3.574  17.369  1.5417  0.7555 -0.7626
  197MPD1     N 3056   3.479   3.993  17.203 -0.2760 -0.6573 -0.1601
  197MPD1    H5 3057   3.474   3.953  17.110  1.2629  1.1963 -1.0406
  197MPD1    N1 3058   3.406   3.900  17.681 -0.1071 -0.4498 -0.4290
  197MPD1    H6 3059   3.429   3.837   0.023  0.5940 -1.4548 -1.4467
  197MPD1    H7 3060   3.453   3.988  17.700 -0.6856 -0.0791 -0.7436
  198MPD1     C 3061   1.160   1.772  14.900  0.4520  0.9234 -0.2511
  198MPD1    C1 3062   1.295   1.773  14.951 -0.2200 -0.3277 -0.8700
  198MPD1    C2 3063   1.321   1.777  15.088  0.7059  0.4658 -0.1290
  198MPD1    C3 3064   1.215   1.788  15.180  0.7030 -0.2392  0.5118
  198MPD1    C4 3065   1.086   1.779  15.135 -0.1884 -0.4550  0.5392
  198MPD1    C5 3066   1.060   1.773  15.000 -0.0067 -0.0412 -0.2082
  198MPD1     H 3067   1.421   1.769  15.131  1.8721 -1.5886 -3.2815
  198MPD1    H1 3068   0.997   1.789  15.196 -0.1646 -0.0183  0.5055
  198MPD1    H2 3069   1.130   1.764  14.796  2.1951 -1.0670 -0.6128
  198MPD1    H3 3070   0.957   1.771  14.967  0.5777  0.1112 -2.0793
  198MPD1     N 3071   1.254   1.789  15.313 -0.5203  0.5872  0.5246
  198MPD1    H5 3072   1.354   1.799  15.323 -0.2860  1.1055 -2.3333
  198MPD1    N1 3073   1.400   1.795  14.860  0.3728  0.3162  0.0178
  198MPD1    H6 3074   1.376   1.763  14.767 -1.1085 -0.9372  0.8381
  198MPD1    H7 3075   1.489   1.755  14.891 -0.5113  1.3683  3.9112
  199MPD1     C 3076   3.524   2.868   9.526  0.3110 -0.2290 -0.2104
  199MPD1    C1 3077   3.615   2.965   9.541 -0.1661  0.0554  0.2146
  199MPD1    C2 3078   3.568   3.084   9.597 -0.2367 -0.2817 -0.5722
  199MPD1    C3 3079   3.437   3.105   9.621  0.8738  0.9062  0.9992
  199MPD1    C4 3080   3.347   3.000   9.612  0.1091  0.4648  0.4176
  199MPD1    C5 3081   3.396   2.881   9.564 -0.5404  0.4001 -0.5919
  199MPD1     H 3082   3.629   3.174   9.596 -1.4275  0.5665  1.9409
  199MPD1    H1 3083   3.241   3.016   9.628  0.2375  0.8885  0.8417
  199MPD1    H2 3084   3.561   2.772   9.491  4.4197  0.3436  2.4535
  199MPD1    H3 3085   3.324   2.800   9.558  1.4708 -1.4017 -0.1581
  199MPD1     N 3086   3.380   3.227   9.662  0.5750 -0.8599 -0.6557
  199MPD1    H5 3087   3.279   3.233   9.662  0.5911 -0.6208 -0.1640
  199MPD1    N1 3088   3.739   2.963   9.470 -0.2342 -0.5786  0.8041
  199MPD1    H6 3089   3.776   2.870   9.486 -2.0226 -1.9081 -2.8742
  199MPD1    H7 3090   3.803   3.034   9.505 -1.2067 -0.1143  1.6573
  200MPD1     C 3091   1.551   3.100  14.927  0.0731 -1.1078 -0.2098
  200MPD1    C1 3092   1.616   3.037  14.820 -0.1093 -0.7680 -0.5043
  200MPD1    C2 3093   1.753   3.049  14.819  0.0537 -0.3092 -0.2742
  200MPD1    C3 3094   1.832   3.118  14.907  0.2274 -0.0355  0.2578
  200MPD1    C4 3095   1.768   3.172  15.017 -0.1700  0.4323  0.3387
  200MPD1    C5 3096   1.633   3.174  15.012 -0.1938 -0.4044  0.7061
  200MPD1     H 3097   1.812   3.008  14.737  0.4678  1.7223 -0.9799
  200MPD1    H1 3098   1.812   3.227  15.099  2.1138  0.1258 -0.6856
  200MPD1    H2 3099   1.443   3.105  14.933  0.1370  0.5763 -0.2963
  200MPD1    H3 3100   1.579   3.230  15.088  2.8506  2.3609  0.7959
  200MPD1     N 3101   1.969   3.136  14.890  0.1852  0.1994  0.0574
  200MPD1    H5 3102   2.007   3.097  14.804 -1.0944 -1.4323  0.2364
  200MPD1    N1 3103   1.538   2.987  14.714 -0.4188  0.4262 -0.5903
  200MPD1    H6 3104   1.582   2.915  14.657 -0.9479 -0.0758 -0.3611
  200MPD1    H7 3105   1.441   2.969  14.737 -0.3528  0.8145 -0.0132
  201MPD1     C 3106   4.150   2.566  13.385  0.2675 -0.1223 -1.3313
  201MPD1    C1 3107   4.172   2.454  13.457 -0.0558 -0.1860  0.6724
  201MPD1    C2 3108   4.281   2.370  13.423  0.0253  1.0922  0.1980
  201MPD1    C3 3109   4.368   2.396  13.322 -0.0853  0.1887  0.4225
  201MPD1    C4 3110   4.356   2.522  13.257 -0.8466 -0.9967  0.0677
  201MPD1    C5 3111   4.241   2.600  13.286  0.0181 -0.1607 -0.1546
  201MPD1     H 3112   4.293   2.274  13.474  1.5718  1.3163  0.2583
  201MPD1    H1 3113   4.409   2.556  13.169 -2.3437 -2.4780 -1.3890
  201MPD1    H2 3114   4.065   2.632  13.391 -0.6008 -1.1565 -2.2483
  201MPD1    H3 3115   4.228   2.686  13.222  0.0020  0.7778  1.1144
  201MPD1     N 3116   4.454   2.296  13.278  0.3493  0.1898 -0.2669
  201MPD1    H5 3117   4.471   2.220  13.344 -1.6299  0.3628  0.4296
  201MPD1    N1 3118   4.074   2.422  13.549 -0.8260 -0.3876  0.0221
  201MPD1    H6 3119   4.016   2.502  13.575 -1.2949 -0.2935 -1.3222
  201MPD1    H7 3120   4.128   2.390  13.629 -0.2843  0.5488  0.0264
  202MPD1     C 3121   0.322   1.834   9.229  0.0177 -0.8945 -0.3511
  202MPD1    C1 3122   0.259   1.958   9.221  0.9286 -0.1377 -0.4382
  202MPD1    C2 3123   0.296   2.050   9.316  0.0864  0.7659 -0.2581
  202MPD1    C3 3124   0.357   2.017   9.437 -1.1115 -0.2380  0.3642
  202MPD1    C4 3125   0.406   1.890   9.447 -0.0512 -0.3183 -0.0435
  202MPD1    C5 3126   0.389   1.798   9.342 -0.2065  0.9028  0.4968
  202MPD1     H 3127   0.271   2.154   9.298 -0.9821  0.1778 -2.1524
  202MPD1    H1 3128   0.467   1.865   9.533 -0.3505  0.6428  0.4495
  202MPD1    H2 3129   0.309   1.763   9.148 -0.5368 -1.4835  0.2514
  202MPD1    H3 3130   0.436   1.701   9.345  1.2565  1.5731 -0.5843
  202MPD1     N 3131   0.379   2.097   9.554  0.2827 -0.1613  0.4407
  202MPD1    H5 3132   0.446   2.065   9.623 -2.2210 -3.0350  1.5421
  202MPD1    N1 3133   0.223   2.008   9.097  0.4256  0.6662 -0.1609
  202MPD1    H6 3134   0.188   1.933   9.038  1.5985  1.0226 -1.2978
  202MPD1    H7 3135   0.153   2.080   9.114  0.4586  0.7515 -0.3888
  203MPD1     C 3136   2.390   2.564  12.472 -0.1946  0.0064 -0.0558
  203MPD1    C1 3137   2.480   2.621  12.393 -0.3470  0.6975 -0.6820
  203MPD1    C2 3138   2.611   2.613  12.421 -0.0338  0.2559  0.2560
  203MPD1    C3 3139   2.652   2.541  12.531  0.4164  0.0027 -0.2503
  203MPD1    C4 3140   2.558   2.482  12.615  0.7082  0.4480 -0.1872
  203MPD1    C5 3141   2.424   2.498  12.589  0.1999 -0.2509  0.3854
  203MPD1     H 3142   2.675   2.671  12.356 -0.8269  0.6484 -0.1807
  203MPD1    H1 3143   2.586   2.437  12.710  1.2360  2.1933  0.4809
  203MPD1    H2 3144   2.285   2.578  12.448 -0.2696  0.2674  0.4141
  203MPD1    H3 3145   2.347   2.472  12.662  0.1340  0.4617  0.5702
  203MPD1     N 3146   2.795   2.532  12.552 -0.4425  0.5197 -0.3519
  203MPD1    H5 3147   2.855   2.565  12.478 -0.1853 -2.6079 -1.5632
  203MPD1    N1 3148   2.447   2.706  12.285 -0.5735  0.5992 -0.1566
  203MPD1    H6 3149   2.519   2.697  12.214  1.1374  1.7260  1.4273
  203MPD1    H7 3150   2.358   2.685  12.241 -1.1412 -0.5463  1.5582
  204MPD1     C 3151   2.548   4.335  17.434 -0.2029  0.1406  0.3122
  204MPD1    C1 3152   2.586   4.343  17.305 -0.6060  0.0134 -0.3123
  204MPD1    C2 3153   2.582   4.229  17.227 -0.0348  1.1617 -0.8259
  204MPD1    C3 3154   2.569   4.107  17.289  0.8547  0.1354 -0.2979
  204MPD1    C4 3155   2.550   4.096  17.430 -0.0462 -0.8419 -0.5374
  204MPD1    C5 3156   2.539   4.210  17.499  0.2657 -0.1872 -0.2480
  204MPD1     H 3157   2.604   4.234  17.121  2.7627  0.1746 -0.3108
  204MPD1    H1 3158   2.550   3.996  17.473  0.1894 -0.7735 -0.3776
  204MPD1    H2 3159   2.543   4.424  17.496  0.3621 -1.7922  3.1564
  204MPD1    H3 3160   2.530   4.220  17.606  1.0770  1.5480 -0.3440
  204MPD1     N 3161   2.570   3.994  17.200  0.4374 -0.5613  0.1693
  204MPD1    H5 3162   2.592   4.019  17.104  0.9212  0.8332  0.6423
  204MPD1    N1 3163   2.583   4.475  17.246  0.2357 -0.0475 -0.7307
  204MPD1    H6 3164   2.619   4.554  17.300 -1.2599  1.2902 -1.6911
  204MPD1    H7 3165   2.639   4.477  17.160  0.9621 -0.2799 -0.2638
  205MPD1     C 3166   2.721   2.453  16.459 -0.2492 -0.0052  0.1820
  205MPD1    C1 3167   2.658   2.364  16.546  0.5042 -0.3355  0.3651
  205MPD1    C2 3168   2.645   2.402  16.680 -0.4164  0.6694 -0.2743
  205MPD1    C3 3169   2.699   2.524  16.723 -0.4371  0.1586  0.1195
  205MPD1    C4 3170   2.783   2.586  16.636  0.7038 -0.5818  0.6287
  205MPD1    C5 3171   2.792   2.554  16.506  0.1353  0.3055  0.7166
  205MPD1     H 3172   2.591   2.345  16.754 -0.3214 -1.2922 -1.7059
  205MPD1    H1 3173   2.852   2.665  16.665  0.0721  0.5490 -0.9686
  205MPD1    H2 3174   2.730   2.436  16.353  1.4166  1.3677  0.1072
  205MPD1    H3 3175   2.856   2.603  16.434 -0.6010 -0.5806 -0.5345
  205MPD1     N 3176   2.682   2.588  16.852  0.9105  0.2150  0.2120
  205MPD1    H5 3177   2.717   2.683  16.864  0.7369  0.3331 -0.1911
  205MPD1    N1 3178   2.583   2.259  16.506  0.0617  0.3235  0.1993
  205MPD1    H6 3179   2.580   2.194  16.584  1.3578 -0.3893 -0.3407
  205MPD1    H7 3180   2.620   2.210  16.425  2.3286 -0.2450  1.5635
  206MPD1     C 3181   3.288   0.524  16.832 -0.1126  0.3216 -0.4257
  206MPD1    C1 3182   3.161   0.478  16.864  0.4475 -0.0582  0.5113
  206MPD1    C2 3183   3.066   0.467  16.768  0.3447 -0.1007 -0.2108
  206MPD1    C3 3184   3.102   0.486  16.635  0.5553 -1.1369 -0.5975
  206MPD1    C4 3185   3.229   0.507  16.605  0.2006  0.2734  0.1249
  206MPD1    C5 3186   3.323   0.526  16.700 -0.3705  0.0412 -0.5051
  206MPD1     H 3187   2.968   0.436  16.804  1.8371 -2.2497  1.9991
  206MPD1    H1 3188   3.269   0.514  16.504  0.3931 -1.9496  0.0468
  206MPD1    H2 3189   3.370   0.550  16.898 -0.3663 -0.1654  0.0808
  206MPD1    H3 3190   3.424   0.557  16.676  0.5768 -3.0938 -0.5768
  206MPD1     N 3191   3.007   0.488  16.527 -0.2758 -0.2858  0.1363
  206MPD1    H5 3192   3.037   0.512  16.433 -1.8666 -2.4768 -0.9306
  206MPD1    N1 3193   3.120   0.483  16.995 -0.4083 -0.2394  0.0143
  206MPD1    H6 3194   3.037   0.426  17.007 -0.5466 -0.1367 -0.4350
  206MPD1    H7 3195   3.190   0.471  17.067 -1.0382 -1.9017  0.3422
  207MPD1     C 3196   0.176   3.275   9.797 -0.3847  0.7463  0.0281
  207MPD1    C1 3197   0.236   3.387   9.840 -0.4959 -0.3277 -1.0933
  207MPD1    C2 3198   0.296   3.388   9.963 -0.2191  0.3929  0.2890
  207MPD1    C3 3199   0.301   3.275  10.043 -0.1416  0.0255  0.3165
  207MPD1    C4 3200   0.237   3.163   9.996 -0.5861 -0.2117 -0.3855
  207MPD1    C5 3201   0.169   3.168   9.879  0.1211  0.2987 -0.0657
  207MPD1     H 3202   0.343   3.482   9.990  1.0910  0.0738 -0.8812
  207MPD1    H1 3203   0.236   3.068  10.048  0.1480  0.5735  1.0770
  207MPD1    H2 3204   0.137   3.265   9.696 -0.4633  0.3453  0.0995
  207MPD1    H3 3205   0.124   3.076   9.843  0.1475  0.1310  0.3311
  207MPD1     N 3206   0.376   3.268  10.162  0.3944  0.3127  0.0666
  207MPD1    H5 3207   0.385   3.179  10.210 -1.1670  0.3752  0.4825
  207MPD1    N1 3208   0.244   3.498   9.755  0.5051  0.4064 -0.0263
  207MPD1    H6 3209   0.165   3.507   9.691  1.5474  0.9783 -1.2274
  207MPD1    H7 3210   0.276   3.585   9.797 -3.4011  2.2793 -0.9035
  208MPD1     C 3211   3.718   1.985  17.423 -0.0205 -0.0161  0.8401
  208MPD1    C1 3212   3.735   1.856  17.458 -0.0086  0.2943  0.6544
  208MPD1    C2 3213   3.622   1.774  17.437 -0.1028 -0.0621  0.1066
  208MPD1    C3 3214   3.499   1.820  17.394  0.3854  0.4620  0.3511
  208MPD1    C4 3215   3.486   1.959  17.386  0.0320  0.7873 -0.3047
  208MPD1    C5 3216   3.593   2.042  17.387 -0.6021 -0.2127 -0.4900
  208MPD1     H 3217   3.627   1.668  17.460  0.0347  0.4632  2.4702
  208MPD1    H1 3218   3.395   2.004  17.350 -0.6566  0.6947  1.3342
  208MPD1    H2 3219   3.801   2.055  17.419 -0.0189 -0.0575  0.1336
  208MPD1    H3 3220   3.589   2.146  17.359  0.1004 -0.3588 -1.1415
  208MPD1     N 3221   3.392   1.731  17.403  0.0616 -0.0950 -0.1242
  208MPD1    H5 3222   3.410   1.643  17.449 -0.4755  0.2579  0.7695
  208MPD1    N1 3223   3.865   1.800  17.486 -0.3390  0.4572  0.1529
  208MPD1    H6 3224   3.857   1.725  17.555  0.1554  0.6304  0.3971
  208MPD1    H7 3225   3.928   1.869  17.526  2.0897 -1.2435 -0.7334
  209MPD1     C 3226   0.879   1.850  11.258  0.6733  0.4897  0.3616
  209MPD1    C1 3227   0.985   1.921  11.204  0.0153  0.5740 -0.3080
  209MPD1    C2 3228   0.955   2.054  11.176 -0.1184  0.1332  0.5260
  209MPD1    C3 3229   0.843   2.119  11.228 -0.4376  0.4261  0.3982
  209MPD1    C4 3230   0.743   2.049  11.285  0.3835 -0.2007 -0.2497
  209MPD1    C5 3231   0.764   1.916  11.305  0.7603 -0.5802 -0.7382
  209MPD1     H 3232   1.036   2.116  11.139  0.6180  0.3141  2.4527
  209MPD1    H1 3233   0.646   2.090  11.308  2.1213  3.7485  0.1145
  209MPD1    H2 3234   0.880   1.742  11.269 -3.4782  0.4856  0.9569
  209MPD1    H3 3235   0.683   1.855  11.341 -0.6634  1.5646 -0.2981
  209MPD1     N 3236   0.836   2.262  11.211  0.4021  0.2993  0.4522
  209MPD1    H5 3237   0.911   2.297  11.152  0.2245 -1.9725 -1.0979
  209MPD1    N1 3238   1.102   1.862  11.157  0.3801  0.1301  0.2318
  209MPD1    H6 3239   1.117   1.783  11.220  0.1119 -0.3023 -0.2421
  209MPD1    H7 3240   1.182   1.924  11.168  0.8534 -0.4380  0.0173
  210MPD1     C 3241   1.096   3.096  11.801 -0.2881  0.3868  0.2783
  210MPD1    C1 3242   0.969   3.037  11.807  0.9512 -0.0259  0.1429
  210MPD1    C2 3243   0.948   2.937  11.719  0.4535  0.1498 -0.1192
  210MPD1    C3 3244   1.038   2.900  11.616  0.5705  0.2102  0.2489
  210MPD1    C4 3245   1.162   2.955  11.617 -0.1364 -0.3906 -0.4396
  210MPD1    C5 3246   1.193   3.048  11.713  0.1990 -0.2856 -0.3008
  210MPD1     H 3247   0.851   2.887  11.720  1.0882 -1.1115 -1.6958
  210MPD1    H1 3248   1.231   2.939  11.536  0.0522  0.7831 -0.5157
  210MPD1    H2 3249   1.129   3.173  11.870  0.5907  1.4390 -1.3340
  210MPD1    H3 3250   1.292   3.093  11.720 -0.5280  1.1216  0.9412
  210MPD1     N 3251   1.001   2.817  11.505  0.5259  0.1174 -0.5372
  210MPD1    H5 3252   1.072   2.803  11.433  2.7115  1.9129  1.2676
  210MPD1    N1 3253   0.874   3.065  11.909 -0.8765  0.2816  0.2965
  210MPD1    H6 3254   0.775   3.059  11.884 -0.8781 -0.4101  0.4873
  210MPD1    H7 3255   0.893   3.156  11.951  0.3337 -0.2721  0.9384
  211MPD1     C 3256   3.094   1.426  17.021  0.1579 -0.7721  0.2479
  211MPD1    C1 3257   3.056   1.487  16.902 -0.0046  0.0697  0.6752
  211MPD1    C2 3258   2.967   1.598  16.911  0.0767 -0.3689 -0.2365
  211MPD1    C3 3259   2.889   1.624  17.023 -0.4996 -0.3895  0.6106
  211MPD1    C4 3260   2.917   1.543  17.135  0.0962 -0.5214  0.4542
  211MPD1    C5 3261   3.020   1.449  17.131  0.3777 -0.1677  0.7329
  211MPD1     H 3262   2.961   1.662  16.823  1.2397 -0.4691 -0.3839
  211MPD1    H1 3263   2.859   1.555  17.226  2.6497  0.8926  1.8930
  211MPD1    H2 3264   3.173   1.353  17.030  1.3473  0.5353  0.4942
  211MPD1    H3 3265   3.040   1.392  17.221  2.6072 -1.1735 -0.3631
  211MPD1     N 3266   2.790   1.722  17.019  0.2804  0.1562 -0.4978
  211MPD1    H5 3267   2.773   1.767  16.930 -0.8632 -0.9868 -0.8662
  211MPD1    N1 3268   3.127   1.473  16.791 -0.5793  0.0731 -0.1764
  211MPD1    H6 3269   3.073   1.507  16.711  2.2152  2.1719 -1.1677
  211MPD1    H7 3270   3.164   1.378  16.787 -1.0329  0.0150 -3.5446
  212MPD1     C 3271   2.327   0.670  17.330  0.5201  0.3231 -0.0405
  212MPD1    C1 3272   2.215   0.639  17.399 -0.1556 -0.0029 -0.5427
  212MPD1    C2 3273   2.110   0.569  17.348 -0.1543  0.5250 -0.2399
  212MPD1    C3 3274   2.122   0.533  17.210  0.5541 -0.3747 -0.6017
  212MPD1    C4 3275   2.227   0.568  17.138  0.5045 -0.3831  0.3739
  212MPD1    C5 3276   2.328   0.634  17.197  0.1653 -0.5989 -0.1368
  212MPD1     H 3277   2.031   0.535  17.414  1.7458 -1.2975  1.0954
  212MPD1    H1 3278   2.229   0.555  17.030 -0.2696  0.7200  0.2302
  212MPD1    H2 3279   2.417   0.720  17.366  0.6861 -0.8002  1.1414
  212MPD1    H3 3280   2.415   0.660  17.138 -1.2567 -0.5271 -2.2185
  212MPD1     N 3281   2.027   0.443  17.156  0.3296 -0.0055 -0.1433
  212MPD1    H5 3282   1.950   0.412  17.214 -0.6210  0.0357 -1.3665
  212MPD1    N1 3283   2.222   0.655  17.543 -0.0024 -0.5817 -0.3164
  212MPD1    H6 3284   2.129   0.684  17.572  1.0593  1.9893  0.4794
  212MPD1    H7 3285   2.287   0.730  17.567 -1.4817  0.6193 -0.1020
  213MPD1     C 3286   0.051   1.440  15.668  0.4702 -0.4261  0.0294
  213MPD1    C1 3287   4.680   1.378  15.613 -0.8578  0.5859 -0.6051
  213MPD1    C2 3288   4.691   1.343  15.481 -0.0199 -0.5418  0.1177
  213MPD1    C3 3289   0.064   1.389  15.400  0.2760 -0.1113 -0.3450
  213MPD1    C4 3290   0.176   1.444  15.460 -0.1507 -0.0422 -0.3668
  213MPD1    C5 3291   0.163   1.468  15.594  0.6661 -0.3508 -0.6740
  213MPD1     H 3292   4.618   1.276  15.437  1.9204 -1.9992 -0.8921
  213MPD1    H1 3293   0.270   1.477  15.415 -0.4100 -1.3349 -1.8627
  213MPD1    H2 3294   0.063   1.457  15.775  0.6900 -0.1368 -0.0417
  213MPD1    H3 3295   0.249   1.508  15.646 -0.4662  0.9698  0.2051
  213MPD1     N 3296   0.042   1.378  15.260 -0.5986  0.4452  0.2298
  213MPD1    H5 3297   4.684   1.353  15.226 -1.9447 -1.2295  5.1623
  213MPD1    N1 3298   4.594   1.304  15.695  0.4193  0.2046 -0.0374
  213MPD1    H6 3299   4.570   1.357  15.779 -1.0633 -0.1091 -0.2498
  213MPD1    H7 3300   4.508   1.271  15.652 -0.2004  0.9377  0.6380
  214MPD1     C 3301   4.394   0.876  14.473 -0.4746  0.2224 -0.5513
  214MPD1    C1 3302   4.372   0.876  14.610 -0.0994 -0.0888 -0.3007
  214MPD1    C2 3303   4.440   0.967  14.688  0.1630  1.0818  0.0527
  214MPD1    C3 3304   4.517   1.075  14.626 -0.0284  0.5287  0.1348
  214MPD1    C4 3305   4.526   1.070  14.489  0.1434 -0.7339  0.7190
  214MPD1    C5 3306   4.468   0.973  14.414 -0.7733  0.5849  0.1444
  214MPD1     H 3307   4.422   0.967  14.795 -0.2673 -1.6898 -0.0185
  214MPD1    H1 3308   4.585   1.149  14.444 -1.2201  0.3008  0.7377
  214MPD1    H2 3309   4.348   0.803  14.407  1.2099 -0.0205 -1.4624
  214MPD1    H3 3310   4.474   0.973  14.306 -1.2260 -1.5527  0.1254
  214MPD1     N 3311   4.575   1.183  14.697 -0.0394 -0.0488  0.2403
  214MPD1    H5 3312   4.635   1.241  14.639 -1.2515  1.3478  0.3827
  214MPD1    N1 3313   4.281   0.780  14.667 -0.3534 -0.2155  0.1969
  214MPD1    H6 3314   4.316   0.742  14.755  2.0775  2.1947  0.2830
  214MPD1    H7 3315   4.274   0.708  14.595 -1.0699  1.7383 -1.6674
  215MPD1     C 3316   0.327   2.446  10.395  0.4923  1.1581 -0.2374
  215MPD1    C1 3317   0.318   2.576  10.366  0.2748  0.1431 -0.6699
  215MPD1    C2 3318   0.341   2.661  10.474 -0.5123 -0.0529 -0.4949
  215MPD1    C3 3319   0.354   2.613  10.603 -0.7306  0.2849 -0.4292
  215MPD1    C4 3320   0.346   2.482  10.636  0.5516 -0.5092 -0.3298
  215MPD1    C5 3321   0.327   2.406  10.523 -0.1280 -0.2813  0.6856
  215MPD1     H 3322   0.344   2.769  10.460  0.8637 -0.0329 -0.0165
  215MPD1    H1 3323   0.356   2.429  10.730 -0.8473 -0.9029 -0.4036
  215MPD1    H2 3324   0.331   2.365  10.322  0.4894  1.1518 -0.2305
  215MPD1    H3 3325   0.316   2.299  10.541  0.0547 -0.4036  0.0498
  215MPD1     N 3326   0.396   2.709  10.701  0.0671  0.4791 -0.3763
  215MPD1    H5 3327   0.397   2.803  10.664 -1.5751  0.4450 -0.5272
  215MPD1    N1 3328   0.311   2.615  10.231 -0.1440  0.1905 -0.0065
  215MPD1    H6 3329   0.284   2.712  10.219  0.6368  0.4648  0.4080
  215MPD1    H7 3330   0.248   2.560  10.173  1.3211 -2.7725  1.1788
  216MPD1     C 3331   2.340   0.312  16.361 -0.7625 -0.5152 -0.4340
  216MPD1    C1 3332   2.348   0.339  16.495 -0.7106 -0.1694 -0.2657
  216MPD1    C2 3333   2.367   0.238  16.582 -0.1695  0.5182  0.2587
  216MPD1    C3 3334   2.380   0.108  16.542  0.0991  0.0284 -0.4265
  216MPD1    C4 3335   2.375   0.081  16.403  0.7938  0.0834  0.4267
  216MPD1    C5 3336   2.348   0.182  16.316  0.1372 -0.2446 -0.3068
  216MPD1     H 3337   2.369   0.259  16.688  0.8701  2.6074 -0.1636
  216MPD1    H1 3338   2.391   4.714  16.368  0.7414 -0.2214  1.2716
  216MPD1    H2 3339   2.312   0.385  16.287 -1.5813 -2.0204 -1.5905
  216MPD1    H3 3340   2.329   0.155  16.213  0.3620 -0.7900 -0.2050
  216MPD1     N 3341   2.398   0.013  16.640  0.0479 -0.1598 -0.4036
  216MPD1    H5 3342   2.413   0.048  16.734  0.4162  0.8460 -0.8339
  216MPD1    N1 3343   2.331   0.471  16.541  0.4771  0.2482 -0.2013
  216MPD1    H6 3344   2.393   0.493  16.619 -2.0771  2.5832  1.1428
  216MPD1    H7 3345   2.342   0.538  16.465  0.2306  0.2958 -0.1940
  217MPD1     C 3346   0.134   1.318   8.963 -1.2979  0.0856  0.0448
  217MPD1    C1 3347   0.005   1.365   8.929 -0.1476 -0.1424 -0.3301
  217MPD1    C2 3348   4.680   1.462   9.011  0.0784  0.0615  0.7024
  217MPD1    C3 3349   0.021   1.503   9.122  0.0458  0.1193 -0.1005
  217MPD1    C4 3350   0.138   1.439   9.157 -0.2698  0.0573  0.0157
  217MPD1    C5 3351   0.197   1.344   9.074 -0.0688 -0.0732 -0.6774
  217MPD1     H 3352   4.586   1.507   8.983  0.1515  0.3144  0.8632
  217MPD1    H1 3353   0.194   1.469   9.245 -1.4349 -0.5352  0.9554
  217MPD1    H2 3354   0.181   1.250   8.894 -1.2229 -1.8031  1.9556
  217MPD1    H3 3355   0.296   1.307   9.096 -0.4737 -0.5793  0.3456
  217MPD1     N 3356   4.720   1.618   9.200 -0.2881 -0.2377  0.0853
  217MPD1    H5 3357   0.044   1.642   9.280 -2.6781  1.6163  1.2545
  217MPD1    N1 3358   4.687   1.343   8.803 -0.3304 -0.5016 -0.3784
  217MPD1    H6 3359   4.586   1.344   8.803 -0.3200 -0.1122 -1.5866
  217MPD1    H7 3360   4.727   1.257   8.766  0.7703  0.1774 -0.7810
  218MPD1     C 3361   4.671   2.731  13.427 -0.3349 -0.3316 -0.4431
  218MPD1    C1 3362   4.633   2.761  13.295 -0.0470 -0.1262  0.5367
  218MPD1    C2 3363   4.693   2.681  13.204 -0.1861 -0.2158 -0.5461
  218MPD1    C3 3364   0.025   2.569  13.229  0.4856 -0.0590 -0.2186
  218MPD1    C4 3365   0.045   2.536  13.359  0.4275 -0.2649 -0.0987
  218MPD1    C5 3366   0.008   2.624  13.456 -0.1066 -0.3421 -0.3166
  218MPD1     H 3367   4.668   2.709  13.103 -0.6133  0.9558 -0.1143
  218MPD1    H1 3368   0.104   2.452  13.394  0.9569  1.9440  4.2625
  218MPD1    H2 3369   4.640   2.805  13.500 -0.1472  0.1847 -0.8811
  218MPD1    H3 3370   0.034   2.591  13.556 -0.4309 -1.6865 -0.6702
  218MPD1     N 3371   0.089   2.492  13.121  0.1449  0.2670 -0.1856
  218MPD1    H5 3372   0.077   2.540  13.032  3.0497  0.4203 -0.4840
  218MPD1    N1 3373   4.574   2.881  13.267  0.4673  0.2435  0.7927
  218MPD1    H6 3374   4.516   2.911  13.345  0.4377 -2.2573  1.7289
  218MPD1    H7 3375   4.513   2.863  13.188  1.5872  2.9917 -0.6993
  219MPD1     C 3376   0.326   2.878  12.379  0.0247 -0.4626 -0.0439
  219MPD1    C1 3377   0.442   2.867  12.453  0.4353 -0.4660 -0.0276
  219MPD1    C2 3378   0.441   2.784  12.561 -0.6335 -0.4371 -0.1103
  219MPD1    C3 3379   0.339   2.707  12.596  0.7238 -0.0330 -0.4417
  219MPD1    C4 3380   0.225   2.722  12.525  0.5058  0.2519 -0.1871
  219MPD1    C5 3381   0.211   2.818  12.420 -0.3229  0.0684  0.3327
  219MPD1     H 3382   0.534   2.775  12.616 -0.5304 -0.0107 -0.2143
  219MPD1    H1 3383   0.132   2.674  12.552  0.9746 -0.2866  0.4711
  219MPD1    H2 3384   0.323   2.941  12.290  0.2726  0.8408  0.8727
  219MPD1    H3 3385   0.120   2.820  12.362  0.0587 -1.0168 -0.3073
  219MPD1     N 3386   0.339   2.610  12.698 -0.0301 -0.0322 -0.3716
  219MPD1    H5 3387   0.248   2.577  12.727 -0.2721  0.2164 -0.8578
  219MPD1    N1 3388   0.546   2.956  12.443  0.0931 -0.0220 -0.1952
  219MPD1    H6 3389   0.549   3.001  12.352  1.5080  1.1630  0.4504
  219MPD1    H7 3390   0.636   2.934  12.485 -0.5992 -1.5135  0.5283
  220MPD1     C 3391   4.656   3.998   9.570  0.1782  0.1097  0.1283
  220MPD1    C1 3392   4.693   4.022   9.695 -0.0774 -0.3299  1.2802
  220MPD1    C2 3393   4.695   3.920   9.788 -0.1962  0.2481 -0.8306
  220MPD1    C3 3394   4.641   3.795   9.761  0.0839 -0.5772  0.9472
  220MPD1    C4 3395   4.578   3.785   9.637 -0.2951  0.4944  0.2831
  220MPD1    C5 3396   4.593   3.878   9.537 -0.2603 -0.1354  0.8603
  220MPD1     H 3397   0.006   3.938   9.885 -2.4808  1.5372 -0.0062
  220MPD1    H1 3398   4.540   3.689   9.603  1.1335 -0.9672  2.7775
  220MPD1    H2 3399   4.669   4.069   9.489 -2.9345 -1.3789 -1.6761
  220MPD1    H3 3400   4.555   3.855   9.438  3.4459 -1.8157 -0.1596
  220MPD1     N 3401   4.652   3.686   9.852 -0.2154  0.0228  0.6537
  220MPD1    H5 3402   4.695   3.714   9.940 -1.3825  0.2573  1.1416
  220MPD1    N1 3403   0.032   4.137   9.713  0.6315  0.4461 -0.9465
  220MPD1    H6 3404   0.006   4.223   9.665 -0.2625  2.5867  3.3467
  220MPD1    H7 3405   0.022   4.164   9.811 -2.2869 -4.1695  0.0441
  221MPD1     C 3406   3.789   1.117  17.447  0.2948  0.4063  0.7857
  221MPD1    C1 3407   3.833   1.228  17.390 -0.3981 -0.8314 -0.0877
  221MPD1    C2 3408   3.808   1.256  17.260 -0.9567 -0.5315  0.6050
  221MPD1    C3 3409   3.732   1.174  17.179  0.2124  0.3939  0.3134
  221MPD1    C4 3410   3.683   1.056  17.239 -0.0115  1.2291 -0.4076
  221MPD1    C5 3411   3.715   1.027  17.371 -0.3195  0.7172  0.2874
  221MPD1     H 3412   3.855   1.340  17.210  1.8120 -3.5444 -1.8725
  221MPD1    H1 3413   3.613   0.989  17.189 -0.3297  1.2934 -0.0551
  221MPD1    H2 3414   3.799   1.111  17.554 -0.5796 -1.1142  0.7759
  221MPD1    H3 3415   3.676   0.935  17.414 -0.5832  1.0372  0.7329
  221MPD1     N 3416   3.711   1.192  17.039  0.0844  0.5809  0.0685
  221MPD1    H5 3417   3.653   1.120  16.998  1.7855 -0.7623  0.0211
  221MPD1    N1 3418   3.907   1.320  17.475 -0.0310  0.0555 -0.0087
  221MPD1    H6 3419   3.871   1.321  17.571  0.4244  0.7895  0.1570
  221MPD1    H7 3420   3.896   1.414  17.438 -1.5707  0.6444  1.9042
  222MPD1     C 3421   1.996   0.728  16.675 -0.5411  0.1759  0.7039
  222MPD1    C1 3422   1.871   0.708  16.725 -0.3527 -0.2999 -0.6157
  222MPD1    C2 3423   1.851   0.743  16.859 -0.6006 -0.3832 -0.0082
  222MPD1    C3 3424   1.955   0.774  16.948  0.0969 -0.2656  0.1070
  222MPD1    C4 3425   2.075   0.814  16.885 -0.0768 -0.4897 -0.1279
  222MPD1    C5 3426   2.097   0.781  16.749 -0.0377 -0.1324  0.2420
  222MPD1     H 3427   1.751   0.739  16.899 -0.7174 -0.9778 -0.3611
  222MPD1    H1 3428   2.152   0.849  16.953  1.9629 -1.1462 -2.1164
  222MPD1    H2 3429   2.023   0.702  16.573 -1.0074  2.1018  0.1032
  222MPD1    H3 3430   2.190   0.795  16.695 -0.7411  1.2156 -0.6148
  222MPD1     N 3431   1.929   0.799  17.081  0.4509  0.5963 -0.8406
  222MPD1    H5 3432   2.006   0.850  17.123 -1.4378  2.9172 -0.1875
  222MPD1    N1 3433   1.767   0.654  16.647  0.0892 -0.3308 -0.3321
  222MPD1    H6 3434   1.780   0.657  16.546  0.4458 -0.7896 -0.3010
  222MPD1    H7 3435   1.676   0.687  16.677 -1.0627 -3.2742 -0.5411
  223MPD1     C 3436   1.286   0.341  17.720 -0.2464  0.5634  0.0955
  223MPD1    C1 3437   1.357   0.280  17.621  0.6119  0.5704  0.4308
  223MPD1    C2 3438   1.465   0.353  17.567  0.2011 -0.9455  0.0077
  223MPD1    C3 3439   1.487   0.484  17.608  0.1607  0.3576 -0.0757
  223MPD1    C4 3440   1.408   0.538  17.706 -0.2584  0.1213 -0.5998
  223MPD1    C5 3441   1.310   0.467   0.032 -0.1412  0.5379 -0.1415
  223MPD1     H 3442   1.524   0.315  17.484  2.2046 -0.4825  1.2176
  223MPD1    H1 3443   1.415   0.642   0.000 -1.0700 -0.8103  2.8849
  223MPD1    H2 3444   1.209   0.289   0.040  0.1555 -0.7074 -0.5251
  223MPD1    H3 3445   1.250   0.516   0.108 -0.6241 -1.5322  0.8027
  223MPD1     N 3446   1.583   0.555  17.540  0.6404  0.5414 -0.8242
  223MPD1    H5 3447   1.638   0.519  17.462  1.3168  2.3286 -1.1682
  223MPD1    N1 3448   1.305   0.163  17.561 -1.0737  0.1220  0.5077
  223MPD1    H6 3449   1.270   0.099  17.632 -0.8513  2.3823  2.6547
  223MPD1    H7 3450   1.381   0.110  17.520 -0.5639  0.9694  0.3544
  224MPD1     C 3451   4.335   2.663   8.789  0.6889 -0.2702 -0.2166
  224MPD1    C1 3452   4.431   2.606   8.863  0.1904  0.3554 -0.2911
  224MPD1    C2 3453   4.424   2.606   9.003  0.5296  0.0145 -0.1593
  224MPD1    C3 3454   4.324   2.681   9.066  0.0471  0.7735  0.5039
  224MPD1    C4 3455   4.235   2.752   8.984  0.2448 -0.1596  0.3549
  224MPD1    C5 3456   4.246   2.738   8.850 -0.6295  0.2074 -0.1835
  224MPD1     H 3457   4.497   2.551   9.061 -0.1109  0.0989  0.7439
  224MPD1    H1 3458   4.158   2.821   9.019  0.4717  0.3663 -0.1977
  224MPD1    H2 3459   4.327   2.663   8.681 -1.3968 -1.4492 -0.0471
  224MPD1    H3 3460   4.175   2.799   8.795 -0.3615  2.3634  1.8567
  224MPD1     N 3461   4.324   2.707   9.204  0.8459 -0.4264 -0.1177
  224MPD1    H5 3462   4.258   2.778   9.232 -1.3164 -2.6516  0.3977
  224MPD1    N1 3463   4.513   2.507   8.800 -0.1585 -0.7089  0.1507
  224MPD1    H6 3464   4.543   2.541   8.709 -1.4731 -1.1984 -0.4561
  224MPD1    H7 3465   4.593   2.503   8.862 -1.0629 -1.1383  1.2910
  225MPD1     C 3466   0.316   3.862  12.796  0.7794  0.2677 -0.7235
  225MPD1    C1 3467   0.303   3.744  12.726 -0.2164  0.3430  1.0108
  225MPD1    C2 3468   0.190   3.662  12.759 -0.0987  0.1698  0.4745
  225MPD1    C3 3469   0.106   3.697  12.853 -0.2997  0.0478  0.3369
  225MPD1    C4 3470   0.133   3.807  12.935 -0.2165 -0.2759 -0.1811
  225MPD1    C5 3471   0.237   3.889  12.908  0.0930 -0.0471 -1.1896
  225MPD1     H 3472   0.173   3.571  12.703  0.6801 -0.7404  1.7231
  225MPD1    H1 3473   0.059   3.839  13.007 -1.1469 -3.2355  0.1717
  225MPD1    H2 3474   0.399   3.929  12.774  0.8490 -0.3522 -2.3051
  225MPD1    H3 3475   0.248   3.987  12.953 -0.4584 -0.8576  0.6805
  225MPD1     N 3476   4.721   3.631  12.891 -0.5582  0.3352  0.5375
  225MPD1    H5 3477   4.682   3.668  12.977 -0.7583  1.3713  0.0085
  225MPD1    N1 3478   0.363   3.719  12.600 -0.1074 -0.5397 -0.1575
  225MPD1    H6 3479   0.375   3.622  12.573  0.2164 -0.0147 -1.9445
  225MPD1    H7 3480   0.448   3.772  12.580 -0.1116  0.1235  1.6228
  226MPD1     C 3481   3.005   3.484   9.417 -0.0573 -0.1371 -0.0268
  226MPD1    C1 3482   3.118   3.406   9.436  0.0001  0.8581 -0.3684
  226MPD1    C2 3483   3.241   3.461   9.402  0.6548  0.1458  0.0236
  226MPD1    C3 3484   3.256   3.586   9.335 -0.0044 -0.3170  0.0547
  226MPD1    C4 3485   3.138   3.661   9.320 -0.3858 -0.6285  0.7929
  226MPD1    C5 3486   3.020   3.606   9.356 -0.0794  0.2987 -0.7518
  226MPD1     H 3487   3.328   3.401   9.426  0.7135  0.0481 -0.4246
  226MPD1    H1 3488   3.143   3.760   9.276 -0.8261 -0.8071  0.3432
  226MPD1    H2 3489   2.906   3.450   9.446 -0.7782  1.5818 -0.4989
  226MPD1    H3 3490   2.932   3.666   9.337  0.5920  0.5033 -3.2555
  226MPD1     N 3491   3.380   3.640   9.300 -0.2329 -0.5689 -0.2900
  226MPD1    H5 3492   3.458   3.579   9.323 -0.7347 -1.2467 -0.3712
  226MPD1    N1 3493   3.100   3.282   9.505 -1.5325 -0.5553 -0.0583
  226MPD1    H6 3494   3.161   3.206   9.475 -1.4292 -0.6167  0.3062
  226MPD1    H7 3495   3.007   3.247   9.528 -1.1426 -2.4955 -1.4238
  227MPD1     C 3496   4.018   4.399   8.805  0.1639  0.5574  0.2151
  227MPD1    C1 3497   4.099   4.311   8.880  0.5070  0.6746  0.1309
  227MPD1    C2 3498   4.038   4.193   8.934  0.1702 -0.3626  0.2173
  227MPD1    C3 3499   3.901   4.175   8.921 -0.1043 -0.2106 -0.6544
  227MPD1    C4 3500   3.820   4.259   8.846 -0.0749  0.4501 -0.3647
  227MPD1    C5 3501   3.886   4.372   8.789 -0.6214 -0.5144 -0.4967
  227MPD1     H 3502   4.095   4.117   8.986 -2.6040 -1.6308  1.4202
  227MPD1    H1 3503   3.714   4.245   8.830 -0.1457  3.0300 -2.2533
  227MPD1    H2 3504   4.065   4.488   8.765  0.4710 -0.2156 -1.1366
  227MPD1    H3 3505   3.831   4.428   8.713 -0.5269 -1.6844 -1.4271
  227MPD1     N 3506   3.851   4.057   8.981  0.0055  0.7063  0.6583
  227MPD1    H5 3507   3.917   3.995   9.027 -1.4514 -0.9545  0.5237
  227MPD1    N1 3508   4.244   4.326   8.883  0.0386 -0.2204 -0.1026
  227MPD1    H6 3509   4.293   4.275   8.957  0.2352 -1.4224 -1.0691
  227MPD1    H7 3510   4.273   4.423   8.893  0.3768 -0.4027  0.7337
  228MPD1     C 3511   1.973   1.069  13.441 -0.1782  0.3830 -0.5065
  228MPD1    C1 3512   1.904   1.147  13.351  0.2661  0.0022  0.5285
  228MPD1    C2 3513   1.765   1.138  13.347 -0.2518 -0.5571 -0.2718
  228MPD1    C3 3514   1.690   1.043  13.415 -0.0034  0.5165  0.3093
  228MPD1    C4 3515   1.758   0.955  13.500  0.6795  0.4882 -0.3618
  228MPD1    C5 3516   1.895   0.978  13.513  0.7039  0.3551 -0.6783
  228MPD1     H 3517   1.705   1.204  13.286 -0.7250 -0.0485  0.7325
  228MPD1    H1 3518   1.716   0.868  13.549 -0.1642  1.3745  0.4845
  228MPD1    H2 3519   2.081   1.079  13.444  0.2073 -4.2523  0.8737
  228MPD1    H3 3520   1.952   0.900  13.561  0.4826  0.2549 -0.5780
  228MPD1     N 3521   1.549   1.040  13.401  0.3354 -0.4135 -0.2777
  228MPD1    H5 3522   1.500   1.104  13.339  0.2562 -0.5114 -0.3169
  228MPD1    N1 3523   1.968   1.242  13.276  0.3944 -0.4424  0.0683
  228MPD1    H6 3524   2.066   1.221  13.257  0.4086  1.5496 -2.0507
  228MPD1    H7 3525   1.923   1.254  13.186 -0.4104  1.2988  0.7095
  229MPD1     C 3526   0.928   4.434  14.359  0.2552  0.1211 -0.3098
  229MPD1    C1 3527   1.018   4.519  14.418 -0.2590  0.0479  0.0003
  229MPD1    C2 3528   1.092   4.472  14.524  0.1994  0.2435 -0.1315
  229MPD1    C3 3529   1.094   4.338  14.559  0.0604  0.1250  0.8339
  229MPD1    C4 3530   0.989   4.255  14.510  0.0187 -0.3304  0.1041
  229MPD1    C5 3531   0.911   4.302  14.407  0.1100 -0.2880  0.2785
  229MPD1     H 3532   1.147   4.544  14.583  0.3042  0.1701 -0.1401
  229MPD1    H1 3533   0.964   4.155  14.541 -0.6665 -1.3697 -3.8530
  229MPD1    H2 3534   0.870   4.471  14.275 -1.6510  1.0453  1.4181
  229MPD1    H3 3535   0.835   4.237  14.366  0.7055 -0.7503 -0.0994
  229MPD1     N 3536   1.175   4.281  14.655  0.6336 -0.2547 -0.7093
  229MPD1    H5 3537   1.151   4.183  14.667  1.0079 -0.0886  1.3414
  229MPD1    N1 3538   1.006   4.658  14.397 -0.1823 -0.3419 -0.1960
  229MPD1    H6 3539   0.945   4.680  14.319  0.4232 -1.7964 -1.0759
  229MPD1    H7 3540   1.092   4.713  14.395 -0.3814  0.0210  0.9987
  230MPD1     C 3541   1.211   4.253  15.640 -0.1252  0.3710  0.6673
  230MPD1    C1 3542   1.162   4.136  15.579 -0.0490 -0.4271 -0.1838
  230MPD1    C2 3543   1.206   4.116  15.447  0.2018 -0.5448  0.0112
  230MPD1    C3 3544   1.283   4.217  15.387  0.6806 -0.1584 -0.4387
  230MPD1    C4 3545   1.315   4.337  15.451  0.0648 -0.6120 -0.1835
  230MPD1    C5 3546   1.284   4.355  15.578 -0.4163 -0.1674  0.1929
  230MPD1     H 3547   1.176   4.025  15.396  1.8328 -0.4230 -1.1669
  230MPD1    H1 3548   1.367   4.423  15.411  0.1949 -1.2091 -1.3122
  230MPD1    H2 3549   1.185   4.268  15.745 -1.0094  0.2450  0.4624
  230MPD1    H3 3550   1.297   4.451  15.626 -0.1821  0.8708 -1.9829
  230MPD1     N 3551   1.342   4.178  15.260  0.2687  0.2937  0.4007
  230MPD1    H5 3552   1.318   4.084  15.230 -0.2427  0.6315 -0.2481
  230MPD1    N1 3553   1.102   4.033  15.657  0.1959  0.2446  0.1373
  230MPD1    H6 3554   1.034   3.989  15.595 -1.8270  1.8748  1.1784
  230MPD1    H7 3555   1.051   4.080  15.732 -0.3370 -1.2199  0.6974
  231MPD1     C 3556   4.640   1.663  15.353 -0.2991 -0.2971  0.2967
  231MPD1    C1 3557   4.559   1.656  15.246  0.2500 -0.2277  0.0606
  231MPD1    C2 3558   4.579   1.746  15.153 -0.0093  0.1259 -0.2771
  231MPD1    C3 3559   4.694   1.834  15.147  0.3332 -0.1251 -0.4297
  231MPD1    C4 3560   0.052   1.825  15.246  0.6712 -0.2446 -0.0489
  231MPD1    C5 3561   0.021   1.740  15.348  1.0377 -0.0639  0.7007
  231MPD1     H 3562   4.510   1.754  15.071 -1.1276 -1.7507  0.4688
  231MPD1    H1 3563   0.151   1.868  15.239  0.1822  0.7569 -0.9944
  231MPD1    H2 3564   4.637   1.602  15.442 -1.0668 -3.2286 -1.7682
  231MPD1    H3 3565   0.089   1.727  15.431 -0.1958 -0.2540  1.6687
  231MPD1     N 3566   4.709   1.910  15.027 -0.7483 -0.8465  0.5743
  231MPD1    H5 3567   4.641   1.893  14.954 -0.2465  1.2718 -0.3900
  231MPD1    N1 3568   4.441   1.592  15.258  0.3390 -0.3167  0.4713
  231MPD1    H6 3569   4.412   1.588  15.160 -1.6021  0.1718  1.0159
  231MPD1    H7 3570   4.450   1.495  15.287 -0.3653 -0.2057  1.0686
  232MPD1     C 3571   1.423   3.593   0.506  0.4814  0.4623 -0.3095
  232MPD1    C1 3572   1.334   3.498   0.545 -0.3666 -0.0791 -0.2451
  232MPD1    C2 3573   1.208   3.513   0.489 -1.0868  0.3638  0.3094
  232MPD1    C3 3574   1.174   3.614   0.399 -0.1667 -0.2296  0.0461
  232MPD1    C4 3575   1.272   3.712   0.363 -0.6519 -0.6918  0.0691
  232MPD1    C5 3576   1.393   3.700   0.423 -0.3438 -0.3078  0.6928
  232MPD1     H 3577   1.142   3.429   0.506 -1.7346  0.8814  0.3408
  232MPD1    H1 3578   1.247   3.794   0.295  0.0822 -0.7079 -0.2195
  232MPD1    H2 3579   1.528   3.587   0.534  1.3051 -0.1579 -3.5210
  232MPD1    H3 3580   1.472   3.770   0.396 -1.5381  0.4786 -0.8128
  232MPD1     N 3581   1.039   3.607   0.344 -0.3238 -0.5386  0.0198
  232MPD1    H5 3582   0.974   3.542   0.388 -0.0926 -0.3836  0.5850
  232MPD1    N1 3583   1.380   3.394   0.625  0.3857 -0.1384 -0.5406
  232MPD1    H6 3584   1.305   3.349   0.676 -0.8472  0.6133 -1.6599
  232MPD1    H7 3585   1.447   3.424   0.696 -0.2632  0.2779 -0.1052
  233MPD1     C 3586   2.122   2.834  17.644  0.0459  0.6782  0.4276
  233MPD1    C1 3587   2.226   2.894  17.715 -0.3891  0.2573 -0.4165
  233MPD1    C2 3588   2.279   2.819   0.088  0.2894 -0.3836  0.4045
  233MPD1    C3 3589   2.235   2.688   0.106  0.2086  0.2374  0.0771
  233MPD1    C4 3590   2.156   2.625   0.018  0.1612 -0.2933  0.0938
  233MPD1    C5 3591   2.092   2.703  17.654 -0.2411 -0.7950 -0.2227
  233MPD1     H 3592   2.365   2.857   0.140  1.2216 -0.4112 -1.1114
  233MPD1    H1 3593   2.127   2.522   0.030 -0.4519 -0.0312  0.8792
  233MPD1    H2 3594   2.059   2.891  17.576 -0.8105 -0.1857  0.4977
  233MPD1    H3 3595   2.015   2.652  17.597 -0.4516  0.2109 -0.8498
  233MPD1     N 3596   2.288   2.603   0.213 -0.3848  0.1179 -0.1423
  233MPD1    H5 3597   2.260   2.505   0.215  1.8022 -0.5455 -2.5874
  233MPD1    N1 3598   2.254   3.029  17.708  0.3683 -0.1607  0.5501
  233MPD1    H6 3599   2.352   3.037  17.734  0.5656  0.9988 -0.5355
  233MPD1    H7 3600   2.259   3.060  17.611 -1.3567 -1.5908 -0.0056
  234MPD1     C 3601   0.173   1.602  10.894  0.0012 -0.7677  0.3679
  234MPD1    C1 3602   0.122   1.555  10.773  0.4606  0.0996  0.1809
  234MPD1    C2 3603   0.129   1.636  10.666 -0.4484  0.2752  0.4122
  234MPD1    C3 3604   0.177   1.766  10.687 -0.3159 -0.2538  0.0074
  234MPD1    C4 3605   0.236   1.808  10.804  1.0800  0.0649 -0.4800
  234MPD1    C5 3606   0.237   1.716  10.914  0.8812 -0.1148 -0.3489
  234MPD1     H 3607   0.097   1.595  10.571 -2.6830 -1.3715  1.8842
  234MPD1    H1 3608   0.282   1.905  10.815  0.0552  0.5114 -0.1811
  234MPD1    H2 3609   0.157   1.542  10.983 -0.1879 -1.1072  0.1077
  234MPD1    H3 3610   0.271   1.741  11.014 -2.8006 -0.7039  1.0580
  234MPD1     N 3611   0.136   1.853  10.585 -0.0338 -0.3414 -0.2372
  234MPD1    H5 3612   0.088   1.813  10.505 -2.2760  1.0903  0.4179
  234MPD1    N1 3613   0.092   1.416  10.750  0.5454 -0.0704  0.1797
  234MPD1    H6 3614   0.050   1.371  10.831 -0.3895 -1.2321 -0.9650
  234MPD1    H7 3615   0.036   1.397  10.668  1.1635  0.8002 -0.4406
  235MPD1     C 3616   0.936   3.205  10.912  0.2885 -0.2738  0.1583
  235MPD1    C1 3617   0.974   3.336  10.914 -0.3005  0.1602  0.4100
  235MPD1    C2 3618   1.075   3.385  10.830 -0.7237 -0.1636  0.1269
  235MPD1    C3 3619   1.142   3.292  10.752 -0.3021  0.4698  0.5978
  235MPD1    C4 3620   1.104   3.159  10.755  0.3447 -0.3653  0.5268
  235MPD1    C5 3621   1.000   3.117  10.830  0.0535 -0.5132  0.0230
  235MPD1     H 3622   1.101   3.490  10.834 -0.9472 -0.1615  1.3587
  235MPD1    H1 3623   1.158   3.085  10.697  0.1000 -1.2024  1.3688
  235MPD1    H2 3624   0.865   3.168  10.985 -0.7326  2.1502  0.3984
  235MPD1    H3 3625   0.995   3.009  10.830  0.5851 -0.5372 -1.1034
  235MPD1     N 3626   1.260   3.331  10.680 -0.0787  0.0513  0.6724
  235MPD1    H5 3627   1.293   3.424  10.704  0.3399  0.3099 -0.9772
  235MPD1    N1 3628   0.883   3.414  10.983  0.7488  0.6329 -0.0579
  235MPD1    H6 3629   0.929   3.494  11.027  3.3094  0.6274 -2.7635
  235MPD1    H7 3630   0.826   3.359  11.047  0.5517  0.8191 -0.0743
  236MPD1     C 3631   0.251   4.363   9.843  0.9818 -0.6607  0.4024
  236MPD1    C1 3632   0.293   4.265   9.933  0.1532 -0.3344 -0.0364
  236MPD1    C2 3633   0.338   4.311  10.056 -0.4883 -0.3307 -0.9338
  236MPD1    C3 3634   0.335   4.446  10.087 -0.2426 -0.5937 -0.3491
  236MPD1    C4 3635   0.291   4.537   9.995  0.8338 -0.5435 -0.0460
  236MPD1    C5 3636   0.250   4.498   9.871  0.4406  0.5912 -0.2452
  236MPD1     H 3637   0.362   4.229  10.121 -1.8165  1.3249  1.6600
  236MPD1    H1 3638   0.288   4.644  10.015 -0.7106 -0.6284  0.1959
  236MPD1    H2 3639   0.232   4.325   9.743  2.1374 -0.7844  0.2290
  236MPD1    H3 3640   0.213   4.565   9.795 -0.3039  0.6034  0.1239
  236MPD1     N 3641   0.382   4.495  10.214  0.1088  0.0192  0.5298
  236MPD1    H5 3642   0.400   4.595  10.219  1.2537 -0.1675  0.0133
  236MPD1    N1 3643   0.314   4.135   9.886 -0.0521  0.5995  0.5911
  236MPD1    H6 3644   0.294   4.077   9.967  0.2304 -0.4518 -0.0963
  236MPD1    H7 3645   0.253   4.117   9.807 -1.1705 -0.1104  1.6242
  237MPD1     C 3646   0.587   2.845  14.978  0.0903  1.0217 -0.7096
  237MPD1    C1 3647   0.484   2.884  14.894 -0.0203 -0.1671  0.3325
  237MPD1    C2 3648   0.363   2.917  14.948  0.1955  0.3382 -0.0359
  237MPD1    C3 3649   0.339   2.899  15.085  0.6283  0.5398 -0.1703
  237MPD1    C4 3650   0.442   2.838  15.159  0.0979  0.5339  0.5767
  237MPD1    C5 3651   0.558   2.810  15.103  0.1921 -0.2097  0.3015
  237MPD1     H 3652   0.291   2.969  14.886 -2.0413  0.1729  2.4283
  237MPD1    H1 3653   0.421   2.807  15.261 -0.7346  1.8092  0.7966
  237MPD1    H2 3654   0.685   2.829  14.934  0.5891  0.8108  0.4855
  237MPD1    H3 3655   0.635   2.753  15.154  0.8832 -0.5898 -1.1660
  237MPD1     N 3656   0.219   2.923  15.150  0.0270  0.1499 -0.9153
  237MPD1    H5 3657   0.209   2.919  15.251  0.1894  0.4442 -0.8893
  237MPD1    N1 3658   0.505   2.897  14.758 -0.1258 -0.3379 -0.1198
  237MPD1    H6 3659   0.417   2.917  14.709 -0.2728  1.1370  0.7383
  237MPD1    H7 3660   0.548   2.820  14.707 -0.7815 -0.8797  0.1495
  238MPD1     C 3661   1.472   0.991  15.590 -0.7301 -0.3084  0.4664
  238MPD1    C1 3662   1.416   1.103  15.646  0.2554  0.1777 -0.1982
  238MPD1    C2 3663   1.330   1.176  15.572  0.3899 -0.1834 -0.3590
  238MPD1    C3 3664   1.324   1.165  15.434  0.6444 -0.1424 -0.2484
  238MPD1    C4 3665   1.396   1.068  15.379 -0.1564 -0.3596 -0.2336
  238MPD1    C5 3666   1.469   0.979  15.453 -0.2477  0.2404 -0.0198
  238MPD1     H 3667   1.259   1.234  15.630 -2.2333 -1.3195 -2.4123
  238MPD1    H1 3668   1.404   1.050  15.272  1.9910  2.1994 -0.4838
  238MPD1    H2 3669   1.530   0.921  15.649 -0.8124 -1.9318 -1.3698
  238MPD1    H3 3670   1.524   0.901  15.401 -2.8403 -2.2732  0.9791
  238MPD1     N 3671   1.240   1.250  15.349  0.6092  0.2112 -0.3153
  238MPD1    H5 3672   1.257   1.245  15.249 -1.6860  1.6005 -0.7877
  238MPD1    N1 3673   1.411   1.111  15.788 -0.0908 -0.2659 -0.6288
  238MPD1    H6 3674   1.500   1.090  15.833 -2.1332 -0.0942  3.5446
  238MPD1    H7 3675   1.373   1.200  15.821 -2.3570 -0.6794 -2.1064
  239MPD1     C 3676   1.726   2.022  14.786 -0.6535  1.0483  0.1613
  239MPD1    C1 3677   1.812   2.010  14.683 -0.1615 -0.6685  0.2522
  239MPD1    C2 3678   1.837   2.131  14.614 -0.0418 -0.9969  0.1755
  239MPD1    C3 3679   1.775   2.250  14.648  0.0141  0.5704 -0.0567
  239MPD1    C4 3680   1.684   2.256  14.748 -0.0292  0.3435  0.1452
  239MPD1    C5 3681   1.661   2.137  14.810  0.0704 -0.4164  0.1721
  239MPD1     H 3682   1.904   2.124  14.529  2.4812 -0.2971  2.0779
  239MPD1    H1 3683   1.628   2.341  14.786  2.1546  2.2278 -0.8662
  239MPD1    H2 3684   1.695   1.941  14.851  0.7884  0.9146  0.6777
  239MPD1    H3 3685   1.597   2.138  14.898  1.9730 -0.9757  1.5643
  239MPD1     N 3686   1.781   2.361  14.562  0.0205  0.1509 -0.0411
  239MPD1    H5 3687   1.711   2.434  14.577 -1.3360 -1.2694  0.5014
  239MPD1    N1 3688   1.878   1.889  14.658  0.0370 -0.3398 -0.2478
  239MPD1    H6 3689   1.815   1.813  14.681 -1.7909  0.9307 -0.9625
  239MPD1    H7 3690   1.908   1.879  14.561 -0.3724 -1.8318 -0.2183
  240MPD1     C 3691   1.416   1.985  13.890  0.8739  0.2013 -0.3838
  240MPD1    C1 3692   1.287   2.033  13.864  0.1100  0.0175  0.7803
  240MPD1    C2 3693   1.199   2.017  13.966 -0.4095 -0.2081  0.8068
  240MPD1    C3 3694   1.233   1.969  14.092  0.0584  0.1682 -0.7465
  240MPD1    C4 3695   1.364   1.930  14.114 -0.1960 -0.1079  0.3262
  240MPD1    C5 3696   1.454   1.928  14.015  0.2375 -0.5160 -0.4443
  240MPD1     H 3697   1.097   2.051  13.952 -0.0519  0.6010  0.1575
  240MPD1    H1 3698   1.393   1.887  14.210  2.9958  1.2533 -0.0439
  240MPD1    H2 3699   1.494   1.995  13.814  1.7788 -2.0116  0.2499
  240MPD1    H3 3700   1.557   1.905  14.038 -0.0150 -1.7276 -0.5052
  240MPD1     N 3701   1.130   1.966  14.196  0.0125  0.5441 -0.3951
  240MPD1    H5 3702   1.037   2.001  14.175 -0.2898  0.7417  1.3005
  240MPD1    N1 3703   1.245   2.060  13.735  0.0233  0.1905 -0.9314
  240MPD1    H6 3704   1.314   2.093  13.668  1.7911 -1.7227 -0.0577
  240MPD1    H7 3705   1.170   2.128  13.727 -2.2765 -2.2597 -0.3045
  241MPD1     C 3706   0.927   2.276  15.109 -0.5853  0.7754  0.5484
  241MPD1    C1 3707   0.887   2.149  15.113  0.3312 -0.0710  0.4667
  241MPD1    C2 3708   0.900   2.071  15.000  0.3473  0.6100  0.6853
  241MPD1    C3 3709   0.941   2.125  14.879  0.5998 -0.3790 -0.1369
  241MPD1    C4 3710   0.981   2.256  14.882  0.2373 -0.3655 -0.4747
  241MPD1    C5 3711   0.978   2.334  14.998 -0.5081 -0.0909 -0.5033
  241MPD1     H 3712   0.861   1.971  15.011 -1.9734  1.2266 -1.9861
  241MPD1    H1 3713   1.014   2.298  14.787 -0.0832 -1.0660 -0.9007
  241MPD1    H2 3714   0.916   2.339  15.196  2.5658  0.5250  1.1335
  241MPD1    H3 3715   1.016   2.435  15.011 -1.2416  0.0128  0.8988
  241MPD1     N 3716   0.947   2.063  14.754  0.2484 -0.6474 -0.5653
  241MPD1    H5 3717   0.981   2.104  14.668  0.9995  0.5046  0.2714
  241MPD1    N1 3718   0.855   2.088  15.239 -0.5416 -0.6259 -0.8516
  241MPD1    H6 3719   0.820   1.992  15.235  0.7062 -1.1381  0.6858
  241MPD1    H7 3720   0.825   2.152  15.312  0.9512 -2.8795  1.7423
  242MPD1     C 3721   0.485   0.721  15.913  0.2171 -0.4062 -0.4734
  242MPD1    C1 3722   0.475   0.752  15.779  0.5066  0.3094 -0.1827
  242MPD1    C2 3723   0.544   0.676  15.688  0.0861  0.6313 -0.3379
  242MPD1    C3 3724   0.607   0.554  15.735 -0.3298  0.1980 -0.4880
  242MPD1    C4 3725   0.603   0.518  15.868  0.2297  0.2511 -1.0133
  242MPD1    C5 3726   0.547   0.602  15.956  0.6456  0.6010  0.2849
  242MPD1     H 3727   0.548   0.705  15.584  0.0056  1.6438 -0.0595
  242MPD1    H1 3728   0.648   0.425  15.899 -0.2638  0.6166  0.7562
  242MPD1    H2 3729   0.436   0.778  15.991  1.7932 -3.9514  3.1184
  242MPD1    H3 3730   0.534   0.577  16.060  3.4077  0.1459  0.5053
  242MPD1     N 3731   0.678   0.468  15.643 -0.4249 -0.0305  0.4377
  242MPD1    H5 3732   0.731   0.389  15.680 -2.2481 -0.7652  1.4668
  242MPD1    N1 3733   0.420   0.871  15.738 -0.2518 -0.1331 -0.4005
  242MPD1    H6 3734   0.339   0.905  15.790  1.0301 -0.3358  1.7408
  242MPD1    H7 3735   0.405   0.868  15.638 -0.4558  3.2804 -0.4862
  243MPD1     C 3736   2.069   4.154  17.604 -0.0616 -0.7450  0.5569
  243MPD1    C1 3737   2.161   4.143  17.506 -0.9269  0.1508 -0.1533
  243MPD1    C2 3738   2.220   4.023  17.489 -0.6582  0.1861 -0.0264
  243MPD1    C3 3739   2.188   3.905  17.556 -0.1820 -0.5654  0.1928
  243MPD1    C4 3740   2.099   3.924  17.661  0.3326 -0.0347  0.0469
  243MPD1    C5 3741   2.039   4.047  17.679 -0.4687 -0.3186  0.5544
  243MPD1     H 3742   2.302   4.023  17.418 -0.1216 -0.7955  0.5972
  243MPD1    H1 3743   2.073   3.832  17.713  2.0131 -1.2090 -1.2082
  243MPD1    H2 3744   2.019   4.249  17.619 -0.8228 -0.6598 -2.3849
  243MPD1    H3 3745   1.955   4.056   0.012 -0.2173 -0.8631  0.9307
  243MPD1     N 3746   2.242   3.779  17.517  0.6674  0.9721  0.0084
  243MPD1    H5 3747   2.312   3.774  17.444  3.0041 -0.0203  2.3286
  243MPD1    N1 3748   2.206   4.254  17.437 -0.0017 -0.2411  0.1632
  243MPD1    H6 3749   2.136   4.327  17.426  1.8069  1.4441 -0.1898
  243MPD1    H7 3750   2.256   4.235  17.350 -0.6513  1.6754 -0.6284
  244MPD1     C 3751   2.615   2.780   0.006  0.1974  0.0316 -0.0835
  244MPD1    C1 3752   2.535   2.789  17.624  0.3353 -0.2570 -0.4252
  244MPD1    C2 3753   2.504   2.908  17.572  0.0040  0.6941 -1.5761
  244MPD1    C3 3754   2.551   3.019  17.628  0.1706 -0.1878  0.7885
  244MPD1    C4 3755   2.620   3.018   0.018 -0.4073 -0.0899 -0.2408
  244MPD1    C5 3756   2.648   2.892   0.067 -0.3941  1.0490 -0.1752
  244MPD1     H 3757   2.442   2.913  17.483 -0.4373  0.4531 -1.2872
  244MPD1    H1 3758   2.662   3.103   0.072  0.2104 -1.5468  1.5574
  244MPD1    H2 3759   2.641   2.691   0.061 -0.1012  0.7363  1.2025
  244MPD1    H3 3760   2.693   2.889   0.165  1.6958 -1.9506 -1.2201
  244MPD1     N 3761   2.502   3.139  17.574 -0.5639 -0.0809 -0.1122
  244MPD1    H5 3762   2.441   3.125  17.494 -0.9710  0.9424  0.0138
  244MPD1    N1 3763   2.495   2.668  17.552 -0.2510 -0.1268  0.7054
  244MPD1    H6 3764   2.416   2.681  17.488 -0.3248  2.8725  1.3992
  244MPD1    H7 3765   2.469   2.596  17.619  0.6366  0.4759  1.6841
  245MPD1     C 3766   4.323   4.194  13.073 -0.5853  0.1069 -0.4242
  245MPD1    C1 3767   4.387   4.219  13.192  0.6694 -0.0954  0.2646
  245MPD1    C2 3768   4.473   4.328  13.207 -0.2782  0.1718 -0.4240
  245MPD1    C3 3769   4.525   4.390  13.093  0.1600 -0.6100 -0.3034
  245MPD1    C4 3770   4.474   4.352  12.967  0.3806 -0.2126  0.6620
  245MPD1    C5 3771   4.376   4.254  12.961 -0.3291  0.2145  0.6166
  245MPD1     H 3772   4.483   4.348  13.313  0.1588 -4.4299  0.3879
  245MPD1    H1 3773   4.511   4.389  12.872  1.2641  0.5357  1.2972
  245MPD1    H2 3774   4.248   4.117  13.064 -0.8675  0.2960  0.3385
  245MPD1    H3 3775   4.342   4.221  12.863  0.2899  1.0749  0.1116
  245MPD1     N 3776   4.609   4.506  13.109 -0.0183  0.1009 -0.4768
  245MPD1    H5 3777   4.638   4.524  13.205 -2.5159 -1.0221  0.5022
  245MPD1    N1 3778   4.340   4.143  13.301 -0.2928  0.0819 -0.3206
  245MPD1    H6 3779   4.306   4.050  13.278 -0.9679 -0.3572  2.4278
  245MPD1    H7 3780   4.401   4.147  13.382  0.7836 -1.3937 -1.0667
  246MPD1     C 3781   4.020   4.572   9.534 -0.8303  0.3044 -0.1234
  246MPD1    C1 3782   4.138   4.639   9.540 -0.1236 -0.3035  0.6884
  246MPD1    C2 3783   4.180   4.682   9.669 -0.2869 -0.3917  0.0893
  246MPD1    C3 3784   4.105   4.646   9.781  0.3842 -0.4413 -0.3981
  246MPD1    C4 3785   3.988   4.580   9.769 -0.1221  0.2697 -0.5056
  246MPD1    C5 3786   3.944   4.559   9.647  0.1356 -0.4524 -0.4834
  246MPD1     H 3787   4.263   0.018   9.674  0.0966 -0.7848 -0.7761
  246MPD1    H1 3788   3.922   4.565   9.854  2.0622 -0.8596  0.9961
  246MPD1    H2 3789   3.975   4.549   9.437  0.7350 -0.5616 -0.6377
  246MPD1    H3 3790   3.852   4.507   9.623 -0.8521 -0.1995  2.7592
  246MPD1     N 3791   4.152   4.690   9.905 -0.1051  0.3719 -0.1731
  246MPD1    H5 3792   4.240   0.006   9.901 -0.5726  0.9451 -3.6999
  246MPD1    N1 3793   4.194   4.690   9.428  0.5401  0.2991 -0.3148
  246MPD1    H6 3794   4.294   4.694   9.448  0.6685  1.1889 -1.1278
  246MPD1    H7 3795   4.173   4.638   9.343 -0.2648 -0.1247  0.1460
  247MPD1     C 3796   2.556   0.782  15.160 -0.1367  0.2579 -0.1502
  247MPD1    C1 3797   2.688   0.814  15.151  0.4972  0.3355  0.4683
  247MPD1    C2 3798   2.765   0.802  15.264 -0.5826 -0.5492  0.7781
  247MPD1    C3 3799   2.716   0.771  15.388  0.1377 -0.1104  0.0809
  247MPD1    C4 3800   2.584   0.754  15.392  0.6292 -0.8041  0.6176
  247MPD1    C5 3801   2.500   0.760  15.282 -0.0919  0.3760 -0.1141
  247MPD1     H 3802   2.871   0.823  15.253 -0.3324 -3.3498 -2.6072
  247MPD1    H1 3803   2.535   0.738  15.487 -0.2586 -0.0646  0.2847
  247MPD1    H2 3804   2.479   0.788  15.084 -0.0269  1.2259 -0.1830
  247MPD1    H3 3805   2.392   0.748  15.287 -0.3499  3.2995  0.9244
  247MPD1     N 3806   2.789   0.763  15.503  0.4835 -0.2003 -0.0628
  247MPD1    H5 3807   2.739   0.760  15.591 -0.1950 -1.0093 -0.4767
  247MPD1    N1 3808   2.754   0.851  15.026 -0.2987  0.2456 -0.5673
  247MPD1    H6 3809   2.839   0.907  15.027 -0.7042  0.9200 -2.5851
  247MPD1    H7 3810   2.689   0.884  14.955 -1.0119 -1.8722 -0.8873
  248MPD1     C 3811   4.653   4.152  17.242  0.0957 -0.3671 -0.3120
  248MPD1    C1 3812   4.592   4.271  17.278  0.4376 -0.8738  0.4858
  248MPD1    C2 3813   4.531   4.285  17.399 -0.0682  0.2742 -0.3327
  248MPD1    C3 3814   4.521   4.178  17.485  0.4112 -0.1947 -0.4757
  248MPD1    C4 3815   4.565   4.054  17.442 -0.1785  0.0050  0.0893
  248MPD1    C5 3816   4.633   4.042  17.324  0.4269  0.0584 -0.1676
  248MPD1     H 3817   4.501   4.385  17.429 -2.0800 -1.3242  2.9948
  248MPD1    H1 3818   4.557   3.969  17.508  1.6899  0.7122  1.2289
  248MPD1    H2 3819   4.714   4.139  17.153  0.0889 -0.8536 -0.2484
  248MPD1    H3 3820   4.668   3.946  17.288 -2.3063 -1.0659  0.2237
  248MPD1     N 3821   4.459   4.199  17.611 -0.4155  0.3687 -0.1054
  248MPD1    H5 3822   4.437   4.297  17.624  2.4347  0.7423  1.8547
  248MPD1    N1 3823   4.626   4.387  17.205 -0.0312  0.0904 -0.5374
  248MPD1    H6 3824   4.560   4.462  17.223 -0.7173 -0.5143 -0.5245
  248MPD1    H7 3825   4.647   4.371  17.107  2.5690 -2.8268  0.4890
  249MPD1     C 3826   2.608   3.646  10.100 -0.0077  0.3061  0.1176
  249MPD1    C1 3827   2.483   3.695  10.120  0.5744 -0.6144  0.8440
  249MPD1    C2 3828   2.380   3.601  10.134 -0.1865 -0.3545 -0.2440
  249MPD1    C3 3829   2.410   3.465  10.132  0.0447 -0.2303  0.2695
  249MPD1    C4 3830   2.539   3.425  10.111 -0.5241  0.2661  0.8200
  249MPD1    C5 3831   2.639   3.518  10.093  0.5081 -0.1342 -0.4129
  249MPD1     H 3832   2.280   3.634  10.159 -1.0103 -1.4124 -2.0925
  249MPD1    H1 3833   2.574   3.323  10.121 -0.4492 -0.0813 -2.9660
  249MPD1    H2 3834   2.689   3.718  10.096  1.2318 -1.1489 -1.1451
  249MPD1    H3 3835   2.742   3.488  10.078  1.0737  2.3087 -1.4832
  249MPD1     N 3836   2.301   3.379  10.164  0.1113 -0.1726 -0.0644
  249MPD1    H5 3837   2.210   3.426  10.171 -0.7287 -1.8269  0.1255
  249MPD1    N1 3838   2.476   3.833  10.142 -0.1930  0.2254 -0.2991
  249MPD1    H6 3839   2.388   3.878  10.121 -1.1095 -1.0004  0.8863
  249MPD1    H7 3840   2.548   3.885  10.092  0.3140  0.1046  0.2913
  250MPD2     C 3841   3.223   2.698  13.224 -0.2073 -0.0188  0.8516
  250MPD2    C1 3842   3.106   2.765  13.234  0.4835 -0.0891  0.0224
  250MPD2    C2 3843   2.991   2.710  13.187  0.2871  0.4281 -0.1197
  250MPD2    C3 3844   2.994   2.598  13.110 -0.7014  0.2614 -0.7345
  250MPD2    C4 3845   3.107   2.524  13.116 -0.1791  0.0239 -0.3866
  250MPD2    C5 3846   3.220   2.577  13.165 -0.0843 -0.1223  0.3362
  250MPD2     H 3847   2.898   2.760  13.209 -1.3326 -1.8737 -1.7092
  250MPD2    H1 3848   3.114   2.429  13.064 -0.4747 -0.3722  0.2923
  250MPD2    H2 3849   3.309   2.739  13.277  0.9297  1.6480 -2.2749
  250MPD2    H3 3850   3.310   2.516  13.158  0.4937  0.8964 -1.1370
  250MPD2     N 3851   2.874   2.548  13.047  0.0551  0.5416 -0.0565
  250MPD2    H5 3852   2.872   2.450  13.020  2.0000  0.9375 -1.7094
  250MPD2    N1 3853   3.105   2.884  13.312  0.1470  0.2445  0.9447
  250MPD2    H7 3854   3.198   2.913  13.343  0.0439  2.4482 -0.8463
  251TMC3    C1 3855   3.027   3.086  13.421 -0.4480  0.7740 -0.5186
  251TMC3    C2 3856   2.920   3.140  13.485  0.0609  0.2010  0.5601
  251TMC3    C3 3857   2.930   3.270  13.524 -0.1192  0.0287 -1.2224
  251TMC3    C4 3858   3.139   3.153  13.393  0.9993 -0.5161  0.9207
  251TMC3    C5 3859   3.142   3.291  13.420 -0.6804 -0.4993 -0.0620
  251TMC3    C6 3860   3.036   3.351  13.493 -0.0792  0.5472 -0.6358
  251TMC3     C 3861   2.995   2.955  13.356 -0.3317 -0.0689 -0.3066
  251TMC3     O 3862   2.878   2.943  13.329 -0.0080  0.9904 -0.3666
  251TMC3     H 3863   2.830   3.084  13.505  0.7441 -1.5128 -1.1179
  251TMC3    H1 3864   3.216   3.097  13.343 -0.1826 -0.3505 -1.0980
  251TMC3    H2 3865   3.033   3.457  13.518  0.9360 -0.1073  2.1315
  251TMC3    C7 3866   3.270   3.345  13.442  0.9037  0.3658  0.0174
  251TMC3    C8 3867   2.833   3.322  13.621 -0.0188  0.6625 -0.1137
  251TMC3    O1 3868   3.366   3.271  13.417  0.3701 -0.2931  0.2878
  251TMC3    O2 3869   2.801   3.437  13.601 -0.0407 -0.3465 -0.2887
  252TMC3    C1 3870   3.994   4.419   9.180  0.7878 -0.9347 -0.0988
  252TMC3    C2 3871   4.080   4.342   9.251  0.9794  0.1806  0.1112
  252TMC3    C3 3872   4.026   4.243   9.334  0.1558 -0.3766 -0.9179
  252TMC3    C4 3873   3.860   4.396   9.203 -0.0535 -0.6341 -0.4290
  252TMC3    C5 3874   3.803   4.297   9.281 -0.4816  0.5888 -0.0578
  252TMC3    C6 3875   3.892   4.214   9.346 -0.4686  0.3384 -0.3310
  252TMC3     C 3876   4.039   4.552   9.136 -0.3972  0.0187 -0.1249
  252TMC3     O 3877   4.152   4.580   9.163 -0.0075 -0.0170 -0.0802
  252TMC3     H 3878   4.188   4.345   9.242  0.9384  1.2379 -0.0639
  252TMC3    H1 3879   3.798   4.428   9.120 -1.0861 -2.6469 -0.4259
  252TMC3    H2 3880   3.874   4.145   9.429 -1.1058  1.7391  0.6896
  252TMC3    C7 3881   3.673   4.263   9.264 -0.9774 -0.2974  0.1514
  252TMC3    C8 3882   4.114   4.173   9.430 -0.2285 -0.0028  0.0242
  252TMC3    O1 3883   3.605   4.325   9.186  0.8890  0.2803 -0.1248
  252TMC3    O2 3884   4.230   4.140   9.400 -0.0706 -0.1556 -0.0512
  253MPD2     C 3885   3.747   2.880  14.772 -0.1990  0.7120 -0.6744
  253MPD2    C1 3886   3.611   2.898  14.782  0.2906  0.7360  0.9095
  253MPD2    C2 3887   3.562   2.899  14.911  0.0459  0.3429  0.7418
  253MPD2    C3 3888   3.644   2.897  15.019  0.3658  0.7006  0.2522
  253MPD2    C4 3889   3.775   2.864  15.008  0.4782  0.1497 -0.2720
  253MPD2    C5 3890   3.825   2.857  14.881  0.8048  0.1189  0.1572
  253MPD2     H 3891   3.458   2.930  14.908 -0.0176 -0.0734 -2.0996
  253MPD2    H1 3892   3.844   2.854  15.091 -1.8636 -0.6550  1.5881
  253MPD2    H2 3893   3.788   2.885  14.672 -1.7473  2.0829 -1.2327
  253MPD2    H3 3894   3.929   2.828  14.868  1.0160  1.6777 -1.5733
  253MPD2     N 3895   3.599   2.911  15.153 -0.1968 -0.6249  0.4977
  253MPD2    H5 3896   3.669   2.913  15.227 -0.1689  0.2525  0.4562
  253MPD2    N1 3897   3.518   2.928  14.684 -0.5084  0.5906 -0.3708
  253MPD2    H7 3898   3.419   2.916  14.705 -0.4738 -0.6632 -0.9425
  254TMC3    C1 3899   3.441   2.958  15.329  0.3575 -0.0019  0.2419
  254TMC3    C2 3900   3.343   3.047  15.366  0.2720  0.2710  0.0134
  254TMC3    C3 3901   3.330   3.076  15.501 -0.2297 -0.2006  1.2844
  254TMC3    C4 3902   3.529   2.907  15.418 -0.0903 -0.2153  0.0880
  254TMC3    C5 3903   3.496   2.930  15.544 -0.1027  0.3626  0.5203
  254TMC3    C6 3904   3.409   3.010  15.590  0.6300 -0.6844  0.6768
  254TMC3     C 3905   3.466   2.939  15.187  0.0357 -0.2740  0.2261
  254TMC3     O 3906   3.370   2.980  15.123 -0.0909 -0.7431  0.2877
  254TMC3     H 3907   3.262   3.079  15.301 -0.8923 -0.0399  1.3317
  254TMC3    H1 3908   3.596   2.828  15.386 -1.0497 -0.2905 -1.7146
  254TMC3    H2 3909   3.407   3.036  15.695 -2.8570  1.4225  0.0790
  254TMC3    C7 3910   3.579   2.868  15.638  0.1719  0.1517 -0.8750
  254TMC3    C8 3911   3.253   3.187  15.547 -0.3609 -0.0372  0.2168
  254TMC3    O1 3912   3.528   2.850  15.749 -0.1674  0.4123 -0.7174
  254TMC3    O2 3913   3.237   3.189  15.670  0.3612  0.2662 -0.0853
  255MPD2     C 3914   2.525   1.096  10.309  0.5719  0.4705 -1.0006
  255MPD2    C1 3915   2.661   1.067  10.294 -0.3751 -0.4793  0.1431
  255MPD2    C2 3916   2.723   0.978  10.370 -1.3482 -1.2007 -0.1461
  255MPD2    C3 3917   2.655   0.907  10.469 -0.5776 -0.1664  0.3314
  255MPD2    C4 3918   2.526   0.934  10.485 -0.7729 -0.3784  0.2387
  255MPD2    C5 3919   2.459   1.030  10.414 -0.6507  0.8746 -0.5002
  255MPD2     H 3920   2.828   0.959  10.348 -1.7385 -1.3686 -1.8062
  255MPD2    H1 3921   2.478   0.893  10.573 -0.1727 -1.4547  0.0657
  255MPD2    H2 3922   2.466   1.161  10.245 -2.3248  1.4166  2.6265
  255MPD2    H3 3923   2.363   1.059  10.456 -0.8082 -1.6358  0.8211
  255MPD2     N 3924   2.728   0.804  10.539  0.2824  0.3978 -0.2444
  255MPD2    H5 3925   2.824   0.786  10.510  2.1947  1.9235  5.0394
  255MPD2    N1 3926   2.713   1.117  10.174  0.0707  0.3673  0.6939
  255MPD2    H7 3927   2.650   1.167  10.112 -0.8184 -0.3047  1.0645
  256TMC3    C1 3928   2.866   1.142   9.998  0.6276 -0.7224  0.1885
  256TMC3    C2 3929   2.995   1.179   9.960 -0.1186 -0.3066  0.5162
  256TMC3    C3 3930   3.025   1.146   9.831 -0.2686  0.5787  0.9701
  256TMC3    C4 3931   2.779   1.066   9.925 -0.1927 -0.1415 -0.4442
  256TMC3    C5 3932   2.826   1.030   9.800  0.7200  0.3540 -0.5850
  256TMC3    C6 3933   2.950   1.059   9.757 -0.3587 -1.5984  0.7481
  256TMC3     C 3934   2.847   1.120  10.142  0.0681  0.6995  0.9403
  256TMC3     O 3935   2.945   1.120  10.216 -0.6819 -0.6197  0.3994
  256TMC3     H 3936   3.071   1.219  10.027  0.3849 -0.2932 -0.0624
  256TMC3    H1 3937   2.687   1.023   9.964  1.6729 -3.9379 -0.2097
  256TMC3    H2 3938   2.977   1.021   9.659  1.9254  0.6498  0.5055
  256TMC3    C7 3939   2.788   0.895   9.746  0.0148 -0.0952  0.3302
  256TMC3    C8 3940   3.159   1.166   9.779 -0.4098 -0.0789 -0.3275
  256TMC3    O1 3941   2.867   0.830   9.679 -0.2268 -0.4488  0.1470
  256TMC3    O2 3942   3.202   1.084   9.705  0.0374  0.0646  0.3625
  257MPD2     C 3943   1.301   3.059  13.472  0.1897  0.2020 -0.0338
  257MPD2    C1 3944   1.360   3.032  13.350  0.1161  0.1620  0.2683
  257MPD2    C2 3945   1.410   2.903  13.329 -0.4770  0.1270 -0.1131
  257MPD2    C3 3946   1.401   2.807  13.423 -0.7261 -0.1870  0.2238
  257MPD2    C4 3947   1.346   2.839  13.553 -0.9906  0.2677  0.8776
  257MPD2    C5 3948   1.294   2.966  13.578  0.2750  0.3684 -0.1267
  257MPD2     H 3949   1.457   2.889  13.233  1.3018 -1.4588  1.0090
  257MPD2    H1 3950   1.334   2.764  13.630 -0.1908 -0.4055  0.3413
  257MPD2    H2 3951   1.251   3.152  13.494  1.9374  1.0409  0.3339
  257MPD2    H3 3952   1.240   2.998  13.666  1.8336  1.2051  0.5204
  257MPD2     N 3953   1.456   2.677  13.403 -0.1755 -0.9843 -0.1363
  257MPD2    H5 3954   1.496   2.650  13.313 -1.0702 -1.3738 -0.4206
  257MPD2    N1 3955   1.369   3.139  13.256 -0.6075 -0.2027  0.5386
  257MPD2    H7 3956   1.341   3.235  13.276  3.3999  0.9652  0.4011
  258TMC3    C1 3957   1.557   2.462  13.453 -0.0315 -0.8125  0.6748
  258TMC3    C2 3958   1.544   2.425  13.321 -0.7112  0.4101  0.3395
  258TMC3    C3 3959   1.586   2.295  13.293 -0.5100  0.1654 -0.4148
  258TMC3    C4 3960   1.617   2.378  13.548  0.4156  0.6512  0.0909
  258TMC3    C5 3961   1.667   2.260  13.514 -0.3424  0.3059 -0.1562
  258TMC3    C6 3962   1.664   2.225  13.384  0.3398 -0.4021  0.1756
  258TMC3     C 3963   1.488   2.579  13.501 -0.9187 -0.2619  0.2332
  258TMC3     O 3964   1.478   2.586  13.625  0.3642 -0.8116  0.0592
  258TMC3     H 3965   1.476   2.479  13.255 -1.1527 -1.0852 -0.4317
  258TMC3    H1 3966   1.610   2.406  13.653 -1.2074 -0.1310  0.1842
  258TMC3    H2 3967   1.686   2.121  13.362 -0.6649 -0.7975  0.9993
  258TMC3    C7 3968   1.680   2.147  13.602 -0.2676 -0.6151  0.1544
  258TMC3    C8 3969   1.589   2.250  13.155 -0.0706  0.1577  0.5523
  258TMC3    O1 3970   1.632   2.042  13.573 -0.4163  0.1056  0.3149
  258TMC3    O2 3971   1.647   2.144  13.134  0.4868  0.3761  0.0826
  259MPD2     C 3972   0.043   0.065   1.253  0.4321  0.0846  0.5698
  259MPD2    C1 3973   4.660   0.020   1.194  0.2359 -0.2791  0.0181
  259MPD2    C2 3974   4.675   4.683   1.073 -0.3527 -0.1415 -0.3925
  259MPD2    C3 3975   0.060   4.662   1.024 -0.1091 -0.3496 -0.2732
  259MPD2    C4 3976   0.180   4.705   1.086  0.6756  0.7797  0.3316
  259MPD2    C5 3977   0.166   0.034   1.208  0.5719 -0.0919 -0.2053
  259MPD2     H 3978   4.588   4.642   1.022  0.1591 -0.9348 -0.6250
  259MPD2    H1 3979   0.279   4.688   1.047 -0.1864 -0.2906 -1.3746
  259MPD2    H2 3980   0.036   0.127   1.342 -2.2333  0.1011  0.3656
  259MPD2    H3 3981   0.253   0.050   1.271 -0.9296  2.1591  1.3197
  259MPD2     N 3982   0.064   4.601   0.900 -0.5913  0.4177  0.4731
  259MPD2    H5 3983   4.718   4.555   0.857  0.7577 -1.7318  0.2422
  259MPD2    N1 3984   4.538   0.049   1.258 -0.0373  0.4523  0.6955
  259MPD2    H7 3985   4.538   0.101   1.345 -1.4167 -0.4190  1.2078
  260TMC3    C1 3986   0.150   4.478   0.717 -0.8689  0.2937  0.0179
  260TMC3    C2 3987   0.226   4.476   0.602  0.4764  0.0757  0.3581
  260TMC3    C3 3988   0.214   4.374   0.512 -0.0699  1.2291  0.1370
  260TMC3    C4 3989   0.049   4.385   0.730  0.5090 -0.1787 -0.0123
  260TMC3    C5 3990   0.043   4.280   0.635 -0.2004  0.1269  0.0985
  260TMC3    C6 3991   0.123   4.277   0.526 -0.2825  0.0452 -0.2286
  260TMC3     C 3992   0.177   4.578   0.827  0.0511  0.4227  0.3546
  260TMC3     O 3993   0.297   4.614   0.830  0.1417 -0.3995  0.0362
  260TMC3     H 3994   0.277   4.567   0.572  0.4125  0.0295  0.1067
  260TMC3    H1 3995   0.002   4.371   0.826 -1.3774 -0.7463 -1.0276
  260TMC3    H2 3996   0.096   4.220   0.437  2.4629 -0.0870 -0.9609
  260TMC3    C7 3997   4.700   4.165   0.674  0.2757  0.1586 -0.6333
  260TMC3    C8 3998   0.297   4.394   0.394  0.0926  0.0410 -0.0781
  260TMC3    O1 3999   4.629   4.173   0.775 -0.7200  0.3808 -0.6298
  260TMC3    O2 4000   0.353   4.503   0.377  0.4029 -0.1898 -0.2277
  261MPD2     C 4001   2.096   2.780  12.773 -0.1716 -0.1562 -0.2461
  261MPD2    C1 4002   2.230   2.764  12.731 -0.5756  0.2570  0.3193
  261MPD2    C2 4003   2.267   2.803  12.607  0.3257 -0.4567 -0.2356
  261MPD2    C3 4004   2.171   2.861  12.524  0.6641  0.1979 -0.5431
  261MPD2    C4 4005   2.038   2.867  12.564  0.6278 -0.1636 -0.8023
  261MPD2    C5 4006   2.005   2.823  12.686  1.0553 -0.0055 -0.0107
  261MPD2     H 4007   2.371   2.800  12.578 -0.0001 -2.1625 -1.2007
  261MPD2    H1 4008   1.957   2.914  12.510 -0.4409  0.5588  1.4451
  261MPD2    H2 4009   2.054   2.754  12.869  1.8737  2.1932  1.3142
  261MPD2    H3 4010   1.903   2.837  12.721  0.0898 -2.0074 -1.9795
  261MPD2     N 4011   2.216   2.917  12.406  0.8171 -0.0250 -0.6891
  261MPD2    H5 4012   2.299   2.885  12.357  0.5700  2.8425 -2.9977
  261MPD2    N1 4013   2.327   2.704  12.817  0.5211  0.5169  0.0282
  261MPD2    H7 4014   2.424   2.705  12.788  1.2952  2.3336  2.6958
  262TMC3    C1 4015   2.227   3.089  12.245 -0.6904  0.6356 -0.1689
  262TMC3    C2 4016   2.193   3.223  12.241  0.5248 -0.3738  0.4708
  262TMC3    C3 4017   2.258   3.302  12.159 -0.0658  0.3104  0.6283
  262TMC3    C4 4018   2.309   3.028  12.154 -0.1686 -0.4575 -0.4146
  262TMC3    C5 4019   2.368   3.115  12.072 -0.2320 -0.0775  0.6354
  262TMC3    C6 4020   2.333   3.246  12.062 -0.1412 -0.1640 -0.0577
  262TMC3     C 4021   2.147   3.018  12.339  0.0956 -0.1200  0.4121
  262TMC3     O 4022   2.044   3.074  12.376 -0.1598  0.2820 -0.1684
  262TMC3     H 4023   2.125   3.262  12.316  2.0122 -1.0918  2.2053
  262TMC3    H1 4024   2.300   2.922  12.134  2.4249 -1.0240  1.4063
  262TMC3    H2 4025   2.401   3.315  12.015  0.4514 -2.1684 -2.1220
  262TMC3    C7 4026   2.437   3.053  11.964  0.2476  0.1532  0.4509
  262TMC3    C8 4027   2.205   3.434  12.138  0.1670 -0.3502  0.0523
  262TMC3    O1 4028   2.473   2.935  11.984  0.4528  0.0158 -0.4922
  262TMC3    O2 4029   2.270   3.506  12.065  1.1984  0.2340  0.0730
  263MPD2     C 4030   2.873   2.361  11.355  0.1228  0.7743  0.2505
  263MPD2    C1 4031   3.012   2.364  11.319  0.8320 -0.3238  0.6446
  263MPD2    C2 4032   3.059   2.430  11.204  0.6841 -0.0254 -0.1065
  263MPD2    C3 4033   2.968   2.487  11.122  0.3446  0.0333  0.1721
  263MPD2    C4 4034   2.837   2.468  11.143 -0.3437  0.0819 -0.1315
  263MPD2    C5 4035   2.789   2.410  11.257  1.3277 -0.1630 -0.0273
  263MPD2     H 4036   3.164   2.453  11.192 -0.3288  4.6655  0.0781
  263MPD2    H1 4037   2.764   2.501  11.070 -1.2998 -0.4868  0.5608
  263MPD2    H2 4038   2.822   2.309  11.435  1.3173 -0.6842  0.0616
  263MPD2    H3 4039   2.684   2.388  11.269  1.0932  1.3935  0.8573
  263MPD2     N 4040   3.016   2.550  11.004  0.0731 -0.2903 -0.3501
  263MPD2    H5 4041   3.115   2.572  10.998 -0.3605  1.4288 -1.2258
  263MPD2    N1 4042   3.099   2.292  11.407  0.0474 -1.0483  0.2007
  263MPD2    H7 4043   3.055   2.234  11.478  0.3368 -1.1904  0.2596
  264TMC3    C1 4044   3.025   2.728  10.855 -0.3108 -0.5292  0.3842
  264TMC3    C2 4045   3.052   2.846  10.917 -0.1174  0.5680 -0.3333
  264TMC3    C3 4046   3.160   2.916  10.869  0.3426 -0.6292 -0.5058
  264TMC3    C4 4047   3.079   2.675  10.733  0.0064  0.5358 -0.5803
  264TMC3    C5 4048   3.173   2.758  10.686 -0.4978 -0.5880  0.0109
  264TMC3    C6 4049   3.215   2.879  10.744 -0.4024  0.6263 -0.4735
  264TMC3     C 4050   2.940   2.636  10.927  0.5564 -0.1347 -0.1801
  264TMC3     O 4051   2.830   2.684  10.953 -0.1702  0.3367 -0.3015
  264TMC3     H 4052   3.006   2.860  11.014 -0.4006 -1.6908 -0.1490
  264TMC3    H1 4053   3.045   2.584  10.686 -0.2897  0.0929  0.4836
  264TMC3    H2 4054   3.301   2.930  10.702 -0.0896 -1.2447 -2.1083
  264TMC3    C7 4055   3.252   2.723  10.561  0.1733 -0.4627 -0.2157
  264TMC3    C8 4056   3.229   3.020  10.947 -0.6507 -0.0156 -0.6414
  264TMC3    O1 4057   3.351   2.791  10.537  0.6602 -0.9239  0.3058
  264TMC3    O2 4058   3.312   3.091  10.887 -0.0276  0.1240 -0.4147
  265MPD2     C 4059   0.404   2.249  15.450  0.5106  0.3078 -0.2430
  265MPD2    C1 4060   0.410   2.379  15.399 -0.1893  1.0357 -0.0953
  265MPD2    C2 4061   0.442   2.385  15.267  1.1870 -0.2748 -0.5685
  265MPD2    C3 4062   0.487   2.283  15.193  0.1153  0.7542  0.5108
  265MPD2    C4 4063   0.502   2.161  15.252 -0.2986  0.1234  0.1204
  265MPD2    C5 4064   0.463   2.148  15.380  0.3506 -0.2417  0.0785
  265MPD2     H 4065   0.428   2.483  15.223  2.4752  0.1245 -0.0966
  265MPD2    H1 4066   0.536   2.074  15.198 -0.8098  0.4176 -0.6642
  265MPD2    H2 4067   0.374   2.229  15.552  0.5332  0.4661 -0.2039
  265MPD2    H3 4068   0.465   2.044  15.413 -1.8019  0.9558  3.9369
  265MPD2     N 4069   0.541   2.296  15.069 -0.9304  0.3412  0.0021
  265MPD2    H5 4070   0.569   2.219  15.009 -0.8232  0.6598 -0.3552
  265MPD2    N1 4071   0.374   2.501  15.469 -0.6542  0.0928  0.0360
  265MPD2    H7 4072   0.400   2.593  15.435  0.0574  0.6389  2.0926
  266TMC3    C1 4073   0.299   2.634  15.643 -0.1057  0.8310  0.0977
  266TMC3    C2 4074   0.293   2.648  15.782  0.1044  0.0882 -0.0178
  266TMC3    C3 4075   0.305   2.776  15.833  0.2072 -0.9681 -0.1808
  266TMC3    C4 4076   0.298   2.749  15.562  0.1349 -0.8294 -0.3072
  266TMC3    C5 4077   0.303   2.870  15.618  0.5994  0.5084  0.2767
  266TMC3    C6 4078   0.303   2.890  15.755 -0.5299 -0.8197 -0.0439
  266TMC3     C 4079   0.314   2.502  15.591 -0.2166 -0.2450  0.2274
  266TMC3     O 4080   0.262   2.415  15.658  0.4557 -0.3538  0.4027
  266TMC3     H 4081   0.298   2.559  15.843 -0.3868 -0.2750 -0.5053
  266TMC3    H1 4082   0.294   2.751  15.454 -2.2537  0.4728 -0.1941
  266TMC3    H2 4083   0.333   2.989  15.789  0.7768 -1.5592  0.9333
  266TMC3    C7 4084   0.260   2.983  15.534  0.1388 -0.5944  0.2606
  266TMC3    C8 4085   0.361   2.787  15.966  0.4383 -0.0281  0.2557
  266TMC3    O1 4086   0.277   2.972  15.415  0.3966  0.6648 -0.0564
  266TMC3    O2 4087   0.392   2.679  16.015 -0.2181 -0.6021 -0.2296
  267MPD2     C 4088   2.290   0.102  17.597 -0.5408  0.0243  0.1312
  267MPD2    C1 4089   2.394   0.010  17.575 -0.1420  0.0777  0.2169
  267MPD2    C2 4090   2.403   4.681  17.452  0.1135 -0.3810  0.1597
  267MPD2    C3 4091   2.324   4.711  17.349 -0.3143  0.3778 -0.7514
  267MPD2    C4 4092   2.226   0.075  17.374 -0.0946 -0.2353  0.1394
  267MPD2    C5 4093   2.213   0.141  17.489  0.4303 -0.3559 -0.4449
  267MPD2     H 4094   2.479   4.607  17.428 -0.8107 -1.8453  1.7606
  267MPD2    H1 4095   2.155   0.106  17.298 -1.7776 -1.4685  1.1965
  267MPD2    H2 4096   2.289   0.159  17.689 -0.4385 -0.1677  0.2522
  267MPD2    H3 4097   2.138   0.217  17.501  1.0847  0.2528 -0.1834
  267MPD2     N 4098   2.339   4.641  17.231  0.7045  0.1894  0.4391
  267MPD2    H5 4099   2.413   4.572  17.227 -1.0002 -1.6993  1.2934
  267MPD2    N1 4100   2.475   4.702  17.681 -0.1175  0.0803 -0.1428
  267MPD2    H7 4101   2.450   4.728   0.041 -0.0463  1.9870 -0.6448
  268TMC3    C1 4102   2.664   4.612   0.056  0.5505  0.2417  0.1545
  268TMC3    C2 4103   2.800   4.633   0.047  0.3250  0.3652 -0.7130
  268TMC3    C3 4104   2.877   4.552   0.125  0.5631  0.6059  0.0401
  268TMC3    C4 4105   2.604   4.509   0.123  0.5075  0.1772 -0.0623
  268TMC3    C5 4106   2.692   4.426   0.199  0.3927 -0.5862  0.4130
  268TMC3    C6 4107   2.831   4.449   0.203  0.0914 -0.1527  0.1856
  268TMC3     C 4108   2.600   4.649  17.665 -0.5354  0.1395  0.1709
  268TMC3     O 4109   2.672   4.642  17.564  0.6614 -0.3944 -0.1551
  268TMC3     H 4110   2.836   4.720  17.730  0.9342  0.3194 -0.3664
  268TMC3    H1 4111   2.498   4.486   0.116  0.7878 -1.0635 -0.2880
  268TMC3    H2 4112   2.897   4.382   0.256 -0.0005  0.2592  0.8128
  268TMC3    C7 4113   2.651   4.324   0.296 -0.1661  0.8399  0.0546
  268TMC3    C8 4114   3.023   4.565   0.127  0.2698 -0.1840 -0.0317
  268TMC3    O1 4115   2.731   4.240   0.339  0.3478 -0.6183 -0.2707
  268TMC3    O2 4116   3.080   4.504   0.213 -0.2328 -0.0931  0.5339
  269MPD2     C 4117   2.941   3.024  15.518  0.5708  0.2818  0.9013
  269MPD2    C1 4118   2.838   3.030  15.610 -0.0424 -0.2287  0.2012
  269MPD2    C2 4119   2.746   3.134  15.596 -0.2621  0.0517 -0.4017
  269MPD2    C3 4120   2.744   3.217  15.489 -0.8045  0.5833  0.8040
  269MPD2    C4 4121   2.833   3.195  15.390 -0.1115 -0.0324 -0.1711
  269MPD2    C5 4122   2.940   3.110  15.410  0.4919 -0.7953 -0.0087
  269MPD2     H 4123   2.671   3.147  15.674  0.5543  0.1416  0.3677
  269MPD2    H1 4124   2.849   3.245  15.295 -0.5002  0.6665  0.1326
  269MPD2    H2 4125   3.013   2.944  15.534  0.6210  0.0904 -0.3345
  269MPD2    H3 4126   3.009   3.100  15.327  0.6438  0.0896  0.0151
  269MPD2     N 4127   2.660   3.328  15.494 -0.1100  0.0276  0.0199
  269MPD2    H5 4128   2.612   3.351  15.581  1.7737  2.4716  0.4217
  269MPD2    N1 4129   2.830   2.937  15.714  0.9189 -0.1884  0.1277
  269MPD2    H7 4130   2.891   2.858  15.699  1.7073  0.6678 -1.1315
  270TMC3    C1 4131   2.754   2.797  15.871  0.1643 -0.0595  0.0985
  270TMC3    C2 4132   2.637   2.724  15.904 -0.5919 -0.6892 -0.4077
  270TMC3    C3 4133   2.649   2.586  15.913  0.0170  0.8934  0.2590
  270TMC3    C4 4134   2.874   2.736  15.862 -0.5052 -0.1560  0.0146
  270TMC3    C5 4135   2.886   2.607  15.896  0.4376 -0.2177 -0.3222
  270TMC3    C6 4136   2.774   2.531  15.915 -0.2091 -0.6572  0.2496
  270TMC3     C 4137   2.741   2.927  15.819  0.1759  0.0157 -0.3059
  270TMC3     O 4138   2.648   2.992  15.862  0.3745  0.0989  0.6461
  270TMC3     H 4139   2.545   2.781  15.892  0.0448  0.4276 -0.0598
  270TMC3    H1 4140   2.970   2.786  15.867  0.5932 -2.3898  0.9549
  270TMC3    H2 4141   2.794   2.426  15.929  2.4661 -0.1457  0.3125
  270TMC3    C7 4142   3.010   2.545  15.848  0.4258  0.3751  0.4678
  270TMC3    C8 4143   2.567   2.517  15.809 -0.3930 -0.0278  0.3216
  270TMC3    O1 4144   3.064   2.460  15.916  0.2275  0.2203  0.3026
  270TMC3    O2 4145   2.635   2.424  15.760  0.7434  0.5770 -0.3717
  271MPD2     C 4146   2.184   2.720  13.877 -0.0509 -0.0884  0.7951
  271MPD2    C1 4147   2.138   2.768  13.994 -0.0407 -0.1703  0.1735
  271MPD2    C2 4148   2.056   2.880  13.989 -0.0436  0.2192  0.0290
  271MPD2    C3 4149   1.995   2.922  13.874  0.2131 -0.6274 -0.3005
  271MPD2    C4 4150   2.036   2.869  13.755  0.2116  0.2197  0.0699
  271MPD2    C5 4151   2.130   2.772  13.764  0.3670 -0.0913 -0.4083
  271MPD2     H 4152   2.028   2.931  14.081 -0.0214 -0.8169  0.6033
  271MPD2    H1 4153   2.001   2.900  13.657  1.7109  0.2329 -0.4543
  271MPD2    H2 4154   2.246   2.632  13.863  1.4020  0.9598  0.6246
  271MPD2    H3 4155   2.165   2.720  13.676 -0.0851  2.3001 -1.9957
  271MPD2     N 4156   1.901   3.026  13.863 -0.3635  0.2469 -0.6189
  271MPD2    H5 4157   1.889   3.066  13.771 -0.1058  1.4125 -0.1503
  271MPD2    N1 4158   2.182   2.719  14.119 -0.1463 -0.0298 -0.0589
  271MPD2    H7 4159   2.143   2.762  14.202 -0.2655  0.3606 -0.3167
  272TMC3    C1 4160   2.270   2.567  14.287 -0.5375 -0.3319  1.0049
  272TMC3    C2 4161   2.389   2.516  14.334 -0.2512 -0.2594  0.3193
  272TMC3    C3 4162   2.423   2.520  14.468 -0.3102 -0.4111  0.3505
  272TMC3    C4 4163   2.186   2.615  14.375  1.0207  0.1892 -0.2492
  272TMC3    C5 4164   2.213   2.602  14.511  0.1882  0.6022 -0.8509
  272TMC3    C6 4165   2.336   2.574  14.562  0.3457 -0.0573 -0.3966
  272TMC3     C 4166   2.265   2.611  14.146  0.7451  0.2865 -0.3425
  272TMC3     O 4167   2.320   2.548  14.058  0.1249  0.5848  0.4784
  272TMC3     H 4168   2.471   2.491  14.268 -1.6698  0.4647 -1.7582
  272TMC3    H1 4169   2.094   2.668  14.352 -1.3062 -4.1851 -0.9708
  272TMC3    H2 4170   2.357   2.565  14.668 -1.0938 -0.2707 -0.1348
  272TMC3    C7 4171   2.112   2.663  14.599  0.0871  0.4033 -0.7835
  272TMC3    C8 4172   2.555   2.575  14.473 -0.1788  0.1493  1.0260
  272TMC3    O1 4173   2.000   2.687  14.559  0.4376 -0.3550 -0.0021
  272TMC3    O2 4174   2.577   2.641  14.374 -0.2216 -0.5825 -0.1012
  273MPD2     C 4175   3.828   1.106  12.059  0.1557 -0.5709 -0.1934
  273MPD2    C1 4176   3.950   1.130  12.000 -0.4424  0.2564  0.3108
  273MPD2    C2 4177   3.964   1.178  11.869 -0.1663 -0.0371  0.4708
  273MPD2    C3 4178   3.844   1.201  11.792  0.6064 -0.1222  0.5904
  273MPD2    C4 4179   3.721   1.170  11.848  0.1699  0.6924  0.5184
  273MPD2    C5 4180   3.717   1.126  11.983 -0.0452  0.0878  0.4678
  273MPD2     H 4181   4.059   1.194  11.818 -0.9128  0.5015 -0.7419
  273MPD2    H1 4182   3.628   1.181  11.792  0.6127 -0.5799 -0.4676
  273MPD2    H2 4183   3.814   1.065  12.159 -0.8893  0.5653  0.1176
  273MPD2    H3 4184   3.623   1.096  12.030  0.4123 -1.2970  0.5064
  273MPD2     N 4185   3.845   1.247  11.656  0.4304  0.3269  0.1833
  273MPD2    H5 4186   3.757   1.247  11.605  2.4879  2.2336 -3.3918
  273MPD2    N1 4187   4.059   1.109  12.079  0.3804  0.2152  0.5033
  273MPD2    H7 4188   4.055   1.080  12.176  0.4077 -0.0144  0.4347
  274TMC3    C1 4189   3.892   1.389  11.479  0.2603 -0.1452  0.1956
  274TMC3    C2 4190   3.780   1.357  11.405  1.1114  0.6629 -0.4312
  274TMC3    C3 4191   3.760   1.411  11.278 -0.2489  0.2438  0.1852
  274TMC3    C4 4192   3.981   1.476  11.421  0.1522  0.2027  0.6319
  274TMC3    C5 4193   3.950   1.532  11.300 -0.9770 -0.1142 -0.6906
  274TMC3    C6 4194   3.847   1.496  11.227 -0.3523 -0.4818  0.0176
  274TMC3     C 4195   3.944   1.316  11.595  0.2541 -0.7014  0.3103
  274TMC3     O 4196   4.056   1.333  11.635 -0.2314 -0.2906 -0.5773
  274TMC3     H 4197   3.701   1.309  11.461  0.4899  2.6098  0.3890
  274TMC3    H1 4198   4.071   1.491  11.479  0.2145  1.5810  0.1970
  274TMC3    H2 4199   3.805   1.551  11.143  1.7371  0.5431 -0.3571
  274TMC3    C7 4200   3.964   1.680  11.301  0.3628 -0.5199  0.0403
  274TMC3    C8 4201   3.630   1.395  11.215  0.4859 -0.3685 -0.1476
  274TMC3    O1 4202   3.890   1.746  11.225 -0.1149 -0.1874 -0.3478
  274TMC3    O2 4203   3.610   1.464  11.114 -0.5596 -0.3663  0.1974
  275MPD2     C 4204   3.273   4.130  14.703 -0.5894 -0.2896  0.3087
  275MPD2    C1 4205   3.302   4.008  14.757 -0.0216  0.5278 -0.7733
  275MPD2    C2 4206   3.241   3.896  14.714 -0.1175  0.7399 -0.2747
  275MPD2    C3 4207   3.138   3.913  14.628 -0.0157 -0.2264 -0.7938
  275MPD2    C4 4208   3.096   4.035  14.580  0.6588 -0.3874 -0.3116
  275MPD2    C5 4209   3.162   4.143  14.624 -0.0706 -0.3925 -0.6289
  275MPD2     H 4210   3.288   3.800  14.736 -2.0090 -0.2943 -0.7103
  275MPD2    H1 4211   3.010   4.054  14.518 -0.8133 -2.1372  1.2003
  275MPD2    H2 4212   3.326   4.220  14.733  0.7985 -0.6276 -1.1193
  275MPD2    H3 4213   3.136   4.242  14.589 -0.2837 -0.9253 -1.9639
  275MPD2     N 4214   3.058   3.808  14.576 -0.3254  0.0768 -0.0371
  275MPD2    H5 4215   2.982   3.833  14.513  0.9139 -0.4167 -1.7037
  275MPD2    N1 4216   3.417   3.994  14.841  0.2120 -0.0279  0.1403
  275MPD2    H7 4217   3.438   3.900  14.874 -2.1297 -1.8672 -3.5732
  276TMC3    C1 4218   3.611   4.049  14.962 -0.4843 -0.0121  0.6961
  276TMC3    C2 4219   3.634   3.913  14.975  0.0581 -0.4403  0.0921
  276TMC3    C3 4220   3.694   3.867  15.084 -0.4817 -0.3895 -0.0872
  276TMC3    C4 4221   3.651   4.141  15.059  0.9368  0.5329  0.7267
  276TMC3    C5 4222   3.734   4.090  15.156  0.6111 -0.2282  0.2519
  276TMC3    C6 4223   3.743   3.955  15.181 -0.4563  0.7664 -0.4696
  276TMC3     C 4224   3.499   4.097  14.878 -0.5100 -0.7879  0.0646
  276TMC3     O 4225   3.480   4.218  14.876  0.1683  0.1368 -0.5342
  276TMC3     H 4226   3.600   3.844  14.898 -0.5602  0.4994 -0.4644
  276TMC3    H1 4227   3.647   4.247  15.039  1.3965  0.5791  0.8715
  276TMC3    H2 4228   3.816   3.916  15.251  0.3593  0.9224 -1.2311
  276TMC3    C7 4229   3.748   4.179  15.270 -0.0416 -0.5800  0.4012
  276TMC3    C8 4230   3.739   3.725  15.088 -0.4058 -0.2748  0.1317
  276TMC3    O1 4231   3.734   4.297  15.258  0.4416  0.0731  0.0829
  276TMC3    O2 4232   3.839   3.706  15.159  0.1421  0.1423 -0.2567
  277MPD2     C 4233   0.831   3.114  13.220  0.3407 -0.3080  0.1447
  277MPD2    C1 4234   0.697   3.121  13.252  0.1738  0.0774 -0.2075
  277MPD2    C2 4235   0.654   3.053  13.367 -0.4251 -0.3011 -0.9978
  277MPD2    C3 4236   0.745   2.993  13.453  0.4983  0.5666  0.3880
  277MPD2    C4 4237   0.876   2.990  13.413  0.5179 -0.2491  0.8243
  277MPD2    C5 4238   0.922   3.048  13.300  0.3195  0.2128  0.0470
  277MPD2     H 4239   0.550   3.059  13.396  0.1491 -0.3758  1.1006
  277MPD2    H1 4240   0.955   2.946  13.473 -0.5215  0.9130  3.0513
  277MPD2    H2 4241   0.867   3.175  13.138 -1.5171  1.2308  0.4738
  277MPD2    H3 4242   1.021   3.031  13.261 -0.3424 -2.5367 -0.4342
  277MPD2     N 4243   0.701   2.942  13.578 -0.1644  0.5732  0.0654
  277MPD2    H5 4244   0.605   2.952  13.609 -0.3412 -1.3128  0.0810
  277MPD2    N1 4245   0.620   3.215  13.178  0.2834 -0.5857  0.2514
  277MPD2    H7 4246   0.668   3.285  13.123 -1.0106  1.3280  1.5501
  278TMC3    C1 4247   0.703   2.822  13.772 -0.2605 -0.4572  0.9071
  278TMC3    C2 4248   0.694   2.686  13.768  0.2675 -0.5429  0.7609
  278TMC3    C3 4249   0.568   2.630  13.751  0.3198 -0.1597 -0.1682
  278TMC3    C4 4250   0.594   2.898  13.798 -0.2545  0.1643  0.2001
  278TMC3    C5 4251   0.467   2.849  13.792  0.4497 -0.8187 -0.0466
  278TMC3    C6 4252   0.459   2.714  13.754 -0.4188 -0.0752  0.0682
  278TMC3     C 4253   0.787   2.876  13.665 -0.1156  0.2800  0.2341
  278TMC3     O 4254   0.904   2.837  13.662 -0.4001 -0.4641  0.3129
  278TMC3     H 4255   0.776   2.619  13.742 -2.7197 -3.2381 -1.7708
  278TMC3    H1 4256   0.610   3.004  13.812  1.7375 -0.0810 -0.0782
  278TMC3    H2 4257   0.357   2.692  13.727 -0.3919  0.2911 -0.3234
  278TMC3    C7 4258   0.369   2.931  13.727 -0.2487  0.5547  0.0015
  278TMC3    C8 4259   0.558   2.480  13.753  0.5557  0.3918 -0.1355
  278TMC3    O1 4260   0.405   2.979  13.619 -0.0506 -0.0014  0.6636
  278TMC3    O2 4261   0.653   2.420  13.804  0.0314 -0.8125  0.4825
  279MPD2     C 4262   4.552   2.698  17.727 -1.2462  0.1551 -0.7842
  279MPD2    C1 4263   4.443   2.642  17.661  0.0984  0.5384 -0.2453
  279MPD2    C2 4264   4.412   2.701  17.539 -0.5757  0.6417  0.2041
  279MPD2    C3 4265   4.488   2.796  17.475  0.0979 -0.3897  0.1252
  279MPD2    C4 4266   4.605   2.834  17.535 -0.8141 -0.0821 -0.6652
  279MPD2    C5 4267   4.636   2.791  17.662 -0.5859 -0.3309 -0.2490
  279MPD2     H 4268   4.321   2.666  17.493 -0.8576  3.4067 -1.3611
  279MPD2    H1 4269   4.674   2.901  17.485 -0.4683 -0.2643 -0.4274
  279MPD2    H2 4270   4.589   2.659   0.086  0.2437  1.2421 -0.9348
  279MPD2    H3 4271   4.727   2.833  17.701 -0.5954  0.1627 -0.7547
  279MPD2     N 4272   4.456   2.862  17.351 -0.1530  0.1021  0.2872
  279MPD2    H5 4273   4.520   2.936  17.326  0.1671  0.1520  1.2596
  279MPD2    N1 4274   4.367   2.540  17.722  0.6047  0.2047  0.1750
  279MPD2    H7 4275   4.374   2.530   0.088  0.8996  0.5410  0.1886
  280TMC3    C1 4276   4.141   2.462  17.718 -0.3439  0.2242  0.2334
  280TMC3    C2 4277   4.058   2.388  17.643 -0.5150 -0.5169  0.1085
  280TMC3    C3 4278   3.927   2.426  17.618  0.0317 -0.0295  0.4453
  280TMC3    C4 4279   4.091   2.572   0.055 -0.3811  0.5364 -0.5801
  280TMC3    C5 4280   3.958   2.603   0.029  0.3925  0.3435 -0.1593
  280TMC3    C6 4281   3.875   2.528  17.683 -0.0024  0.1967 -0.3085
  280TMC3     C 4282   4.266   2.477  17.647  0.3172  0.0363 -0.7006
  280TMC3     O 4283   4.272   2.453  17.528  0.3508  0.1508  0.0749
  280TMC3     H 4284   4.101   2.301  17.595 -0.3348 -1.6042  2.2750
  280TMC3    H1 4285   4.153   2.635   0.117 -0.7336  1.2050 -0.9142
  280TMC3    H2 4286   3.774   2.562  17.666 -0.5063 -1.7053 -1.0403
  280TMC3    C7 4287   3.914   2.736   0.067  0.4429  0.1153  0.0932
  280TMC3    C8 4288   3.870   2.390  17.488  0.0532  0.4070  0.6704
  280TMC3    O1 4289   3.987   2.798   0.143  0.3281 -0.0307  0.9652
  280TMC3    O2 4290   3.752   2.405  17.469 -0.0439  0.1413 -0.6153
  281TMC3    C1 4291   3.570   3.314  13.737  0.2107  0.1482 -0.0834
  281TMC3    C2 4292   3.653   3.407  13.687 -0.1727 -0.0153  0.5010
  281TMC3    C3 4293   3.735   3.374  13.586  0.6359  0.1921  0.1060
  281TMC3    C4 4294   3.564   3.190  13.680 -0.3508  0.3379 -0.5841
  281TMC3    C5 4295   3.641   3.162  13.565 -0.2654  0.2213 -1.1566
  281TMC3    C6 4296   3.731   3.254  13.523 -0.5273  0.6000  0.2429
  281TMC3     C 4297   3.451   3.347  13.821 -0.6787 -0.1039  0.5861
  281TMC3     O 4298   3.387   3.249  13.855  0.1359 -0.3779  0.4642
  281TMC3     H 4299   3.643   3.509  13.721 -0.8984 -0.1246  0.6198
  281TMC3    H1 4300   3.494   3.113  13.708  0.6982  0.4165  2.2097
  281TMC3    H2 4301   3.802   3.234  13.443  0.0609  1.0370  0.6557
  281TMC3    C7 4302   3.632   3.044  13.492 -0.2511  0.4372 -0.8816
  281TMC3    C8 4303   3.809   3.475  13.513  0.7871  0.3294 -0.2509
  281TMC3    O1 4304   3.736   3.011  13.439  0.1020 -0.1620 -0.4070
  281TMC3    O2 4305   3.926   3.453  13.496  0.6735  0.1919  0.3367
  282MPD2     C 4306   0.490   4.254  15.235 -0.3633 -1.1335 -0.5803
  282MPD2    C1 4307   0.399   4.356  15.219  0.8193  0.0063  0.2387
  282MPD2    C2 4308   0.321   4.362  15.098 -0.0876  0.5989 -0.1244
  282MPD2    C3 4309   0.339   4.271  15.001  0.8759 -0.0899 -0.4158
  282MPD2    C4 4310   0.437   4.174  15.014  0.1008  0.0066  0.7322
  282MPD2    C5 4311   0.508   4.167  15.131  0.6288  0.6345  0.1455
  282MPD2     H 4312   0.241   4.434  15.082 -0.2188  0.0984 -1.6755
  282MPD2    H1 4313   0.451   4.097  14.939 -1.1905  0.5236 -0.0578
  282MPD2    H2 4314   0.545   4.236  15.326 -2.5700 -1.1434  0.7554
  282MPD2    H3 4315   0.586   4.094  15.150  1.5846  1.3634 -0.9812
  282MPD2     N 4316   0.251   4.272  14.891 -0.0472  0.6167  0.0819
  282MPD2    H5 4317   0.197   4.358  14.891 -0.7903  0.1542  1.5614
  282MPD2    N1 4318   0.360   4.420  15.336 -0.1819 -0.1393 -0.2907
  282MPD2    H7 4319   0.414   4.399  15.419  0.9215  3.8585  0.0396
  283TMC3    C1 4320   0.238   4.560  15.480 -1.0453  0.4691  0.1343
  283TMC3    C2 4321   0.207   4.684  15.494 -0.4593 -0.3497 -0.1451
  283TMC3    C3 4322   0.177   4.717  15.624 -0.3684  0.0031 -0.6804
  283TMC3    C4 4323   0.237   4.462  15.581 -0.2609  0.1543  0.8989
  283TMC3    C5 4324   0.204   4.495  15.709 -0.0264  0.3905 -1.3311
  283TMC3    C6 4325   0.177   4.627  15.726 -0.6231  0.2737  0.0737
  283TMC3     C 4326   0.268   4.524  15.339  0.3584 -0.8350 -0.2107
  283TMC3     O 4327   0.231   4.590  15.248  0.2035 -0.1063  0.1804
  283TMC3     H 4328   0.213   0.016  15.408  3.4484 -0.6887 -0.1239
  283TMC3    H1 4329   0.245   4.357  15.555 -2.2533  0.1406  0.3583
  283TMC3    H2 4330   0.162   4.652  15.830 -1.4480  2.1649 -0.4963
  283TMC3    C7 4331   0.119   4.403  15.797 -0.5219  0.1096  0.1551
  283TMC3    C8 4332   0.154   0.121  15.670 -0.4216  1.2192  0.0139
  283TMC3    O1 4333   0.038   4.465  15.865  0.5899 -0.1929  0.2012
  283TMC3    O2 4334   0.162   0.142  15.793 -0.3470  0.4185  0.2570
  284MPD2     C 4335   2.944   4.025  11.939  0.2535  0.6811  0.5894
  284MPD2    C1 4336   3.080   4.011  11.952 -0.1496  0.2620 -0.0040
  284MPD2    C2 4337   3.134   3.932  12.048  0.1965 -0.2145  0.6953
  284MPD2    C3 4338   3.057   3.865  12.138 -0.1149  0.7893 -0.4895
  284MPD2    C4 4339   2.916   3.889  12.132  0.4165  0.1208 -0.4776
  284MPD2    C5 4340   2.863   3.964  12.026  1.2270 -0.4774  0.7375
  284MPD2     H 4341   3.243   3.928  12.048  0.1705 -1.3075 -1.1849
  284MPD2    H1 4342   2.850   3.842  12.204  1.1273  1.1677  0.8584
  284MPD2    H2 4343   2.891   4.088  11.868  2.6876  1.9389 -0.1129
  284MPD2    H3 4344   2.757   3.985  12.022  1.2858 -0.1453  0.9514
  284MPD2     N 4345   3.109   3.795  12.248 -0.3828 -0.1200 -0.4859
  284MPD2    H5 4346   3.042   3.743  12.305 -1.0667  1.8447  0.5149
  284MPD2    N1 4347   3.168   4.076  11.864  0.0280  0.1280 -0.4292
  284MPD2    H7 4348   3.266   4.056  11.882 -0.5258 -1.1153  1.2878
  285TMC3    C1 4349   3.246   4.212  11.685 -0.0739 -0.0515  0.3841
  285TMC3    C2 4350   3.347   4.131  11.650  0.3576 -0.1815 -0.4590
  285TMC3    C3 4351   3.458   4.192  11.596 -0.2995  0.3233  0.6191
  285TMC3    C4 4352   3.227   4.339  11.631 -0.0004  0.0343 -0.4256
  285TMC3    C5 4353   3.341   4.393  11.569  0.6776 -0.1926 -0.7026
  285TMC3    C6 4354   3.449   4.318  11.546  0.0844 -0.5378 -0.1741
  285TMC3     C 4355   3.134   4.155  11.760  0.3542 -0.0368 -0.8006
  285TMC3     O 4356   3.018   4.176  11.725  0.1841  0.1652 -0.7233
  285TMC3     H 4357   3.348   4.026  11.678 -2.2956  0.0900  0.6515
  285TMC3    H1 4358   3.143   4.403  11.656 -0.0601 -0.2113 -0.0109
  285TMC3    H2 4359   3.534   4.361  11.494  0.3405 -1.0687 -0.1910
  285TMC3    C7 4360   3.341   4.524  11.505  0.1654 -0.1687  0.1211
  285TMC3    C8 4361   3.560   4.095  11.551  0.4417 -0.4596  0.0589
  285TMC3    O1 4362   3.444   4.558  11.451 -0.2828  0.2163 -0.3901
  285TMC3    O2 4363   3.537   3.974  11.554  0.7215  0.3554 -0.2596
  286MPD2     C 4364   3.090   2.336   1.312 -0.4154 -0.0636 -0.3735
  286MPD2    C1 4365   3.127   2.387   1.192  0.5103  0.2805 -0.7747
  286MPD2    C2 4366   3.246   2.339   1.129 -0.9784  0.1685  0.2784
  286MPD2    C3 4367   3.337   2.255   1.196  0.4517 -0.1250  0.0068
  286MPD2    C4 4368   3.296   2.226   1.327  1.0414  0.2009  0.6790
  286MPD2    C5 4369   3.183   2.264   1.383  0.2256  0.9082 -0.7343
  286MPD2     H 4370   3.260   2.362   1.024 -1.6533  1.2803  0.4433
  286MPD2    H1 4371   3.365   2.172   1.389  1.0510 -0.8122 -0.2209
  286MPD2    H2 4372   3.000   2.348   1.372  1.1062 -0.9717  2.0996
  286MPD2    H3 4373   3.151   2.216   1.474  1.2335  2.3176  0.3552
  286MPD2     N 4374   3.448   2.195   1.141 -0.5488 -0.0580 -0.2476
  286MPD2    H5 4375   3.499   2.128   1.197 -1.0520 -0.2082  0.0376
  286MPD2    N1 4376   3.046   2.472   1.112  0.0795  0.5337 -0.0915
  286MPD2    H7 4377   3.078   2.513   1.025 -0.1913  1.5388  0.2763
  287TMC3    C1 4378   3.626   2.130   0.993 -0.0553  0.0665 -0.4572
  287TMC3    C2 4379   3.651   2.083   0.868  0.7337  0.3402 -0.3656
  287TMC3    C3 4380   3.739   1.979   0.857  0.1203 -0.6392  0.2019
  287TMC3    C4 4381   3.685   2.076   1.105 -0.1679 -0.4793  0.1007
  287TMC3    C5 4382   3.777   1.974   1.086 -1.5753 -1.5205  0.1121
  287TMC3    C6 4383   3.798   1.910   0.966 -0.2960 -0.5062 -0.5187
  287TMC3     C 4384   3.505   2.209   1.009 -0.8533  0.2850 -0.7038
  287TMC3     O 4385   3.458   2.254   0.903  0.2849  0.0267  0.2891
  287TMC3     H 4386   3.596   2.115   0.781 -0.0806  0.9444  0.3682
  287TMC3    H1 4387   3.677   2.133   1.197  2.6701  0.8705 -0.4780
  287TMC3    H2 4388   3.848   1.815   0.951 -0.5505 -0.6950 -0.1648
  287TMC3    C7 4389   3.858   1.932   1.191 -0.2017 -0.5655 -0.2996
  287TMC3    C8 4390   3.710   1.892   0.750  0.1420  0.3143  0.6944
  287TMC3    O1 4391   3.842   1.971   1.304 -0.0903 -1.1857 -0.8715
  287TMC3    O2 4392   3.690   1.775   0.781 -0.5014  0.1320 -0.3148
  288TMC3    C1 4393   1.065   2.399  14.128  0.5739 -0.0345 -0.2214
  288TMC3    C2 4394   0.932   2.412  14.177  0.1314  0.6305 -0.3780
  288TMC3    C3 4395   0.856   2.520  14.135  0.0630  0.2225  0.2073
  288TMC3    C4 4396   1.113   2.491  14.035 -0.3833 -0.4755  0.1280
  288TMC3    C5 4397   1.033   2.599  14.000 -0.8460 -0.4555 -0.6141
  288TMC3    C6 4398   0.902   2.610  14.045  1.0199  0.4284  0.1176
  288TMC3     C 4399   1.151   2.312  14.201 -0.5828  0.2680 -0.3570
  288TMC3     O 4400   1.104   2.254  14.299 -0.2280  0.4291 -0.4157
  288TMC3     H 4401   0.897   2.345  14.254  0.3304  0.7260 -0.2055
  288TMC3    H1 4402   1.217   2.486  14.003 -0.0182 -0.5027  1.3279
  288TMC3    H2 4403   0.833   2.688  14.015  1.2227 -0.4202 -2.5289
  288TMC3    C7 4404   1.117   2.712  13.959  0.5013 -0.4372 -0.8744
  288TMC3    C8 4405   0.746   2.569  14.212  0.7218 -0.1174 -0.6969
  288TMC3    O1 4406   1.232   2.700  13.911  0.1065 -0.1026 -0.0207
  288TMC3    O2 4407   0.702   2.683  14.197  0.1568  0.0515  0.0473
  289MPD2     C 4408   0.501   1.492  14.420 -0.1534  0.2279 -0.6011
  289MPD2    C1 4409   0.546   1.598  14.344  0.0503 -0.0691  0.8647
  289MPD2    C2 4410   0.480   1.615  14.225  0.2428  0.4050 -0.1431
  289MPD2    C3 4411   0.364   1.553  14.189  0.2009  0.1266 -0.7871
  289MPD2    C4 4412   0.316   1.449  14.267 -0.4490  0.8680  0.7913
  289MPD2    C5 4413   0.390   1.418  14.380  0.0817 -0.0399  0.4328
  289MPD2     H 4414   0.508   1.702  14.166  1.0783 -0.5432 -1.1587
  289MPD2    H1 4415   0.232   1.383  14.250  0.1656  0.6208 -1.3464
  289MPD2    H2 4416   0.551   1.467  14.513  0.9238  2.1205 -0.6673
  289MPD2    H3 4417   0.367   1.333  14.444  1.1862  0.7360  1.8600
  289MPD2     N 4418   0.277   1.583  14.081 -0.3070  0.6615  0.2576
  289MPD2    H5 4419   0.196   1.522  14.076  0.1193  0.1584 -0.4572
  289MPD2    N1 4420   0.655   1.678  14.387 -0.4129  0.2281  0.3107
  289MPD2    H7 4421   0.701   1.649  14.474 -0.4794  2.0617  0.9556
  290TMC3    C1 4422   0.167   1.720  13.909  0.5155  1.3617  0.0159
  290TMC3    C2 4423   0.126   1.849  13.890 -0.2575 -0.8016 -0.9167
  290TMC3    C3 4424   0.016   1.861  13.813  0.4879 -0.3638  0.3626
  290TMC3    C4 4425   0.100   1.610  13.867 -0.7162  0.0685 -0.0738
  290TMC3    C5 4426   4.720   1.633  13.790 -0.1939 -0.4730  0.0006
  290TMC3    C6 4427   4.682   1.756  13.761 -0.5777 -0.1704 -0.7264
  290TMC3     C 4428   0.281   1.702  13.999 -0.3642 -0.0058  0.7620
  290TMC3     O 4429   0.353   1.795  14.018 -0.2082  0.6836 -0.1770
  290TMC3     H 4430   0.184   1.931  13.931  1.2512 -1.6905 -1.2818
  290TMC3    H1 4431   0.136   1.508  13.873  0.4105  0.4969  0.5091
  290TMC3    H2 4432   4.602   1.768  13.689 -0.6843  0.4665 -0.4999
  290TMC3    C7 4433   4.646   1.521  13.723  0.7385 -0.6855  0.9095
  290TMC3    C8 4434   4.693   1.989  13.767 -0.0883 -1.3096 -0.1375
  290TMC3    O1 4435   4.578   1.533  13.625 -0.8757  0.0260 -0.0623
  290TMC3    O2 4436   4.615   1.984  13.673 -0.3441 -0.7219  0.1872
  291MPD2     C 4437   4.134   1.555   0.279  0.4059 -0.0317 -0.3090
  291MPD2    C1 4438   4.266   1.522   0.282  0.0846 -0.2260  1.1729
  291MPD2    C2 4439   4.364   1.607   0.326  0.8077 -0.1726 -0.0289
  291MPD2    C3 4440   4.327   1.734   0.368 -0.1140 -0.2442 -0.9436
  291MPD2    C4 4441   4.197   1.767   0.359 -0.0236 -0.2878 -0.1265
  291MPD2    C5 4442   4.107   1.678   0.324 -0.1180  0.1296 -0.0751
  291MPD2     H 4443   4.464   1.565   0.334 -0.0709 -1.7488  2.5403
  291MPD2    H1 4444   4.156   1.865   0.384 -0.8912 -0.7493  0.2524
  291MPD2    H2 4445   4.050   1.490   0.258 -1.6972  2.0585  1.6385
  291MPD2    H3 4446   4.003   1.709   0.320 -0.3353 -0.4710  0.9641
  291MPD2     N 4447   4.415   1.834   0.409  0.8223 -0.4427  0.3855
  291MPD2    H5 4448   4.367   1.918   0.441  4.1073  0.5618  2.6785
  291MPD2    N1 4449   4.306   1.393   0.250 -0.2024  1.1088  0.3014
  291MPD2    H7 4450   4.404   1.367   0.256 -0.2538  0.7057 -0.6022
  292TMC3    C1 4451   4.295   1.164   0.179  0.2525  0.1867  0.0010
  292TMC3    C2 4452   4.390   1.131   0.272 -0.0246  0.2652  0.1363
  292TMC3    C3 4453   4.465   1.024   0.235  0.0867  0.2678  0.5527
  292TMC3    C4 4454   4.253   1.077   0.090  0.4171 -0.3911 -0.5485
  292TMC3    C5 4455   4.323   0.963   0.062  0.4126  0.2003 -0.2534
  292TMC3    C6 4456   4.434   0.937   0.133  0.0621 -0.9041  0.0549
  292TMC3     C 4457   4.225   1.292   0.196  0.4903 -0.6733 -0.2123
  292TMC3     O 4458   4.107   1.295   0.169 -0.1992  0.3551  0.1718
  292TMC3     H 4459   4.420   1.207   0.343 -1.7630  0.3338  0.8013
  292TMC3    H1 4460   4.174   1.110   0.023  0.2391 -1.1923 -0.7324
  292TMC3    H2 4461   4.496   0.852   0.107  2.2762  1.0315 -0.8869
  292TMC3    C7 4462   4.265   0.862  17.715 -0.4111 -0.4030 -0.1081
  292TMC3    C8 4463   4.560   0.977   0.330  0.0967  0.3228  0.0971
  292TMC3    O1 4464   4.342   0.775  17.674 -0.3289 -0.3183  0.3658
  292TMC3    O2 4465   4.654   0.917   0.284  0.1664 -0.0222  0.0415
  293MPD2     C 4466   1.630   3.167  12.510 -0.1790  0.8863 -0.1012
  293MPD2    C1 4467   1.536   3.130  12.602  0.1358  0.1803  0.2976
  293MPD2    C2 4468   1.574   3.092  12.724 -0.2036 -0.7071 -0.6733
  293MPD2    C3 4469   1.709   3.084  12.766 -0.3022  0.5284  0.0924
  293MPD2    C4 4470   1.802   3.117  12.670 -0.5849 -0.0805  0.3492
  293MPD2    C5 4471   1.763   3.164  12.549 -0.0241 -0.0477 -0.8312
  293MPD2     H 4472   1.500   3.082  12.803  0.5593  1.6291  0.3417
  293MPD2    H1 4473   1.908   3.112  12.692 -0.2412  0.1825 -1.2636
  293MPD2    H2 4474   1.601   3.208  12.413  2.4772 -1.5455 -1.9386
  293MPD2    H3 4475   1.846   3.198  12.488  1.4002 -0.3061  0.9227
  293MPD2     N 4476   1.737   3.058  12.903  0.3057 -0.3028  0.0380
  293MPD2    H5 4477   1.662   3.033  12.967 -0.0812 -1.0848 -0.7113
  293MPD2    N1 4478   1.400   3.139  12.564 -0.0672  0.2324  0.0922
  293MPD2    H7 4479   1.378   3.179  12.473  1.4743  0.0201 -0.3703
  294TMC3    C1 4480   1.164   3.108  12.560 -0.6274  0.2460 -0.7152
  294TMC3    C2 4481   1.082   3.008  12.583  0.0364 -0.0949 -0.3994
  294TMC3    C3 4482   1.006   2.977  12.472 -0.4232 -0.4039  0.7290
  294TMC3    C4 4483   1.162   3.189  12.453  0.6252  0.6768  0.3195
  294TMC3    C5 4484   1.082   3.155  12.347 -0.3931  0.1830  0.4258
  294TMC3    C6 4485   1.002   3.044  12.353  0.1761 -0.2113 -0.6329
  294TMC3     C 4486   1.286   3.090  12.632 -0.0115 -0.2432  0.8313
  294TMC3     O 4487   1.292   3.026  12.732  0.0673 -0.0839 -0.2733
  294TMC3     H 4488   1.080   2.941  12.668 -2.3997  0.2637 -0.1803
  294TMC3    H1 4489   1.216   3.284  12.455 -2.7874  2.6348  0.0294
  294TMC3    H2 4490   0.936   3.020  12.270  1.2112  0.1338 -1.5653
  294TMC3    C7 4491   1.063   3.227  12.228 -0.1657  0.1395  0.3199
  294TMC3    C8 4492   0.917   2.860  12.484 -0.2985  0.0666 -0.5221
  294TMC3    O1 4493   0.954   3.222  12.165  0.4205 -0.7764  0.3616
  294TMC3    O2 4494   0.873   2.836  12.597  0.2216  0.3397 -0.1276
  295MPD2     C 4495   2.021   1.150   0.748  0.7252  0.0952 -0.1712
  295MPD2    C1 4496   2.054   1.288   0.733  0.0645 -0.0793 -0.4553
  295MPD2    C2 4497   1.976   1.382   0.796  0.4248  0.6816  0.6378
  295MPD2    C3 4498   1.892   1.340   0.897 -0.7319  0.2148  0.4653
  295MPD2    C4 4499   1.882   1.209   0.932  0.7122  0.1391  0.1674
  295MPD2    C5 4500   1.936   1.115   0.855 -0.2720 -0.2171 -0.3658
  295MPD2     H 4501   1.984   1.486   0.766 -3.7839  0.1171 -2.5219
  295MPD2    H1 4502   1.822   1.179   1.017 -1.1319  0.4540 -1.0409
  295MPD2    H2 4503   2.050   1.068   0.683  0.3396  0.3214 -0.6284
  295MPD2    H3 4504   1.905   1.013   0.879  1.3447 -1.4718 -3.6072
  295MPD2     N 4505   1.828   1.426   0.986  0.1995  0.0660  0.3967
  295MPD2    H5 4506   1.790   1.384   1.070  1.9218 -0.2000  1.0361
  295MPD2    N1 4507   2.146   1.333   0.637 -0.6947  0.1784  0.4489
  295MPD2    H7 4508   2.150   1.434   0.629  0.2271 -0.1022 -2.5021
  296TMC3    C1 4509   1.749   1.624   1.085  0.4457  0.0949 -0.3722
  296TMC3    C2 4510   1.784   1.745   1.135 -0.0868 -0.2868 -0.3680
  296TMC3    C3 4511   1.702   1.796   1.238  1.0987 -0.3920 -0.4135
  296TMC3    C4 4512   1.656   1.543   1.140 -0.1325  0.0997  0.3320
  296TMC3    C5 4513   1.580   1.594   1.240 -0.0726  0.4475  0.0569
  296TMC3    C6 4514   1.599   1.716   1.290 -0.8165  0.3963 -0.3727
  296TMC3     C 4515   1.825   1.568   0.978  0.3593 -0.2053  0.2305
  296TMC3     O 4516   1.873   1.642   0.893  0.4312  0.1442 -0.0269
  296TMC3     H 4517   1.850   1.818   1.088 -2.2827  2.5313  0.8826
  296TMC3    H1 4518   1.622   1.450   1.097  1.8157 -0.5632  0.2450
  296TMC3    H2 4519   1.544   1.745   1.378 -0.6167 -2.1819  0.6247
  296TMC3    C7 4520   1.476   1.504   1.300  0.2404  0.3394 -0.1684
  296TMC3    C8 4521   1.702   1.931   1.277 -0.0366  0.2351 -0.0898
  296TMC3    O1 4522   1.500   1.388   1.299 -0.1824 -0.0422 -0.2444
  296TMC3    O2 4523   1.595   1.974   1.321  0.1499  0.0147 -0.3238
  297MPD2     C 4524   4.198   3.217  16.218 -0.0013  0.3534  0.2672
  297MPD2    C1 4525   4.126   3.336  16.202 -0.7712  0.0164  0.1796
  297MPD2    C2 4526   4.198   3.451  16.235 -0.1009  0.5136 -0.3696
  297MPD2    C3 4527   4.335   3.440  16.270  0.0184 -0.2583  0.2924
  297MPD2    C4 4528   4.392   3.319  16.294 -0.2860 -0.4273  0.0803
  297MPD2    C5 4529   4.328   3.208  16.263 -0.0009  0.3958  0.3826
  297MPD2     H 4530   4.147   3.546  16.233  0.0973  0.6281  0.1105
  297MPD2    H1 4531   4.496   3.299  16.318  0.0337  0.8737 -0.2123
  297MPD2    H2 4532   4.143   3.124  16.207  1.0500 -0.2155 -0.2183
  297MPD2    H3 4533   4.372   3.110  16.279  1.2167  0.5354 -2.1867
  297MPD2     N 4534   4.423   3.547  16.298 -0.3206  0.0988  0.2311
  297MPD2    H5 4535   4.518   3.526  16.329 -0.4890 -0.3768  0.4181
  297MPD2    N1 4536   3.996   3.355  16.155 -0.2805  0.5378  0.2398
  297MPD2    H7 4537   3.952   3.446  16.158  1.1159  1.3190 -2.8269
  298TMC3    C1 4538   3.805   3.307  16.038  0.0373  0.0997  0.5867
  298TMC3    C2 4539   3.754   3.239  15.930  0.3042 -0.1696 -0.2281
  298TMC3    C3 4540   3.637   3.288  15.872  0.6843  0.1340  0.3241
  298TMC3    C4 4541   3.734   3.403  16.099  0.4771 -0.4247  0.5871
  298TMC3    C5 4542   3.607   3.437  16.056  0.3592  0.3694  0.0365
  298TMC3    C6 4543   3.559   3.380  15.937 -0.0700  0.5051  0.5437
  298TMC3     C 4544   3.932   3.255  16.085 -0.4222  0.1085 -0.7782
  298TMC3     O 4545   3.969   3.146  16.045  0.8005  0.2103  0.1185
  298TMC3     H 4546   3.808   3.169  15.866  0.4468 -0.4786  0.2312
  298TMC3    H1 4547   3.770   3.443  16.193 -0.9843  1.8381  0.1765
  298TMC3    H2 4548   3.464   3.407  15.893 -0.3362  0.8011  1.3208
  298TMC3    C7 4549   3.514   3.520  16.127 -0.0521 -0.5700 -0.5497
  298TMC3    C8 4550   3.627   3.275  15.727 -0.1553 -0.5625 -0.8188
  298TMC3    O1 4551   3.530   3.531  16.250  0.1862 -0.5292 -0.0662
  298TMC3    O2 4552   3.674   3.175  15.671  0.0885 -0.0824 -0.2475
  299MPD2     C 4553   4.707   3.402  10.754 -0.6461 -0.7181  0.2704
  299MPD2    C1 4554   4.734   3.530  10.699 -0.1539 -0.7213  0.5127
  299MPD2    C2 4555   4.667   3.572  10.585 -0.5382 -0.2563 -0.1746
  299MPD2    C3 4556   4.570   3.488  10.533 -0.4194  0.3073 -0.0001
  299MPD2    C4 4557   4.549   3.357  10.578  0.2457 -0.0905  0.1690
  299MPD2    C5 4558   4.614   3.318  10.694  0.1799  0.0483 -0.5919
  299MPD2     H 4559   4.694   3.666  10.538  2.1446  0.4533  2.7624
  299MPD2    H1 4560   4.474   3.292  10.534 -0.5764 -1.5551  3.7003
  299MPD2    H2 4561   4.718   3.376  10.859  1.1254 -0.3814  0.1686
  299MPD2    H3 4562   4.596   3.224  10.745 -0.5147  0.9306  0.7881
  299MPD2     N 4563   4.494   3.523  10.421 -0.3779 -0.0022 -0.2511
  299MPD2    H5 4564   4.445   3.441  10.387 -1.8611  0.8401 -0.1276
  299MPD2    N1 4565   0.090   3.610  10.775  0.5495  0.1170  0.1009
  299MPD2    H7 4566   0.134   3.561  10.852 -1.7910  0.4098  1.6111
  300TMC3    C1 4567   4.386   3.660  10.254  0.0808  0.8735  0.4212
  300TMC3    C2 4568   4.352   3.791  10.223 -0.4352 -0.6004 -0.0016
  300TMC3    C3 4569   4.232   3.824  10.167 -0.9251 -0.1013 -0.9443
  300TMC3    C4 4570   4.285   3.562  10.243 -0.1414  0.3739  0.5410
  300TMC3    C5 4571   4.165   3.608  10.185 -0.1984  0.3177 -1.5064
  300TMC3    C6 4572   4.144   3.724  10.132 -0.2655 -0.3302  0.0647
  300TMC3     C 4573   4.484   3.648  10.356  0.4326  0.8348  0.3382
  300TMC3     O 4574   4.524   3.757  10.391  0.1291 -0.2680  0.1537
  300TMC3     H 4575   4.426   3.868  10.243 -1.2617  0.4189 -0.8787
  300TMC3    H1 4576   4.279   3.466  10.294  0.9605  0.1328  0.2223
  300TMC3    H2 4577   4.038   3.734  10.113  0.0007 -0.0429 -1.2858
  300TMC3    C7 4578   4.040   3.549  10.222  0.0247 -0.8587 -0.1248
  300TMC3    C8 4579   4.157   3.912  10.257 -0.4305 -0.0628  0.2217
  300TMC3    O1 4580   3.970   3.487  10.139  0.1893  0.2570 -0.2016
  300TMC3    O2 4581   4.042   3.932  10.218 -0.7338  0.1427  0.0940
  301MPD2     C 4582   1.807   4.348   0.991  0.1927  0.6786  0.4747
  301MPD2    C1 4583   1.684   4.339   0.933 -0.1447  0.1937  0.0173
  301MPD2    C2 4584   1.639   4.213   0.908  0.2507  0.3662 -0.0176
  301MPD2    C3 4585   1.708   4.102   0.959 -0.5420 -0.5783 -0.0838
  301MPD2    C4 4586   1.821   4.128   1.030  0.2720  0.7498 -0.1227
  301MPD2    C5 4587   1.876   4.246   1.053 -0.1651 -0.0604 -0.1065
  301MPD2     H 4588   1.544   4.204   0.856 -0.8996  1.0077  1.9736
  301MPD2    H1 4589   1.871   4.044   1.077 -2.0301 -0.2920  0.4493
  301MPD2    H2 4590   1.856   4.445   1.000  0.2359  0.7023 -0.0572
  301MPD2    H3 4591   1.972   4.258   1.100  0.5657  0.7254 -1.7929
  301MPD2     N 4592   1.665   3.964   0.959 -0.6094  0.6496 -0.3958
  301MPD2    H5 4593   1.725   3.893   0.998 -0.3944  0.4210 -1.1351
  301MPD2    N1 4594   1.612   4.449   0.881 -0.0817  0.5215 -0.7349
  301MPD2    H7 4595   1.534   4.431   0.818  0.1377 -1.4116 -0.4326
  302TMC3    C1 4596   1.488   3.799   0.963 -0.1704 -0.7563 -0.4448
  302TMC3    C2 4597   1.529   3.754   1.086  0.1029 -0.2888 -0.3964
  302TMC3    C3 4598   1.441   3.667   1.158 -0.0567 -0.0447  0.0680
  302TMC3    C4 4599   1.393   3.741   0.890 -0.4768  0.0223  0.4064
  302TMC3    C5 4600   1.322   3.652   0.960 -0.6374 -0.2304  0.4189
  302TMC3    C6 4601   1.334   3.608   1.089 -0.1759 -0.2026  0.1887
  302TMC3     C 4602   1.540   3.921   0.909 -0.1733 -0.6731  0.3059
  302TMC3     O 4603   1.471   3.963   0.819  0.8184  0.2409 -0.5603
  302TMC3     H 4604   1.614   3.797   1.138 -0.5687  0.7034 -0.1163
  302TMC3    H1 4605   1.382   3.761   0.784  0.3938 -0.0875  0.2970
  302TMC3    H2 4606   1.273   3.529   1.130  0.0546 -1.6720 -2.2958
  302TMC3    C7 4607   1.203   3.599   0.892  0.4259 -0.0559 -0.6185
  302TMC3    C8 4608   1.473   3.636   1.293  0.4784  0.5470  0.3282
  302TMC3    O1 4609   1.166   3.487   0.923 -0.1900 -0.6760  0.4820
  302TMC3    O2 4610   1.592   3.651   1.311  0.0986 -0.1851 -0.1064
  303MPD2     C 4611   2.222   2.936  10.661  0.1917  0.0637  0.3711
  303MPD2    C1 4612   2.214   2.819  10.604 -0.3328 -0.3445  0.3565
  303MPD2    C2 4613   2.305   2.787  10.501  0.2654  0.0153  0.3436
  303MPD2    C3 4614   2.406   2.872  10.458  0.6809 -0.1734 -0.2450
  303MPD2    C4 4615   2.405   2.998  10.517 -0.7627 -0.6152 -0.0159
  303MPD2    C5 4616   2.315   3.025  10.616  0.3393  0.1852 -0.1464
  303MPD2     H 4617   2.307   2.697  10.440  0.9868 -0.2057  0.6827
  303MPD2    H1 4618   2.471   3.080  10.492 -0.4806 -1.4954 -2.2147
  303MPD2    H2 4619   2.148   2.965  10.735  1.0388  1.3769  0.7083
  303MPD2    H3 4620   2.325   3.119  10.668  1.7493 -0.1903  0.2641
  303MPD2     N 4621   2.492   2.858  10.343  0.2246 -0.4074 -0.2033
  303MPD2    H5 4622   2.551   2.937  10.319  1.8868 -2.0006 -1.3637
  303MPD2    N1 4623   2.115   2.728  10.644 -0.1077 -0.3851  0.1149
  303MPD2    H7 4624   2.032   2.766  10.688  0.8498  1.3494  0.4346
  304TMC3    C1 4625   2.008   2.525  10.670 -0.0468 -0.3543 -0.1746
  304TMC3    C2 4626   1.886   2.576  10.628  0.2209  0.4876 -0.1471
  304TMC3    C3 4627   1.782   2.490  10.603 -0.0496 -0.2168 -0.6409
  304TMC3    C4 4628   2.021   2.390  10.689 -0.8593 -0.0417  0.6639
  304TMC3    C5 4629   1.914   2.305  10.671 -0.0869  0.4469  0.1489
  304TMC3    C6 4630   1.793   2.355  10.634  0.4624  0.0736  0.9762
  304TMC3     C 4631   2.125   2.590  10.633  1.0311  0.0380  0.3213
  304TMC3     O 4632   2.218   2.519  10.590 -1.0532  0.1032  0.4397
  304TMC3     H 4633   1.883   2.675  10.584  1.1901  0.3517 -0.5165
  304TMC3    H1 4634   2.119   2.348  10.708 -0.7339 -1.2183 -2.6955
  304TMC3    H2 4635   1.708   2.289  10.624 -0.1375  0.7722  1.4948
  304TMC3    C7 4636   1.943   2.160  10.648 -0.8917  0.3427  0.3100
  304TMC3    C8 4637   1.754   2.496  10.468  0.3463 -0.2044 -0.4037
  304TMC3    O1 4638   1.859   2.106  10.574 -0.3591  0.1392 -0.1196
  304TMC3    O2 4639   1.696   2.596  10.419 -0.3415  0.7419 -0.0265
  305MPD2     C 4640   0.169   4.220  14.121  0.0688  0.3397 -0.0324
  305MPD2    C1 4641   0.258   4.326  14.121  0.7548 -0.4636 -0.1292
  305MPD2    C2 4642   0.297   4.388  14.001  0.3653  0.2337 -0.3475
  305MPD2    C3 4643   0.252   4.342  13.877 -0.6100 -0.2565  0.5335
  305MPD2    C4 4644   0.164   4.231  13.885 -0.0005 -0.7030 -0.0452
  305MPD2    C5 4645   0.125   4.175  14.005 -0.4652  0.6453 -0.8435
  305MPD2     H 4646   0.361   4.476  14.008  1.0041 -0.3043  0.5621
  305MPD2    H1 4647   0.129   4.187  13.793 -1.0222 -1.9679  0.9494
  305MPD2    H2 4648   0.128   4.181  14.214  1.7512 -2.8644 -0.6399
  305MPD2    H3 4649   0.060   4.088  14.006 -1.5971  1.5576  2.4817
  305MPD2     N 4650   0.292   4.388  13.752 -0.3042  0.2470  0.2149
  305MPD2    H5 4651   0.258   4.340  13.669  3.3330  1.3918 -1.9322
  305MPD2    N1 4652   0.325   4.371  14.236 -0.4193  0.3128 -0.0493
  305MPD2    H7 4653   0.391   4.445  14.218  0.7395 -0.4886  0.8719
  306TMC3    C1 4654   0.416   4.376  14.456  0.2812  0.4659  0.9308
  306TMC3    C2 4655   0.491   4.287  14.526  0.7194 -0.0104 -0.5889
  306TMC3    C3 4656   0.606   4.332  14.575 -0.1123  0.0460  0.1716
  306TMC3    C4 4657   0.447   4.507  14.435  0.8024  0.6093 -0.4266
  306TMC3    C5 4658   0.553   4.555  14.504  0.6004  0.1759 -0.0914
  306TMC3    C6 4659   0.634   4.466  14.571  0.0160 -0.2196  0.4684
  306TMC3     C 4660   0.334   4.313  14.363  0.4420  0.2240  0.0488
  306TMC3     O 4661   0.273   4.212  14.403  0.7755 -0.2758 -0.3590
  306TMC3     H 4662   0.461   4.187  14.556  0.0141  0.4438  0.1896
  306TMC3    H1 4663   0.377   4.572  14.384  0.0654  1.5791  1.8323
  306TMC3    H2 4664   0.726   4.502  14.614 -0.0492 -0.1650  0.5629
  306TMC3    C7 4665   0.564   4.694  14.537 -0.4616 -0.3916  0.7625
  306TMC3    C8 4666   0.679   4.228  14.648 -0.2678 -0.0352 -0.4819
  306TMC3    O1 4667   0.522   0.034  14.447 -0.0301  0.5180 -0.4121
  306TMC3    O2 4668   0.650   4.109  14.626 -0.2774 -0.2326  0.1829
  307MPD2     C 4669   3.017   2.946   0.313 -0.3125  0.2143  0.6179
  307MPD2    C1 4670   2.953   3.059   0.352  0.2672 -0.7882 -0.1105
  307MPD2    C2 4671   2.849   3.060   0.440 -0.7931  0.1150  0.3041
  307MPD2    C3 4672   2.805   2.933   0.484  0.8014  0.3448  0.0276
  307MPD2    C4 4673   2.850   2.812   0.431  0.2813  0.2643  0.0520
  307MPD2    C5 4674   2.957   2.825   0.349  0.5408 -0.3997 -1.0098
  307MPD2     H 4675   2.812   3.156   0.475 -0.2483  0.2682  0.4542
  307MPD2    H1 4676   2.814   2.715   0.463 -1.9658  1.1009  0.0694
  307MPD2    H2 4677   3.096   2.948   0.239  2.1810 -0.9672  3.2813
  307MPD2    H3 4678   2.999   2.736   0.303 -2.2986 -1.4203 -1.6108
  307MPD2     N 4679   2.706   2.926   0.584  0.1929 -0.0996 -0.0620
  307MPD2    H5 4680   2.672   2.831   0.593  1.5292 -0.2937  3.1091
  307MPD2    N1 4681   3.002   3.181   0.298 -0.6007 -0.3765  0.3986
  307MPD2    H7 4682   2.933   3.256   0.298  1.7763  1.8252  0.6995
  308TMC3    C1 4683   2.355   2.861   0.785 -0.0553  0.0560  0.0953
  308TMC3    C2 4684   2.303   2.950   0.870  0.2429  0.5509  0.3194
  308TMC3    C3 4685   2.371   3.069   0.888 -0.2649 -0.9276  0.4407
  308TMC3    C4 4686   2.476   2.875   0.720  0.4698  0.8871  0.0349
  308TMC3    C5 4687   2.545   2.994   0.741  0.8340 -0.2211 -0.1686
  308TMC3    C6 4688   2.495   3.089   0.831 -0.1604  0.3721  0.4608
  308TMC3     C 4689   2.273   2.746   0.746 -0.0790  0.1021 -0.3964
  308TMC3     O 4690   2.330   2.639   0.727  0.0712  0.4916  0.0486
  308TMC3     H 4691   2.219   2.917   0.930  0.4214 -1.2102 -0.4029
  308TMC3    H1 4692   2.507   2.796   0.653 -0.8333 -0.4281  1.0104
  308TMC3    H2 4693   2.556   3.177   0.852 -2.5220  2.2495 -0.5041
  308TMC3    C7 4694   2.661   3.026   0.663 -0.5422 -0.0673  0.6963
  308TMC3    C8 4695   2.286   3.180   0.939 -0.1346 -0.6294  0.6369
  308TMC3    O1 4696   2.694   3.146   0.667  0.4548 -0.2880 -0.0702
  308TMC3    O2 4697   2.197   3.148   1.013  1.1528 -0.1193 -0.5332
  309MPD2     C 4698   2.055   3.285  17.580  0.2613  0.6964  0.3188
  309MPD2    C1 4699   1.983   3.225  17.482 -0.4659  0.4986  0.0580
  309MPD2    C2 4700   1.848   3.233  17.486  0.3984  0.8002  0.9326
  309MPD2    C3 4701   1.776   3.299  17.589 -0.4562  0.3556  0.5675
  309MPD2    C4 4702   1.853   3.356  17.685 -0.3120 -0.2171  0.4207
  309MPD2    C5 4703   1.993   3.365  17.678  0.0019 -0.1194  0.6461
  309MPD2     H 4704   1.797   3.181  17.405  0.2856  1.2479  0.7187
  309MPD2    H1 4705   1.812   3.407   0.037 -2.6549  1.0088 -1.3730
  309MPD2    H2 4706   2.162   3.275  17.575  0.1297  1.0380 -2.7642
  309MPD2    H3 4707   2.048   3.421   0.017  1.6143 -0.7957 -0.0381
  309MPD2     N 4708   1.633   3.308  17.594  0.5940  0.3322 -0.0130
  309MPD2    H5 4709   1.598   3.358  17.676  0.1930  0.5077 -0.2871
  309MPD2    N1 4710   2.038   3.160  17.370 -0.1820  0.1946 -0.5641
  309MPD2    H7 4711   1.976   3.151  17.290  0.5369 -0.3000 -1.0787
  310TMC3    C1 4712   2.206   3.079  17.212 -0.1389  0.7761  0.1510
  310TMC3    C2 4713   2.130   3.123  17.110 -0.0406 -0.2384  0.1576
  310TMC3    C3 4714   2.166   3.071  16.986  0.5709  0.7769 -0.1964
  310TMC3    C4 4715   2.305   2.982  17.196 -0.4619  0.6027  0.1251
  310TMC3    C5 4716   2.314   2.914  17.078 -0.2555 -0.0336 -0.2751
  310TMC3    C6 4717   2.250   2.967  16.976 -0.2504 -0.2280 -0.3250
  310TMC3     C 4718   2.173   3.120  17.352 -0.5512  0.3367  1.1724
  310TMC3     O 4719   2.262   3.098  17.436  0.3396 -0.0225  0.2384
  310TMC3     H 4720   2.066   3.208  17.129  1.0772  0.6122  0.1719
  310TMC3    H1 4721   2.375   2.963  17.276 -0.6950  0.6730  0.3457
  310TMC3    H2 4722   2.250   2.908  16.885  0.0065  0.4767 -0.7797
  310TMC3    C7 4723   2.304   2.775  17.087  0.2837 -0.4293 -0.5584
  310TMC3    C8 4724   2.078   3.101  16.863  0.6176  0.1860 -0.3876
  310TMC3    O1 4725   2.299   2.721  16.978 -0.0651 -0.1715  0.3766
  310TMC3    O2 4726   2.116   3.076  16.750 -0.1540  0.1173  0.2375
  311MPD2     C 4727   4.379   4.543  12.430  0.1739 -0.1382 -0.2456
  311MPD2    C1 4728   4.425   4.556  12.561  0.1393  0.1677 -0.3476
  311MPD2    C2 4729   4.346   4.538  12.672  0.1047 -0.1848  0.3316
  311MPD2    C3 4730   4.230   4.469  12.661 -0.8239  0.5740  0.5022
  311MPD2    C4 4731   4.181   4.454  12.532 -0.4138 -0.1277 -0.8013
  311MPD2    C5 4732   4.247   4.494  12.423 -0.5290  0.3081  0.1353
  311MPD2     H 4733   4.386   4.565  12.769 -0.1972  0.7627  0.1871
  311MPD2    H1 4734   4.082   4.413  12.516 -1.6572  2.3569  0.5234
  311MPD2    H2 4735   4.441   4.555  12.342 -0.2977  0.7825 -0.4628
  311MPD2    H3 4736   4.209   4.469  12.324  0.1597 -0.5441  0.0919
  311MPD2     N 4737   4.163   4.447  12.783  0.1134 -0.7354  0.5062
  311MPD2    H5 4738   4.208   4.489  12.864  0.2190 -3.4828  1.8456
  311MPD2    N1 4739   4.557   4.594  12.594 -0.3450 -0.4052  0.3529
  311MPD2    H7 4740   4.587   4.591  12.691  0.1159 -3.1932  0.1219
  312TMC3    C1 4741   3.985   4.385  12.925 -0.4651  0.6437  0.0203
  312TMC3    C2 4742   3.864   4.328  12.945 -0.4140  0.0797  0.2110
  312TMC3    C3 4743   3.797   4.335  13.066 -0.2467 -0.0052  0.1871
  312TMC3    C4 4744   4.049   4.444  13.035 -0.2503  0.7203 -0.1151
  312TMC3    C5 4745   3.991   4.441  13.165 -0.7307  0.0517  0.0696
  312TMC3    C6 4746   3.865   4.381  13.179  0.1351  0.0447  0.0416
  312TMC3     C 4747   4.036   4.387  12.790 -0.0858 -0.2874  0.6930
  312TMC3     O 4748   3.977   4.324  12.701 -0.5814 -0.4479 -0.0832
  312TMC3     H 4749   3.804   4.301  12.859  3.2673 -0.6012 -2.1172
  312TMC3    H1 4750   4.143   4.493  13.013  0.3436 -0.5186 -0.3125
  312TMC3    H2 4751   3.812   4.392  13.273  0.9604  1.3922  0.3461
  312TMC3    C7 4752   4.082   4.444  13.272 -0.5924  0.7948 -0.3989
  312TMC3    C8 4753   3.651   4.323  13.053  0.3325 -0.1083 -0.7443
  312TMC3    O1 4754   4.193   4.495  13.243  0.5272 -0.0517  0.2565
  312TMC3    O2 4755   3.606   4.258  12.963  0.3044 -0.0199 -0.3866
  313MPD2     C 4756   3.093   4.246  11.317 -0.0866  0.1257  0.7751
  313MPD2    C1 4757   3.200   4.267  11.232 -0.2080 -0.3228 -0.0784
  313MPD2    C2 4758   3.286   4.164  11.206 -0.3667  0.0313 -0.7671
  313MPD2    C3 4759   3.265   4.043  11.265  0.4323 -0.7361  0.3144
  313MPD2    C4 4760   3.168   4.025  11.358 -0.7582 -0.6399  0.1368
  313MPD2    C5 4761   3.086   4.131  11.385 -0.2021 -0.4575  0.1372
  313MPD2     H 4762   3.369   4.179  11.138  0.4427  0.9884  0.4336
  313MPD2    H1 4763   3.155   3.930  11.408 -1.2247 -0.3083  0.6606
  313MPD2    H2 4764   3.019   4.317  11.354 -1.4290 -0.2377 -1.2081
  313MPD2    H3 4765   3.013   4.117  11.465  0.2241  2.4006  1.0166
  313MPD2     N 4766   3.355   3.940  11.239 -0.4721 -1.0726 -0.4040
  313MPD2    H5 4767   3.338   3.853  11.290 -1.2262 -1.1521 -0.7911
  313MPD2    N1 4768   3.228   4.393  11.169  0.3893 -0.6085  0.2170
  313MPD2    H7 4769   3.318   4.396  11.122  0.9798  0.5240  1.4014
  314TMC3    C1 4770   3.229   4.606  11.093 -0.3037  0.2022 -0.1853
  314TMC3    C2 4771   3.352   4.647  11.139  0.0406 -0.5646 -0.4337
  314TMC3    C3 4772   3.428   4.730  11.072 -0.1675  0.8543  0.3664
  314TMC3    C4 4773   3.178   4.653  10.975  0.4287  0.1023 -0.8386
  314TMC3    C5 4774   3.260   4.734  10.903  0.0899 -0.3342  1.0040
  314TMC3    C6 4775   3.383   0.046  10.950 -0.4718 -0.3144 -0.3917
  314TMC3     C 4776   3.152   4.508  11.161  0.0486  0.3570  0.0110
  314TMC3     O 4777   3.033   4.524  11.188 -0.0217  0.8566 -0.2148
  314TMC3     H 4778   3.386   4.601  11.232 -2.1280  0.3103  0.7843
  314TMC3    H1 4779   3.082   4.630  10.931  0.6522 -0.9724 -0.7529
  314TMC3    H2 4780   3.455   0.085  10.879 -0.5293  1.1817  0.3836
  314TMC3    C7 4781   3.251   4.714  10.764  0.1793  0.3709 -0.0111
  314TMC3    C8 4782   3.570   0.005  11.100  0.0233 -0.3364 -0.3331
  314TMC3    O1 4783   3.144   4.729  10.712 -0.1589 -0.0704  0.6903
  314TMC3    O2 4784   3.635   0.084  11.032  0.0307 -0.4077  0.0781
  315MPD2     C 4785   3.035   2.660  17.023 -0.0947  0.6207  0.4931
  315MPD2    C1 4786   3.071   2.652  17.152  0.5762 -0.3015  0.7387
  315MPD2    C2 4787   3.129   2.760  17.214  0.1230 -0.4055  0.0108
  315MPD2    C3 4788   3.149   2.881  17.149  0.0152  0.6087 -0.8166
  315MPD2    C4 4789   3.097   2.889  17.022  0.4534 -0.2890 -0.6183
  315MPD2    C5 4790   3.039   2.784  16.961  0.8024  0.3131  0.0830
  315MPD2     H 4791   3.163   2.741  17.316  0.2750 -0.3285 -0.0251
  315MPD2    H1 4792   3.101   2.982  16.967 -0.8573 -1.5445 -2.8027
  315MPD2    H2 4793   3.009   2.574  16.963  2.0238  2.7171 -3.4169
  315MPD2    H3 4794   3.000   2.796  16.861  1.2614  2.4285  0.1589
  315MPD2     N 4795   3.192   2.987  17.234  0.7079 -0.1549 -0.2969
  315MPD2    H5 4796   3.208   2.965  17.332  1.8851  0.3767 -0.3659
  315MPD2    N1 4797   3.079   2.533  17.225  0.2274 -0.0051 -0.0616
  315MPD2    H7 4798   3.116   2.544  17.319 -1.0584  1.9170  0.2173
  316TMC3    C1 4799   3.193   3.206  17.311  1.1057  0.2651 -0.2271
  316TMC3    C2 4800   3.276   3.172  17.418  0.6209  0.0214 -0.0253
  316TMC3    C3 4801   3.289   3.249  17.528 -0.5155 -1.0126  0.6654
  316TMC3    C4 4802   3.117   3.314  17.316 -0.1825  0.0619 -0.0971
  316TMC3    C5 4803   3.137   3.395  17.425  0.5636 -0.7148  0.3348
  316TMC3    C6 4804   3.213   3.362  17.535 -0.1966  0.0931 -0.6572
  316TMC3     C 4805   3.185   3.121  17.198 -0.2014  0.2493  0.6339
  316TMC3     O 4806   3.168   3.182  17.092 -0.3735  0.6484  0.4232
  316TMC3     H 4807   3.355   3.099  17.400 -0.3534 -0.1833 -3.4766
  316TMC3    H1 4808   3.055   3.342  17.231 -0.7388 -1.2226 -0.1231
  316TMC3    H2 4809   3.228   3.432  17.616 -2.3645  0.2013 -0.3376
  316TMC3    C7 4810   3.077   3.532  17.425 -1.3083  0.2465 -0.2424
  316TMC3    C8 4811   3.398   3.232  17.617  0.1750  0.6382  1.1963
  316TMC3    O1 4812   3.055   3.593  17.528  0.1985 -0.5092 -0.2735
  316TMC3    O2 4813   3.414   3.323  17.698 -0.1453  0.5424  0.1220
  317MPD2     C 4814   0.515   1.850  13.130  0.1403  1.2027 -0.0803
  317MPD2    C1 4815   0.657   1.831  13.129 -0.3053 -0.3337  0.7560
  317MPD2    C2 4816   0.707   1.771  13.248 -0.3661  0.6788 -0.4824
  317MPD2    C3 4817   0.635   1.743  13.363  0.3933 -0.0452  0.1684
  317MPD2    C4 4818   0.505   1.786  13.368  0.1944  0.0031 -0.5369
  317MPD2    C5 4819   0.447   1.830  13.254  0.8417  0.4305  0.4074
  317MPD2     H 4820   0.811   1.741  13.241  0.1104  1.8697  1.5388
  317MPD2    H1 4821   0.438   1.765  13.451 -1.6434 -1.2511 -2.3345
  317MPD2    H2 4822   0.470   1.906  13.049 -2.6725 -1.3601 -0.2916
  317MPD2    H3 4823   0.344   1.863  13.264 -0.2909 -2.3490 -2.0965
  317MPD2     N 4824   0.688   1.654  13.463  0.2257 -0.0606 -0.8398
  317MPD2    H5 4825   0.626   1.630  13.540  1.1394  0.3400  0.0174
  317MPD2    N1 4826   0.741   1.850  13.017 -0.4934 -0.1540  0.7696
  317MPD2    H7 4827   0.833   1.814  13.038 -0.5472 -0.4614  0.4739
  318TMC3    C1 4828   0.832   1.518  13.579  0.1604  0.2864  1.1361
  318TMC3    C2 4829   0.744   1.417  13.596 -0.5935 -0.0659 -0.1044
  318TMC3    C3 4830   0.785   1.293  13.642 -0.0558 -0.0886  0.0364
  318TMC3    C4 4831   0.963   1.490  13.606 -0.0377 -0.2952 -0.0113
  318TMC3    C5 4832   0.995   1.371  13.671 -0.1215 -0.5657 -0.3064
  318TMC3    C6 4833   0.913   1.267  13.682  0.1203 -0.2259 -0.4112
  318TMC3     C 4834   0.821   1.611  13.469  0.0045 -0.1070 -0.6911
  318TMC3     O 4835   0.920   1.655  13.414  0.0640  0.0398  0.1563
  318TMC3     H 4836   0.644   1.431  13.556 -0.1084 -1.3650 -1.7744
  318TMC3    H1 4837   1.031   1.574  13.601 -0.7338  0.1201 -2.5461
  318TMC3    H2 4838   0.939   1.166  13.711  1.5443  0.0915 -0.5847
  318TMC3    C7 4839   1.134   1.339  13.648  0.4846  0.0304 -0.4773
  318TMC3    C8 4840   0.686   1.181  13.633 -0.0676  0.0055 -0.1075
  318TMC3    O1 4841   1.175   1.400  13.551 -0.4502  0.0330  0.4195
  318TMC3    O2 4842   0.644   1.116  13.731 -0.2772 -0.5625  0.2170
  319MPD2     C 4843   1.585   2.522  16.721  0.1086  0.1327 -0.1284
  319MPD2    C1 4844   1.470   2.496  16.783 -0.0991  0.2894  0.1500
  319MPD2    C2 4845   1.363   2.450  16.714  0.4417  0.7581  0.0021
  319MPD2    C3 4846   1.366   2.427  16.579  0.3492  0.2432  0.4732
  319MPD2    C4 4847   1.487   2.435  16.517 -0.1540 -0.2479 -0.4227
  319MPD2    C5 4848   1.594   2.486  16.587 -0.3253 -0.0570 -0.3417
  319MPD2     H 4849   1.269   2.444  16.769 -0.9665  1.5236 -2.3003
  319MPD2    H1 4850   1.497   2.432  16.409 -0.5401 -0.3851 -0.4544
  319MPD2    H2 4851   1.670   2.570  16.768  0.1122 -0.4295  0.4428
  319MPD2    H3 4852   1.681   2.502  16.524 -1.7343 -1.8418 -2.7197
  319MPD2     N 4853   1.260   2.375  16.505  0.8194 -0.2575  0.2063
  319MPD2    H5 4854   1.266   2.363  16.405 -0.2359  1.0457 -0.0120
  319MPD2    N1 4855   1.448   2.517  16.922 -0.3171 -0.1867  0.0753
  319MPD2    H7 4856   1.355   2.499  16.960 -2.2718 -0.2118 -4.6770
  320TMC3    C1 4857   1.041   2.301  16.459  0.2607  0.2451  0.6991
  320TMC3    C2 4858   1.008   2.409  16.375 -0.9084 -0.1635  0.1833
  320TMC3    C3 4859   0.907   2.384  16.278 -0.0128  0.3757 -0.0411
  320TMC3    C4 4860   0.981   2.181  16.457 -0.1168  0.0719 -0.5800
  320TMC3    C5 4861   0.884   2.160  16.360 -1.2500  0.3703  0.5279
  320TMC3    C6 4862   0.849   2.262  16.269  0.1288 -0.2172 -0.1846
  320TMC3     C 4863   1.140   2.326  16.561  0.2269 -0.5308  0.3425
  320TMC3     O 4864   1.132   2.282  16.672 -0.2283  0.2662 -0.2531
  320TMC3     H 4865   1.064   2.502  16.384 -0.6367 -0.4457  1.3901
  320TMC3    H1 4866   1.022   2.104  16.522 -1.8297 -0.1399  0.2421
  320TMC3    H2 4867   0.757   2.244  16.215  0.0624  1.8489 -0.7394
  320TMC3    C7 4868   0.814   2.032  16.344 -0.9258  0.1735  0.5417
  320TMC3    C8 4869   0.895   2.492  16.176  0.4695 -0.0114  0.5018
  320TMC3    O1 4870   0.794   2.002  16.227  0.0691  0.0446  0.2443
  320TMC3    O2 4871   0.927   2.607  16.211  0.0538  0.4340 -0.6382
  321TMC3    C1 4872   1.482   2.548  17.150 -0.8765  0.3831 -0.3076
  321TMC3    C2 4873   1.402   2.432  17.167  0.9691 -1.1502 -0.1464
  321TMC3    C3 4874   1.348   2.420  17.292 -0.4386 -0.0511  0.4273
  321TMC3    C4 4875   1.512   2.644  17.245 -0.3536 -0.1010 -0.1048
  321TMC3    C5 4876   1.433   2.633  17.356  0.0181 -0.2475  0.0520
  321TMC3    C6 4877   1.349   2.527  17.380 -0.2748  0.1877 -0.2476
  321TMC3     C 4878   1.542   2.551  17.019 -0.0449 -0.3940 -0.5232
  321TMC3     O 4879   1.650   2.609  17.007 -0.5935  0.6372 -0.5427
  321TMC3     H 4880   1.400   2.356  17.090 -1.2028 -0.3169 -0.8832
  321TMC3    H1 4881   1.582   2.725  17.222  0.0174 -0.0888  1.0603
  321TMC3    H2 4882   1.278   2.520  17.462  1.1010  1.5849  1.0487
  321TMC3    C7 4883   1.511   2.645  17.473  0.3873 -0.7219  0.2067
  321TMC3    C8 4884   1.345   2.294  17.361 -0.6299  0.0789 -0.3001
  321TMC3    O1 4885   1.499   2.549  17.544 -0.4436 -0.0088  0.3356
  321TMC3    O2 4886   1.322   2.193  17.296  0.4053  0.2368  0.3109
  322MPD2     C 4887   0.055   3.583  13.878 -0.1403  0.0197 -0.6675
  322MPD2    C1 4888   0.188   3.623  13.893 -0.3198 -0.8408  0.2786
  322MPD2    C2 4889   0.273   3.598  13.785 -0.1367 -0.6593 -0.2775
  322MPD2    C3 4890   0.230   3.528  13.676  0.0419  0.3359  0.3465
  322MPD2    C4 4891   0.105   3.478  13.670  0.3170 -0.3246  0.4983
  322MPD2    C5 4892   0.017   3.504  13.772  0.0284 -0.5437 -0.4387
  322MPD2     H 4893   0.376   3.631  13.793 -0.4506  0.3204 -0.1518
  322MPD2    H1 4894   0.068   3.417  13.588  0.7063  1.0808 -0.7334
  322MPD2    H2 4895   4.721   3.621  13.954  0.6007 -1.0354  0.5215
  322MPD2    H3 4896   4.650   3.463  13.773  0.2802 -1.2066 -2.0629
  322MPD2     N 4897   0.312   3.487  13.570 -0.0457 -0.2527  0.1058
  322MPD2    H5 4898   0.272   3.430  13.496  0.6604 -0.0392 -0.4391
  322MPD2    N1 4899   0.233   3.695  14.004  0.1357 -0.1363  0.6064
  322MPD2    H7 4900   0.334   3.705  13.995  0.2089 -1.9015 -0.4133
  323TMC3    C1 4901   0.246   3.805  14.214 -0.5283  0.4089  0.3981
  323TMC3    C2 4902   0.332   3.899  14.173 -0.7420 -0.3347 -1.0916
  323TMC3    C3 4903   0.413   3.968  14.261  0.4614  0.0572 -0.2845
  323TMC3    C4 4904   0.238   3.768  14.346  0.6631  0.2922 -0.1892
  323TMC3    C5 4905   0.332   3.821  14.425 -0.4034 -0.3270 -0.4301
  323TMC3    C6 4906   0.423   3.919  14.393  0.4629  0.2299 -0.8035
  323TMC3     C 4907   0.168   3.730  14.124 -0.3827 -0.4933  0.2385
  323TMC3     O 4908   0.052   3.707  14.163  0.3311  0.5208  0.8692
  323TMC3     H 4909   0.348   3.919  14.067  1.0207  0.3704 -0.6988
  323TMC3    H1 4910   0.173   3.687  14.379  0.3761  0.8712  0.6699
  323TMC3    H2 4911   0.507   3.945  14.457 -1.1750  1.2754  0.9102
  323TMC3    C7 4912   0.358   3.744  14.542  0.7002 -0.3666  0.3483
  323TMC3    C8 4913   0.541   4.023  14.214  0.1537 -0.1824  0.0919
  323TMC3    O1 4914   0.330   3.624  14.540  0.6382  0.5240 -0.2102
  323TMC3    O2 4915   0.636   3.988  14.280  0.4245  0.0885 -0.8609
  324MPD2     C 4916   1.847   0.264  14.604 -0.7437 -0.5967  0.3397
  324MPD2    C1 4917   1.880   0.391  14.552 -0.1760 -0.1828 -0.1448
  324MPD2    C2 4918   1.785   0.495  14.548  0.8334 -0.0705  0.5756
  324MPD2    C3 4919   1.653   0.456  14.581 -0.1611  0.0403 -0.2174
  324MPD2    C4 4920   1.620   0.331  14.622 -0.3540  0.7755 -0.9848
  324MPD2    C5 4921   1.716   0.233  14.635  0.1819 -0.2851 -0.1564
  324MPD2     H 4922   1.815   0.593  14.511 -4.2064  1.0145 -0.5780
  324MPD2    H1 4923   1.518   0.314  14.654 -0.0616 -3.1939 -2.0796
  324MPD2    H2 4924   1.917   0.183  14.622  1.3362  1.2613  0.6252
  324MPD2    H3 4925   1.693   0.134  14.674  1.3334  0.0954  1.4644
  324MPD2     N 4926   1.539   0.534  14.543 -0.2348  0.6930 -0.6058
  324MPD2    H5 4927   1.449   0.488  14.556 -1.7184  3.2004 -2.1026
  324MPD2    N1 4928   2.009   0.420  14.500  0.7432  0.5157  0.3520
  324MPD2    H7 4929   2.025   0.502  14.441  0.6563  0.5990  0.4453
  325TMC3    C1 4930   1.421   0.699  14.429 -0.4715 -0.2591 -0.5171
  325TMC3    C2 4931   1.318   0.614  14.407 -0.2544 -0.5831  0.0129
  325TMC3    C3 4932   1.237   0.639  14.297 -0.4712  0.5766  0.3794
  325TMC3    C4 4933   1.429   0.815  14.357 -0.0555  0.4062 -0.0508
  325TMC3    C5 4934   1.353   0.836  14.247 -0.0082  0.1951 -0.1632
  325TMC3    C6 4935   1.260   0.744  14.208 -1.0139 -0.6680  0.5769
  325TMC3     C 4936   1.543   0.661  14.487 -0.4309 -0.0584  0.6829
  325TMC3     O 4937   1.638   0.736  14.475 -0.9498  0.4309  0.1317
  325TMC3     H 4938   1.312   0.524  14.468 -0.9663 -1.1478 -0.8919
  325TMC3    H1 4939   1.497   0.893  14.388 -0.5220  0.7973  0.0060
  325TMC3    H2 4940   1.187   0.769  14.132  1.3737  7.7048  1.0995
  325TMC3    C7 4941   1.290   0.968  14.247  0.7140  0.5334 -0.3210
  325TMC3    C8 4942   1.147   0.540  14.241 -1.0552  0.6684 -0.2054
  325TMC3    O1 4943   1.234   1.007  14.144 -0.0794 -0.7293 -0.4270
  325TMC3    O2 4944   1.141   0.520  14.121 -0.3748 -0.0585 -0.5516
  326MPD2     C 4945   2.990   1.987  11.011 -0.6456 -0.0502  0.7665
  326MPD2    C1 4946   3.076   1.891  10.964 -0.4626  0.1987 -0.0889
  326MPD2    C2 4947   3.203   1.921  10.911 -0.5510  0.2306 -0.8667
  326MPD2    C3 4948   3.255   2.051  10.926  1.4712  0.3289  0.9709
  326MPD2    C4 4949   3.170   2.142  10.988 -0.9028 -0.1332 -0.6103
  326MPD2    C5 4950   3.039   2.111  11.020 -0.6565 -0.5593 -0.0660
  326MPD2     H 4951   3.266   1.839  10.879  0.5308  0.4819  0.6494
  326MPD2    H1 4952   3.214   2.237  11.015 -0.9371 -0.1670 -0.4325
  326MPD2    H2 4953   2.886   1.979  11.039 -0.5574 -0.0320  1.0991
  326MPD2    H3 4954   2.963   2.175  11.065 -0.4691 -0.1918 -0.2781
  326MPD2     N 4955   3.384   2.082  10.904 -0.0316  0.6959  0.2029
  326MPD2    H5 4956   3.421   2.170  10.940  0.0371  0.3482  0.9761
  326MPD2    N1 4957   3.034   1.760  10.949 -0.1723 -0.2487  0.0131
  326MPD2    H7 4958   3.092   1.684  10.915 -2.4221 -2.1081  0.3264
  327TMC3    C1 4959   2.876   1.601  10.922 -0.6440  0.6334  0.0054
  327TMC3    C2 4960   2.778   1.570  10.835  0.1230  0.4435 -0.9249
  327TMC3    C3 4961   2.771   1.438  10.790 -0.1486  0.0373  0.2024
  327TMC3    C4 4962   2.965   1.508  10.968 -0.0178  0.5886 -0.0432
  327TMC3    C5 4963   2.953   1.379  10.923 -0.4475 -0.1752  0.5791
  327TMC3    C6 4964   2.852   1.340  10.842  0.0696 -0.3690  0.0891
  327TMC3     C 4965   2.901   1.734  10.948 -0.7786 -0.6346 -0.0077
  327TMC3     O 4966   2.800   1.803  10.941 -0.0652 -0.2396  0.5437
  327TMC3     H 4967   2.693   1.633  10.810  0.0204  0.6714 -0.0274
  327TMC3    H1 4968   3.033   1.536  11.047 -0.1569 -2.4788  1.1287
  327TMC3    H2 4969   2.853   1.236  10.809 -0.9509 -0.6107  0.8372
  327TMC3    C7 4970   3.030   1.277  10.991 -0.2660 -0.0437  0.4796
  327TMC3    C8 4971   2.714   1.425  10.657 -0.5794  0.2482  0.1459
  327TMC3    O1 4972   2.967   1.174  11.012  0.2531  0.6203  0.2669
  327TMC3    O2 4973   2.673   1.312  10.637 -0.6756 -0.0992  0.2051
  328MPD2     C 4974   1.221   1.754  17.453  0.3016  0.5107  0.3640
  328MPD2    C1 4975   1.101   1.683  17.469 -0.1129  0.0301  0.1580
  328MPD2    C2 4976   1.023   1.667  17.353 -0.3791 -0.4604  0.0766
  328MPD2    C3 4977   1.056   1.723  17.230  0.0472  0.9093  0.6678
  328MPD2    C4 4978   1.175   1.787  17.217  0.3640  0.3388  0.3394
  328MPD2    C5 4979   1.258   1.801  17.328 -0.8255  0.4794 -0.1380
  328MPD2     H 4980   0.926   1.621  17.367 -0.6468  0.2001  0.3929
  328MPD2    H1 4981   1.217   1.822  17.123 -0.6474  0.2777 -0.1344
  328MPD2    H2 4982   1.276   1.777  17.544  0.8847 -2.4093  0.7423
  328MPD2    H3 4983   1.342   1.864  17.304 -0.5601 -0.5817 -2.0230
  328MPD2     N 4984   0.974   1.706  17.117  0.2165 -0.5030  0.2618
  328MPD2    H5 4985   1.006   1.760  17.038  2.3218 -0.7080  0.9679
  328MPD2    N1 4986   1.056   1.635  17.589  0.0545 -0.0473 -0.1396
  328MPD2    H7 4987   1.102   1.667  17.673 -0.4925 -0.3083  0.2612
  329TMC3    C1 4988   0.911   1.518   0.005  0.1118 -0.1337  0.6131
  329TMC3    C2 4989   0.910   1.625   0.083  0.4991  0.4155 -0.8813
  329TMC3    C3 4990   0.812   1.627   0.185 -0.0932  0.6636  0.1622
  329TMC3    C4 4991   0.817   1.418   0.023 -0.8055  0.4044 -0.4995
  329TMC3    C5 4992   0.729   1.425   0.128  0.1339  0.2459  0.0232
  329TMC3    C6 4993   0.731   1.528   0.218  0.4772 -0.7365  0.2276
  329TMC3     C 4994   0.958   1.533  17.604 -0.6746 -0.2499 -0.3605
  329TMC3     O 4995   0.903   1.462  17.520  0.2491  0.2458  0.5681
  329TMC3     H 4996   0.975   1.709   0.063  0.3023  1.5223  3.0297
  329TMC3    H1 4997   0.806   1.333  17.692  0.5450  0.1155 -0.3512
  329TMC3    H2 4998   0.658   1.537   0.298 -1.2270  0.9654 -1.5264
  329TMC3    C7 4999   0.603   1.356   0.114  0.0456 -0.0458  0.1239
  329TMC3    C8 5000   0.785   1.755   0.230  0.1449  0.8440 -0.0263
  329TMC3    O1 5001   0.555   1.322   0.006 -0.5659  0.1014  0.2081
  329TMC3    O2 5002   0.835   1.845   0.162 -0.6788 -0.0039 -0.4189
  330TMC3    C1 5003   4.545   1.270  10.235  0.4950 -0.6351  1.0256
  330TMC3    C2 5004   4.559   1.171  10.140  0.0799  0.3476 -0.2133
  330TMC3    C3 5005   4.498   1.050  10.157  0.3526  0.5510 -0.0429
  330TMC3    C4 5006   4.479   1.250  10.353  0.1574  0.3649 -0.7268
  330TMC3    C5 5007   4.421   1.125  10.365  0.1079  0.1209 -0.0338
  330TMC3    C6 5008   4.420   1.026  10.269  0.2370 -0.5486  0.0350
  330TMC3     C 5009   4.573   1.401  10.191  0.3627 -0.3618  0.3530
  330TMC3     O 5010   4.573   1.488  10.275  0.8823 -0.2999  0.2911
  330TMC3     H 5011   4.623   1.192  10.054  2.6658 -0.6122  1.4620
  330TMC3    H1 5012   4.465   1.333  10.420 -2.5022 -0.8945  0.2785
  330TMC3    H2 5013   4.373   0.931  10.289 -0.1294 -0.4814 -0.5358
  330TMC3    C7 5014   4.371   1.086  10.498  0.0583  0.1204 -0.2926
  330TMC3    C8 5015   4.495   0.948  10.048  0.8668  0.1445  0.1067
  330TMC3    O1 5016   4.327   0.971  10.508  0.5891 -0.0735  0.0008
  330TMC3    O2 5017   4.559   0.979   9.949  0.5734 -0.0197  0.3549
  331MPD2     C 5018   1.365   4.386  12.997 -0.3214 -0.1299 -0.1366
  331MPD2    C1 5019   1.442   4.440  12.900 -0.0390  0.3052 -1.0117
  331MPD2    C2 5020   1.499   4.360  12.800 -0.3999 -0.8157  0.0856
  331MPD2    C3 5021   1.493   4.221  12.813 -0.2809 -0.6856 -0.0444
  331MPD2    C4 5022   1.412   4.170  12.910  0.0469  0.1423  0.1231
  331MPD2    C5 5023   1.339   4.251  12.996 -0.1879  0.1077  0.1764
  331MPD2     H 5024   1.566   4.403  12.727  1.0487 -1.6357  0.9095
  331MPD2    H1 5025   1.406   4.062  12.915 -3.6032  0.3133 -1.0628
  331MPD2    H2 5026   1.326   4.456  13.070  0.1222  0.6917 -0.6881
  331MPD2    H3 5027   1.269   4.210  13.067  0.9036 -0.2326  1.0714
  331MPD2     N 5028   1.570   4.133  12.737 -0.6556 -0.9264  0.5956
  331MPD2    H5 5029   1.581   4.038  12.771  1.3810 -0.8728  0.0625
  331MPD2    N1 5030   1.464   4.584  12.913 -0.3253 -1.1202  0.2276
  331MPD2    H7 5031   1.411   4.637  12.982  0.8036 -1.1530  1.1015
  332TMC3    C1 5032   1.720   4.069  12.574 -0.0020  0.0010 -0.1944
  332TMC3    C2 5033   1.779   4.087  12.448  0.2989  0.2518 -0.3694
  332TMC3    C3 5034   1.909   4.062  12.430 -0.1313  0.5334  0.3952
  332TMC3    C4 5035   1.791   4.001  12.670 -0.1898 -0.0507  0.2605
  332TMC3    C5 5036   1.926   3.974  12.642 -0.3875  0.4353  0.7067
  332TMC3    C6 5037   1.986   3.995  12.524 -0.1905  0.1107 -0.1585
  332TMC3     C 5038   1.628   4.168  12.623 -0.8186  0.5482 -0.0227
  332TMC3     O 5039   1.600   4.261  12.545  0.1337 -0.3939 -0.4578
  332TMC3     H 5040   1.711   4.135  12.379 -0.9150  0.6894  1.1209
  332TMC3    H1 5041   1.750   3.987  12.769 -2.3761  2.0377 -0.3330
  332TMC3    H2 5042   2.083   3.954  12.497 -0.8422  0.1185 -2.5051
  332TMC3    C7 5043   2.004   3.895  12.737  0.0154  0.5795 -0.0361
  332TMC3    C8 5044   1.982   4.146  12.337  0.3710  0.4335  0.5740
  332TMC3    O1 5045   1.941   3.833  12.824  0.1796  0.1221  0.7391
  332TMC3    O2 5046   2.104   4.151  12.355  1.3194 -0.0059 -0.0551
  333MPD2     C 5047   2.072   0.064  11.514  0.3531  0.8839  0.3670
  333MPD2    C1 5048   2.066   0.005  11.389  0.1795 -0.4546  0.3196
  333MPD2    C2 5049   1.993   4.616  11.374 -0.1905  0.2783 -0.1991
  333MPD2    C3 5050   1.918   4.563  11.477 -0.3586  0.3697  0.2686
  333MPD2    C4 5051   1.918   4.628  11.593  0.4606 -0.1939  0.1113
  333MPD2    C5 5052   2.002   0.010  11.616 -0.2514  0.5241 -0.1804
  333MPD2     H 5053   2.002   4.563  11.280 -0.6710 -0.3116  0.0875
  333MPD2    H1 5054   1.872   4.588  11.682  0.7249 -1.4927 -0.3247
  333MPD2    H2 5055   2.138   0.149  11.528  1.1668  0.4792 -0.9848
  333MPD2    H3 5056   1.998   0.034  11.721 -1.8208  1.0110 -0.3450
  333MPD2     N 5057   1.865   4.430  11.457 -0.4731 -0.4662  0.2552
  333MPD2    H5 5058   1.886   4.381  11.371  1.3753  0.4209  0.2104
  333MPD2    N1 5059   2.132   0.078  11.290  0.0315 -0.5255  0.0779
  333MPD2    H7 5060   2.186   0.158  11.321 -1.6391  1.0362 -1.0518
  334TMC3    C1 5061   2.216   0.132  11.086  0.0168 -0.0050  0.9549
  334TMC3    C2 5062   2.344   0.140  11.133  0.6352 -0.1121  0.7851
  334TMC3    C3 5063   2.420   0.250  11.109  0.4968 -0.7218 -0.4087
  334TMC3    C4 5064   2.167   0.237  11.013  0.2749  0.3845 -0.3688
  334TMC3    C5 5065   2.245   0.352  10.991 -0.1879  0.1054 -0.4258
  334TMC3    C6 5066   2.372   0.354  11.034  0.6853 -0.1466  0.6323
  334TMC3     C 5067   2.127   0.046  11.157  0.2498  0.4341 -0.0522
  334TMC3     O 5068   2.062   4.697  11.099  0.1314 -0.8272 -0.4893
  334TMC3     H 5069   2.374   0.059  11.199 -0.4303  2.0592  3.9099
  334TMC3    H1 5070   2.064   0.230  10.980 -0.4200  2.5075  1.3648
  334TMC3    H2 5071   2.426   0.448  11.030  0.8224 -0.2523 -0.0149
  334TMC3    C7 5072   2.189   0.484  10.953 -0.0400  0.0559 -0.2033
  334TMC3    C8 5073   2.553   0.253  11.159  0.1502 -0.7113  0.9166
  334TMC3    O1 5074   2.252   0.586  10.981  0.7444 -0.2382 -0.3068
  334TMC3    O2 5075   2.580   0.153  11.228  0.4089  0.3739 -0.7840
  335TMC3    C1 5076   1.362   0.978  17.610 -0.2237  0.9120 -0.2580
  335TMC3    C2 5077   1.302   0.954  17.488 -0.4127  1.1434  0.6254
  335TMC3    C3 5078   1.363   0.986  17.368 -0.3046  1.2597  0.5007
  335TMC3    C4 5079   1.483   1.043  17.618  0.2041  0.2389 -0.0257
  335TMC3    C5 5080   1.534   1.081  17.502 -0.1938 -0.4592 -0.5303
  335TMC3    C6 5081   1.482   1.058  17.376 -0.0347  0.0093  0.4415
  335TMC3     C 5082   1.301   0.911  17.728  0.9221  0.0199 -0.0625
  335TMC3     O 5083   1.200   0.839  17.711 -0.0759 -0.3987  0.3875
  335TMC3     H 5084   1.209   0.897  17.484  0.5462 -0.4368  0.8725
  335TMC3    H1 5085   1.535   1.043  17.712  0.9696  0.5031 -0.4542
  335TMC3    H2 5086   1.535   1.095  17.289  2.6870 -0.4902  1.8834
  335TMC3    C7 5087   1.667   1.144  17.489 -0.6832 -0.6705  1.3183
  335TMC3    C8 5088   1.299   0.988  17.240  0.0970  0.6893 -0.7747
  335TMC3    O1 5089   1.726   1.128  17.384  0.1595  0.5473 -0.4002
  335TMC3    O2 5090   1.365   1.031  17.150  0.0387 -0.1656 -0.0597
  336MPD2     C 5091   1.200   3.671  16.657  0.7117 -0.4747 -0.3422
  336MPD2    C1 5092   1.241   3.610  16.543 -0.1121  0.1648 -0.5971
  336MPD2    C2 5093   1.278   3.476  16.547  0.1053 -0.4265 -0.3230
  336MPD2    C3 5094   1.270   3.403  16.660 -0.1923  0.1316  0.6629
  336MPD2    C4 5095   1.226   3.461  16.772  0.1339 -0.1113 -0.4066
  336MPD2    C5 5096   1.199   3.595  16.776  0.1292  0.1781 -0.0547
  336MPD2     H 5097   1.313   3.424  16.459 -0.2382 -1.0462 -0.0922
  336MPD2    H1 5098   1.219   3.419  16.871  0.2644  0.9655  0.0640
  336MPD2    H2 5099   1.156   3.770  16.654 -0.4527 -0.9967 -0.7484
  336MPD2    H3 5100   1.176   3.647  16.869 -1.9928 -0.7633 -0.0544
  336MPD2     N 5101   1.287   3.267  16.674 -0.1711 -0.6312 -0.4666
  336MPD2    H5 5102   1.260   3.227  16.763 -3.6509  0.5657 -0.9831
  336MPD2    N1 5103   1.242   3.682  16.420  0.2465  0.2346 -0.4872
  336MPD2    H7 5104   1.248   3.636  16.330  1.3431  3.2680 -1.9682
  337TMC3    C1 5105   1.234   3.857  16.256 -0.0618 -0.6051 -0.5153
  337TMC3    C2 5106   1.154   3.958  16.221  1.0722 -0.0652 -0.3054
  337TMC3    C3 5107   1.113   3.967  16.092  0.0664  0.0005 -0.3188
  337TMC3    C4 5108   1.307   3.783  16.166 -0.1252 -0.0565  0.6376
  337TMC3    C5 5109   1.276   3.809  16.033  0.1873 -0.3005  0.0433
  337TMC3    C6 5110   1.180   3.902  15.990  0.4106  0.3597  0.5077
  337TMC3     C 5111   1.235   3.823  16.400 -0.3555  0.0014 -0.0776
  337TMC3     O 5112   1.209   3.907  16.484 -0.2076  0.0113 -0.2148
  337TMC3     H 5113   1.103   4.022  16.292  2.8144 -0.8178  1.6320
  337TMC3    H1 5114   1.378   3.703  16.186 -1.1184 -0.5574  2.0836
  337TMC3    H2 5115   1.171   3.938  15.888 -1.4506 -0.8013  0.2628
  337TMC3    C7 5116   1.366   3.752  15.935 -0.3728  0.4013  0.2747
  337TMC3    C8 5117   1.012   4.074  16.059  0.6136 -0.1666  0.5695
  337TMC3    O1 5118   1.453   3.679  15.979 -0.3435  0.1461  0.1748
  337TMC3    O2 5119   1.023   4.180  16.122  0.0290  0.3492  0.6378
  338MPD2     C 5120   0.911   2.696   1.126  0.0877 -0.3967 -0.0691
  338MPD2    C1 5121   0.907   2.798   1.028  0.0088 -0.1432  0.3825
  338MPD2    C2 5122   0.795   2.871   1.020  0.8325 -0.1529  0.5941
  338MPD2    C3 5123   0.691   2.867   1.106 -0.9551 -0.5092  0.0181
  338MPD2    C4 5124   0.690   2.766   1.203 -0.3822  0.1359 -1.1186
  338MPD2    C5 5125   0.799   2.682   1.201 -0.2305  0.7036  0.4015
  338MPD2     H 5126   0.784   2.953   0.950  1.5751 -1.8010 -1.4686
  338MPD2    H1 5127   0.610   2.753   1.275 -0.4463 -2.8360 -1.7063
  338MPD2    H2 5128   0.990   2.624   1.145 -1.0242 -1.4392  0.5954
  338MPD2    H3 5129   0.796   2.603   1.276 -0.6519 -0.9211 -1.3443
  338MPD2     N 5130   0.589   2.959   1.097 -0.3409 -0.1173 -0.0550
  338MPD2    H5 5131   0.613   3.033   1.033  1.1993 -1.5345 -1.1141
  338MPD2    N1 5132   1.001   2.813   0.926 -0.5705 -0.6288 -0.8730
  338MPD2    H7 5133   0.995   2.895   0.867 -3.0735  0.9889  1.6719
  339TMC3    C1 5134   0.366   3.044   1.084  0.3495 -0.2101  0.4196
  339TMC3    C2 5135   0.246   3.071   1.148  0.2163 -0.2120 -0.1076
  339TMC3    C3 5136   0.164   3.159   1.085  0.1988  0.2083 -0.7103
  339TMC3    C4 5137   0.409   3.117   0.978 -0.3188  0.2732  0.3707
  339TMC3    C5 5138   0.323   3.201   0.918  0.7330 -0.6155 -0.4007
  339TMC3    C6 5139   0.196   3.226   0.972  0.4205  0.2822  0.2152
  339TMC3     C 5140   0.454   2.943   1.141 -0.0060 -0.3519 -0.1399
  339TMC3     O 5141   0.393   2.877   1.222 -0.1014  0.6391  0.0970
  339TMC3     H 5142   0.220   3.009   1.234 -0.1408  3.2243  2.2615
  339TMC3    H1 5143   0.503   3.103   0.926 -0.6691 -1.4287  0.2031
  339TMC3    H2 5144   0.118   3.285   0.925 -0.0605 -0.5035  0.0263
  339TMC3    C7 5145   0.379   3.292   0.811 -0.0458 -0.8600  0.2025
  339TMC3    C8 5146   0.054   3.228   1.161  0.4836  0.1555 -0.5916
  339TMC3    O1 5147   0.485   3.253   0.763  0.2213 -0.2830 -0.0265
  339TMC3    O2 5148   0.031   3.345   1.126  0.3957  1.0178  0.1407
  340MPD2     C 5149   2.440   0.513   9.763 -0.1365 -0.5430  0.1510
  340MPD2    C1 5150   2.575   0.507   9.736 -0.3494  0.3818  1.2008
  340MPD2    C2 5151   2.656   0.624   9.731  0.8009 -0.1627 -0.9405
  340MPD2    C3 5152   2.591   0.749   9.752 -0.0646  0.0683  0.1312
  340MPD2    C4 5153   2.456   0.753   9.779 -0.1253 -0.6067 -0.4468
  340MPD2    C5 5154   2.391   0.634   9.784 -0.3792  0.3933 -0.4972
  340MPD2     H 5155   2.764   0.622   9.717  0.7362 -0.4754 -1.3742
  340MPD2    H1 5156   2.402   0.838   9.818 -0.0456 -0.1504 -1.3292
  340MPD2    H2 5157   2.373   0.429   9.774  0.7457 -1.3225 -0.3816
  340MPD2    H3 5158   2.284   0.638   9.804 -0.0216 -0.6376  1.6849
  340MPD2     N 5159   2.656   0.863   9.780  0.1007 -0.3716 -0.1315
  340MPD2    H5 5160   2.609   0.943   9.819  0.0743  0.0989 -1.1363
  340MPD2    N1 5161   2.627   0.376   9.711 -0.5522  0.0118 -0.0970
  340MPD2    H7 5162   2.561   0.300   9.726  0.7298 -1.2641 -0.9529
  341TMC3    C1 5163   2.782   0.203   9.683 -0.2345  0.1195 -0.0518
  341TMC3    C2 5164   2.684   0.110   9.655  0.0175  0.4851 -0.1529
  341TMC3    C3 5165   2.698   4.710   9.687  0.8122 -0.2187  0.7365
  341TMC3    C4 5166   2.906   0.152   9.731 -0.4953  0.0194 -0.1462
  341TMC3    C5 5167   2.921   0.022   9.753 -0.4778 -0.8536 -0.1733
  341TMC3    C6 5168   2.819   4.665   9.745  0.5141  0.2657 -0.6680
  341TMC3     C 5169   2.761   0.344   9.690 -0.3858  0.2048  0.0021
  341TMC3     O 5170   2.856   0.414   9.687  0.1946 -0.3987 -0.0762
  341TMC3     H 5171   2.594   0.154   9.613 -0.8484 -2.0768 -0.9946
  341TMC3    H1 5172   2.985   0.224   9.752 -0.7490  0.8824 -2.0812
  341TMC3    H2 5173   2.829   4.560   9.771  0.0719  0.0242 -1.4828
  341TMC3    C7 5174   3.052   4.719   9.809  0.6028 -0.6516 -0.3815
  341TMC3    C8 5175   2.580   4.632   9.697  0.5729  0.8819  0.7484
  341TMC3    O1 5176   3.147   0.047   9.769 -0.1259 -0.3466 -0.1578
  341TMC3    O2 5177   2.474   4.691   9.712  0.1929  0.0572 -0.4990
  342MPD2     C 5178   4.052   4.206  17.543  0.3336 -0.0817  0.2302
  342MPD2    C1 5179   4.137   4.224  17.433 -0.1314  0.1473 -0.2802
  342MPD2    C2 5180   4.156   4.352  17.392  0.2342  0.9337 -0.3148
  342MPD2    C3 5181   4.087   4.464  17.448 -0.3804  0.3585  0.1127
  342MPD2    C4 5182   3.991   4.442  17.548  0.4433 -0.0615 -0.4262
  342MPD2    C5 5183   3.987   4.312  17.600 -0.6331 -0.2218  0.2886
  342MPD2     H 5184   4.223   4.361  17.307  0.1505 -0.1142 -0.4881
  342MPD2    H1 5185   3.932   4.517  17.600  1.6984 -0.5939  1.7720
  342MPD2    H2 5186   4.045   4.108  17.590  0.3680  0.7123  1.8633
  342MPD2    H3 5187   3.917   4.285  17.678 -2.4151 -0.7154 -1.4720
  342MPD2     N 5188   4.104   4.596  17.395  0.7580  0.3007 -0.0303
  342MPD2    H5 5189   4.052   4.671  17.439  1.0958  1.0023 -0.8125
  342MPD2    N1 5190   4.208   4.115  17.372  0.4438 -0.1298  0.2657
  342MPD2    H7 5191   4.279   4.141  17.304 -1.4218 -0.7594 -1.8913
  343TMC3    C1 5192   4.258   3.894  17.300 -0.3186  0.6104 -0.1520
  343TMC3    C2 5193   4.331   3.943  17.201 -0.3077 -0.1352 -0.0291
  343TMC3    C3 5194   4.354   3.867  17.086  0.3904 -0.0975  0.0519
  343TMC3    C4 5195   4.206   3.763  17.292 -0.3689 -0.2164  0.3099
  343TMC3    C5 5196   4.223   3.696  17.182 -0.4592  0.3743  0.2615
  343TMC3    C6 5197   4.302   3.739  17.078  0.1045 -0.7294 -0.0190
  343TMC3     C 5198   4.188   3.981  17.396 -0.3697  0.0048  0.2505
  343TMC3     O 5199   4.124   3.925  17.482  0.0942  0.4247  0.0223
  343TMC3     H 5200   4.371   4.043  17.209 -0.7570  0.2571 -2.9300
  343TMC3    H1 5201   4.147   3.726  17.375  0.9018  1.2055  1.8451
  343TMC3    H2 5202   4.312   3.672  16.994 -1.5145 -0.6365 -0.2762
  343TMC3    C7 5203   4.153   3.574  17.157 -0.3869 -0.4005  0.6496
  343TMC3    C8 5204   4.455   3.901  16.991 -0.1704  0.0059 -0.5578
  343TMC3    O1 5205   4.111   3.561  17.045 -0.2861  0.7778 -0.2045
  343TMC3    O2 5206   4.501   4.014  16.999  0.3695 -0.1996  0.7782
  344MPD2     C 5207   0.864   3.841  10.849  0.7034  0.3053  0.0503
  344MPD2    C1 5208   0.765   3.921  10.795  0.1736  0.5803 -0.1521
  344MPD2    C2 5209   0.806   4.041  10.736 -0.1612 -0.4847 -0.1819
  344MPD2    C3 5210   0.939   4.080  10.730 -0.7117 -0.4881  0.6912
  344MPD2    C4 5211   1.034   4.002  10.784 -0.4623  0.3452  0.6215
  344MPD2    C5 5212   0.999   3.888  10.847  0.4825  0.3973  0.4329
  344MPD2     H 5213   0.730   4.099  10.684  0.1127  0.9897  1.0562
  344MPD2    H1 5214   1.140   4.020  10.772 -0.6709  1.0819 -0.1469
  344MPD2    H2 5215   0.844   3.749  10.903  1.3386 -0.8730 -1.7148
  344MPD2    H3 5216   1.074   3.824  10.893  1.8028  1.7609  0.1730
  344MPD2     N 5217   0.970   4.207  10.677  0.1066  0.2012  0.1442
  344MPD2    H5 5218   1.064   4.241  10.697  1.0493 -2.3009 -0.0306
  344MPD2    N1 5219   0.625   3.889  10.805 -0.2873  0.3376  0.0413
  344MPD2    H7 5220   0.560   3.964  10.784 -0.4245  0.0309 -0.6228
  345TMC3    C1 5221   0.966   4.390  10.535 -0.2479  0.3295  0.0594
  345TMC3    C2 5222   1.062   4.453  10.620  0.2477 -0.4341 -0.0343
  345TMC3    C3 5223   1.153   4.538  10.564 -1.2402 -0.0974  0.5156
  345TMC3    C4 5224   0.948   4.428  10.405 -0.2213 -0.0312  0.1830
  345TMC3    C5 5225   1.037   4.520  10.356  0.2586  0.6968  0.1302
  345TMC3    C6 5226   1.148   4.562  10.433 -0.2149  0.8387  0.3065
  345TMC3     C 5227   0.893   4.282  10.590  0.2207 -0.8929 -0.5913
  345TMC3     O 5228   0.791   4.249  10.532 -0.1037  0.2130 -0.4100
  345TMC3     H 5229   1.060   4.425  10.724 -0.1734  1.5760  0.4892
  345TMC3    H1 5230   0.875   4.379  10.341  0.6048 -2.7710  1.3479
  345TMC3    H2 5231   1.210   4.638  10.386 -0.7364  1.8612  1.2829
  345TMC3    C7 5232   0.993   4.622  10.266 -0.0703 -0.7735 -0.4319
  345TMC3    C8 5233   1.198   4.648  10.639 -0.0137  0.0723  0.0285
  345TMC3    O1 5234   1.067   4.719  10.257 -0.2571  0.5504 -0.3761
  345TMC3    O2 5235   1.209   0.014  10.570  0.0299  0.3382  0.9700
  346MPD2     C 5236   0.183   1.073  14.614  0.2103  0.5274 -0.1831
  346MPD2    C1 5237   0.307   1.072  14.553  0.0040  0.5304 -1.2674
  346MPD2    C2 5238   0.420   1.078  14.640 -0.1077 -0.8778 -0.4574
  346MPD2    C3 5239   0.408   1.074  14.778  0.8740  0.1683  0.1471
  346MPD2    C4 5240   0.283   1.077  14.832  0.0642 -0.0681  0.1586
  346MPD2    C5 5241   0.169   1.069  14.750  0.3187  0.2885 -0.2945
  346MPD2     H 5242   0.516   1.066  14.592  0.5763 -3.2907  1.5000
  346MPD2    H1 5243   0.276   1.087  14.940 -1.2389  0.6062  0.0051
  346MPD2    H2 5244   0.092   1.077  14.556 -0.6505 -0.1155  1.0976
  346MPD2    H3 5245   0.074   1.053  14.799  0.5413 -2.3819 -0.7489
  346MPD2     N 5246   0.533   1.086  14.842 -0.6719  0.3309  0.0747
  346MPD2    H5 5247   0.612   1.074  14.779 -3.6393  0.5935 -3.7184
  346MPD2    N1 5248   0.330   1.064  14.408 -0.2314 -0.2650  0.3446
  346MPD2    H7 5249   0.422   1.028  14.384  0.6403  0.7123  2.1843
  347TMC3    C1 5250   0.698   1.091  15.016 -0.2375 -0.2255  0.9045
  347TMC3    C2 5251   0.795   1.125  14.918  0.4784 -0.0848  0.7587
  347TMC3    C3 5252   0.926   1.097  14.943 -1.3023 -0.1672 -0.6016
  347TMC3    C4 5253   0.735   1.058  15.143  0.3777 -0.1000  0.5362
  347TMC3    C5 5254   0.871   1.040  15.162  0.1285 -0.4008  0.7902
  347TMC3    C6 5255   0.964   1.055  15.064  0.1466  0.0408 -0.3835
  347TMC3     C 5256   0.556   1.088  14.976 -0.2731 -1.4300 -0.3602
  347TMC3     O 5257   0.474   1.068  15.067 -0.6263 -0.4212 -0.3901
  347TMC3     H 5258   0.754   1.147  14.820  1.0103 -1.7767  0.1461
  347TMC3    H1 5259   0.664   1.050  15.224  2.0430  0.0522  2.0272
  347TMC3    H2 5260   1.068   1.033  15.082 -0.3290 -2.3571 -0.5817
  347TMC3    C7 5261   0.924   1.001  15.294  0.1475 -0.4194 -0.1644
  347TMC3    C8 5262   1.026   1.103  14.843 -0.0280  0.4250  0.2002
  347TMC3    O1 5263   1.043   0.974  15.306 -0.1401  0.5409 -0.0426
  347TMC3    O2 5264   1.128   1.039  14.858 -0.3293 -0.0599 -0.3243
  348MPD2     C 5265   4.567   0.560  12.177 -0.1860  0.2365  0.8963
  348MPD2    C1 5266   4.528   0.522  12.045 -0.2362 -0.0046  0.5039
  348MPD2    C2 5267   4.512   0.624  11.956  0.9201 -0.4813  0.3276
  348MPD2    C3 5268   4.519   0.752  11.991  0.7035 -0.2887  0.3639
  348MPD2    C4 5269   4.541   0.788  12.113  1.0695  0.0750 -0.5139
  348MPD2    C5 5270   4.566   0.696  12.210  0.3819 -0.3048 -0.8467
  348MPD2     H 5271   4.488   0.589  11.856  0.2197  0.8747  0.0281
  348MPD2    H1 5272   4.556   0.889  12.148 -0.9769 -0.7825  2.8474
  348MPD2    H2 5273   4.586   0.486  12.254  0.1940 -0.7742 -0.1700
  348MPD2    H3 5274   4.590   0.723  12.312 -0.4072 -0.4453 -0.6221
  348MPD2     N 5275   4.488   0.837  11.886 -0.0658  0.0841 -0.3054
  348MPD2    H5 5276   4.459   0.799  11.796 -0.6641  3.1371 -1.3953
  348MPD2    N1 5277   4.495   0.394  12.003 -0.5476  0.3814 -0.0037
  348MPD2    H7 5278   4.471   0.385  11.905 -1.4031  0.4519  0.2001
  349TMC3    C1 5279   4.458   0.160  11.996 -0.1957 -0.8095  0.2528
  349TMC3    C2 5280   4.497   0.037  12.034  0.2244  0.3285  0.2391
  349TMC3    C3 5281   4.445   4.661  11.961  0.1371  0.0618  0.3427
  349TMC3    C4 5282   4.382   0.175  11.888  0.9064  0.0212  0.2005
  349TMC3    C5 5283   4.331   0.071  11.821 -0.6451 -0.7739  0.7085
  349TMC3    C6 5284   4.360   4.672  11.852 -0.5104 -0.4089  0.1210
  349TMC3     C 5285   4.509   0.271  12.073  0.0382  0.0891 -0.2061
  349TMC3     O 5286   4.532   0.247  12.190 -0.3693  1.1721  0.5867
  349TMC3     H 5287   4.584   0.027  12.099 -0.4010  1.8246  1.3331
  349TMC3    H1 5288   4.326   0.267  11.880  0.8178 -0.0192  0.3427
  349TMC3    H2 5289   4.331   4.589  11.789  1.4167  1.0547 -2.7058
  349TMC3    C7 5290   4.277   0.096  11.688  0.6484 -0.3554  0.3024
  349TMC3    C8 5291   4.482   4.527  12.018  0.4515 -0.0446 -0.0931
  349TMC3    O1 5292   4.185   0.029  11.644  0.3444  0.3063  0.6185
  349TMC3    O2 5293   4.572   4.530  12.099 -0.3133 -0.4693  0.6298
  350MPD2     C 5294   3.693   3.700  10.309  0.4029  0.2109 -0.2597
  350MPD2    C1 5295   3.602   3.601  10.351  0.3223  0.8363  1.2970
  350MPD2    C2 5296   3.585   3.588  10.490 -0.5826 -0.4377  0.1958
  350MPD2    C3 5297   3.651   3.676  10.577 -0.1305  0.4691 -0.7055
  350MPD2    C4 5298   3.740   3.765  10.525  1.0684 -0.1528  0.1415
  350MPD2    C5 5299   3.755   3.784  10.389 -0.4056  0.9277 -0.2190
  350MPD2     H 5300   3.519   3.513  10.531 -1.1883 -1.1071 -1.9894
  350MPD2    H1 5301   3.782   3.832  10.599 -0.6562  1.6567 -0.5043
  350MPD2    H2 5302   3.704   3.709  10.201  0.2084 -1.5081 -0.4174
  350MPD2    H3 5303   3.830   3.851  10.348  1.0183 -1.7957 -2.0930
  350MPD2     N 5304   3.619   3.679  10.715  1.3689 -0.0587 -0.8416
  350MPD2    H5 5305   3.564   3.598  10.740 -0.0072  0.3800 -2.4575
  350MPD2    N1 5306   3.544   3.508  10.259 -0.1791  0.2801  0.6986
  350MPD2    H7 5307   3.581   3.509  10.164  0.9534  0.7421  1.1520
  351TMC3    C1 5308   3.438   3.320  10.162  0.5969 -0.2867  0.6404
  351TMC3    C2 5309   3.553   3.276  10.100  0.1521 -0.1887  0.1586
  351TMC3    C3 5310   3.548   3.160  10.030 -0.0718 -0.3363 -0.5662
  351TMC3    C4 5311   3.321   3.261  10.140  0.2065  0.3932  0.7227
  351TMC3    C5 5312   3.317   3.141  10.064 -0.1043 -0.0033 -0.0446
  351TMC3    C6 5313   3.433   3.093  10.013  0.0596  0.1814  0.2463
  351TMC3     C 5314   3.450   3.409  10.277  0.1812  0.4023 -0.6887
  351TMC3     O 5315   3.376   3.387  10.371 -0.0015 -0.2011  0.0566
  351TMC3     H 5316   3.649   3.314  10.131 -0.8099  0.2751  2.5514
  351TMC3    H1 5317   3.233   3.288  10.197 -1.5270 -0.6434 -1.4597
  351TMC3    H2 5318   3.431   3.010   9.944  0.5823 -0.4757  1.0292
  351TMC3    C7 5319   3.197   3.142   9.975  0.3730 -0.3458  0.7558
  351TMC3    C8 5320   3.664   3.115   9.955  0.1780 -1.1109  0.1397
  351TMC3    O1 5321   3.146   3.248   9.943 -0.3227 -0.2138 -0.0178
  351TMC3    O2 5322   3.669   2.995   9.927  0.0954  0.3661 -0.3380
  352MPD2     C 5323   1.346   0.623   1.222  0.7861  0.2370  0.3197
  352MPD2    C1 5324   1.279   0.605   1.103  0.2145  0.1387  0.3275
  352MPD2    C2 5325   1.304   0.495   1.024  0.0447  0.6717  0.3179
  352MPD2    C3 5326   1.401   0.405   1.066 -0.0726 -0.3205 -0.2266
  352MPD2    C4 5327   1.460   0.417   1.191  0.4259  0.4378  0.9317
  352MPD2    C5 5328   1.439   0.529   1.259  0.5772 -0.0145 -0.3393
  352MPD2     H 5329   1.245   0.473   0.936  1.0157 -0.4291 -0.0501
  352MPD2    H1 5330   1.532   0.338   1.212 -1.4373 -1.7188 -0.7575
  352MPD2    H2 5331   1.322   0.711   1.282  2.1465  2.0135 -1.7573
  352MPD2    H3 5332   1.496   0.544   1.350 -0.7772  0.3339  0.4545
  352MPD2     N 5333   1.429   0.283   1.001  0.1464  0.1520  1.3178
  352MPD2    H5 5334   1.489   0.216   1.048 -0.2358 -0.7632  0.5026
  352MPD2    N1 5335   1.192   0.710   1.058  0.8245 -0.0692  0.3201
  352MPD2    H7 5336   1.190   0.794   1.115  2.1755 -0.0697  0.3806
  353TMC3    C1 5337   1.415   0.120   0.837  0.2170  0.7854 -0.1312
  353TMC3    C2 5338   1.511   0.047   0.901 -0.2492  0.4798 -0.0395
  353TMC3    C3 5339   1.571   4.671   0.844 -0.4886  0.5345 -0.4205
  353TMC3    C4 5340   1.392   0.097   0.699 -0.0155  0.0047 -0.2200
  353TMC3    C5 5341   1.447   4.720   0.644  0.2997 -0.3967 -0.5863
  353TMC3    C6 5342   1.532   4.632   0.717 -0.5585  0.9816 -0.1619
  353TMC3     C 5343   1.391   0.251   0.873  0.1707 -0.1699 -0.2497
  353TMC3     O 5344   1.337   0.319   0.784 -0.1552  0.0145  0.0081
  353TMC3     H 5345   1.535   0.064   1.006 -3.8363  0.3635  0.8190
  353TMC3    H1 5346   1.318   0.150   0.639  1.7034  0.5174 -1.8847
  353TMC3    H2 5347   1.573   4.545   0.668 -0.5901  0.7536  0.2175
  353TMC3    C7 5348   1.391   4.690   0.511 -0.0216  0.4908 -0.9065
  353TMC3    C8 5349   1.637   4.579   0.926 -0.3313  0.3149 -0.0385
  353TMC3    O1 5350   1.291   0.010   0.461  0.2335  0.6776 -0.3576
  353TMC3    O2 5351   1.707   4.626   1.018  0.3676  0.0962 -0.1449
  354TMC3    C1 5352   3.227   1.659  13.509  0.1762 -0.2632  0.1935
  354TMC3    C2 5353   3.226   1.797  13.480 -0.7897 -0.5378 -0.0003
  354TMC3    C3 5354   3.157   1.831  13.370 -0.7375  0.2311 -0.9484
  354TMC3    C4 5355   3.181   1.560  13.437  0.6424  0.3102  0.6444
  354TMC3    C5 5356   3.087   1.600  13.347  0.1625 -0.0640  0.0944
  354TMC3    C6 5357   3.080   1.733  13.313 -0.3757 -0.4663  0.0938
  354TMC3     C 5358   3.273   1.627  13.640  0.3571  0.6137  0.3669
  354TMC3     O 5359   3.309   1.509  13.648 -0.1820  0.7307  0.3071
  354TMC3     H 5360   3.294   1.869  13.523  1.0083 -1.4170 -1.3990
  354TMC3    H1 5361   3.189   1.457  13.470  1.0415  1.0055  2.7336
  354TMC3    H2 5362   3.005   1.759  13.239 -0.6244  0.5244  0.6844
  354TMC3    C7 5363   3.090   1.524  13.232  0.2617  0.1929 -0.1834
  354TMC3    C8 5364   3.199   1.926  13.268  0.6627  0.1671 -0.1873
  354TMC3    O1 5365   3.067   1.407  13.238 -0.7675  0.1129 -0.0051
  354TMC3    O2 5366   3.143   1.916  13.161 -0.0585  0.5682  0.6055
  355MPD2     C 5367   3.208   2.659  11.934 -0.6942  0.1825  0.5978
  355MPD2    C1 5368   3.290   2.666  11.821  0.2974  0.1939  0.2620
  355MPD2    C2 5369   3.422   2.699  11.847  0.2152 -0.1843 -0.4135
  355MPD2    C3 5370   3.464   2.737  11.975  0.1715 -1.0765  0.6274
  355MPD2    C4 5371   3.371   2.741  12.078  0.0673 -0.5643  0.2159
  355MPD2    C5 5372   3.249   2.685  12.058 -0.4498  0.1137 -0.0489
  355MPD2     H 5373   3.496   2.703  11.768 -1.4264  1.7502 -1.8667
  355MPD2    H1 5374   3.384   2.756  12.185 -1.3409  0.6903  0.2170
  355MPD2    H2 5375   3.107   2.622  11.923 -0.8596  1.0161 -0.7382
  355MPD2    H3 5376   3.181   2.676  12.142 -0.4066 -0.2132 -0.0487
  355MPD2     N 5377   3.598   2.776  12.013 -0.6681  0.3599 -0.0317
  355MPD2    H5 5378   3.617   2.785  12.112 -0.6898 -1.2776  0.1179
  355MPD2    N1 5379   3.229   2.651  11.690 -0.3559 -0.1823  0.1653
  355MPD2    H7 5380   3.136   2.611  11.684  0.2990 -1.4803 -1.1539
  356TMC3    C1 5381   3.829   2.816  11.974  0.3493 -0.1595 -0.1255
  356TMC3    C2 5382   3.914   2.904  11.905  0.6075  0.8502  0.0638
  356TMC3    C3 5383   3.997   2.995  11.965  0.8604  0.2137 -0.1144
  356TMC3    C4 5384   3.843   2.813  12.116  0.5810  0.2157  0.3072
  356TMC3    C5 5385   3.935   2.895  12.177  0.2198 -0.2921 -0.3821
  356TMC3    C6 5386   4.002   2.991  12.102  0.2738  0.2921  0.2786
  356TMC3     C 5387   3.697   2.795  11.921  0.2977 -0.3095  0.4386
  356TMC3     O 5388   3.694   2.801  11.799 -0.3192 -0.0430 -0.1826
  356TMC3     H 5389   3.913   2.909  11.796  0.3401 -1.0110 -0.0225
  356TMC3    H1 5390   3.776   2.759  12.182 -1.5477  0.7130 -1.4291
  356TMC3    H2 5391   4.046   3.074  12.157  1.3310 -0.1020  0.0367
  356TMC3    C7 5392   3.936   2.894  12.324 -0.1906 -0.0548 -0.2112
  356TMC3    C8 5393   4.106   3.056  11.893  0.1337  0.3399  0.8864
  356TMC3    O1 5394   3.858   2.809  12.372 -0.1315 -0.0063  0.2421
  356TMC3    O2 5395   4.109   3.033  11.771 -0.2432  0.7071 -0.1432
  357MPD2     C 5396   3.220   2.317   0.196 -0.4448  0.0605  0.2218
  357MPD2    C1 5397   3.176   2.260   0.318  0.0322  0.0445 -0.8328
  357MPD2    C2 5398   3.049   2.282   0.354  0.5826  0.7501 -0.0594
  357MPD2    C3 5399   2.968   2.370   0.279 -0.0208 -0.4353 -0.2231
  357MPD2    C4 5400   3.014   2.441   0.173 -0.0590  0.3362 -0.5742
  357MPD2    C5 5401   3.139   2.410   0.131 -0.2584  0.1122  0.4798
  357MPD2     H 5402   3.004   2.225   0.435 -0.8800  1.5610 -0.2944
  357MPD2    H1 5403   2.963   2.527   0.131 -1.6129  0.0433  0.7389
  357MPD2    H2 5404   3.319   2.299   0.156 -1.6816 -1.1100 -2.2858
  357MPD2    H3 5405   3.198   2.454   0.051 -0.2047 -2.9527 -1.1723
  357MPD2     N 5406   2.837   2.397   0.320 -0.0016 -0.1397  0.0784
  357MPD2    H5 5407   2.776   2.444   0.254  0.1194 -1.1537 -0.7475
  357MPD2    N1 5408   3.261   2.169   0.390 -0.4586  0.0932  0.2247
  357MPD2    H7 5409   3.352   2.148   0.350  0.0828 -0.5456  1.8141
  358TMC3    C1 5410   3.327   2.035   0.560 -0.1629 -0.0513  0.2254
  358TMC3    C2 5411   3.343   1.928   0.477 -0.5077  0.4571 -0.2201
  358TMC3    C3 5412   3.347   1.801   0.534  0.4962 -0.3003 -0.2020
  358TMC3    C4 5413   3.311   2.019   0.698 -0.1029 -0.0359  0.1520
  358TMC3    C5 5414   3.324   1.893   0.749  0.9094  0.3718 -0.2260
  358TMC3    C6 5415   3.343   1.783   0.668 -0.6562  0.2147 -0.3495
  358TMC3     C 5416   3.234   2.134   0.518 -0.1939  0.1673  0.6778
  358TMC3     O 5417   3.149   2.161   0.602 -0.4147  0.1328 -0.2558
  358TMC3     H 5418   3.347   1.942   0.369  1.1701  2.3379  0.0811
  358TMC3    H1 5419   3.296   2.107   0.760 -1.9922 -0.4451  0.2807
  358TMC3    H2 5420   3.324   1.685   0.711 -1.3092  0.1753 -0.7370
  358TMC3    C7 5421   3.315   1.872   0.892  0.3799 -0.1368 -0.2493
  358TMC3    C8 5422   3.321   1.693   0.442  0.1031 -0.2408 -0.1913
  358TMC3    O1 5423   3.245   1.946   0.957  0.1709 -0.4496 -0.2854
  358TMC3    O2 5424   3.358   1.711   0.324 -0.3871  0.1209  0.2114
  359MPD2     C 5425   4.221   0.628  12.566  0.2070  0.5409 -0.4329
  359MPD2    C1 5426   4.141   0.716  12.501 -0.2113 -0.1476 -0.6384
  359MPD2    C2 5427   4.000   0.692  12.497 -0.0216  0.0171  0.1915
  359MPD2    C3 5428   3.944   0.575  12.545  0.7365  0.2944 -0.3657
  359MPD2    C4 5429   4.023   0.487  12.612 -0.6993  0.2837  0.0940
  359MPD2    C5 5430   4.159   0.516  12.622  0.0833 -0.7725  0.6186
  359MPD2     H 5431   3.937   0.764  12.447  1.0530 -1.0557 -2.7604
  359MPD2    H1 5432   3.983   0.393  12.649 -0.3134  0.1739  0.2287
  359MPD2    H2 5433   4.325   0.646  12.591 -0.3710  1.8672  1.0153
  359MPD2    H3 5434   4.221   0.438  12.664  1.1606  0.3709  1.1592
  359MPD2     N 5435   3.812   0.541  12.521 -0.4493  0.1847 -0.1273
  359MPD2    H5 5436   3.789   0.444  12.543  0.2184  0.1900  0.6354
  359MPD2    N1 5437   4.188   0.834  12.438 -0.1211  0.1606  0.4001
  359MPD2    H7 5438   4.123   0.898  12.392  0.3863  0.0047 -0.5266
  360TMC3    C1 5439   4.347   0.990  12.350 -0.1310 -0.0597 -0.9336
  360TMC3    C2 5440   4.464   1.057  12.364 -0.1012 -0.0545 -0.6133
  360TMC3    C3 5441   4.493   1.143  12.269 -0.9779  0.0491  0.3451
  360TMC3    C4 5442   4.251   1.016  12.252  0.5460  0.4123  0.1331
  360TMC3    C5 5443   4.290   1.106  12.157  0.2782 -0.4119 -1.4490
  360TMC3    C6 5444   4.416   1.164  12.163  0.7139 -0.1819  0.2785
  360TMC3     C 5445   4.320   0.880  12.442  0.0329  0.5262  0.2393
  360TMC3     O 5446   4.411   0.858  12.522 -0.3015 -0.2574  0.6006
  360TMC3     H 5447   4.543   1.019  12.429  0.1995  0.6806 -0.5428
  360TMC3    H1 5448   4.162   0.957  12.236  1.4576 -0.3026 -2.2894
  360TMC3    H2 5449   4.441   1.242  12.092  1.9227 -0.6004  0.2368
  360TMC3    C7 5450   4.191   1.148  12.055  0.9074 -0.0822  0.9074
  360TMC3    C8 5451   4.626   1.199  12.277 -0.2170 -0.0532  0.1338
  360TMC3    O1 5452   4.238   1.213  11.962 -0.5239  0.5373 -0.0989
  360TMC3    O2 5453   4.677   1.236  12.384  0.5079 -0.1589 -0.3696
  361MPD2     C 5454   0.542   0.038  16.594 -0.3692 -0.5793 -0.5880
  361MPD2    C1 5455   0.470   0.034  16.712 -0.3225  0.1498  0.4334
  361MPD2    C2 5456   0.511   4.677  16.806 -0.0157 -0.3532  0.4497
  361MPD2    C3 5457   0.605   4.581  16.781 -0.4107 -0.1466  0.0238
  361MPD2    C4 5458   0.666   4.583  16.662  0.1139  0.3319 -0.2042
  361MPD2    C5 5459   0.645   4.687  16.571  0.4371 -0.2923 -0.1199
  361MPD2     H 5460   0.465   4.689  16.903 -1.7002  1.5180 -0.5847
  361MPD2    H1 5461   0.741   4.506  16.645  1.4663  1.2818  1.5455
  361MPD2    H2 5462   0.519   0.101  16.509 -0.8028 -0.4432 -0.3743
  361MPD2    H3 5463   0.711   4.701  16.486 -0.1776 -0.0759 -0.5543
  361MPD2     N 5464   0.650   4.487  16.881 -0.7494 -0.1024 -0.5723
  361MPD2    H5 5465   0.733   4.433  16.859  0.3640  0.6820  1.6986
  361MPD2    N1 5466   0.375   0.131  16.748 -0.2332 -0.4564  0.3601
  361MPD2    H7 5467   0.337   0.104  16.838 -0.7444 -0.6557  0.0818
  362TMC3    C1 5468   0.222   0.306  16.730 -0.5998 -0.1728  1.0657
  362TMC3    C2 5469   0.202   0.315  16.866 -0.2317  0.0199  0.3797
  362TMC3    C3 5470   0.105   0.406  16.903 -0.1316 -0.1758  0.0397
  362TMC3    C4 5471   0.142   0.372  16.638 -0.0503 -0.5559 -0.4646
  362TMC3    C5 5472   0.058   0.464  16.683 -0.0296 -0.2532 -0.0582
  362TMC3    C6 5473   0.032   0.483  16.814 -0.0589  1.2855  0.1847
  362TMC3     C 5474   0.330   0.235  16.673 -0.3324  0.2439  0.1957
  362TMC3     O 5475   0.346   0.249  16.551  0.1948 -0.3021 -0.3982
  362TMC3     H 5476   0.255   0.262  16.945 -0.1047 -0.9260 -0.3396
  362TMC3    H1 5477   0.162   0.371  16.532  1.1629  2.2558 -0.2631
  362TMC3    H2 5478   4.676   0.540  16.832 -1.1955  0.3559 -2.4767
  362TMC3    C7 5479   0.005   0.564  16.594 -0.2870 -0.0893 -0.0357
  362TMC3    C8 5480   0.099   0.432  17.043 -0.0037  0.5895  0.0787
  362TMC3    O1 5481   4.724   0.677  16.635  0.8212  1.0923  0.3602
  362TMC3    O2 5482   0.174   0.370  17.116  0.6128  0.2697  0.2501
  363TMC3    C1 5483   4.550   3.094   9.351 -0.5619  0.0951 -0.3577
  363TMC3    C2 5484   4.564   3.046   9.479  0.3522  0.1304  0.2729
  363TMC3    C3 5485   4.528   3.127   9.586 -0.0912  0.3223 -0.1405
  363TMC3    C4 5486   4.498   3.219   9.335 -0.2274 -0.0305  0.5709
  363TMC3    C5 5487   4.454   3.290   9.444  0.9402 -0.4425  0.3335
  363TMC3    C6 5488   4.475   3.252   9.572 -0.5466 -0.0786 -0.3937
  363TMC3     C 5489   4.603   3.023   9.241  0.3057 -0.2087 -0.2122
  363TMC3     O 5490   4.592   2.903   9.248 -0.1549 -0.0227 -0.8692
  363TMC3     H 5491   4.597   2.945   9.499 -1.8091 -0.8798 -1.2492
  363TMC3    H1 5492   4.483   3.251   9.232  0.2375  0.5647  0.6875
  363TMC3    H2 5493   4.439   3.311   9.656  0.6151 -0.2970  0.2583
  363TMC3    C7 5494   4.376   3.411   9.415  0.0020  0.0565  0.4785
  363TMC3    C8 5495   4.562   3.080   9.722  0.2797  0.0008  0.0591
  363TMC3    O1 5496   4.335   3.415   9.301 -0.5561  0.0930 -0.1575
  363TMC3    O2 5497   4.492   3.130   9.813  0.0231  0.4681 -0.2065
  364MPD2     C 5498   2.667   1.579  10.175 -0.4320 -0.8704  1.0312
  364MPD2    C1 5499   2.707   1.696  10.241  0.0777  0.1559 -0.6022
  364MPD2    C2 5500   2.723   1.680  10.376 -1.2607  0.0778  0.5393
  364MPD2    C3 5501   2.692   1.563  10.448 -0.5188 -0.1165  1.0983
  364MPD2    C4 5502   2.641   1.456  10.378  0.4919 -0.0655  0.1491
  364MPD2    C5 5503   2.621   1.467  10.242 -0.5750 -0.0458 -0.4490
  364MPD2     H 5504   2.761   1.765  10.432  0.0939 -0.0883 -0.1469
  364MPD2    H1 5505   2.583   1.376  10.421  0.0248  1.2710  1.9933
  364MPD2    H2 5506   2.658   1.581  10.067 -2.2596  1.5415  1.2289
  364MPD2    H3 5507   2.579   1.387  10.183 -1.1525  1.1962 -1.7409
  364MPD2     N 5508   2.724   1.545  10.587  0.3329  0.0181 -0.0452
  364MPD2    H5 5509   2.775   1.621  10.631  1.0716 -0.5491  0.0696
  364MPD2    N1 5510   2.747   1.808  10.168 -0.2144  0.0912 -0.2143
  364MPD2    H7 5511   2.763   1.797  10.068 -0.7626  1.8488 -0.4987
  365TMC3    C1 5512   2.833   2.026  10.144 -0.1800  0.7275  0.7264
  365TMC3    C2 5513   2.922   1.980  10.051  1.2243 -0.1933  0.3844
  365TMC3    C3 5514   3.002   2.069   9.990 -0.0914  0.0710  0.1667
  365TMC3    C4 5515   2.823   2.161  10.176 -0.1752 -0.2039  0.1653
  365TMC3    C5 5516   2.909   2.247  10.115 -0.1932 -0.1240 -0.0177
  365TMC3    C6 5517   3.001   2.200  10.023  0.3385 -0.0900 -0.5374
  365TMC3     C 5518   2.755   1.935  10.225  0.0822 -0.0919 -0.0799
  365TMC3     O 5519   2.720   1.979  10.332 -0.3450  0.7204 -0.9167
  365TMC3     H 5520   2.930   1.879  10.013 -3.1728 -0.1645 -0.6205
  365TMC3    H1 5521   2.740   2.189  10.240  0.8929  0.5398  1.2161
  365TMC3    H2 5522   3.077   2.264   9.979 -0.9600  2.3800  0.8391
  365TMC3    C7 5523   2.910   2.385  10.145  0.1717 -0.1186 -0.7956
  365TMC3    C8 5524   3.131   2.026   9.942 -0.5738  0.1998 -0.6857
  365TMC3    O1 5525   2.970   2.455  10.059 -0.4064 -0.6763  0.3960
  365TMC3    O2 5526   3.176   2.079   9.847 -0.0849 -0.0003 -0.5973
  366MPD2     C 5527   0.750   2.467  15.480  0.3423  0.3848  0.4690
  366MPD2    C1 5528   0.847   2.553  15.428 -0.0712 -0.1362 -0.5332
  366MPD2    C2 5529   0.974   2.511  15.412 -0.3615 -0.1608 -0.0606
  366MPD2    C3 5530   1.009   2.380  15.451  0.1219  0.9179  0.6004
  366MPD2    C4 5531   0.916   2.294  15.497  0.6778 -0.0093  0.4148
  366MPD2    C5 5532   0.787   2.338  15.509  0.0863 -0.3815 -0.1657
  366MPD2     H 5533   1.050   2.582  15.381  1.9276 -1.9222  1.5433
  366MPD2    H1 5534   0.941   2.193  15.528  1.5932 -0.3099 -1.3215
  366MPD2    H2 5535   0.645   2.493  15.483  0.2593  0.1939 -0.5898
  366MPD2    H3 5536   0.712   2.271  15.549  1.2754 -1.4078  0.3429
  366MPD2     N 5537   1.149   2.361  15.456  0.2047  0.0614  0.4554
  366MPD2    H5 5538   1.203   2.440  15.424 -0.2172  0.1116 -0.1303
  366MPD2    N1 5539   0.825   2.688  15.403 -0.0389 -0.1164 -0.6848
  366MPD2    H7 5540   0.909   2.737  15.371 -1.1564  1.4046 -1.3154
  367TMC3    C1 5541   0.754   2.897  15.447 -0.0560 -0.4473 -0.2083
  367TMC3    C2 5542   0.888   2.930  15.463  0.2218  0.2966 -0.2038
  367TMC3    C3 5543   0.916   3.063  15.488 -0.4556 -0.7264  0.0963
  367TMC3    C4 5544   0.658   3.001  15.445 -0.5461  0.8412  0.1077
  367TMC3    C5 5545   0.692   3.127  15.475 -0.0307  0.2843 -0.1700
  367TMC3    C6 5546   0.825   3.165  15.498  0.2988  0.3758 -0.0671
  367TMC3     C 5547   0.708   2.758  15.426  0.0787 -0.0062 -0.0605
  367TMC3     O 5548   0.592   2.727  15.454  0.0121  0.5195 -0.2405
  367TMC3     H 5549   0.964   2.856  15.487 -0.0233 -0.6028 -2.1994
  367TMC3    H1 5550   0.559   2.974  15.408 -0.4695  0.0669  0.4735
  367TMC3    H2 5551   0.850   3.267  15.525  1.0596  0.2315 -0.2244
  367TMC3    C7 5552   0.604   3.243  15.430 -1.0409  0.2730 -0.3120
  367TMC3    C8 5553   1.033   3.076  15.570 -0.6513 -0.3001  0.1966
  367TMC3    O1 5554   0.618   3.352  15.490 -0.4154 -0.2049 -0.4878
  367TMC3    O2 5555   1.066   2.990  15.652 -0.2807 -0.7808  0.3339
  368MPD2     C 5556   2.124   0.095  13.445 -0.5588 -0.1990  0.5230
  368MPD2    C1 5557   2.160   0.231  13.426 -0.0333  0.0913 -0.2753
  368MPD2    C2 5558   2.276   0.247  13.358  0.8998 -0.5308  0.2232
  368MPD2    C3 5559   2.355   0.145  13.317  0.1340  0.6009  0.9480
  368MPD2    C4 5560   2.325   0.014  13.344  0.3675  0.2593 -0.2013
  368MPD2    C5 5561   2.201   4.726  13.401  0.0885 -0.0914 -0.5192
  368MPD2     H 5562   2.306   0.349  13.334  0.0979 -0.1404  0.8813
  368MPD2    H1 5563   2.389   4.664  13.320 -1.9018 -0.9857 -1.9716
  368MPD2    H2 5564   2.036   0.067  13.501 -0.0586 -1.7502  0.5478
  368MPD2    H3 5565   2.169   4.624  13.418 -0.1339  0.0737  0.0647
  368MPD2     N 5566   2.473   0.170  13.239 -0.0440  0.1692  0.4131
  368MPD2    H5 5567   2.536   0.090  13.233  1.0985  1.1596 -0.7870
  368MPD2    N1 5568   2.070   0.331  13.464 -0.4902 -0.4646  0.6372
  368MPD2    H7 5569   1.994   0.304  13.526 -0.1002 -0.0902  1.2818
  369TMC3    C1 5570   1.963   0.552  13.452  0.4356  0.2801 -0.5661
  369TMC3    C2 5571   1.965   0.650  13.354 -0.2933  0.2007 -0.1527
  369TMC3    C3 5572   1.847   0.699  13.310 -1.0513 -0.1766 -1.0210
  369TMC3    C4 5573   1.847   0.494  13.492  0.7831 -0.1775  0.2473
  369TMC3    C5 5574   1.729   0.537  13.431 -0.0384 -0.2390  0.0655
  369TMC3    C6 5575   1.723   0.643  13.340 -0.0895  0.0417  0.0411
  369TMC3     C 5576   2.074   0.465  13.430  0.1303  0.2182  0.7045
  369TMC3     O 5577   2.167   0.512  13.366 -0.4818  0.2442 -0.4563
  369TMC3     H 5578   2.059   0.703  13.347 -1.3678  2.3707  2.1669
  369TMC3    H1 5579   1.850   0.422  13.573 -1.1456 -0.0662  0.4138
  369TMC3    H2 5580   1.635   0.699  13.310 -1.7392 -1.3965  2.1680
  369TMC3    C7 5581   1.610   0.461  13.461 -0.4011  0.2858  0.3210
  369TMC3    C8 5582   1.855   0.785  13.191 -0.2546 -0.0042  0.4206
  369TMC3    O1 5583   1.630   0.347  13.507 -0.3654  0.1765  0.1749
  369TMC3    O2 5584   1.755   0.859  13.171 -0.0125 -0.0153 -0.1671
  370TMC3    C1 5585   1.311   0.654  16.159 -0.5085 -0.0484 -0.0258
  370TMC3    C2 5586   1.221   0.580  16.240  0.5523  0.1398  0.2105
  370TMC3    C3 5587   1.206   0.446  16.224 -0.0886 -0.0423  0.3570
  370TMC3    C4 5588   1.377   0.584  16.058 -0.6966  0.3280 -0.5986
  370TMC3    C5 5589   1.367   0.450  16.047  0.5614  0.8310  0.1097
  370TMC3    C6 5590   1.283   0.376  16.134 -0.2932  0.2405  0.0841
  370TMC3     C 5591   1.390   0.742  16.243  0.3408 -0.2866 -0.4370
  370TMC3     O 5592   1.395   0.725  16.363 -0.2198 -0.6239 -0.4058
  370TMC3     H 5593   1.178   0.643  16.317 -0.0223 -2.3443  1.9164
  370TMC3    H1 5594   1.451   0.636  15.999 -1.7811  1.9483 -0.5211
  370TMC3    H2 5595   1.284   0.268  16.141  1.5255  0.1731 -1.2188
  370TMC3    C7 5596   1.431   0.394  15.928  0.0025 -0.6877  0.2401
  370TMC3    C8 5597   1.156   0.370  16.339 -0.3594  1.2891  0.9967
  370TMC3    O1 5598   1.460   0.472  15.835 -0.3612 -0.3481  0.0256
  370TMC3    O2 5599   1.151   0.248  16.341  0.2642 -0.4733  0.1158
  371TMC3    C1 5600   2.598   3.549  15.457  0.4301 -0.0564 -0.1401
  371TMC3    C2 5601   2.619   3.574  15.586  0.7113  0.0158 -0.1310
  371TMC3    C3 5602   2.613   3.705  15.628  0.0356 -0.0143  0.2462
  371TMC3    C4 5603   2.589   3.648  15.366 -0.3873  0.3884 -0.5686
  371TMC3    C5 5604   2.579   3.776  15.411 -0.1393 -0.2782 -0.2962
  371TMC3    C6 5605   2.588   3.806  15.541  0.2652  0.0523 -0.6750
  371TMC3     C 5606   2.654   3.426  15.401 -0.2032 -0.2476 -0.1566
  371TMC3     O 5607   2.702   3.433  15.285  0.3136 -0.0524  0.1299
  371TMC3     H 5608   2.633   3.494  15.659 -2.3046  1.2245  1.7491
  371TMC3    H1 5609   2.582   3.621  15.261  0.6182  1.1964 -0.8459
  371TMC3    H2 5610   2.590   3.910  15.574 -0.0908 -0.5751  1.3590
  371TMC3    C7 5611   2.622   3.878  15.311 -0.8705 -0.2992  0.5032
  371TMC3    C8 5612   2.584   3.734  15.770  0.1085 -0.6930 -0.2483
  371TMC3    O1 5613   2.611   3.993  15.357  0.0536 -0.1909  0.3599
  371TMC3    O2 5614   2.591   3.639  15.853 -0.4852  0.4156  0.4805
  372MPD2     C 5615   2.855   0.529  13.287  0.2606  0.1660  0.4103
  372MPD2    C1 5616   2.908   0.431  13.366  0.2070 -0.5588  0.5437
  372MPD2    C2 5617   2.822   0.366  13.460 -0.2781 -0.7130  0.0525
  372MPD2    C3 5618   2.688   0.400  13.469  0.2623 -0.4350  0.8848
  372MPD2    C4 5619   2.636   0.500  13.395 -0.1975  0.9314  0.2807
  372MPD2    C5 5620   2.723   0.558  13.302  0.2824 -0.1067  0.5933
  372MPD2     H 5621   2.861   0.288  13.524  1.8640  0.3796  0.0890
  372MPD2    H1 5622   2.532   0.530  13.389 -0.5468 -0.3676 -0.1975
  372MPD2    H2 5623   2.906   0.587  13.212  0.1644 -1.4652 -0.9185
  372MPD2    H3 5624   2.677   0.630  13.236  1.1946 -1.2635 -1.3027
  372MPD2     N 5625   2.613   0.336  13.568  0.1390  0.0616 -0.5656
  372MPD2    H5 5626   2.651   0.262  13.626  1.3162  3.1580  2.5851
  372MPD2    N1 5627   3.032   0.372  13.347 -0.3838 -0.1955  0.4282
  372MPD2    H7 5628   3.043   0.282  13.392  1.4859  0.0767  0.5327
  373TMC3    C1 5629   2.423   0.264  13.676 -0.2548 -0.7327 -0.0912
  373TMC3    C2 5630   2.318   0.300  13.750 -0.3471  0.0626  0.0969
  373TMC3    C3 5631   2.233   0.197  13.793  0.0938  0.7883 -0.2260
  373TMC3    C4 5632   2.445   0.129  13.643 -0.0950  0.4742 -0.1942
  373TMC3    C5 5633   2.360   0.032  13.690  0.1064 -0.1334 -0.5780
  373TMC3    C6 5634   2.255   0.063  13.773 -0.8061  0.3495  0.2288
  373TMC3     C 5635   2.485   0.368  13.602 -0.2361 -0.4209  0.0279
  373TMC3     O 5636   2.411   0.460  13.577 -0.4281  0.5610  0.0183
  373TMC3     H 5637   2.306   0.406  13.769  0.4310  0.0763  0.4864
  373TMC3    H1 5638   2.528   0.102  13.579 -0.1439  0.0274 -0.0617
  373TMC3    H2 5639   2.183   4.725  13.810 -1.1588  0.6926  0.2083
  373TMC3    C7 5640   2.407   4.634  13.683 -0.2965  0.5361  0.6107
  373TMC3    C8 5641   2.100   0.227  13.847  0.1169  0.2582  0.0678
  373TMC3    O1 5642   2.462   4.599  13.583 -0.3358 -0.3820  0.1333
  373TMC3    O2 5643   2.041   0.307  13.780  0.6260 -0.3511 -0.2477
  374TMC3    C1 5644   4.054   0.764   9.814  0.6450  0.1563  0.3701
  374TMC3    C2 5645   4.086   0.887   9.868  0.9898 -0.7377  0.3551
  374TMC3    C3 5646   4.193   0.950   9.805 -0.5153 -0.0859  0.4135
  374TMC3    C4 5647   4.119   0.716   9.710 -0.7363 -0.1837 -0.0692
  374TMC3    C5 5648   4.231   0.773   9.657 -0.3143  0.5058  0.0999
  374TMC3    C6 5649   4.260   0.895   9.701  0.7722 -0.5228 -0.5964
  374TMC3     C 5650   3.940   0.696   9.866  0.3723  0.2795 -0.4520
  374TMC3     O 5651   3.867   0.632   9.794  0.2714 -0.4682 -0.3151
  374TMC3     H 5652   4.021   0.941   9.936  1.9337  1.2474 -0.3215
  374TMC3    H1 5653   4.079   0.621   9.675  0.7484 -1.8582  2.7892
  374TMC3    H2 5654   4.335   0.955   9.652  0.1761  2.3316  1.9474
  374TMC3    C7 5655   4.296   0.725   9.536 -0.3910  0.0941 -0.4360
  374TMC3    C8 5656   4.235   1.083   9.858  0.4253  0.3469  0.0050
  374TMC3    O1 5657   4.370   0.808   9.481  0.7317 -0.1954  0.0516
  374TMC3    O2 5658   4.312   1.154   9.798 -0.4924  0.7560 -0.3090
  375MPD2     C 5659   2.894   1.123  17.331 -0.1212 -0.3936  0.0616
  375MPD2    C1 5660   2.814   1.152  17.221 -1.0140 -0.0507 -0.2818
  375MPD2    C2 5661   2.825   1.086  17.098  0.0801 -0.0345  0.4619
  375MPD2    C3 5662   2.922   0.990  17.084  0.3180 -0.2863  0.2044
  375MPD2    C4 5663   3.008   0.972  17.191 -0.3314  0.0463  0.3089
  375MPD2    C5 5664   2.999   1.038  17.308  0.5000  0.5956  0.0334
  375MPD2     H 5665   2.756   1.125  17.025 -1.4766 -3.0460  0.3480
  375MPD2    H1 5666   3.091   0.904  17.179 -1.1875 -0.6781 -1.5351
  375MPD2    H2 5667   2.893   1.170  17.429 -0.3167  1.3118 -0.7462
  375MPD2    H3 5668   3.067   1.019  17.391  0.7743 -1.3360 -0.6335
  375MPD2     N 5669   2.961   0.929  16.967 -1.6003  0.0467 -0.7460
  375MPD2    H5 5670   3.044   0.872  16.965 -1.1044  0.7379  0.1033
  375MPD2    N1 5671   2.709   1.246  17.236 -0.2534  0.4206  0.0706
  375MPD2    H7 5672   2.647   1.253  17.156 -1.2256  2.2948  1.0020
  376TMC3    C1 5673   2.972   0.862  16.736 -0.6240  0.2336 -0.3677
  376TMC3    C2 5674   3.110   0.865  16.732  0.0080  0.4438 -0.4049
  376TMC3    C3 5675   3.162   0.857  16.606  0.3847  0.6636  0.1429
  376TMC3    C4 5676   2.901   0.837  16.625  0.4080 -0.1467  1.0059
  376TMC3    C5 5677   2.961   0.827  16.499 -0.9276  0.0737 -0.7274
  376TMC3    C6 5678   3.096   0.831  16.488 -0.0400 -0.4542  0.1182
  376TMC3     C 5679   2.897   0.928  16.844  0.2746 -0.0328 -0.0525
  376TMC3     O 5680   2.783   0.970  16.820 -0.6819  0.1572  0.5642
  376TMC3     H 5681   3.166   0.916  16.809 -2.6608  1.4822  0.8605
  376TMC3    H1 5682   2.793   0.838  16.626  0.4192  1.9988  0.2266
  376TMC3    H2 5683   3.150   0.800  16.399 -0.7090 -0.9708 -0.1081
  376TMC3    C7 5684   2.882   0.868  16.385  0.0665  0.0457  0.3825
  376TMC3    C8 5685   3.304   0.888  16.601  0.5843  0.4634 -1.3904
  376TMC3    O1 5686   2.761   0.886  16.399 -0.4890 -0.8631  0.3792
  376TMC3    O2 5687   3.344   0.928  16.493 -0.4604  0.1682 -0.0171
  377MPD2     C 5688   1.008   1.146  12.872  0.0196 -0.2411  0.0984
  377MPD2    C1 5689   1.075   1.035  12.929 -0.2872 -0.1686 -1.0289
  377MPD2    C2 5690   1.015   0.967  13.036  0.5612 -0.8304  0.5971
  377MPD2    C3 5691   0.888   1.011  13.074 -0.0455 -0.5676  0.1505
  377MPD2    C4 5692   0.834   1.121  13.015 -0.4629 -0.1211 -0.8260
  377MPD2    C5 5693   0.894   1.192  12.916 -0.0394  0.2170 -0.7674
  377MPD2     H 5694   1.056   0.872  13.068  0.2330 -1.0505  0.3726
  377MPD2    H1 5695   0.735   1.150  13.047  0.1428 -1.2140  2.0411
  377MPD2    H2 5696   1.055   1.194  12.787  0.3054 -0.4072  0.1602
  377MPD2    H3 5697   0.859   1.286  12.876 -2.7839 -1.1772 -1.6182
  377MPD2     N 5698   0.805   0.943  13.165 -0.1988 -0.4108 -0.3083
  377MPD2    H5 5699   0.717   0.990  13.183  0.5787  0.7183  0.5312
  377MPD2    N1 5700   1.202   1.000  12.876 -0.2303 -0.0788 -0.4718
  377MPD2    H7 5701   1.235   1.042  12.790  0.8106  0.5041  0.2194
  378TMC3    C1 5702   1.572   0.940  12.714  0.4211  0.0305  0.2387
  378TMC3    C2 5703   1.443   0.968  12.758 -0.1934 -0.0795  0.3748
  378TMC3    C3 5704   1.401   0.873  12.843 -0.3837  0.8873 -0.8824
  378TMC3    C4 5705   1.648   0.828  12.754 -0.2790 -0.3768 -0.1436
  378TMC3    C5 5706   1.590   0.741  12.839 -0.0697 -0.1415 -0.2560
  378TMC3    C6 5707   1.462   0.759  12.881  0.2045 -0.3425  0.5533
  378TMC3     C 5708   1.619   1.041  12.631  0.0389 -0.6663  0.5629
  378TMC3     O 5709   1.539   1.121  12.596  0.1096 -0.4280  0.1746
  378TMC3     H 5710   1.386   1.054  12.726 -1.4324 -1.7533 -1.8589
  378TMC3    H1 5711   1.745   0.815  12.706  0.0166  3.4884 -0.5941
  378TMC3    H2 5712   1.411   0.689  12.946 -0.3276 -0.4869 -0.0249
  378TMC3    C7 5713   1.663   0.631  12.901  1.0526  0.4335 -0.2740
  378TMC3    C8 5714   1.283   0.895  12.919  0.1345  0.0734  0.0864
  378TMC3    O1 5715   1.603   0.572  12.992 -0.2708 -0.1205 -0.0880
  378TMC3    O2 5716   1.273   0.828  13.022 -0.3791 -0.0916  0.6275
  379MPD2     C 5717   1.656   3.307  16.660 -0.2483  0.9638 -0.8014
  379MPD2    C1 5718   1.762   3.246  16.596 -0.1817 -0.1615  0.2223
  379MPD2    C2 5719   1.859   3.188  16.678  0.1890 -0.4154 -0.3980
  379MPD2    C3 5720   1.856   3.199  16.813  0.6846  0.5238  0.5808
  379MPD2    C4 5721   1.747   3.264  16.870  0.1617  0.3593  0.3034
  379MPD2    C5 5722   1.639   3.313  16.796  0.3675  0.3219  0.5582
  379MPD2     H 5723   1.949   3.157  16.626  0.8101  0.2612  0.2676
  379MPD2    H1 5724   1.746   3.273  16.978 -2.8344  2.1262  0.1318
  379MPD2    H2 5725   1.580   3.351  16.595 -0.2653  1.0383 -0.7310
  379MPD2    H3 5726   1.550   3.357  16.840  0.3837  0.5347  0.3799
  379MPD2     N 5727   1.953   3.152  16.896  0.4084  0.0242  0.0083
  379MPD2    H5 5728   1.927   3.168  16.993  2.0541 -0.2228  0.5015
  379MPD2    N1 5729   1.749   3.246  16.451  0.0417  0.7047 -0.2223
  379MPD2    H7 5730   1.673   3.304  16.418 -1.0125 -0.6163 -0.1498
  380TMC3    C1 5731   1.757   3.155  16.239 -0.2032 -0.2387 -0.0046
  380TMC3    C2 5732   1.825   3.073  16.150  0.0130 -0.2504  0.4470
  380TMC3    C3 5733   1.764   3.046  16.035  0.3223 -1.0810  0.0572
  380TMC3    C4 5734   1.615   3.175  16.231 -0.2256  0.2173  0.3343
  380TMC3    C5 5735   1.563   3.144  16.108  0.3037  0.4467  0.0464
  380TMC3    C6 5736   1.635   3.080  16.012  0.1474 -0.4321 -0.0527
  380TMC3     C 5737   1.824   3.182  16.366  0.1625 -0.4618  0.1088
  380TMC3     O 5738   1.932   3.133  16.384 -0.0609  0.0408  0.0331
  380TMC3     H 5739   1.918   3.026  16.178 -0.8753 -1.9684  0.5096
  380TMC3    H1 5740   1.550   3.216  16.307 -1.2151 -0.0025 -0.4029
  380TMC3    H2 5741   1.594   3.056  15.914 -1.2425  0.6359  0.2734
  380TMC3    C7 5742   1.459   3.236  16.064 -0.3342  0.1888  1.8510
  380TMC3    C8 5743   1.855   3.037  15.920  0.2313  0.0187  0.2572
  380TMC3    O1 5744   1.448   3.338  16.127  0.0758  0.4979  0.2550
  380TMC3    O2 5745   1.808   3.063  15.812 -0.6014 -0.1381  0.3060
  381TMC3    C1 5746   1.299   4.429  16.340  0.2549 -0.1958 -0.0680
  381TMC3    C2 5747   1.348   4.537  16.268 -0.2102  0.5561  0.3073
  381TMC3    C3 5748   1.327   4.663  16.327 -0.4699  0.3421  0.6960
  381TMC3    C4 5749   1.224   4.439  16.450  0.2511  0.8815 -0.1688
  381TMC3    C5 5750   1.184   4.561  16.495 -0.0705  0.3591 -0.4648
  381TMC3    C6 5751   1.246   4.680  16.441  0.0715  0.4651 -0.1201
  381TMC3     C 5752   1.335   4.293  16.300 -0.4351 -0.6990 -0.3856
  381TMC3     O 5753   1.356   4.206  16.386 -0.1044 -0.4779 -0.0009
  381TMC3     H 5754   1.427   4.523  16.195 -0.6794 -2.2400  0.3451
  381TMC3    H1 5755   1.178   4.352  16.495  0.2621  1.3268  0.7000
  381TMC3    H2 5756   1.236   0.037  16.498  2.0840 -0.3330  1.5237
  381TMC3    C7 5757   1.131   4.563  16.631  0.0162  0.4805  0.0177
  381TMC3    C8 5758   1.431   0.040  16.296 -0.4528  0.0189 -0.4460
  381TMC3    O1 5759   1.158   4.460  16.693 -0.3982  0.1113  0.4912
  381TMC3    O2 5760   1.481   0.034  16.182 -0.6154  0.5852  0.2171
  382MPD2     C 5761   1.063   2.719  17.015  0.1195  0.3809 -0.0049
  382MPD2    C1 5762   1.040   2.705  17.145 -0.3261 -0.2793 -0.0651
  382MPD2    C2 5763   1.023   2.582  17.201 -0.8840 -1.1658 -0.1987
  382MPD2    C3 5764   1.029   2.464  17.128  0.5453  0.3636  0.1977
  382MPD2    C4 5765   1.041   2.469  16.992 -0.1524  0.2667 -0.1141
  382MPD2    C5 5766   1.059   2.600  16.942  0.5391  0.7531  0.1287
  382MPD2     H 5767   0.994   2.579  17.305 -0.2136  0.0640  0.0303
  382MPD2    H1 5768   1.054   2.387  16.922  0.2737 -0.3263  0.6657
  382MPD2    H2 5769   1.075   2.813  16.964 -0.1030  0.4046 -0.0121
  382MPD2    H3 5770   1.070   2.601  16.834  0.2997  1.2998  0.1097
  382MPD2     N 5771   1.018   2.340  17.186 -0.5892 -0.1294 -0.2059
  382MPD2    H5 5772   0.999   2.257  17.131 -0.2961  0.2028 -0.8129
  382MPD2    N1 5773   1.020   2.814  17.238  0.9264 -0.0350  0.6596
  382MPD2    H7 5774   1.029   2.793  17.337 -0.4670 -0.3418  0.7213
  383TMC3    C1 5775   1.017   2.180  17.350 -0.0140  0.0727 -0.2594
  383TMC3    C2 5776   0.911   2.105  17.293 -0.0319 -0.2385 -0.4246
  383TMC3    C3 5777   0.854   2.007  17.369 -0.2521 -0.7791  0.1085
  383TMC3    C4 5778   1.059   2.149  17.475  0.3243  0.5930 -0.5447
  383TMC3    C5 5779   1.006   2.044  17.543 -0.2194 -0.3553  0.2935
  383TMC3    C6 5780   0.898   1.971  17.495  0.0600  0.3460  0.0174
  383TMC3     C 5781   1.022   2.320  17.321  0.7061  0.1561 -0.1532
  383TMC3     O 5782   1.038   2.396  17.418 -0.3751 -0.1481  0.0679
  383TMC3     H 5783   0.877   2.118  17.191  0.8152  0.9475 -0.5536
  383TMC3    H1 5784   1.135   2.210  17.521  1.3221 -0.0726 -1.3133
  383TMC3    H2 5785   0.859   1.901  17.569 -0.0391  1.3752  0.9353
  383TMC3    C7 5786   1.011   2.065  17.683  0.6312  0.1567 -0.1515
  383TMC3    C8 5787   0.751   1.929  17.306  0.2952 -0.1549  0.0707
  383TMC3    O1 5788   1.116   2.039   0.006 -0.1239  0.8226 -0.0736
  383TMC3    O2 5789   0.709   1.960  17.192  0.1292  0.4013  0.4029
  384MPD2     C 5790   2.465   3.854  12.007 -0.7476  0.3223 -0.2202
  384MPD2    C1 5791   2.500   3.766  12.104 -0.0443 -0.1735 -0.3093
  384MPD2    C2 5792   2.610   3.686  12.073  0.4578  0.6646 -0.0569
  384MPD2    C3 5793   2.670   3.684  11.943 -0.3774 -0.0561  0.0314
  384MPD2    C4 5794   2.631   3.780  11.857  0.2332  0.6170  0.4894
  384MPD2    C5 5795   2.529   3.869  11.887 -0.2658  0.9208 -0.5096
  384MPD2     H 5796   2.645   3.617  12.149 -3.3586 -0.4257  0.7401
  384MPD2    H1 5797   2.673   3.790  11.758 -2.5320 -3.4566 -1.0995
  384MPD2    H2 5798   2.383   3.920  12.032 -3.8620 -4.1114  1.2264
  384MPD2    H3 5799   2.505   3.946  11.814  0.3852  0.6564 -1.0056
  384MPD2     N 5800   2.753   3.578  11.918 -0.6954 -0.4556  0.4309
  384MPD2    H5 5801   2.766   3.511  11.993 -0.1338  1.2972  1.9045
  384MPD2    N1 5802   2.437   3.753  12.229  0.1994  0.0940  0.6612
  384MPD2    H7 5803   2.482   3.685  12.290  1.7478  0.3491 -0.2125
  385TMC3    C1 5804   2.894   3.424  11.807 -0.2430 -0.9900  0.1855
  385TMC3    C2 5805   2.845   3.341  11.717 -0.3100 -0.1886 -0.0239
  385TMC3    C3 5806   2.798   3.226  11.761 -0.6032  0.1389 -0.6747
  385TMC3    C4 5807   2.920   3.385  11.940 -0.0728  0.2446  0.5681
  385TMC3    C5 5808   2.846   3.278  11.983  0.1674 -0.5031  0.1518
  385TMC3    C6 5809   2.782   3.197  11.890  0.5169  0.5546  0.0167
  385TMC3     C 5810   2.816   3.552  11.802 -0.5292  0.3548 -0.4716
  385TMC3     O 5811   2.816   3.615  11.697 -0.2671 -0.2890 -0.7177
  385TMC3     H 5812   2.834   3.382  11.617 -1.3507  2.2849  1.1065
  385TMC3    H1 5813   2.951   3.457  12.015  1.8249 -0.2773  0.2852
  385TMC3    H2 5814   2.760   3.096  11.924  0.8514  0.3019 -0.5225
  385TMC3    C7 5815   2.770   3.290  12.104  1.0136  0.0303 -0.1248
  385TMC3    C8 5816   2.827   3.108  11.686 -0.5074  0.1309  0.2533
  385TMC3    O1 5817   2.774   3.403  12.152  0.5043  0.2745 -0.1219
  385TMC3    O2 5818   2.900   3.027  11.741 -0.3668 -0.4324 -0.0829
  386TMC3    C1 5819   2.562   1.451  11.985  0.3874  0.3525 -0.2219
  386TMC3    C2 5820   2.530   1.433  11.854  0.2212  0.6047 -0.2251
  386TMC3    C3 5821   2.404   1.461  11.812  0.4545  0.5503  0.1898
  386TMC3    C4 5822   2.476   1.514  12.065 -0.3012 -0.0673 -0.4887
  386TMC3    C5 5823   2.358   1.553  12.016  0.1897 -0.0698 -0.1628
  386TMC3    C6 5824   2.309   1.511  11.896 -0.1322 -0.2679 -0.2300
  386TMC3     C 5825   2.701   1.424  12.031 -0.4446  0.3151 -0.1667
  386TMC3     O 5826   2.720   1.459  12.144  0.1966 -0.5167  0.3428
  386TMC3     H 5827   2.608   1.400  11.786 -0.3236  0.5975 -0.8477
  386TMC3    H1 5828   2.498   1.542  12.168 -2.9888 -0.3174  0.1649
  386TMC3    H2 5829   2.215   1.553  11.864 -0.2116 -1.3621 -1.4343
  386TMC3    C7 5830   2.262   1.585  12.128 -0.2231  0.0163  0.0008
  386TMC3    C8 5831   2.368   1.437  11.678 -0.3437 -0.2049 -0.4912
  386TMC3    O1 5832   2.278   1.543  12.245  0.3644 -0.2629  0.3927
  386TMC3    O2 5833   2.253   1.459  11.649 -0.2361 -0.3299  0.3346
  387MPD2     C 5834   0.559   1.369  10.086 -0.0759  0.2405 -0.1991
  387MPD2    C1 5835   0.623   1.310  10.194  0.3503  0.0253  0.0763
  387MPD2    C2 5836   0.607   1.174  10.206  0.6076  0.2166  0.5847
  387MPD2    C3 5837   0.555   1.092  10.111  0.1502 -0.4618 -0.3836
  387MPD2    C4 5838   0.502   1.156  10.006 -0.4141  0.0096  0.2214
  387MPD2    C5 5839   0.495   1.290  10.002 -0.8483  0.0840  0.1039
  387MPD2     H 5840   0.654   1.134  10.296  0.5904  2.2692  1.5231
  387MPD2    H1 5841   0.457   1.107   9.919 -1.3349 -1.1347  1.3384
  387MPD2    H2 5842   0.562   1.477  10.075 -1.6133  0.4020  0.9652
  387MPD2    H3 5843   0.453   1.327   9.909 -0.2206  3.6863  1.2389
  387MPD2     N 5844   0.575   0.955  10.129 -0.0875 -0.3334  0.1196
  387MPD2    H5 5845   0.619   0.931  10.218  1.7086 -3.6628 -1.6317
  387MPD2    N1 5846   0.710   1.368  10.286 -0.1289  0.3574 -0.7044
  387MPD2    H7 5847   0.756   1.306  10.352  0.5568  2.2249  0.5819
  388TMC3    C1 5848   0.849   1.518  10.387 -0.5886  0.9140 -0.3664
  388TMC3    C2 5849   0.877   1.645  10.429 -0.0614  0.1986 -0.4178
  388TMC3    C3 5850   0.981   1.664  10.522 -0.6835 -0.3378 -0.0750
  388TMC3    C4 5851   0.931   1.413  10.415 -0.0064 -0.3248 -0.7212
  388TMC3    C5 5852   1.026   1.433  10.509 -0.1143  0.4985  0.1860
  388TMC3    C6 5853   1.059   1.557  10.553 -0.4022  0.2091 -0.1962
  388TMC3     C 5854   0.738   1.500  10.297  0.2445  0.3088  0.6697
  388TMC3     O 5855   0.670   1.589  10.250 -0.3356  0.1626 -0.8486
  388TMC3     H 5856   0.809   1.724  10.400 -1.3628 -1.0519 -0.7830
  388TMC3    H1 5857   0.927   1.323  10.355  2.2727 -1.4405  0.8064
  388TMC3    H2 5858   1.148   1.567  10.615  0.0043 -1.0736 -0.5820
  388TMC3    C7 5859   1.126   1.325  10.516 -0.1248 -0.6099 -0.0326
  388TMC3    C8 5860   1.014   1.787  10.581  0.1704  0.2224 -0.2280
  388TMC3    O1 5861   1.242   1.359  10.521 -0.0451 -0.2921  0.0276
  388TMC3    O2 5862   1.081   1.786  10.681  0.1927  0.0492  0.4895
  389MPD2     C 5863   4.679   4.059  11.692 -0.5197  0.1029  0.2728
  389MPD2    C1 5864   4.586   3.988  11.620 -0.1204 -0.0974 -0.0792
  389MPD2    C2 5865   4.500   3.905  11.695  0.3600  0.9516 -0.0100
  389MPD2    C3 5866   4.501   3.896  11.835 -0.6508 -0.6182  0.6971
  389MPD2    C4 5867   4.601   3.959  11.898  0.6173 -0.0196  0.3582
  389MPD2    C5 5868   4.694   4.040  11.830  0.0956 -0.0910  0.3174
  389MPD2     H 5869   4.437   3.839  11.636 -1.1820  1.9280  0.5554
  389MPD2    H1 5870   4.618   3.958  12.005  0.7818  1.9027  0.3594
  389MPD2    H2 5871   0.016   4.123  11.641  1.1324 -1.5976  0.4201
  389MPD2    H3 5872   0.034   4.095  11.887  1.0652 -1.0172 -0.0459
  389MPD2     N 5873   4.415   3.823  11.920 -1.0102 -0.1252  0.1218
  389MPD2    H5 5874   4.438   3.821  12.019 -0.9256  1.7830  0.1278
  389MPD2    N1 5875   4.577   4.007  11.478 -0.5899  0.2724  0.5701
  389MPD2    H7 5876   4.667   4.032  11.438 -0.4657  0.7899  1.1652
  390TMC3    C1 5877   4.253   3.643  11.961 -0.6558  0.2117  0.2904
  390TMC3    C2 5878   4.172   3.554  11.904  0.4088  0.1831 -0.9749
  390TMC3    C3 5879   4.075   3.490  11.984  0.1195  0.0441 -0.8936
  390TMC3    C4 5880   4.247   3.679  12.091 -0.8514 -0.1856  0.0856
  390TMC3    C5 5881   4.150   3.624  12.169  0.4041  0.5273  0.7080
  390TMC3    C6 5882   4.065   3.538  12.115 -0.2548 -0.8223 -0.3621
  390TMC3     C 5883   4.330   3.726  11.865  0.1657  0.9138  0.8205
  390TMC3     O 5884   4.281   3.721  11.753  0.1612  0.9037 -0.0419
  390TMC3     H 5885   4.175   3.524  11.800  2.0192 -0.1597 -0.8352
  390TMC3    H1 5886   4.306   3.756  12.138 -1.7556  0.4717  0.1397
  390TMC3    H2 5887   3.986   3.507  12.183 -1.8596  1.0259 -1.3820
  390TMC3    C7 5888   4.120   3.683  12.303  0.4516  0.1398 -0.3991
  390TMC3    C8 5889   3.990   3.391  11.933  0.2011 -0.4075  0.4437
  390TMC3    O1 5890   4.211   3.731  12.369 -0.6805  0.1001 -0.2716
  390TMC3    O2 5891   3.991   3.367  11.812  0.0469  0.1643 -0.2611
  391MPD2     C 5892   3.958   1.031  11.345 -0.6337  0.1831 -0.2672
  391MPD2    C1 5893   4.075   1.103  11.339 -0.3828 -0.4978 -0.3427
  391MPD2    C2 5894   4.098   1.184  11.232 -0.4327 -0.2188 -0.3698
  391MPD2    C3 5895   4.000   1.190  11.130  0.0967 -0.6018  0.2644
  391MPD2    C4 5896   3.879   1.122  11.143 -0.7064  0.8393 -0.3311
  391MPD2    C5 5897   3.863   1.030  11.249 -0.6036 -0.7861  0.2249
  391MPD2     H 5898   4.199   1.222  11.223  0.0830 -1.3709  0.4654
  391MPD2    H1 5899   3.811   1.129  11.059  0.4225 -2.1463 -1.5116
  391MPD2    H2 5900   3.937   0.967  11.430 -0.0925 -1.3473 -1.2940
  391MPD2    H3 5901   3.774   0.970  11.262  0.0815 -1.4856  1.6494
  391MPD2     N 5902   4.037   1.263  11.013  0.0788  0.2325 -0.1210
  391MPD2    H5 5903   4.132   1.298  11.017 -0.1474  1.0463 -1.7494
  391MPD2    N1 5904   4.172   1.110  11.439 -0.0961  0.1542  0.5205
  391MPD2    H7 5905   4.254   1.169  11.432  0.0391 -0.1034 -0.0977
  392TMC3    C1 5906   4.041   1.347  10.801  0.1071  0.3079  0.2084
  392TMC3    C2 5907   4.033   1.308  10.672  0.0793  0.1493 -0.0674
  392TMC3    C3 5908   4.112   1.375  10.586  0.9770 -0.4796  0.4508
  392TMC3    C4 5909   4.123   1.444  10.843 -0.6131  0.1278 -0.2412
  392TMC3    C5 5910   4.192   1.515  10.748 -0.8372  0.0669  0.0775
  392TMC3    C6 5911   4.191   1.482  10.613 -0.4383 -0.3300  0.3430
  392TMC3     C 5912   3.965   1.275  10.896  0.0513 -0.5103  0.0187
  392TMC3     O 5913   3.857   1.232  10.865 -0.3131  0.0982 -0.0102
  392TMC3     H 5914   3.960   1.235  10.638 -0.8300  0.7631  0.5721
  392TMC3    H1 5915   4.127   1.473  10.947 -2.7670 -0.5236  0.0164
  392TMC3    H2 5916   4.266   1.524  10.546 -0.5087 -0.5113  0.1520
  392TMC3    C7 5917   4.278   1.620  10.799  0.5466  0.1610  0.2706
  392TMC3    C8 5918   4.094   1.334  10.447 -0.1079  0.3768 -0.3578
  392TMC3    O1 5919   4.306   1.616  10.920  0.5650 -0.2441  0.0417
  392TMC3    O2 5920   4.039   1.226  10.431  0.3563  0.2332 -0.0329
  393TMC3    C1 5921   2.792   3.734  10.423  0.4277 -0.0687  0.3075
  393TMC3    C2 5922   2.655   3.762  10.431  0.2850 -0.0104 -0.0455
  393TMC3    C3 5923   2.571   3.674  10.499  0.7331  0.0522 -0.5682
  393TMC3    C4 5924   2.843   3.621  10.480 -0.1227  0.4063 -0.0963
  393TMC3    C5 5925   2.758   3.535  10.542  0.0130  1.0722  0.3242
  393TMC3    C6 5926   2.622   3.560  10.556  0.0743 -1.5820 -0.8594
  393TMC3     C 5927   2.875   3.832  10.356 -1.0464  0.7399  0.1044
  393TMC3     O 5928   2.829   3.914  10.279 -0.5587 -0.1365  0.1780
  393TMC3     H 5929   2.624   3.850  10.377 -2.6820  0.2965  2.1356
  393TMC3    H1 5930   2.950   3.604  10.487 -0.3044 -0.2800  0.9412
  393TMC3    H2 5931   2.548   3.492  10.598 -0.8944  1.1661  1.8636
  393TMC3    C7 5932   2.807   3.427  10.631  1.2065  0.7551 -0.5601
  393TMC3    C8 5933   2.426   3.687  10.500  0.4392  0.6543 -0.3220
  393TMC3    O1 5934   2.730   3.339  10.660 -0.6870 -0.4196 -0.2341
  393TMC3    O2 5935   2.365   3.612  10.576 -0.0095  0.6422  0.3234
  394TMC3    C1 5936   4.485   3.966  11.265 -0.5969 -0.2297  0.3000
  394TMC3    C2 5937   4.376   3.969  11.187  0.2980 -0.9523 -0.3755
  394TMC3    C3 5938   4.385   4.007  11.056  0.3165  0.2111  0.0736
  394TMC3    C4 5939   4.601   4.011  11.207  0.3708  0.2720 -0.5883
  394TMC3    C5 5940   4.609   4.054  11.081 -0.1736 -0.3735 -0.3605
  394TMC3    C6 5941   4.500   4.050  11.001  0.4286  0.8893  0.3891
  394TMC3     C 5942   4.462   3.983  11.405 -0.0047  0.3568 -0.4587
  394TMC3     O 5943   4.342   3.973  11.438 -0.1279  0.7463  0.5770
  394TMC3     H 5944   4.279   3.937  11.223 -0.7537  1.2880 -1.2437
  394TMC3    H1 5945   4.691   4.016  11.266  0.1618  2.0248 -0.4142
  394TMC3    H2 5946   4.495   4.083  10.898 -1.7644  1.4311  0.6597
  394TMC3    C7 5947   0.003   4.090  11.014  0.1289  0.0277 -0.4023
  394TMC3    C8 5948   4.259   4.029  10.982 -0.1088  0.0025  0.0969
  394TMC3    O1 5949   4.720   4.125  10.897  0.5502  0.0325 -0.0125
  394TMC3    O2 5950   4.154   4.060  11.034  0.6121  0.1205  0.1399
  395TMC3    C1 5951   4.129   1.155  14.673 -0.4699 -0.6030 -0.0115
  395TMC3    C2 5952   4.072   1.097  14.556  0.1553  0.1527  0.6887
  395TMC3    C3 5953   4.096   1.164  14.444 -0.4000 -0.5646 -0.2257
  395TMC3    C4 5954   4.216   1.259  14.677 -0.3201  0.1684 -0.4870
  395TMC3    C5 5955   4.232   1.317  14.552  0.3415  0.3354 -0.3633
  395TMC3    C6 5956   4.187   1.269  14.433 -0.5776 -0.2265  1.2222
  395TMC3     C 5957   4.097   1.100  14.806  0.2806 -0.0899 -0.3052
  395TMC3     O 5958   4.108   1.180  14.899 -0.8580  0.4607 -0.1169
  395TMC3     H 5959   4.015   1.005  14.551  1.1632 -0.3559 -1.3965
  395TMC3    H1 5960   4.250   1.298  14.772 -0.6987 -2.6820  0.8171
  395TMC3    H2 5961   4.178   1.332  14.345  1.8619 -0.1539  1.0322
  395TMC3    C7 5962   4.331   1.428  14.544  0.0844 -0.4557  0.1589
  395TMC3    C8 5963   3.991   1.158  14.339  0.4976 -0.5817 -0.4911
  395TMC3    O1 5964   4.367   1.468  14.651 -0.1714  0.7836  0.2982
  395TMC3    O2 5965   4.031   1.176  14.223 -0.0500 -0.5680 -0.0639
  396MPD2     C 5966   3.320   2.028  16.659  0.6375 -0.0391  0.5767
  396MPD2    C1 5967   3.434   2.066  16.719  1.0271  0.2933 -0.3386
  396MPD2    C2 5968   3.522   2.155  16.657 -0.6852  0.3394  0.7762
  396MPD2    C3 5969   3.503   2.186  16.522  0.0716  0.6067  0.3435
  396MPD2    C4 5970   3.394   2.139  16.458 -0.3597  0.1402 -0.1015
  396MPD2    C5 5971   3.301   2.071  16.530 -0.6271  0.4620 -0.0548
  396MPD2     H 5972   3.609   2.198  16.705  0.0253  0.2797 -0.4782
  396MPD2    H1 5973   3.366   2.169  16.357  1.0122 -0.4633 -0.6557
  396MPD2    H2 5974   3.244   1.960  16.699  0.7227 -1.0813 -1.0434
  396MPD2    H3 5975   3.201   2.045  16.494 -1.3027 -0.5809  2.5825
  396MPD2     N 5976   3.594   2.279  16.474  0.6344 -0.0706  0.2517
  396MPD2    H5 5977   3.664   2.301  16.544  1.9495  2.2781 -1.8193
  396MPD2    N1 5978   3.470   1.998  16.839 -0.5895 -0.4669  0.8028
  396MPD2    H7 5979   3.394   1.968  16.899 -2.2101  0.6673 -0.6716
  397TMC3    C1 5980   3.589   1.925  17.026  0.1574  0.3390 -0.1924
  397TMC3    C2 5981   3.711   1.929  17.102 -0.5022  0.4567  1.0314
  397TMC3    C3 5982   3.791   1.821  17.119 -0.5480 -0.0847  0.1744
  397TMC3    C4 5983   3.546   1.797  16.995 -0.5221  0.6950 -0.3022
  397TMC3    C5 5984   3.619   1.688  17.028 -0.6299 -0.4725 -0.1238
  397TMC3    C6 5985   3.742   1.696  17.083  0.1039 -0.7872  0.1033
  397TMC3     C 5986   3.593   2.005  16.906 -0.1120  0.2186  0.7717
  397TMC3     O 5987   3.691   2.078  16.878 -0.1394 -0.2914 -0.2534
  397TMC3     H 5988   3.761   2.026  17.096  2.4483 -1.2538 -2.3497
  397TMC3    H1 5989   3.446   1.779  16.959 -0.4115 -0.3711 -0.0785
  397TMC3    H2 5990   3.809   1.612  17.072  1.1314 -0.2620  2.4735
  397TMC3    C7 5991   3.546   1.566  17.043  0.6253  0.2936  0.1496
  397TMC3    C8 5992   3.926   1.844  17.086 -0.3240 -0.0505  0.0818
  397TMC3    O1 5993   3.455   1.538  16.964 -0.2569 -0.4010 -0.5344
  397TMC3    O2 5994   3.960   1.813  16.972 -0.0423  0.1099  0.5088
  398MPD2     C 5995   1.562   3.498   0.202  0.1020  0.8934 -0.1285
  398MPD2    C1 5996   1.669   3.444   0.275 -0.5483  0.1577 -0.4674
  398MPD2    C2 5997   1.773   3.526   0.318  0.1162 -0.0462  0.1759
  398MPD2    C3 5998   1.788   3.654   0.265 -0.0802 -0.1654  0.5796
  398MPD2    C4 5999   1.684   3.706   0.198 -0.7028 -0.2894 -0.3778
  398MPD2    C5 6000   1.578   3.627   0.158 -0.2893  0.3212 -0.1992
  398MPD2     H 6001   1.843   3.497   0.395  1.1349 -0.5214 -0.9310
  398MPD2    H1 6002   1.684   3.810   0.167 -3.0307 -0.1819  0.0160
  398MPD2    H2 6003   1.471   3.443   0.178  1.7526 -1.4373 -1.0266
  398MPD2    H3 6004   1.506   3.673   0.092  0.9597  0.7416 -1.2622
  398MPD2     N 6005   1.907   3.718   0.311 -0.3453  0.3110 -0.0927
  398MPD2    H5 6006   1.976   3.659   0.356  1.2234  2.4625  0.3392
  398MPD2    N1 6007   1.674   3.311   0.317 -0.0508  0.0536  0.4704
  398MPD2    H7 6008   1.750   3.288   0.380 -1.1102 -0.7323  1.4727
  399TMC3    C1 6009   1.647   3.072   0.292  0.3555 -0.1189  1.3989
  399TMC3    C2 6010   1.773   3.062   0.343  0.1699  0.4953 -0.1214
  399TMC3    C3 6011   1.816   2.941   0.382  0.4448 -0.3308  0.0500
  399TMC3    C4 6012   1.571   2.961   0.273 -0.3027 -0.2711 -0.0482
  399TMC3    C5 6013   1.613   2.842   0.323 -0.2174 -0.0642 -0.4290
  399TMC3    C6 6014   1.736   2.825   0.380 -0.1479  0.1126  0.3432
  399TMC3     C 6015   1.599   3.208   0.261  0.1849 -0.7338 -0.4386
  399TMC3     O 6016   1.503   3.223   0.188 -0.3072  0.3014  0.6517
  399TMC3     H 6017   1.853   3.135   0.333  1.7074 -0.9733  1.3513
  399TMC3    H1 6018   1.469   2.980   0.241 -0.1066 -2.1330 -1.7498
  399TMC3    H2 6019   1.780   2.740   0.432 -0.9547  0.2274  1.2085
  399TMC3    C7 6020   1.531   2.716   0.317 -0.3034 -0.7861 -0.1420
  399TMC3    C8 6021   1.951   2.923   0.404 -0.9953  0.0839  0.4651
  399TMC3    O1 6022   1.546   2.634   0.409 -0.1428 -0.5406 -0.3265
  399TMC3    O2 6023   1.998   2.820   0.358  0.1872  0.2904 -0.0655
  400TMC3    C1 6024   0.777   1.673  16.994 -0.3835  0.1245 -1.0661
  400TMC3    C2 6025   0.679   1.585  16.963 -0.0936 -0.6479  0.3481
  400TMC3    C3 6026   0.579   1.623  16.882 -0.0597  0.1054 -0.1757
  400TMC3    C4 6027   0.772   1.807  16.956 -0.0807 -0.2661 -0.3977
  400TMC3    C5 6028   0.669   1.842  16.872 -0.3933  0.1710 -0.1229
  400TMC3    C6 6029   0.572   1.754  16.841  0.1262 -0.1312 -0.1707
  400TMC3     C 6030   0.855   1.630  17.108  0.1273 -0.3793 -0.2527
  400TMC3     O 6031   0.807   1.545  17.180 -0.2432  0.5317 -0.0353
  400TMC3     H 6032   0.687   1.481  16.992  0.0523 -0.2592  1.6989
  400TMC3    H1 6033   0.855   1.875  16.973 -0.1551 -0.5561  1.0893
  400TMC3    H2 6034   0.492   1.798  16.782  0.3299  2.1855  1.2623
  400TMC3    C7 6035   0.638   1.979  16.841 -0.1524 -0.0592 -0.4056
  400TMC3    C8 6036   0.464   1.534  16.890  0.1204  0.1004 -0.7470
  400TMC3    O1 6037   0.560   2.006  16.749  0.2904 -0.2712 -0.5702
  400TMC3    O2 6038   0.461   1.459  16.986 -0.6215  0.0340 -0.3867
  401MPD2     C 6039   3.789   1.089   0.739 -0.2164 -0.1520 -0.3504
  401MPD2    C1 6040   3.891   0.999   0.748 -0.2885  0.2138 -0.5925
  401MPD2    C2 6041   3.883   0.895   0.658 -0.5708  0.4368 -0.7234
  401MPD2    C3 6042   3.784   0.878   0.565  0.9026 -0.0089 -0.6764
  401MPD2    C4 6043   3.682   0.971   0.558 -0.3260 -0.1692  0.1136
  401MPD2    C5 6044   3.689   1.076   0.650  0.3531 -0.4013  0.2402
  401MPD2     H 6045   3.964   0.824   0.665  1.3287  2.6296 -0.3523
  401MPD2    H1 6046   3.598   0.958   0.492 -0.6301 -0.4117  0.5482
  401MPD2    H2 6047   3.784   1.170   0.811 -2.8267  0.5166 -1.3135
  401MPD2    H3 6048   3.608   1.147   0.665 -0.5679 -1.4956  0.4731
  401MPD2     N 6049   3.797   0.760   0.485 -0.1327  0.3657 -0.0412
  401MPD2    H5 6050   3.865   0.691   0.515 -2.4909 -1.9861 -0.0793
  401MPD2    N1 6051   3.990   0.999   0.850 -0.0409  0.4953  0.6060
  401MPD2    H7 6052   4.059   0.924   0.849 -2.1083 -1.4151  3.5332
  402TMC3    C1 6053   3.726   0.594   0.343  0.9337 -0.0483 -0.1046
  402TMC3    C2 6054   3.613   0.530   0.303  0.2453  0.2738 -0.1650
  402TMC3    C3 6055   3.624   0.416   0.230  0.2219  0.6241 -0.0044
  402TMC3    C4 6056   3.849   0.554   0.306 -0.4488  0.0007  0.8521
  402TMC3    C5 6057   3.864   0.441   0.233  0.7726 -0.0524 -0.7957
  402TMC3    C6 6058   3.751   0.373   0.195  0.9346  0.6210 -0.1546
  402TMC3     C 6059   3.716   0.738   0.379  0.0252 -0.2332 -0.1696
  402TMC3     O 6060   3.620   0.797   0.331 -0.1622  0.2257  0.6847
  402TMC3     H 6061   3.521   0.572   0.341  1.1071  1.8438  0.1891
  402TMC3    H1 6062   3.933   0.622   0.307 -0.5964  0.1794  1.0248
  402TMC3    H2 6063   3.753   0.293   0.122 -1.5651  1.8620 -1.5935
  402TMC3    C7 6064   3.984   0.400   0.167  0.1833  0.4163  0.0893
  402TMC3    C8 6065   3.526   0.310   0.240  0.0379  0.4599  0.8469
  402TMC3    O1 6066   4.061   0.488   0.138 -0.5059  0.0710  0.2468
  402TMC3    O2 6067   3.569   0.198   0.257  0.1768  0.1015 -0.0204
  403MPD2     C 6068   2.335   2.922  13.286 -0.2846 -0.1649 -0.4692
  403MPD2    C1 6069   2.255   3.002  13.370  0.8114  0.5148  0.1879
  403MPD2    C2 6070   2.272   2.994  13.508  0.2017  0.0330  0.5724
  403MPD2    C3 6071   2.389   2.930  13.561 -0.0275 -0.6641  0.0019
  403MPD2    C4 6072   2.465   2.850  13.477 -0.3846  0.2132  0.4621
  403MPD2    C5 6073   2.426   2.837  13.344 -0.0729  0.2257 -0.3397
  403MPD2     H 6074   2.220   3.053  13.583 -0.4115  1.9386 -1.3632
  403MPD2    H1 6075   2.547   2.786  13.507  0.1024  0.0892 -1.1199
  403MPD2    H2 6076   2.322   2.920  13.178 -1.3198 -0.2804 -0.3350
  403MPD2    H3 6077   2.482   2.776  13.274 -0.0305 -1.7392  1.3904
  403MPD2     N 6078   2.401   2.936  13.702  0.2319 -0.3241  0.4162
  403MPD2    H5 6079   2.354   3.001  13.764  1.3760  0.3918  0.5215
  403MPD2    N1 6080   2.151   3.083  13.312 -0.3981 -0.3636  0.4040
  403MPD2    H7 6081   2.149   3.079  13.211  0.6371  0.5692  0.3461
  404TMC3    C1 6082   1.924   3.123  13.307  0.2552 -0.0357 -0.4166
  404TMC3    C2 6083   1.831   3.042  13.363 -0.3988 -1.1669 -0.1010
  404TMC3    C3 6084   1.770   2.951  13.283  0.0713 -0.0237  0.5683
  404TMC3    C4 6085   1.937   3.123  13.173  0.6495  0.6147  0.1943
  404TMC3    C5 6086   1.853   3.046  13.096  0.1050 -0.0202  0.3822
  404TMC3    C6 6087   1.772   2.949  13.143 -0.3119  0.1181 -0.6383
  404TMC3     C 6088   2.043   3.131  13.381  0.5923  0.0914  0.1059
  404TMC3     O 6089   2.026   3.147  13.501  0.2091 -0.2523  0.0160
  404TMC3     H 6090   1.820   3.045  13.470 -1.4031 -3.0155 -0.1631
  404TMC3    H1 6091   1.999   3.193  13.119 -0.2202 -0.2368 -1.9045
  404TMC3    H2 6092   1.733   2.867  13.085  0.0629 -0.8877  0.5160
  404TMC3    C7 6093   1.865   3.065  12.953  0.2021 -0.0927 -0.7287
  404TMC3    C8 6094   1.799   2.815  13.326  0.7088  0.0559 -0.4870
  404TMC3    O1 6095   1.966   3.117  12.915 -0.5627  0.1128 -0.0488
  404TMC3    O2 6096   1.814   2.720  13.246 -0.9237  0.1677 -0.3901
  405MPD2     C 6097   2.072   3.819  14.924  1.2233  0.3425  0.1517
  405MPD2    C1 6098   2.076   3.732  14.815 -0.7694 -0.3434 -0.2968
  405MPD2    C2 6099   1.982   3.747  14.708  0.2550  0.8365  0.3341
  405MPD2    C3 6100   1.897   3.851  14.714 -0.0146 -0.4159 -1.3209
  405MPD2    C4 6101   1.900   3.945  14.826  0.2126  0.2751 -0.4782
  405MPD2    C5 6102   1.979   3.925  14.932 -0.0227 -0.1996  0.4605
  405MPD2     H 6103   1.980   3.676  14.626  1.6560  3.5724 -2.0419
  405MPD2    H1 6104   1.829   4.027  14.827  0.8527  0.7561  4.1278
  405MPD2    H2 6105   2.137   3.796  15.008  1.1201 -1.6856 -0.3129
  405MPD2    H3 6106   1.981   3.993  15.015 -1.9679  0.4311 -0.0196
  405MPD2     N 6107   1.811   3.860  14.602  0.9830 -0.3812 -0.0806
  405MPD2    H5 6108   1.810   3.778  14.541  0.8292  0.7959 -1.6776
  405MPD2    N1 6109   2.169   3.632  14.829  0.2274  0.0790 -0.5398
  405MPD2    H7 6110   2.204   3.617  14.923 -0.8264  0.0227 -0.1561
  406TMC3    C1 6111   1.424   3.865  14.444  0.2174 -0.3650 -1.1680
  406TMC3    C2 6112   1.459   3.770  14.353  0.0062  0.3276 -0.3213
  406TMC3    C3 6113   1.591   3.738  14.324  0.0088  0.0525  0.3005
  406TMC3    C4 6114   1.507   3.956  14.490 -0.3117 -0.1776  0.1648
  406TMC3    C5 6115   1.637   3.926  14.460  0.5652 -0.3161 -0.5912
  406TMC3    C6 6116   1.681   3.819  14.387  0.5687 -0.1950  0.1527
  406TMC3     C 6117   1.290   3.909  14.451  0.1361  0.7027 -0.0421
  406TMC3     O 6118   1.262   4.028  14.469 -0.0643 -0.0280  1.2600
  406TMC3     H 6119   1.379   3.716  14.303  0.2405 -0.8091  0.5477
  406TMC3    H1 6120   1.465   4.034  14.552  0.3359 -0.2186  0.6501
  406TMC3    H2 6121   1.782   3.811  14.349  0.3683 -1.3327 -0.1465
  406TMC3    C7 6122   1.713   3.957  14.580 -0.8344 -0.1634  0.9550
  406TMC3    C8 6123   1.630   3.594  14.351 -0.4736 -0.2897 -0.9270
  406TMC3    O1 6124   1.695   4.072  14.638  0.0595 -0.3544  0.0278
  406TMC3    O2 6125   1.529   3.527  14.368  0.7518 -0.4900 -0.1751
  407MPD2     C 6126   0.127   1.303   9.907  0.0721 -0.2999 -0.3966
  407MPD2    C1 6127   0.157   1.205  10.001  0.2321  0.8462 -0.6856
  407MPD2    C2 6128   0.177   1.251  10.132 -0.7438 -0.2098  0.8089
  407MPD2    C3 6129   0.174   1.390  10.154 -0.3522 -0.8376  0.1493
  407MPD2    C4 6130   0.159   1.485  10.053  0.0166 -0.4144  1.0103
  407MPD2    C5 6131   0.124   1.440   9.928 -0.2756  0.2740  0.1525
  407MPD2     H 6132   0.193   1.181  10.213 -1.2922 -0.8849  0.3392
  407MPD2    H1 6133   0.167   1.590  10.082  0.1925  0.1792 -1.2205
  407MPD2    H2 6134   0.093   1.267   9.811  0.5537 -0.8492 -0.3595
  407MPD2    H3 6135   0.105   1.516   9.853 -1.1823  0.1382  0.2392
  407MPD2     N 6136   0.224   1.447  10.274 -0.3907 -0.5484 -0.4291
  407MPD2    H5 6137   0.235   1.547  10.282  0.1805 -0.7103  0.8330
  407MPD2    N1 6138   0.173   1.069   9.973 -0.5466 -0.9961 -0.0341
  407MPD2    H7 6139   0.190   0.997  10.043 -1.5902 -1.8492 -0.6569
  408TMC3    C1 6140   0.215   0.872   9.844 -0.4943 -0.0494  0.1209
  408TMC3    C2 6141   0.310   0.817   9.764  0.3707 -0.5702  0.3995
  408TMC3    C3 6142   0.317   0.678   9.766 -0.2201 -0.3568 -0.0530
  408TMC3    C4 6143   0.135   0.801   9.927  0.4260 -0.3556  0.3383
  408TMC3    C5 6144   0.145   0.662   9.926  0.0520 -0.9212 -0.1561
  408TMC3    C6 6145   0.235   0.599   9.840  0.3320 -0.3019 -0.8768
  408TMC3     C 6146   0.200   1.018   9.848 -0.2173  0.5290  0.2605
  408TMC3     O 6147   0.226   1.078   9.747  0.0229 -0.5626  0.5942
  408TMC3     H 6148   0.366   0.862   9.683 -2.6468  0.6783 -1.0087
  408TMC3    H1 6149   0.053   0.843   9.984  1.4512 -0.9398  2.2828
  408TMC3    H2 6150   0.240   0.491   9.834 -3.2511 -0.4315 -1.2878
  408TMC3    C7 6151   0.068   0.585  10.021  0.0065  0.2897  0.5374
  408TMC3    C8 6152   0.426   0.615   9.700  0.3326 -0.7936  0.6695
  408TMC3    O1 6153   0.048   0.469   9.993 -0.0093 -0.0127  0.0687
  408TMC3    O2 6154   0.400   0.513   9.636  0.1300 -0.5172 -0.2425
  409MPD2     C 6155   4.146   1.361  16.887 -0.1958 -0.6924 -0.2055
  409MPD2    C1 6156   4.237   1.359  16.993  0.0711 -0.0026 -0.2714
  409MPD2    C2 6157   4.341   1.446  16.994  0.4105  0.4770  0.2012
  409MPD2    C3 6158   4.359   1.546  16.898 -0.1700 -0.5838 -0.1548
  409MPD2    C4 6159   4.256   1.549  16.798  0.2617  0.0088  0.3822
  409MPD2    C5 6160   4.154   1.456  16.795  0.1547 -0.1914  0.5919
  409MPD2     H 6161   4.394   1.438  17.088 -1.3057 -0.8294  1.0531
  409MPD2    H1 6162   4.255   1.622  16.717 -0.1337 -0.4321 -0.0065
  409MPD2    H2 6163   4.061   1.295  16.876  0.4159 -1.8859  2.1312
  409MPD2    H3 6164   4.082   1.455  16.714  2.6908  0.2763 -1.6642
  409MPD2     N 6165   4.465   1.647  16.900 -0.0033 -0.7917 -0.3659
  409MPD2    H5 6166   4.465   1.730  16.841 -0.2497 -0.7021 -0.2365
  409MPD2    N1 6167   4.226   1.268  17.093  0.6797  0.2413  0.0656
  409MPD2    H7 6168   4.284   1.282  17.176  1.5796  2.9781 -0.9995
  410TMC3    C1 6169   4.672   1.747  16.965 -0.2773  0.4431 -0.1811
  410TMC3    C2 6170   0.039   1.752  17.055 -0.6857  0.3314  0.4409
  410TMC3    C3 6171   0.141   1.836  17.016 -0.0316 -0.4694 -0.3631
  410TMC3    C4 6172   4.668   1.810  16.850  0.0021 -0.6399 -0.0262
  410TMC3    C5 6173   0.032   1.899  16.813 -0.9004  0.1329  0.1127
  410TMC3    C6 6174   0.138   1.904  16.893 -0.2285  0.9083 -0.3796
  410TMC3     C 6175   4.568   1.646  16.994 -0.2594 -0.8085 -0.3072
  410TMC3     O 6176   4.584   1.579  17.096 -0.8684  0.0378 -0.0676
  410TMC3     H 6177   0.034   1.704  17.152  0.8028 -0.2800  0.2141
  410TMC3    H1 6178   4.588   1.798  16.778  0.2100  0.0717 -0.3803
  410TMC3    H2 6179   0.225   1.962  16.867  1.2486  0.1427  2.8079
  410TMC3    C7 6180   0.012   1.981  16.697 -0.4621 -0.1382 -0.0522
  410TMC3    C8 6181   0.272   1.832  17.077  0.3902 -0.9891 -0.1692
  410TMC3    O1 6182   4.666   1.927  16.621 -0.3539 -0.0363 -0.3311
  410TMC3    O2 6183   0.352   1.920  17.069 -0.0729  0.0295 -0.8436
  411MPD2     C 6184   0.041   2.549  14.473 -0.0780 -0.1560  0.3655
  411MPD2    C1 6185   4.704   2.503  14.580  0.5275 -0.4293 -0.3648
  411MPD2    C2 6186   4.615   2.396  14.552 -0.0373  0.6745  0.4448
  411MPD2    C3 6187   4.612   2.331  14.422 -0.0632  0.0928 -0.1780
  411MPD2    C4 6188   4.700   2.380  14.327 -0.5109 -0.2184 -0.1043
  411MPD2    C5 6189   0.042   2.484  14.350 -0.0671  0.3246 -0.8425
  411MPD2     H 6190   4.532   2.385  14.621 -0.9582 -2.7238 -1.1915
  411MPD2    H1 6191   4.691   2.353  14.223  0.6540 -1.5074  0.1371
  411MPD2    H2 6192   0.106   2.634  14.490 -0.0738 -0.6328  2.6121
  411MPD2    H3 6193   0.104   2.504  14.263 -0.5586  4.2171 -0.3198
  411MPD2     N 6194   4.515   2.241  14.379 -0.6413  0.1875 -0.1446
  411MPD2    H5 6195   4.527   2.206  14.285 -0.7921  1.6125 -0.7034
  411MPD2    N1 6196   4.686   2.588  14.691  0.3390  0.6196 -0.4160
  411MPD2    H7 6197   0.003   2.675  14.689  2.8572 -0.8292  1.1808
  412TMC3    C1 6198   4.324   2.099  14.383  0.3924 -0.8845 -0.1138
  412TMC3    C2 6199   4.259   2.160  14.280 -0.2752  0.4471 -0.7316
  412TMC3    C3 6200   4.123   2.131  14.257  0.4043  1.5282 -0.3137
  412TMC3    C4 6201   4.265   2.003  14.459 -0.2347  0.1654 -0.6711
  412TMC3    C5 6202   4.132   1.977  14.438  0.2234  0.0645  0.0076
  412TMC3    C6 6203   4.065   2.055  14.351 -0.0865  1.1072  0.1166
  412TMC3     C 6204   4.422   2.174  14.456  1.3057 -0.2545  0.8739
  412TMC3     O 6205   4.418   2.174  14.578 -0.1255  0.4857  0.0305
  412TMC3     H 6206   4.307   2.235  14.218 -1.4213  1.2565 -0.6387
  412TMC3    H1 6207   4.328   1.935  14.516 -0.8422  1.0960  1.0984
  412TMC3    H2 6208   3.962   2.022  14.339 -0.2501  1.0032  1.7502
  412TMC3    C7 6209   4.080   1.839  14.422 -0.4988  0.3731  0.4107
  412TMC3    C8 6210   4.088   2.107  14.118  0.3363 -0.6460 -1.0067
  412TMC3    O1 6211   3.975   1.807  14.477 -0.1864  0.1117 -0.3103
  412TMC3    O2 6212   4.179   2.113  14.038 -0.7643 -0.7411 -0.1778
  413MPD2     C 6213   1.137   0.164  15.844  0.1746  0.4717 -0.5450
  413MPD2    C1 6214   1.168   0.167  15.713 -0.0386  0.7003 -0.0957
  413MPD2    C2 6215   1.272   0.088  15.666 -0.4399  0.1879  0.0429
  413MPD2    C3 6216   1.332   4.728  15.749 -0.3504 -0.9602 -0.9377
  413MPD2    C4 6217   1.298   4.729  15.886  0.0010  0.0064 -0.3383
  413MPD2    C5 6218   1.203   0.082  15.931 -0.4114 -0.1984  0.0470
  413MPD2     H 6219   1.304   0.104  15.564  0.0857  0.8057  0.3019
  413MPD2    H1 6220   1.351   4.671  15.960  0.4427 -0.2856 -0.8952
  413MPD2    H2 6221   1.064   0.229  15.890 -0.9359 -1.1553 -0.0026
  413MPD2    H3 6222   1.178   0.076  16.036  1.3917  1.5253  0.5684
  413MPD2     N 6223   1.443   4.658  15.695 -0.0351 -0.2284 -0.5356
  413MPD2    H5 6224   1.462   4.669  15.596  0.8625 -1.3952 -0.4903
  413MPD2    N1 6225   1.085   0.239  15.624 -0.3523  0.1757  0.0908
  413MPD2    H7 6226   1.027   0.309  15.669 -0.1743  1.3769 -1.5394
  414TMC3    C1 6227   1.621   4.524  15.673 -0.0808 -0.4121 -0.0176
  414TMC3    C2 6228   1.639   4.385  15.677 -0.0218 -0.2664 -0.4167
  414TMC3    C3 6229   1.675   4.312  15.561 -0.1568 -0.7536  0.7013
  414TMC3    C4 6230   1.656   4.596  15.560  1.1177  0.1023  0.3506
  414TMC3    C5 6231   1.690   4.516  15.449  0.3230  0.2499  0.4022
  414TMC3    C6 6232   1.697   4.382  15.444  0.4077  0.6938 -0.6001
  414TMC3     C 6233   1.529   4.583  15.767 -0.1572  0.3198 -0.1221
  414TMC3     O 6234   1.523   4.541  15.882  0.3633  0.2790 -0.2367
  414TMC3     H 6235   1.599   4.333  15.763 -0.9859 -0.5420 -1.0393
  414TMC3    H1 6236   1.645   4.703  15.548 -0.4352  0.2202  2.8499
  414TMC3    H2 6237   1.747   4.331  15.362 -2.2360 -0.7513 -1.2817
  414TMC3    C7 6238   1.756   4.580  15.331 -0.4339  0.2711  0.0473
  414TMC3    C8 6239   1.742   4.179  15.575 -0.4012 -0.0275  0.6822
  414TMC3    O1 6240   1.851   4.658  15.354  0.3276 -0.3031 -0.6712
  414TMC3    O2 6241   1.745   4.110  15.473  0.5412 -0.3057  0.3806
  415TMC3    C1 6242   2.579   2.753  10.159  0.7066 -0.2768 -0.3008
  415TMC3    C2 6243   2.587   2.883  10.098 -0.2560  0.2445  0.4332
  415TMC3    C3 6244   2.615   2.881   9.961 -0.7018 -0.3317  0.4373
  415TMC3    C4 6245   2.613   2.637  10.099 -0.3740 -0.6617 -0.2633
  415TMC3    C5 6246   2.647   2.647   9.969  0.1555 -0.3140  0.5763
  415TMC3    C6 6247   2.643   2.766   9.900 -0.1710  0.2271  0.7358
  415TMC3     C 6248   2.508   2.740  10.284  0.0730  0.1721  0.3221
  415TMC3     O 6249   2.474   2.628  10.318  0.2005  0.2164 -0.0412
  415TMC3     H 6250   2.546   2.971  10.146 -1.2466 -0.2030  0.4188
  415TMC3    H1 6251   2.620   2.541  10.150 -1.6502 -1.4268 -1.5422
  415TMC3    H2 6252   2.653   2.764   9.792  0.4385  0.0731  0.7931
  415TMC3    C7 6253   2.687   2.529   9.895  0.2818  0.1956 -0.2303
  415TMC3    C8 6254   2.593   2.999   9.884 -0.3083 -0.4982  0.2777
  415TMC3    O1 6255   2.774   2.536   9.811  0.5779 -0.4317  0.1617
  415TMC3    O2 6256   2.552   2.984   9.768  0.2022 -0.1765  0.2307
  416MPD2     C 6257   3.924   2.003  11.685 -0.4693 -0.6012 -0.5512
  416MPD2    C1 6258   3.835   1.983  11.589  0.0447 -0.0366 -0.5368
  416MPD2    C2 6259   3.870   1.886  11.498  0.2669 -0.5113 -0.3957
  416MPD2    C3 6260   3.991   1.826  11.505 -0.3191  0.1404 -0.4640
  416MPD2    C4 6261   4.074   1.843  11.617 -0.2153 -0.7069  0.2725
  416MPD2    C5 6262   4.041   1.936  11.709 -0.0210 -0.0672  0.3639
  416MPD2     H 6263   3.806   1.861  11.414 -1.3872 -0.1820  0.7549
  416MPD2    H1 6264   4.167   1.788  11.612 -0.2789 -0.9310  1.7643
  416MPD2    H2 6265   3.893   2.081  11.753 -1.3690 -3.1460  1.9634
  416MPD2    H3 6266   4.106   1.955  11.794  0.4219 -0.9652  0.2253
  416MPD2     N 6267   4.030   1.721  11.417  0.6167  0.3345  0.1658
  416MPD2    H5 6268   4.100   1.659  11.454 -0.7701 -0.9281  0.6693
  416MPD2    N1 6269   3.716   2.051  11.593  0.4312  0.5559  0.5261
  416MPD2    H7 6270   3.687   2.100  11.677 -1.8521 -0.1442  0.1643
  417TMC3    C1 6271   3.492   2.089  11.555 -0.3854 -0.1087 -0.3431
  417TMC3    C2 6272   3.472   2.115  11.685 -0.6213 -0.4366 -0.3227
  417TMC3    C3 6273   3.351   2.183  11.715 -0.2379  0.2114 -0.0762
  417TMC3    C4 6274   3.423   2.147  11.456  0.3162  0.3657  0.0030
  417TMC3    C5 6275   3.306   2.207  11.494  0.0467 -0.5702 -0.2543
  417TMC3    C6 6276   3.272   2.238  11.622 -0.3530  0.5642 -0.1977
  417TMC3     C 6277   3.613   2.030  11.507 -0.2876  0.0444  0.3491
  417TMC3     O 6278   3.614   1.972  11.399 -0.2109 -0.1589  0.1029
  417TMC3     H 6279   3.526   2.070  11.767 -1.5770  1.6835  1.4426
  417TMC3    H1 6280   3.429   2.123  11.350 -0.7132 -0.8153  0.2212
  417TMC3    H2 6281   3.188   2.303  11.644  0.2918  1.2436  0.2743
  417TMC3    C7 6282   3.236   2.275  11.387  0.1431  0.6708 -0.9728
  417TMC3    C8 6283   3.348   2.246  11.840  0.1419 -0.2140  0.3730
  417TMC3    O1 6284   3.309   2.313  11.297 -0.5908  0.4129  0.6732
  417TMC3    O2 6285   3.236   2.261  11.887  0.5560  0.4551 -0.1578
  418TMC3    C1 6286   2.272   3.953   0.308  0.1535  0.0779  0.0757
  418TMC3    C2 6287   2.142   3.961   0.271  0.1374 -0.3576 -0.3691
  418TMC3    C3 6288   2.058   3.889   0.348  0.2435 -0.2609  0.2467
  418TMC3    C4 6289   2.326   3.893   0.417  0.4523  0.1128  0.4421
  418TMC3    C5 6290   2.232   3.838   0.498 -0.2708  0.5380 -0.4407
  418TMC3    C6 6291   2.101   3.828   0.462 -0.3215 -0.2313  0.2112
  418TMC3     C 6292   2.369   4.003   0.214 -0.4039 -0.5673 -0.6485
  418TMC3     O 6293   2.352   4.116   0.163  0.4713  0.4775 -0.3469
  418TMC3     H 6294   2.112   4.015   0.181 -0.1042  0.5379  0.2492
  418TMC3    H1 6295   2.432   3.897   0.439  0.6313 -0.4953 -0.2751
  418TMC3    H2 6296   2.045   3.760   0.524 -1.6830  0.7101  0.0115
  418TMC3    C7 6297   2.280   3.759   0.608  0.3769 -0.1852  0.2877
  418TMC3    C8 6298   1.937   3.849   0.282  0.4908 -0.3170 -0.3477
  418TMC3    O1 6299   2.383   3.699   0.598 -0.2362 -0.1363  0.1472
  418TMC3    O2 6300   1.872   3.942   0.232 -0.5431 -0.6424  0.0998
  419MPD2     C 6301   1.448   1.784  12.305  0.3354 -0.2938 -0.4582
  419MPD2    C1 6302   1.348   1.868  12.344 -0.3668  1.2713 -0.2270
  419MPD2    C2 6303   1.324   1.894  12.477  0.0448 -0.0153 -0.0599
  419MPD2    C3 6304   1.396   1.826  12.575 -0.0807 -0.1446 -0.0452
  419MPD2    C4 6305   1.489   1.730  12.539  0.3030 -0.9870 -0.0919
  419MPD2    C5 6306   1.511   1.707  12.403 -0.1675  0.3086 -0.2879
  419MPD2     H 6307   1.247   1.964  12.507 -0.9577 -1.4960  0.8321
  419MPD2    H1 6308   1.540   1.665  12.609  0.9950 -0.2637  0.0878
  419MPD2    H2 6309   1.473   1.744  12.207  2.1995  0.1951 -0.1829
  419MPD2    H3 6310   1.571   1.620  12.378  0.1166  0.5101 -0.3033
  419MPD2     N 6311   1.371   1.861  12.717  0.1053 -0.3612  0.1358
  419MPD2    H5 6312   1.302   1.933  12.735  0.4916  0.5983 -2.1712
  419MPD2    N1 6313   1.259   1.935  12.252 -0.2079 -0.2369 -0.3056
  419MPD2    H7 6314   1.189   1.993  12.296  0.8302  0.3160  0.6088
  420TMC3    C1 6315   1.390   1.821  12.953  0.0297  0.1020 -0.4482
  420TMC3    C2 6316   1.259   1.856  12.967 -0.2573  0.6095  0.3438
  420TMC3    C3 6317   1.219   1.890  13.098  0.3017 -0.0672  0.1556
  420TMC3    C4 6318   1.464   1.784  13.061  0.0156 -0.6169  0.2207
  420TMC3    C5 6319   1.416   1.799  13.187  0.4238  0.3437  0.6894
  420TMC3    C6 6320   1.294   1.853  13.211 -0.6706 -0.1142  1.3827
  420TMC3     C 6321   1.453   1.808  12.816 -0.2895  0.2963 -0.7336
  420TMC3     O 6322   1.570   1.771  12.814  0.2166  0.2231  0.4373
  420TMC3     H 6323   1.197   1.890  12.885 -2.1992 -2.5391  0.5009
  420TMC3    H1 6324   1.566   1.748  13.056 -0.1042 -1.1338  1.5302
  420TMC3    H2 6325   1.281   1.897  13.309  0.6841  2.0737  0.5851
  420TMC3    C7 6326   1.490   1.744  13.299  0.6425  0.3526 -0.3649
  420TMC3    C8 6327   1.087   1.953  13.120  0.3344  0.6672  0.3982
  420TMC3    O1 6328   1.609   1.734  13.276 -0.3757 -0.2066  0.1476
  420TMC3    O2 6329   1.029   1.995  13.022 -0.4133  0.6344  0.7211
  421TMC3    C1 6330   2.460   2.879  13.912  0.6080 -1.1408  0.1672
  421TMC3    C2 6331   2.378   2.977  13.958  0.1101 -0.3250 -0.6886
  421TMC3    C3 6332   2.393   3.007  14.090 -1.0777 -0.5497  1.0024
  421TMC3    C4 6333   2.542   2.804  13.993 -0.3878 -0.1357  0.4033
  421TMC3    C5 6334   2.557   2.848  14.123 -0.2919 -0.1553  0.0601
  421TMC3    C6 6335   2.480   2.941  14.175 -0.8984 -0.2675  0.1890
  421TMC3     C 6336   2.469   2.849  13.767  0.1132  0.1714 -0.0830
  421TMC3     O 6337   2.538   2.757  13.731 -0.2022  0.1162  0.0323
  421TMC3     H 6338   2.301   3.024  13.898 -1.4088  1.2691  2.5014
  421TMC3    H1 6339   2.606   2.734  13.940 -1.7542 -0.2828 -1.0512
  421TMC3    H2 6340   2.511   2.987  14.269  0.1146  0.1225 -0.3401
  421TMC3    C7 6341   2.696   2.828  14.164 -0.6165 -0.1430  0.5014
  421TMC3    C8 6342   2.332   3.134  14.138 -0.2706 -0.0720  0.0655
  421TMC3    O1 6343   2.756   2.912  14.228  0.1970 -0.6940  1.1030
  421TMC3    O2 6344   2.326   3.147  14.260 -0.2910 -0.1306  0.0549
  422TMC3    C1 6345   0.273   4.694  12.551  0.2889  0.4479 -0.4573
  422TMC3    C2 6346   0.262   0.044  12.658 -1.1407 -0.5685 -0.5337
  422TMC3    C3 6347   0.147   0.064  12.729  0.0886 -0.0255  0.5340
  422TMC3    C4 6348   0.162   4.623  12.509 -0.1189  0.2024 -0.0162
  422TMC3    C5 6349   0.042   4.647  12.578 -0.5792 -0.7507  0.0218
  422TMC3    C6 6350   0.029   0.007  12.683 -0.3228 -0.3740  0.0209
  422TMC3     C 6351   0.382   4.720  12.463  0.3422 -0.1918  0.3361
  422TMC3     O 6352   0.480   0.036  12.514  0.3995 -0.3647 -0.2647
  422TMC3     H 6353   0.352   0.100  12.679 -0.2834 -2.0562 -0.2396
  422TMC3    H1 6354   0.156   4.557  12.423  0.0686  0.2493 -0.0637
  422TMC3    H2 6355   4.667   0.025  12.729 -0.6813 -1.9949 -0.0724
  422TMC3    C7 6356   4.656   4.620  12.505  0.2462 -0.4190  1.2802
  422TMC3    C8 6357   0.111   0.201  12.777  0.2609  0.4812  0.3178
  422TMC3    O1 6358   4.651   4.646  12.386  0.4374 -0.2808 -0.3384
  422TMC3    O2 6359   0.194   0.255  12.846 -0.4824 -0.6346 -0.0152
  423MPD2     C 6360   0.676   0.996   0.418 -0.3340 -0.8079  0.0090
  423MPD2    C1 6361   0.763   0.902   0.461  0.1903  1.6221  0.2869
  423MPD2    C2 6362   0.813   0.817   0.369  0.4106 -0.3271  0.8580
  423MPD2    C3 6363   0.786   0.820   0.235  0.2320  0.1698  0.1297
  423MPD2    C4 6364   0.694   0.916   0.191  0.2182 -0.8576  0.7728
  423MPD2    C5 6365   0.640   0.998   0.285 -0.1780 -0.1012 -0.5117
  423MPD2     H 6366   0.890   0.748   0.400 -0.0063 -1.2306 -0.1336
  423MPD2    H1 6367   0.655   0.922   0.090  1.6360  0.2734  0.2896
  423MPD2    H2 6368   0.627   1.070   0.480  2.1072  0.5492  0.3273
  423MPD2    H3 6369   0.563   1.069   0.255 -0.6623 -0.2560  0.3445
  423MPD2     N 6370   0.826   0.730   0.136  0.0244 -0.6477  0.1962
  423MPD2    H5 6371   0.809   0.754   0.039 -0.2662 -0.1207  0.3736
  423MPD2    N1 6372   0.786   0.875   0.598 -0.0350 -0.0065 -0.0306
  423MPD2    H7 6373   0.822   0.782   0.612  1.7045  0.7023  0.1910
  424TMC3    C1 6374   0.828   0.904   0.833 -0.4604  0.7453 -0.3993
  424TMC3    C2 6375   0.946   0.824   0.831  0.1614 -0.4814 -0.1921
  424TMC3    C3 6376   1.003   0.792   0.951  0.0916  0.3696 -0.6525
  424TMC3    C4 6377   0.765   0.934   0.953 -0.1201 -0.1118  0.1937
  424TMC3    C5 6378   0.827   0.880   1.065 -0.0499  0.1026  0.0629
  424TMC3    C6 6379   0.946   0.811   1.068 -0.3326  0.2257  1.1698
  424TMC3     C 6380   0.760   0.954   0.710  0.5864 -0.0927 -0.9751
  424TMC3     O 6381   0.711   1.068   0.718 -0.0892 -0.6095  0.6881
  424TMC3     H 6382   0.989   0.792   0.737  1.6362 -0.0369  0.3329
  424TMC3    H1 6383   0.664   0.973   0.955 -0.0936  0.0250 -0.9240
  424TMC3    H2 6384   0.996   0.792   1.163  1.1353 -2.4879 -0.1403
  424TMC3    C7 6385   0.753   0.877   1.193 -0.2121 -0.4481  0.3539
  424TMC3    C8 6386   1.111   0.700   0.944 -0.0897 -0.0422 -0.1453
  424TMC3    O1 6387   0.785   0.793   1.282  0.1361 -0.1220 -0.2179
  424TMC3    O2 6388   1.107   0.616   0.855  0.2468 -0.3242  0.8299
  425MPD2     C 6389   4.667   0.164  16.641  0.1506  0.5819  0.7009
  425MPD2    C1 6390   4.697   0.084  16.751 -0.1704  0.0506  0.2762
  425MPD2    C2 6391   4.617   0.090  16.866 -0.0029 -0.4400  0.3715
  425MPD2    C3 6392   4.519   0.195  16.878 -0.0854 -0.0687  0.0511
  425MPD2    C4 6393   4.497   0.269  16.770  0.3022  0.8018 -0.3264
  425MPD2    C5 6394   4.565   0.258  16.652  0.3155  0.2201  0.5718
  425MPD2     H 6395   4.636   0.021  16.947 -0.4644 -1.0446 -0.0342
  425MPD2    H1 6396   4.415   0.340  16.766 -1.8155 -1.6702 -0.3071
  425MPD2    H2 6397   4.725   0.146  16.551 -0.6048  3.7896 -0.4167
  425MPD2    H3 6398   4.545   0.326  16.570  0.7413  1.3856  1.4403
  425MPD2     N 6399   4.441   0.195  16.995  0.1363  0.3858  0.3703
  425MPD2    H5 6400   4.462   0.113  17.051  0.3604  0.5298  0.4964
  425MPD2    N1 6401   0.058   4.714  16.735 -0.6938  0.0414  0.1415
  425MPD2    H7 6402   0.104   4.713  16.644 -1.1358  3.6094 -0.1227
  426TMC3    C1 6403   0.174   4.514  16.778  0.2478 -0.0625 -0.1427
  426TMC3    C2 6404   0.150   4.472  16.651 -0.0732  0.2002 -0.1801
  426TMC3    C3 6405   0.250   4.405  16.599  1.1415 -0.0689  0.3332
  426TMC3    C4 6406   0.265   4.456  16.853 -0.2139 -0.1537  0.6238
  426TMC3    C5 6407   0.362   4.375  16.804  0.1102  0.5123  0.0226
  426TMC3    C6 6408   0.356   4.354  16.670  0.1336  0.2963  0.7741
  426TMC3     C 6409   0.084   4.614  16.827 -0.4117 -0.1933  0.1349
  426TMC3     O 6410   0.064   4.609  16.947  0.2109  0.4025 -0.4499
  426TMC3     H 6411   0.072   4.510  16.586  0.2787  1.1839 -0.0319
  426TMC3    H1 6412   0.259   4.492  16.955 -1.3569  2.3301 -0.3217
  426TMC3    H2 6413   0.425   4.288  16.619 -1.4398 -1.3277  0.7420
  426TMC3    C7 6414   0.378   4.249  16.875  0.0679  0.2688  0.4411
  426TMC3    C8 6415   0.210   4.307  16.506  0.2425  0.8459  0.7377
  426TMC3    O1 6416   0.430   4.156  16.815 -0.1994 -0.6288 -0.3280
  426TMC3    O2 6417   0.285   4.287  16.410 -0.2480  1.0938  0.6152
  427MPD2     C 6418   4.009   2.131  14.729 -0.1811 -0.2418 -0.4255
  427MPD2    C1 6419   3.940   2.084  14.840 -0.4858 -0.1488  0.0199
  427MPD2    C2 6420   3.802   2.097  14.839 -0.1662  0.2451 -1.1605
  427MPD2    C3 6421   3.732   2.167  14.738 -0.5057  0.0773  0.3469
  427MPD2    C4 6422   3.805   2.212  14.629  0.0455  0.1005  0.5181
  427MPD2    C5 6423   3.938   2.199  14.630  0.3922  0.3638  0.4263
  427MPD2     H 6424   3.754   2.056  14.928  0.4505 -0.3776 -1.1132
  427MPD2    H1 6425   3.760   2.257  14.542 -1.3735 -0.7294  0.8226
  427MPD2    H2 6426   4.111   2.099  14.708  0.0836  0.0692  0.4219
  427MPD2    H3 6427   3.999   2.241  14.551  2.0821 -1.0552  0.9607
  427MPD2     N 6428   3.589   2.172  14.742 -0.2171 -0.5449 -0.1124
  427MPD2    H5 6429   3.543   2.211  14.660  0.6013  1.4400  0.3631
  427MPD2    N1 6430   4.001   2.009  14.948  0.2565 -0.0584  0.6145
  427MPD2    H7 6431   3.944   1.972  15.024 -3.0554  1.7944 -0.9899
  428TMC3    C1 6432   4.172   1.931  15.082  0.0071 -0.0762  0.0327
  428TMC3    C2 6433   4.066   1.881  15.155  0.0300  0.1117  0.0246
  428TMC3    C3 6434   4.080   1.860  15.288  0.0491 -0.2028 -0.7405
  428TMC3    C4 6435   4.292   1.972  15.139  0.0543 -0.2285  0.0596
  428TMC3    C5 6436   4.297   1.952  15.277 -0.3677 -1.1345  0.5273
  428TMC3    C6 6437   4.199   1.896  15.349 -0.0643  1.0036 -0.1971
  428TMC3     C 6438   4.137   2.006  14.962  0.4269  0.3442 -0.4696
  428TMC3     O 6439   4.227   2.068  14.910  0.1180 -0.0818 -0.2769
  428TMC3     H 6440   3.970   1.845  15.120 -0.5330  0.8755  0.8064
  428TMC3    H1 6441   4.366   2.029  15.085 -1.6371  0.1377 -1.8637
  428TMC3    H2 6442   4.205   1.857  15.450 -0.7967 -2.7911 -1.6348
  428TMC3    C7 6443   4.421   1.996  15.352 -0.8532  0.0174  0.2661
  428TMC3    C8 6444   3.992   1.766  15.350  0.2629 -0.4345  0.3531
  428TMC3    O1 6445   4.435   1.951  15.468  0.5350  0.2538  0.1723
  428TMC3    O2 6446   3.930   1.690  15.281 -0.6132 -0.7012 -0.0812
  429MPD2     C 6447   0.209   2.317   0.235  0.2506  0.2147 -0.2726
  429MPD2    C1 6448   0.275   2.235   0.141  0.2412 -0.6358  0.9122
  429MPD2    C2 6449   0.379   2.295   0.069  0.9746 -0.2223 -0.6035
  429MPD2    C3 6450   0.419   2.425   0.079  0.3339 -0.0358  0.0737
  429MPD2    C4 6451   0.359   2.499   0.180  0.7211 -0.6587  0.0652
  429MPD2    C5 6452   0.256   2.440   0.256 -0.6875 -0.2103 -0.1628
  429MPD2     H 6453   0.425   2.239  17.724 -1.9420 -1.2568 -1.5778
  429MPD2    H1 6454   0.384   2.604   0.193 -1.5395  0.2017 -2.5168
  429MPD2    H2 6455   0.126   2.282   0.295 -0.9821  1.8987 -1.0199
  429MPD2    H3 6456   0.220   2.501   0.338  1.4041  0.5194  0.2231
  429MPD2     N 6457   0.515   2.473  17.714  0.2098  0.1134 -0.1553
  429MPD2    H5 6458   0.552   2.405  17.649  1.0589 -1.1306  1.6309
  429MPD2    N1 6459   0.233   2.106   0.109  0.3871 -0.5103  0.6185
  429MPD2    H7 6460   0.293   2.054   0.046 -1.0771 -0.7973 -0.5421
  430TMC3    C1 6461   0.666   2.633  17.612  0.1160  0.0508 -0.6129
  430TMC3    C2 6462   0.652   2.765  17.578  0.2606 -0.4227  0.6794
  430TMC3    C3 6463   0.684   2.804  17.447  0.1523  0.0998  0.6078
  430TMC3    C4 6464   0.687   2.541  17.517  0.1368  1.0591 -0.2502
  430TMC3    C5 6465   0.713   2.578  17.387  0.1585  0.5858 -0.4769
  430TMC3    C6 6466   0.699   2.715  17.344  0.7194 -0.0066 -0.4175
  430TMC3     C 6467   0.569   2.600  17.722 -0.1291  0.5434 -0.1829
  430TMC3     O 6468   0.555   2.682   0.075 -0.4497 -0.2878 -0.5409
  430TMC3     H 6469   0.633   2.834  17.660 -2.0781 -1.3443  0.9047
  430TMC3    H1 6470   0.693   2.436  17.546  0.9129  0.8277 -1.2537
  430TMC3    H2 6471   0.735   2.752  17.249  1.1932  0.8983  0.1106
  430TMC3    C7 6472   0.698   2.471  17.289 -0.3856  0.0502  0.2365
  430TMC3    C8 6473   0.618   2.935  17.418 -0.3854 -0.1541  0.9125
  430TMC3    O1 6474   0.688   2.358  17.335 -0.6281 -0.2528 -0.9686
  430TMC3    O2 6475   0.621   3.019  17.509  0.0408  0.8043  0.9509
  431MPD2     C 6476   0.765   2.603  12.430 -0.4688  0.7432 -0.4033
  431MPD2    C1 6477   0.875   2.650  12.366  0.3708  0.3409 -0.2135
  431MPD2    C2 6478   0.938   2.557  12.285 -0.2618  0.8212 -0.9130
  431MPD2    C3 6479   0.912   2.427  12.271  0.2966 -0.0590  0.5874
  431MPD2    C4 6480   0.805   2.384  12.355 -0.3520 -0.4700 -0.4142
  431MPD2    C5 6481   0.734   2.471  12.428 -0.3430 -0.0345  0.7132
  431MPD2     H 6482   1.011   2.604  12.220 -0.6645  2.9418  0.1808
  431MPD2    H1 6483   0.789   2.277  12.355 -1.3805 -0.3066 -2.6323
  431MPD2    H2 6484   0.704   2.662  12.497 -1.7143  0.2071 -1.0708
  431MPD2    H3 6485   0.647   2.438  12.483 -1.2050 -0.0366 -0.6486
  431MPD2     N 6486   0.981   2.333  12.184 -0.2660 -0.7724 -0.7932
  431MPD2    H5 6487   0.949   2.236  12.178 -1.3975 -0.5132  0.9074
  431MPD2    N1 6488   0.918   2.782  12.371 -0.0828  0.4477 -0.8820
  431MPD2    H7 6489   0.974   2.807  12.290  2.1077  1.5069  0.9555
  432TMC3    C1 6490   1.153   2.260  12.045 -0.0074  0.1241  0.5127
  432TMC3    C2 6491   1.207   2.270  11.923  0.0982 -0.7193 -0.3908
  432TMC3    C3 6492   1.240   2.160  11.854 -0.1983  0.2764 -0.5574
  432TMC3    C4 6493   1.151   2.145  12.118  0.6826  0.2226  0.2640
  432TMC3    C5 6494   1.188   2.035  12.045 -0.0023  0.4367 -0.2605
  432TMC3    C6 6495   1.219   2.040  11.907 -0.2386 -0.2461 -1.4431
  432TMC3     C 6496   1.082   2.372  12.102 -0.7407 -0.7994 -0.5580
  432TMC3     O 6497   1.125   2.484  12.071 -0.3018 -0.2507  0.3386
  432TMC3     H 6498   1.188   2.363  11.871 -0.6348  0.6929  2.3668
  432TMC3    H1 6499   1.117   2.142  12.220 -0.4752  0.6336 -0.1061
  432TMC3    H2 6500   1.253   1.949  11.859  0.5475 -0.8395  0.2294
  432TMC3    C7 6501   1.284   1.947  12.118  0.0931  0.2949  0.5457
  432TMC3    C8 6502   1.339   2.166  11.760  0.4324  0.0391  1.0737
  432TMC3    O1 6503   1.376   1.900  12.054  0.2827 -0.2400  0.2177
  432TMC3    O2 6504   1.359   2.071  11.689 -0.0956 -0.2392  0.7326
  433MPD2     C 6505   0.039   0.731  10.908  0.7339  0.2755  0.2476
  433MPD2    C1 6506   0.175   0.764  10.897 -0.1947  0.0765  0.1038
  433MPD2    C2 6507   0.220   0.867  10.975 -0.3099 -0.2414 -0.1622
  433MPD2    C3 6508   0.140   0.936  11.067 -0.2634 -0.1019 -0.2705
  433MPD2    C4 6509   0.001   0.915  11.063 -0.4808 -0.2993  0.5220
  433MPD2    C5 6510   4.688   0.809  10.994 -0.1048 -0.2418 -0.2495
  433MPD2     H 6511   0.325   0.890  10.984 -1.2134  3.5694  0.7532
  433MPD2    H1 6512   4.668   0.967  11.131 -2.0626  0.0658 -1.3126
  433MPD2    H2 6513   4.731   0.644  10.859  1.3161  0.0412  0.1593
  433MPD2    H3 6514   4.583   0.783  10.996 -0.0130 -0.4340  1.9032
  433MPD2     N 6515   0.201   1.020  11.160 -0.0411 -0.0410 -0.1872
  433MPD2    H5 6516   0.302   1.014  11.169  0.1375  3.6343 -0.0133
  433MPD2    N1 6517   0.255   0.677  10.822 -0.1674  0.3139  0.4178
  433MPD2    H7 6518   0.219   0.591  10.781 -0.6959  1.2181 -1.0515
  434TMC3    C1 6519   0.464   0.587  10.749 -0.6208 -1.0997 -0.1282
  434TMC3    C2 6520   0.597   0.559  10.790 -0.8093 -0.2611 -0.3349
  434TMC3    C3 6521   0.639   0.432  10.790  0.1353 -0.2882 -0.2892
  434TMC3    C4 6522   0.395   0.496  10.679  0.3485 -0.2413 -0.1909
  434TMC3    C5 6523   0.439   0.370  10.678 -0.1833  0.4399 -0.4417
  434TMC3    C6 6524   0.559   0.331  10.734  0.1258  0.4106 -0.1156
  434TMC3     C 6525   0.395   0.697  10.823  0.4710  0.3551  0.1350
  434TMC3     O 6526   0.464   0.797  10.852 -0.1659  0.4781  0.1024
  434TMC3     H 6527   0.654   0.635  10.841 -1.7312 -1.3333  2.2641
  434TMC3    H1 6528   0.299   0.522  10.634  0.7829 -0.2445 -1.1231
  434TMC3    H2 6529   0.599   0.233  10.710 -0.2230  0.3526 -0.4507
  434TMC3    C7 6530   0.349   0.275  10.617 -0.2542 -0.4142 -0.5047
  434TMC3    C8 6531   0.760   0.398  10.871  0.9582 -0.5089 -0.3443
  434TMC3    O1 6532   0.257   0.310  10.543 -0.0885  0.2582 -0.3766
  434TMC3    O2 6533   0.803   0.490  10.938  0.0512 -0.2351  0.0718
  435MPD2     C 6534   1.702   0.670  15.438  0.2195 -0.4944 -0.0140
  435MPD2    C1 6535   1.638   0.634  15.558  0.3681  0.1786  0.2386
  435MPD2    C2 6536   1.719   0.600  15.665  1.0933 -0.7610  0.4492
  435MPD2    C3 6537   1.858   0.597  15.651 -0.2610  0.5529 -0.0072
  435MPD2    C4 6538   1.921   0.640  15.536 -0.3088  0.5594 -0.0342
  435MPD2    C5 6539   1.840   0.685  15.433 -0.4791  0.3764 -0.6692
  435MPD2     H 6540   1.670   0.560  15.753  0.6026  0.0355  0.5445
  435MPD2    H1 6541   2.027   0.638  15.513 -0.6983 -2.3836 -1.5975
  435MPD2    H2 6542   1.652   0.680  15.343  0.5021  0.1429 -0.0942
  435MPD2    H3 6543   1.885   0.717  15.340 -0.7531 -0.1659 -0.9899
  435MPD2     N 6544   1.924   0.563  15.771 -0.3402  0.5139  0.4217
  435MPD2    H5 6545   1.862   0.534  15.846  0.1011 -2.9265 -0.5713
  435MPD2    N1 6546   1.494   0.624  15.577 -0.1186  0.0977 -0.5307
  435MPD2    H7 6547   1.463   0.607  15.672  1.6640 -1.5220 -0.2489
  436TMC3    C1 6548   1.080   0.642  15.659 -0.0671 -0.3365  0.2834
  436TMC3    C2 6549   1.215   0.615  15.632 -0.1207 -0.3012  0.5408
  436TMC3    C3 6550   1.262   0.614  15.505 -0.2638 -0.5783  0.3267
  436TMC3    C4 6551   0.995   0.665  15.547 -0.2095  0.0584 -0.1794
  436TMC3    C5 6552   1.052   0.661  15.422 -0.3107 -0.2931  0.5767
  436TMC3    C6 6553   1.183   0.630  15.400 -1.0136  0.5611  0.7725
  436TMC3     C 6554   1.021   0.575  15.773  0.3565  0.7140  0.6311
  436TMC3     O 6555   1.068   0.464  15.804 -0.1140 -0.1293  0.3990
  436TMC3     H 6556   1.276   0.596  15.719  1.1332  0.9945 -0.0529
  436TMC3    H1 6557   0.890   0.674  15.571  0.1191  0.1463  1.2607
  436TMC3    H2 6558   1.224   0.622  15.300 -1.7211 -0.5520  0.5784
  436TMC3    C7 6559   0.959   0.661  15.310 -0.4361 -0.4132 -0.4800
  436TMC3    C8 6560   1.406   0.635  15.470 -0.4650 -0.0608  0.2891
  436TMC3    O1 6561   0.844   0.633  15.336 -0.6636  0.0357  0.3438
  436TMC3    O2 6562   1.430   0.644  15.348  0.0493 -0.0498  0.2309
  437TMC3    C1 6563   0.473   2.843  13.020  0.3795 -0.2987 -0.9726
  437TMC3    C2 6564   0.342   2.803  13.017  0.1944 -0.0543  0.7731
  437TMC3    C3 6565   0.259   2.877  12.935  0.2568 -0.9126 -0.1359
  437TMC3    C4 6566   0.520   2.961  12.967 -0.5784 -0.3638 -0.3013
  437TMC3    C5 6567   0.431   3.027  12.885  1.0274  0.4650  0.4187
  437TMC3    C6 6568   0.303   2.985  12.865 -0.0494  0.6878 -0.3077
  437TMC3     C 6569   0.544   2.776  13.120  0.6925  0.1000 -0.2566
  437TMC3     O 6570   0.481   2.732  13.212  0.1237  0.5622  0.2777
  437TMC3     H 6571   0.299   2.723  13.076 -3.4504 -0.0300 -1.8725
  437TMC3    H1 6572   0.614   3.001  13.004 -0.5598 -1.2053  0.5682
  437TMC3    H2 6573   0.237   3.027  12.790  0.2294  0.7561 -0.5163
  437TMC3    C7 6574   0.472   3.154  12.828 -0.0684 -0.2498 -0.0768
  437TMC3    C8 6575   0.127   2.827  12.905 -0.6722 -0.5328 -0.1066
  437TMC3    O1 6576   0.381   3.230  12.804 -0.2530 -0.2556  0.2168
  437TMC3    O2 6577   0.106   2.708  12.912  0.4510 -0.1743  0.3151
  438MPD2     C 6578   2.809   3.993  16.380  0.6648  0.0482 -0.9145
  438MPD2    C1 6579   2.826   3.858  16.410  0.3576 -0.3918  0.0378
  438MPD2    C2 6580   2.812   3.810  16.543  0.5099  0.8065 -0.5343
  438MPD2    C3 6581   2.766   3.894  16.645 -0.1137 -0.1289 -0.4085
  438MPD2    C4 6582   2.737   4.021  16.613  0.9800  0.5574  0.0388
  438MPD2    C5 6583   2.756   4.068  16.480  0.8120 -0.1240  0.2833
  438MPD2     H 6584   2.827   3.703  16.552 -1.3999  0.5151 -0.7855
  438MPD2    H1 6585   2.706   4.095  16.686  1.5031 -0.0023  0.8146
  438MPD2    H2 6586   2.812   4.041  16.283 -1.4142 -0.8070 -1.3976
  438MPD2    H3 6587   2.735   4.171  16.454  1.2787  0.0419  0.5694
  438MPD2     N 6588   2.735   3.848  16.778  0.1581  0.0009  0.3059
  438MPD2    H5 6589   2.711   3.916  16.851  2.1032 -0.4883  1.4029
  438MPD2    N1 6590   2.880   3.767  16.325  0.1004  0.3073 -0.1878
  438MPD2    H7 6591   2.912   3.676  16.356 -1.3280  0.6579  2.3394
  439TMC3    C1 6592   2.961   3.670  16.127  0.0719 -0.3043  0.7191
  439TMC3    C2 6593   2.908   3.638  16.004 -0.0731  0.1682  0.8725
  439TMC3    C3 6594   2.920   3.509  15.963 -0.6915 -0.0921  0.5880
  439TMC3    C4 6595   3.041   3.589  16.198 -0.0883 -0.1462  0.4346
  439TMC3    C5 6596   3.072   3.467  16.140 -0.4244 -0.1020  0.5786
  439TMC3    C6 6597   3.005   3.421  16.029  0.1646  0.1867 -0.3271
  439TMC3     C 6598   2.912   3.790  16.194  0.1868  0.7452  1.0455
  439TMC3     O 6599   2.871   3.881  16.124  0.1162 -0.1219  0.5486
  439TMC3     H 6600   2.845   3.708  15.951  1.1930  0.2877 -0.4864
  439TMC3    H1 6601   3.091   3.622  16.288  2.1575 -3.2260  0.3373
  439TMC3    H2 6602   3.038   3.330  15.980  1.0534 -1.2325  2.8910
  439TMC3    C7 6603   3.178   3.390  16.206  0.4805  0.3594 -0.2053
  439TMC3    C8 6604   2.897   3.459  15.828  0.3881  0.1325 -0.2683
  439TMC3    O1 6605   3.178   3.407  16.328  0.0302  0.0759 -0.2402
  439TMC3    O2 6606   2.877   3.338  15.808 -0.6745  0.2213  0.0958
  440MPD2     C 6607   1.591   3.642  14.820 -0.4005 -0.0067  0.9949
  440MPD2    C1 6608   1.608   3.726  14.929  0.4363  0.2639  0.6048
  440MPD2    C2 6609   1.717   3.706  15.008  0.2526 -0.3572  0.2988
  440MPD2    C3 6610   1.799   3.597  15.000  0.4332  0.1890 -0.3127
  440MPD2    C4 6611   1.774   3.514  14.897 -0.5096 -0.5524 -0.3584
  440MPD2    C5 6612   1.671   3.530  14.806  0.4999  0.5713 -0.6819
  440MPD2     H 6613   1.741   3.781  15.084  2.1169 -0.9924  0.3495
  440MPD2    H1 6614   1.852   3.443  14.875 -2.0340 -2.7676  1.3741
  440MPD2    H2 6615   1.514   3.661  14.745 -0.5724  1.1529  1.4578
  440MPD2    H3 6616   1.662   3.467  14.718 -3.0633  0.6247 -0.3560
  440MPD2     N 6617   1.903   3.559  15.092 -0.1139 -0.0033  0.0962
  440MPD2    H5 6618   1.940   3.466  15.078 -2.2244 -0.9165  0.6081
  440MPD2    N1 6619   1.534   3.844  14.944  0.5194 -0.5088 -0.8276
  440MPD2    H7 6620   1.578   3.916  15.001  1.1261 -0.1337 -1.7754
  441TMC3    C1 6621   2.031   3.573  15.293 -0.1378 -0.4868  0.1259
  441TMC3    C2 6622   2.112   3.657  15.362 -0.2068 -0.1668  0.1564
  441TMC3    C3 6623   2.176   3.610  15.479 -0.0463  0.0398  0.9752
  441TMC3    C4 6624   2.014   3.443  15.327  0.3400 -0.1959 -0.2480
  441TMC3    C5 6625   2.100   3.399  15.424 -0.4179 -1.3069  0.1531
  441TMC3    C6 6626   2.191   3.471  15.493  0.0401 -0.1327  0.8095
  441TMC3     C 6627   1.941   3.637  15.196 -0.2095  0.5712 -0.5699
  441TMC3     O 6628   1.936   3.757  15.210  0.0293  0.2026 -0.0049
  441TMC3     H 6629   2.118   3.762  15.335  3.2951 -0.4015  0.1283
  441TMC3    H1 6630   1.947   3.374  15.276  2.1670 -0.6207 -2.1069
  441TMC3    H2 6631   2.227   3.442  15.591 -2.1047 -1.4714  1.2011
  441TMC3    C7 6632   2.070   3.275  15.485 -0.2710  0.0003  0.3412
  441TMC3    C8 6633   2.180   3.694  15.595 -0.0485 -1.2608 -0.2585
  441TMC3    O1 6634   1.953   3.254  15.510  0.1683 -0.2842  0.2976
  441TMC3    O2 6635   2.253   3.661  15.687 -0.0760  0.5884  0.0342
  442MPD2     C 6636   4.668   4.629  16.267 -0.1971 -0.2951 -0.6287
  442MPD2    C1 6637   4.557   4.570  16.324  0.6127  0.1644 -0.0489
  442MPD2    C2 6638   4.541   4.430  16.310  0.3255  0.3104  0.2236
  442MPD2    C3 6639   4.638   4.354  16.245 -0.1605 -0.1119 -0.2529
  442MPD2    C4 6640   0.008   4.418  16.183 -0.3354 -0.1138  0.5843
  442MPD2    C5 6641   0.024   4.551  16.197  0.4275 -0.2939  0.1448
  442MPD2     H 6642   4.454   4.380  16.352  0.8993 -0.1122  0.9160
  442MPD2    H1 6643   0.064   4.356  16.113 -0.6589  1.8934 -1.4601
  442MPD2    H2 6644   4.696   4.733  16.259 -0.5981  0.1168  2.9849
  442MPD2    H3 6645   0.103   4.595  16.137  1.3228 -1.4716  0.4638
  442MPD2     N 6646   4.640   4.208  16.225  1.1605  0.2038  0.3670
  442MPD2    H5 6647   4.726   4.183  16.178 -1.2370 -3.9914 -1.8260
  442MPD2    N1 6648   4.455   4.641  16.393  0.4012 -0.3487  0.2996
  442MPD2    H7 6649   4.377   4.586  16.426 -1.2556  1.0096 -1.3395
  443TMC3    C1 6650   4.325   0.100  16.447 -0.7291 -0.4867  0.4379
  443TMC3    C2 6651   4.295   0.227  16.404 -0.4324  0.0735  1.0353
  443TMC3    C3 6652   4.174   0.278  16.442 -0.8186  0.3046 -0.1400
  443TMC3    C4 6653   4.238   0.022  16.522 -0.3593  0.5074  0.2920
  443TMC3    C5 6654   4.129   0.088  16.570 -1.2830 -0.1339 -0.0364
  443TMC3    C6 6655   4.092   0.216  16.532 -0.7478  0.5397 -0.5566
  443TMC3     C 6656   4.457   0.047  16.400 -0.0335  0.0475 -0.1638
  443TMC3     O 6657   4.534   0.126  16.344 -0.1688 -0.1487 -0.2487
  443TMC3     H 6658   4.345   0.280  16.324 -0.3929 -0.7268  0.5337
  443TMC3    H1 6659   4.262   4.656  16.557 -0.2516  0.0208 -1.1935
  443TMC3    H2 6660   4.002   0.270  16.557 -1.2197 -0.2210 -0.6163
  443TMC3    C7 6661   4.045   0.026  16.671 -0.2213  0.7327  0.2901
  443TMC3    C8 6662   4.121   0.389  16.363 -0.1853  0.4829  0.0429
  443TMC3    O1 6663   4.017   4.643  16.647 -0.0416  0.1023  0.0493
  443TMC3    O2 6664   4.192   0.480  16.319  0.8386 -0.5550  0.0007
  444MPD2     C 6665   0.005   3.883  16.882 -0.3502  0.4089 -0.0842
  444MPD2    C1 6666   4.648   3.779  16.880  0.1143 -0.0159  0.0045
  444MPD2    C2 6667   4.691   3.655  16.849 -0.6787 -0.0740  0.3646
  444MPD2    C3 6668   0.090   3.640  16.794  0.1236 -0.4917 -0.4365
  444MPD2    C4 6669   0.171   3.753  16.793  0.0377 -0.1402  0.4344
  444MPD2    C5 6670   0.132   3.873  16.840 -0.2310  0.0441 -0.6725
  444MPD2     H 6671   4.628   3.566  16.840 -2.1498  0.9712  0.3160
  444MPD2    H1 6672   0.276   3.753  16.764 -0.0277 -1.2687  0.1874
  444MPD2    H2 6673   4.712   3.980  16.922  0.5950  0.7299 -0.2193
  444MPD2    H3 6674   0.203   3.954  16.853 -0.1241 -0.0003 -0.9891
  444MPD2     N 6675   0.123   3.511  16.751 -0.8714  0.3550  0.2436
  444MPD2    H5 6676   0.047   3.444  16.757 -0.9206  0.4154  0.2952
  444MPD2    N1 6677   4.518   3.788  16.938 -0.1572  0.1314 -0.1019
  444MPD2    H7 6678   4.471   3.699  16.948  0.3769  0.0800  1.9481
  445TMC3    C1 6679   0.265   3.328  16.685 -0.3912  0.4604 -0.3109
  445TMC3    C2 6680   0.160   3.270  16.616  0.4409 -0.6972  1.2463
  445TMC3    C3 6681   0.194   3.167  16.539  0.0877 -0.2611  0.5357
  445TMC3    C4 6682   0.393   3.275  16.696 -0.3577 -0.1276 -1.0687
  445TMC3    C5 6683   0.410   3.163  16.624 -0.2881  0.6641 -0.5490
  445TMC3    C6 6684   0.318   3.107  16.548 -0.8104  0.7526 -0.2310
  445TMC3     C 6685   0.249   3.474  16.719 -0.1043  0.8966  0.4642
  445TMC3     O 6686   0.358   3.538  16.722 -0.0848  0.0954  0.1591
  445TMC3     H 6687   0.065   3.321  16.611  0.6728 -0.0237  3.5976
  445TMC3    H1 6688   0.473   3.326  16.749 -1.3662  1.6540 -1.2450
  445TMC3    H2 6689   0.344   3.040  16.467 -0.1115 -0.5759  1.1100
  445TMC3    C7 6690   0.546   3.104  16.628 -0.8667  0.4854  0.4652
  445TMC3    C8 6691   0.110   3.138  16.427  0.0441  0.2228  0.5278
  445TMC3    O1 6692   0.634   3.168  16.679 -0.2990 -0.4054  0.3325
  445TMC3    O2 6693   0.024   3.218  16.398 -0.4070  0.3045 -0.2173
  446MPD2     C 6694   0.062   0.259  11.009  0.1413 -0.0749 -0.3963
  446MPD2    C1 6695   0.020   0.366  11.081  0.0345  0.2319 -0.4979
  446MPD2    C2 6696   0.123   0.449  11.139  0.5922 -0.0701 -0.2534
  446MPD2    C3 6697   0.255   0.424  11.106 -0.3229 -0.2374 -0.5955
  446MPD2    C4 6698   0.289   0.311  11.031 -0.1127 -0.1133  0.4172
  446MPD2    C5 6699   0.192   0.236  10.976  0.3289  0.2084 -0.7296
  446MPD2     H 6700   0.091   0.537  11.192  0.7543 -0.3909  0.3746
  446MPD2    H1 6701   0.390   0.281  11.003  0.5006  1.1726  1.2316
  446MPD2    H2 6702   4.722   0.196  10.960 -0.1474 -2.2682  2.8873
  446MPD2    H3 6703   0.218   0.147  10.920  1.3399 -0.0026  0.0715
  446MPD2     N 6704   0.349   0.524  11.132  0.3625  0.0981  0.1060
  446MPD2    H5 6705   0.315   0.620  11.140 -2.2034 -0.5016 -3.3669
  446MPD2    N1 6706   4.623   0.400  11.109  0.7843  0.2992  0.6370
  446MPD2    H7 6707   4.606   0.493  11.147 -2.2797  0.0032 -0.0493
  447TMC3    C1 6708   0.566   0.605  11.187  0.6618  0.0473  0.2077
  447TMC3    C2 6709   0.528   0.733  11.162 -0.4576  0.1886 -0.0294
  447TMC3    C3 6710   0.624   0.834  11.178 -0.1245  0.2937 -0.9502
  447TMC3    C4 6711   0.691   0.580  11.241  0.0900 -0.0962  0.5290
  447TMC3    C5 6712   0.783   0.677  11.248  0.3582  0.5375  0.1818
  447TMC3    C6 6713   0.751   0.806  11.215  0.2590 -0.8934  0.0523
  447TMC3     C 6714   0.483   0.489  11.150  0.2968  0.3567  0.2574
  447TMC3     O 6715   0.544   0.385  11.146 -0.9164 -0.4934 -0.4118
  447TMC3     H 6716   0.426   0.759  11.134 -0.0494  0.8267 -0.9125
  447TMC3    H1 6717   0.718   0.476  11.259  0.4995 -0.1590 -0.4557
  447TMC3    H2 6718   0.815   0.890  11.241  1.1646 -1.7361  0.5694
  447TMC3    C7 6719   0.912   0.634  11.301 -0.1569  0.5476 -0.3736
  447TMC3    C8 6720   0.615   0.948  11.088  0.2424 -0.2485  0.2987
  447TMC3    O1 6721   0.937   0.515  11.313  0.1557 -0.1798  0.3099
  447TMC3    O2 6722   0.511   1.010  11.108  0.5246  0.6384 -0.4591
  448TMC3    C1 6723   3.524   0.341  17.093 -0.5043  0.4069 -0.4928
  448TMC3    C2 6724   3.442   0.259  17.016 -0.1292  0.8799 -0.1321
  448TMC3    C3 6725   3.406   0.136  17.060  0.5426 -0.1982 -0.0057
  448TMC3    C4 6726   3.550   0.303  17.223  0.5957  0.1663  0.2101
  448TMC3    C5 6727   3.488   0.188  17.266  0.3146  0.0039 -0.2730
  448TMC3    C6 6728   3.426   0.099  17.188  0.4412  0.7030 -0.7996
  448TMC3     C 6729   3.609   0.428  17.019  0.2111 -0.1273 -0.0761
  448TMC3     O 6730   3.595   0.432  16.898 -0.3091 -0.0213  0.3824
  448TMC3     H 6731   3.443   0.283  16.910 -0.4179 -0.5359 -0.4521
  448TMC3    H1 6732   3.603   0.371  17.289 -2.0749  1.3277  1.1733
  448TMC3    H2 6733   3.383   0.002  17.210 -2.2991  2.3541  1.1012
  448TMC3    C7 6734   3.487   0.165  17.407  0.1130 -0.3069 -0.2799
  448TMC3    C8 6735   3.342   0.037  16.969 -0.3794  0.0663  0.2706
  448TMC3    O1 6736   3.570   0.229  17.469  0.5068 -0.1931 -0.1648
  448TMC3    O2 6737   3.331   4.659  17.014  0.0357  0.1400 -0.2992
  449MPD2     C 6738   4.350   3.560  14.243 -0.1155 -0.4187 -0.7569
  449MPD2    C1 6739   4.243   3.576  14.157 -0.0427  0.1660  0.0586
  449MPD2    C2 6740   4.122   3.563  14.209  0.6387  0.0093 -0.7218
  449MPD2    C3 6741   4.099   3.524  14.340  0.5932 -0.0725 -0.0647
  449MPD2    C4 6742   4.210   3.497  14.429 -0.3442 -0.1800 -0.5122
  449MPD2    C5 6743   4.336   3.518  14.372  0.5392  0.8220 -0.5686
  449MPD2     H 6744   4.036   3.592  14.150 -0.0951 -1.2975 -0.2912
  449MPD2    H1 6745   4.205   3.473  14.534  3.8417 -0.7921 -0.4458
  449MPD2    H2 6746   4.450   3.566  14.203  0.6007 -2.8183  0.6928
  449MPD2    H3 6747   4.422   3.518  14.438  1.0896  0.9362 -1.2847
  449MPD2     N 6748   3.969   3.521  14.393 -0.5791 -0.1138  0.3730
  449MPD2    H5 6749   3.893   3.540  14.329 -0.0343  0.3258 -0.1419
  449MPD2    N1 6750   4.247   3.619  14.026 -0.0002  0.8365 -0.1726
  449MPD2    H7 6751   4.159   3.613  13.977 -1.4046  1.7068  2.2070
  450TMC3    C1 6752   4.304   3.725  13.836 -0.4022  0.6448 -0.1532
  450TMC3    C2 6753   4.354   3.663  13.731 -0.0954 -0.3490  0.0085
  450TMC3    C3 6754   4.264   3.635  13.632 -0.2272  0.1405  0.1534
  450TMC3    C4 6755   4.178   3.779  13.840  0.3984  0.8381 -0.3000
  450TMC3    C5 6756   4.088   3.750  13.742  0.0438  0.1533 -0.0772
  450TMC3    C6 6757   4.131   3.672  13.636  0.3195  0.0454 -0.1818
  450TMC3     C 6758   4.352   3.674  13.962  0.1488 -0.0044 -0.5309
  450TMC3     O 6759   4.471   3.657  13.989  0.3967  0.1521 -0.4728
  450TMC3     H 6760   4.449   3.611  13.732 -0.5011 -1.0976 -0.2684
  450TMC3    H1 6761   4.142   3.826  13.930 -0.8843  1.4845 -1.1445
  450TMC3    H2 6762   4.055   3.640  13.566 -0.5841  0.0522  0.7987
  450TMC3    C7 6763   3.968   3.701  13.803 -0.2538 -0.3020  0.1635
  450TMC3    C8 6764   4.291   3.520  13.550  0.2178  0.1605  0.9316
  450TMC3    O1 6765   3.986   3.614  13.889 -0.0501  0.2810  0.2867
  450TMC3    O2 6766   4.195   3.463  13.503  0.3466  0.4304  0.2238
  451MPD2     C 6767   0.411   1.657   1.567  0.4649 -0.0518  0.0289
  451MPD2    C1 6768   0.465   1.723   1.461  0.3771  0.8214  0.0686
  451MPD2    C2 6769   0.572   1.671   1.398  0.0610 -0.6015 -0.3329
  451MPD2    C3 6770   0.617   1.545   1.427  0.1998  0.3715 -0.0006
  451MPD2    C4 6771   0.557   1.477   1.531 -0.8710  0.4255 -0.0850
  451MPD2    C5 6772   0.453   1.532   1.600 -0.2866  0.5248  0.5342
  451MPD2     H 6773   0.625   1.720   1.317  0.8221 -2.1985 -0.7984
  451MPD2    H1 6774   0.600   1.380   1.553 -0.6975  1.0014  2.1653
  451MPD2    H2 6775   0.324   1.688   1.624  1.0629  2.5178 -0.4568
  451MPD2    H3 6776   0.397   1.474   1.672  1.2399  0.2970  1.5602
  451MPD2     N 6777   0.712   1.473   1.344  0.1325  0.3552  0.3655
  451MPD2    H5 6778   0.718   1.372   1.355  1.5473  0.5942  1.9082
  451MPD2    N1 6779   0.411   1.839   1.422  0.0722 -0.0150  0.1409
  451MPD2    H7 6780   0.337   1.865   1.485 -1.2427  0.3766 -1.5687
  452TMC3    C1 6781   0.906   1.449   1.205  0.3748 -0.3212 -0.1888
  452TMC3    C2 6782   0.846   1.347   1.141 -0.7275  0.4719  0.2109
  452TMC3    C3 6783   0.919   1.292   1.036 -0.5579  0.2479 -0.5930
  452TMC3    C4 6784   1.025   1.503   1.164 -0.5974 -0.7760  0.0892
  452TMC3    C5 6785   1.098   1.430   1.086 -0.9036 -0.5005 -0.8078
  452TMC3    C6 6786   1.053   1.317   1.026  0.2617 -0.0729 -0.0708
  452TMC3     C 6787   0.809   1.539   1.269 -0.0216  0.1960  0.1669
  452TMC3     O 6788   0.835   1.655   1.246  0.0988  0.2014 -0.2578
  452TMC3     H 6789   0.738   1.336   1.148 -0.3104 -2.4915  2.0336
  452TMC3    H1 6790   1.068   1.595   1.202  0.2080 -1.7375  1.5456
  452TMC3    H2 6791   1.120   1.269   0.956  0.6811 -0.8601  0.8743
  452TMC3    C7 6792   1.204   1.504   1.025 -0.2807  0.3261 -0.1710
  452TMC3    C8 6793   0.866   1.363   0.925 -0.0991 -0.0197 -0.1635
  452TMC3    O1 6794   1.186   1.622   1.008  0.1814 -0.1762 -0.4413
  452TMC3    O2 6795   0.753   1.420   0.934  0.2545 -0.0239 -0.0336
  453TMC3    C1 6796   2.235   4.218  11.983  0.2082 -0.0346  0.0658
  453TMC3    C2 6797   2.138   4.124  12.013  0.3173 -0.0402  0.3662
  453TMC3    C3 6798   2.042   4.108  11.917  0.5284 -0.4406  0.2224
  453TMC3    C4 6799   2.232   4.299  11.870  0.0345  0.1717  1.1774
  453TMC3    C5 6800   2.121   4.278  11.794 -0.1589  0.4641  0.3316
  453TMC3    C6 6801   2.012   4.195  11.816  0.1192  0.4524 -0.7411
  453TMC3     C 6802   2.355   4.232  12.065 -0.7880 -0.4335  0.0760
  453TMC3     O 6803   2.446   4.297  12.018 -0.0968 -0.4467  0.3646
  453TMC3     H 6804   2.130   4.059  12.099  0.8792 -1.6356 -0.7905
  453TMC3    H1 6805   2.313   4.361  11.833  0.0961 -0.6206 -0.0122
  453TMC3    H2 6806   1.931   4.182  11.745  0.3682  0.2537 -0.9891
  453TMC3    C7 6807   2.147   4.274  11.653 -0.4220  0.1786 -0.1565
  453TMC3    C8 6808   1.946   4.008  11.954  0.4390  0.0828 -0.0363
  453TMC3    O1 6809   2.110   4.172  11.587  0.1185 -0.3498  0.1013
  453TMC3    O2 6810   1.829   4.021  11.916 -0.0112  0.6093  0.1290
  454MPD2     C 6811   0.994   3.190  16.329  0.3041  0.3032  0.8636
  454MPD2    C1 6812   0.930   3.305  16.278  0.8761 -0.2488  0.0501
  454MPD2    C2 6813   0.907   3.414  16.366  0.4972 -0.4215 -0.6702
  454MPD2    C3 6814   0.920   3.394  16.504  0.0176 -0.0626 -0.3997
  454MPD2    C4 6815   0.978   3.278  16.553 -0.0144 -0.0134 -0.7804
  454MPD2    C5 6816   1.014   3.179  16.464 -1.0177  0.7376  0.4653
  454MPD2     H 6817   0.854   3.502  16.332  0.0162 -0.6620 -0.5532
  454MPD2    H1 6818   0.988   3.261  16.660  0.4727 -0.0562 -0.8311
  454MPD2    H2 6819   1.001   3.099  16.270  1.4311  1.5468 -0.9050
  454MPD2    H3 6820   1.058   3.087  16.500  0.2020  0.1546 -2.4760
  454MPD2     N 6821   0.873   3.481  16.604 -0.0926 -0.4822 -0.1051
  454MPD2    H5 6822   0.940   3.482  16.680 -0.4961  0.4379  0.2495
  454MPD2    N1 6823   0.906   3.326  16.140  0.2076  0.1029  0.1458
  454MPD2    H7 6824   0.890   3.423  16.115 -1.5274 -0.4494 -0.8604
  455TMC3    C1 6825   0.668   3.592  16.508  0.2815  0.0173  0.1873
  455TMC3    C2 6826   0.592   3.703  16.496 -0.5121 -0.3247 -0.6256
  455TMC3    C3 6827   0.469   3.693  16.439  0.1638  0.6200  0.3281
  455TMC3    C4 6828   0.622   3.469  16.453 -0.1650  0.1414 -0.0840
  455TMC3    C5 6829   0.504   3.475  16.376 -0.2196  0.2557  0.0679
  455TMC3    C6 6830   0.423   3.580  16.385 -0.5190 -0.0794  0.3995
  455TMC3     C 6831   0.780   3.589  16.599  0.1638  0.0059 -1.0242
  455TMC3     O 6832   0.784   3.683  16.679 -0.0042 -0.0601  0.4824
  455TMC3     H 6833   0.618   3.792  16.554 -0.7737 -0.2393 -0.6367
  455TMC3    H1 6834   0.676   3.378  16.472  2.6006  2.0587  1.2880
  455TMC3    H2 6835   0.329   3.581  16.331  0.8664 -0.5737 -1.9989
  455TMC3    C7 6836   0.461   3.361  16.301  0.1599  0.4632 -0.7924
  455TMC3    C8 6837   0.387   3.811  16.439  0.3128  0.0618 -0.2492
  455TMC3    O1 6838   0.353   3.346  16.246  0.1118  0.4436  0.1213
  455TMC3    O2 6839   0.450   3.912  16.449 -0.1066  0.8870 -0.4039
  456MPD2     C 6840   3.372   3.817  15.977  1.2211 -0.2509 -0.2189
  456MPD2    C1 6841   3.397   3.730  16.081 -0.2704 -0.2467  0.2050
  456MPD2    C2 6842   3.357   3.764  16.208 -0.2261  0.4779 -0.4783
  456MPD2    C3 6843   3.271   3.877  16.225  0.8071 -0.2336 -0.5008
  456MPD2    C4 6844   3.245   3.960  16.112  0.0431 -0.6005  0.3405
  456MPD2    C5 6845   3.301   3.933  15.990  0.2438  0.0059 -0.1029
  456MPD2     H 6846   3.379   3.701  16.293 -0.6219 -1.7972 -2.0620
  456MPD2    H1 6847   3.179   4.046  16.109 -0.0658 -0.7685 -1.8423
  456MPD2    H2 6848   3.394   3.799  15.873 -0.2670  0.1928 -0.6122
  456MPD2    H3 6849   3.276   3.999  15.908  1.3879 -1.1421 -1.3499
  456MPD2     N 6850   3.228   3.908  16.358 -0.1400  0.6359 -0.2875
  456MPD2    H5 6851   3.248   3.840  16.431  2.3274  0.3464 -1.2480
  456MPD2    N1 6852   3.466   3.614  16.044 -0.0959 -0.2274  0.2504
  456MPD2    H7 6853   3.474   3.595  15.945  0.9162  1.2554  0.0598
  457TMC3    C1 6854   3.113   4.032  16.529 -0.2103  0.3502  0.0570
  457TMC3    C2 6855   3.115   4.166  16.562  0.3270  0.0317  0.3492
  457TMC3    C3 6856   3.121   4.202  16.698 -0.5727 -0.4238  0.2484
  457TMC3    C4 6857   3.105   3.944  16.634  0.1554  0.6393  0.2934
  457TMC3    C5 6858   3.098   3.980  16.767 -0.4333 -0.4129  0.9410
  457TMC3    C6 6859   3.103   4.113  16.798 -0.5584 -0.1293 -0.6555
  457TMC3     C 6860   3.146   4.014  16.384 -0.3509 -0.0380  0.7559
  457TMC3     O 6861   3.103   4.108  16.315 -0.1295 -0.3059  0.4691
  457TMC3     H 6862   3.142   4.239  16.486 -3.5236  0.8448 -0.2624
  457TMC3    H1 6863   3.080   3.840  16.616 -0.1642 -0.0461  4.8996
  457TMC3    H2 6864   3.117   4.153  16.898  0.5365 -2.7227  0.2254
  457TMC3    C7 6865   3.058   3.882  16.866  0.3034  0.9694 -0.1942
  457TMC3    C8 6866   3.130   4.339  16.741  0.2962 -0.3818 -0.5509
  457TMC3    O1 6867   3.078   3.764  16.836 -0.2659 -0.2322 -0.6957
  457TMC3    O2 6868   3.169   4.365  16.853 -0.5217 -0.1866 -0.3852
  458MPD2     C 6869   0.835   3.499  12.738  0.0048  0.3516 -0.1378
  458MPD2    C1 6870   0.889   3.388  12.792 -0.4359  0.6533  0.9939
  458MPD2    C2 6871   0.817   3.272  12.791 -0.4839  0.1499  0.5161
  458MPD2    C3 6872   0.677   3.271  12.772 -0.6520  0.0433 -0.2240
  458MPD2    C4 6873   0.619   3.396  12.750 -0.0896 -0.0671 -0.2711
  458MPD2    C5 6874   0.698   3.507  12.726 -0.0842  0.1949 -0.3074
  458MPD2     H 6875   0.864   3.179  12.821  1.1901  0.8591  0.1197
  458MPD2    H1 6876   0.512   3.414  12.752 -0.2359 -1.1201  1.7047
  458MPD2    H2 6877   0.887   3.593  12.726 -0.1026  0.3584 -0.5351
  458MPD2    H3 6878   0.660   3.607  12.711 -0.0871 -0.2904 -3.6204
  458MPD2     N 6879   0.605   3.154  12.802  0.0315 -0.1582 -0.2779
  458MPD2    H5 6880   0.647   3.065  12.825  1.2098  0.7777  1.2268
  458MPD2    N1 6881   1.024   3.396  12.823  0.5132  0.2274 -0.4207
  458MPD2    H7 6882   1.078   3.480  12.806  0.2323  0.3049 -0.9259
  459TMC3    C1 6883   1.223   3.353  12.957 -0.3493  0.8874 -0.5215
  459TMC3    C2 6884   1.305   3.403  12.861  0.7553  0.0687 -0.5858
  459TMC3    C3 6885   1.441   3.380  12.878  0.1456  0.9380  0.8514
  459TMC3    C4 6886   1.264   3.272  13.062  0.5475 -0.0649  0.3489
  459TMC3    C5 6887   1.400   3.246  13.062  0.5782 -0.8233  0.1406
  459TMC3    C6 6888   1.489   3.296  12.974  0.2039 -0.0569 -0.7644
  459TMC3     C 6889   1.086   3.321  12.920  0.8637  0.0254  0.1337
  459TMC3     O 6890   1.031   3.234  12.984 -0.0928 -0.3149  0.5946
  459TMC3     H 6891   1.267   3.457  12.775  0.5763 -0.2033 -0.6753
  459TMC3    H1 6892   1.194   3.225  13.130 -0.4945 -2.4449 -2.3207
  459TMC3    H2 6893   1.595   3.274  12.974  0.3841  0.7679 -0.2276
  459TMC3    C7 6894   1.437   3.132  13.139 -0.5286  0.1574 -0.1778
  459TMC3    C8 6895   1.535   3.449  12.790  0.0121  0.0365 -0.4185
  459TMC3    O1 6896   1.497   3.044  13.079 -0.1321 -0.0542 -0.2069
  459TMC3    O2 6897   1.650   3.449  12.830  0.2899  0.2348 -0.2180
  460MPD2     C 6898   0.884   1.128  10.911 -0.2177  0.5198  0.2380
  460MPD2    C1 6899   0.752   1.106  10.958 -0.1438  0.2807 -0.1392
  460MPD2    C2 6900   0.648   1.190  10.918 -0.7297  0.1111 -0.0031
  460MPD2    C3 6901   0.680   1.308  10.853  0.5193  0.1558  0.7231
  460MPD2    C4 6902   0.814   1.336  10.820  0.1137 -0.0439 -0.4604
  460MPD2    C5 6903   0.913   1.242  10.837  0.1635  0.5729 -0.3788
  460MPD2     H 6904   0.545   1.164  10.942 -0.5124 -1.2822 -0.5691
  460MPD2    H1 6905   0.850   1.427  10.774  0.5226  0.9354  1.7970
  460MPD2    H2 6906   0.964   1.058  10.931 -0.9520 -0.3693  0.0706
  460MPD2    H3 6907   1.013   1.270  10.808  0.1078  1.1066 -0.0543
  460MPD2     N 6908   0.579   1.390  10.807  0.0872  0.2011 -0.1062
  460MPD2    H5 6909   0.482   1.368  10.829  0.2564 -1.8126 -1.3629
  460MPD2    N1 6910   0.732   0.986  11.024 -0.3693 -0.0709 -0.1495
  460MPD2    H7 6911   0.811   0.923  11.033  0.7275  1.3161 -0.0041
  461TMC3    C1 6912   0.492   1.543  10.643 -0.7364 -0.2411 -0.1441
  461TMC3    C2 6913   0.425   1.440  10.578 -0.6286  0.5608  0.5380
  461TMC3    C3 6914   0.379   1.470  10.449  0.0400 -0.2996 -0.3821
  461TMC3    C4 6915   0.514   1.664  10.591  0.2859  0.1083 -0.4483
  461TMC3    C5 6916   0.462   1.687  10.466  1.1431 -0.4115  0.3980
  461TMC3    C6 6917   0.405   1.584  10.389 -0.3151  0.4038 -0.5427
  461TMC3     C 6918   0.602   1.492  10.721 -0.5639 -0.3117 -0.5881
  461TMC3     O 6919   0.702   1.559  10.694  0.0354 -0.3642  0.4022
  461TMC3     H 6920   0.437   1.338  10.614 -1.9428  0.4267  0.5811
  461TMC3    H1 6921   0.567   1.743  10.643 -0.6396  0.2758  0.2406
  461TMC3    H2 6922   0.405   1.600  10.282 -0.6178  0.7414 -0.4901
  461TMC3    C7 6923   0.473   1.818  10.396 -0.1685 -0.6395  0.1818
  461TMC3    C8 6924   0.297   1.384  10.375  0.1221  0.1304  0.5001
  461TMC3    O1 6925   0.404   1.833  10.294 -0.2260  0.3876 -0.3547
  461TMC3    O2 6926   0.302   1.264  10.397  0.1559  0.1327 -0.5994
  462TMC3    C1 6927   4.609   2.148   0.573 -0.2723 -0.4153 -0.9652
  462TMC3    C2 6928   0.006   2.140   0.620 -0.3435 -0.8362 -0.1930
  462TMC3    C3 6929   0.079   2.030   0.578  1.0429 -0.2085 -0.2313
  462TMC3    C4 6930   4.550   2.051   0.499  0.4640  0.5035  0.0842
  462TMC3    C5 6931   4.621   1.935   0.474  0.1088 -0.1614  1.5214
  462TMC3    C6 6932   0.022   1.932   0.506  0.2111  0.3471  0.8097
  462TMC3     C 6933   4.552   2.277   0.558  0.1856 -0.1127  0.7657
  462TMC3     O 6934   4.435   2.288   0.518  0.1460 -0.2617 -0.6891
  462TMC3     H 6935   0.058   2.217   0.676  1.0159 -1.3445 -0.7596
  462TMC3    H1 6936   4.446   2.062   0.471 -0.3184 -4.5522  0.8377
  462TMC3    H2 6937   0.080   1.843   0.482 -1.8909 -0.7873 -0.1443
  462TMC3    C7 6938   4.552   1.826   0.409  1.2166  0.6779 -0.4088
  462TMC3    C8 6939   0.217   2.072   0.549 -0.7413 -0.8145 -1.1265
  462TMC3    O1 6940   4.617   1.725   0.388  0.1645 -0.0307 -0.2861
  462TMC3    O2 6941   0.241   2.190   0.556  0.4520  0.1723 -0.0838
  463MPD2     C 6942   0.116   1.425   2.156  0.4623 -0.7254  0.4381
  463MPD2    C1 6943   0.163   1.366   2.042  0.6685 -0.1371 -0.1428
  463MPD2    C2 6944   0.269   1.423   1.969 -0.4044  0.0993 -0.2299
  463MPD2    C3 6945   0.341   1.533   2.015  0.1898 -0.5180  0.6785
  463MPD2    C4 6946   0.284   1.598   2.120 -0.4176  0.3056 -0.2932
  463MPD2    C5 6947   0.181   1.543   2.193 -0.1513  0.3099  0.0650
  463MPD2     H 6948   0.307   1.372   1.881  1.0649  0.0898  0.4039
  463MPD2    H1 6949   0.325   1.689   2.164 -2.2733  1.1676 -0.3157
  463MPD2    H2 6950   0.029   1.390   2.209 -0.8140 -0.2759 -1.3645
  463MPD2    H3 6951   0.151   1.603   2.277  2.5320 -0.1179  1.3231
  463MPD2     N 6952   0.450   1.588   1.953  0.3079 -0.4189 -0.1207
  463MPD2    H5 6953   0.496   1.524   1.889  0.0445  0.3282 -1.0463
  463MPD2    N1 6954   0.091   1.252   1.983  0.5490 -0.0840  0.4440
  463MPD2    H7 6955   0.128   1.220   1.895 -0.3146  0.0315  0.0390
  464TMC3    C1 6956   4.647   1.128   1.930  0.4984  0.1383  0.2968
  464TMC3    C2 6957   4.682   1.146   1.797  0.6920  0.8375 -0.1056
  464TMC3    C3 6958   4.595   1.099   1.711  0.0439  0.2531 -0.7610
  464TMC3    C4 6959   4.533   1.068   1.970  0.1225 -0.0049  0.5284
  464TMC3    C5 6960   4.449   1.027   1.868 -0.1945 -0.9287  0.5834
  464TMC3    C6 6961   4.474   1.045   1.740 -0.1577  0.6279  0.1749
  464TMC3     C 6962   4.711   1.197   2.036 -0.2635  0.1213  0.1054
  464TMC3     O 6963   4.656   1.204   2.146 -0.5815 -0.3366 -0.4977
  464TMC3     H 6964   0.031   1.194   1.745 -0.8192  1.1930 -2.1710
  464TMC3    H1 6965   4.506   1.031   2.069 -1.4342 -2.5932 -0.8614
  464TMC3    H2 6966   4.415   1.011   1.655 -1.4246  1.5321  0.6846
  464TMC3    C7 6967   4.351   0.927   1.911  0.5631 -0.0188 -0.5373
  464TMC3    C8 6968   4.612   1.142   1.580 -0.2213 -0.9839 -0.0419
  464TMC3    O1 6969   4.290   0.940   2.016  0.1035  0.4390  0.1188
  464TMC3    O2 6970   4.721   1.120   1.531 -0.2433 -0.8993  0.1753
  465MPD2     C 6971   2.361   3.424  16.895  0.7896 -0.1397  0.3173
  465MPD2    C1 6972   2.266   3.471  16.979 -0.7032  0.2721  0.0581
  465MPD2    C2 6973   2.142   3.513  16.926  0.5749 -0.0911 -0.3105
  465MPD2    C3 6974   2.124   3.516  16.792 -0.0007  0.2420 -0.2819
  465MPD2    C4 6975   2.223   3.481  16.707  0.3702  0.3054  0.1290
  465MPD2    C5 6976   2.333   3.426  16.758 -0.4037 -0.6681  0.3146
  465MPD2     H 6977   2.064   3.542  16.996  0.5259 -1.2001  0.1012
  465MPD2    H1 6978   2.217   3.494  16.600 -2.5701 -0.5157  0.2130
  465MPD2    H2 6979   2.458   3.387  16.926  0.1927 -2.2787 -0.3673
  465MPD2    H3 6980   2.416   3.382  16.703  0.6537  2.4625 -0.5879
  465MPD2     N 6981   2.001   3.561  16.740  0.9049  0.0682 -0.5437
  465MPD2    H5 6982   1.950   3.612  16.811  1.6311 -2.4405  1.7438
  465MPD2    N1 6983   2.282   3.479  17.117 -0.6281 -0.9285 -0.2213
  465MPD2    H7 6984   2.204   3.513  17.172 -0.0438 -0.2381  0.1756
  466TMC3    C1 6985   1.630   3.703  16.709  0.1379 -0.2042 -0.4728
  466TMC3    C2 6986   1.602   3.794  16.606  0.3521 -0.2533  0.1584
  466TMC3    C3 6987   1.692   3.810  16.497 -0.6330 -0.1514  0.2440
  466TMC3    C4 6988   1.750   3.634  16.702  0.1939 -0.0508 -0.4710
  466TMC3    C5 6989   1.832   3.638  16.590 -0.8995  0.1941  0.9506
  466TMC3    C6 6990   1.809   3.731  16.489 -0.6443  0.2414  0.5065
  466TMC3     C 6991   1.574   3.723  16.843 -0.7051 -0.4016  0.2351
  466TMC3     O 6992   1.632   3.661  16.933 -0.1803 -0.0598  0.4670
  466TMC3     H 6993   1.509   3.850  16.603  0.7349  0.5521  2.9100
  466TMC3    H1 6994   1.759   3.550  16.770  1.1184  1.1802  0.9455
  466TMC3    H2 6995   1.876   3.744  16.405  0.0691  1.3669  1.2498
  466TMC3    C7 6996   1.968   3.587  16.606 -0.3392  0.1932  0.1654
  466TMC3    C8 6997   1.726   3.939  16.456  0.2275  1.1641 -0.0435
  466TMC3    O1 6998   2.037   3.609  16.508 -0.5856  0.3475  0.2893
  466TMC3    O2 6999   1.807   3.944  16.365 -0.2555 -0.6030  0.2480
  467TMC3    C1 7000   3.348   2.564  13.946 -0.7436 -0.5964  0.1162
  467TMC3    C2 7001   3.273   2.643  13.865  0.5931  0.4509 -0.6321
  467TMC3    C3 7002   3.156   2.606  13.811 -0.9148  0.0589 -0.1089
  467TMC3    C4 7003   3.306   2.438  13.984 -0.4624 -0.1018  0.2320
  467TMC3    C5 7004   3.195   2.393  13.917  0.0338 -0.4476 -0.7978
  467TMC3    C6 7005   3.126   2.471  13.828 -0.2870  0.0729 -0.1818
  467TMC3     C 7006   3.484   2.611  13.973  0.0762 -0.1839  0.6223
  467TMC3     O 7007   3.518   2.724  13.953  0.4190  0.1472  0.0447
  467TMC3     H 7008   3.306   2.745  13.846  2.2444 -0.1894 -1.2422
  467TMC3    H1 7009   3.358   2.375  14.055  0.0072 -0.0478 -0.0697
  467TMC3    H2 7010   3.034   2.445  13.778  0.4663  0.5979 -1.8360
  467TMC3    C7 7011   3.152   2.260  13.961 -0.0110  0.6751  0.2231
  467TMC3    C8 7012   3.155   2.656  13.676  0.0563 -0.8234  0.1103
  467TMC3    O1 7013   3.232   2.190  14.021 -0.3199 -0.1290 -0.4037
  467TMC3    O2 7014   3.102   2.760  13.647  0.1215 -0.2047  0.1607
  468MPD2     C 7015   1.805   0.777  10.770  0.3205 -1.1232  0.1333
  468MPD2    C1 7016   1.890   0.804  10.871  0.3813 -0.7524  0.3875
  468MPD2    C2 7017   1.993   0.718  10.892 -0.6069  0.5001  0.1862
  468MPD2    C3 7018   2.000   0.593  10.830  0.1986  0.3259  0.4012
  468MPD2    C4 7019   1.910   0.570  10.737  0.2092 -0.1332 -0.4296
  468MPD2    C5 7020   1.812   0.661  10.703 -0.8711  0.2926  0.8589
  468MPD2     H 7021   2.079   0.733  10.956 -0.9661  0.7814  0.6020
  468MPD2    H1 7022   1.909   0.476  10.683 -2.7636  0.4283 -1.3274
  468MPD2    H2 7023   1.721   0.842  10.747 -0.7013 -1.6042  2.4541
  468MPD2    H3 7024   1.733   0.641  10.632  1.4842  1.7457 -2.1756
  468MPD2     N 7025   2.087   0.482  10.861  0.2750  0.0303 -0.5150
  468MPD2    H5 7026   2.067   0.391  10.820  0.7733 -0.5726  0.5708
  468MPD2    N1 7027   1.889   0.933  10.931  0.3477  0.1574 -0.3318
  468MPD2    H7 7028   1.971   0.958  10.987  1.2654 -0.2745 -1.4911
  469TMC3    C1 7029   1.823   1.152  10.969  0.2659 -1.5138  0.2378
  469TMC3    C2 7030   1.957   1.169  10.971 -0.0227 -0.5775  0.5922
  469TMC3    C3 7031   2.004   1.257  11.065  0.3551  0.3441 -0.1521
  469TMC3    C4 7032   1.734   1.214  11.051 -0.2327 -0.1864 -0.3354
  469TMC3    C5 7033   1.788   1.319  11.127 -0.8960 -0.7278  0.2611
  469TMC3    C6 7034   1.920   1.341  11.136 -0.0437  0.4039 -0.4184
  469TMC3     C 7035   1.784   1.026  10.917  0.2443  0.0765  0.3968
  469TMC3     O 7036   1.669   1.020  10.881 -0.0304 -0.6418 -0.3968
  469TMC3     H 7037   2.027   1.132  10.896  1.9960  0.3403  2.0057
  469TMC3    H1 7038   1.626   1.199  11.050 -0.0688 -1.5717  1.6461
  469TMC3    H2 7039   1.954   1.423  11.199  1.4466  0.8679 -1.8338
  469TMC3    C7 7040   1.687   1.413  11.187  0.6563 -0.7657 -0.0767
  469TMC3    C8 7041   2.148   1.268  11.081  0.3206 -0.3966  0.5127
  469TMC3    O1 7042   1.570   1.402  11.148 -0.2844  0.2543 -0.0792
  469TMC3    O2 7043   2.223   1.233  10.991  0.4955  0.0138  0.1516
  470TMC3    C1 7044   4.093   1.369   0.551 -0.7019 -0.0397  0.7513
  470TMC3    C2 7045   4.163   1.478   0.597  0.0370 -0.3423 -0.0392
  470TMC3    C3 7046   4.086   1.579   0.653  0.1874  0.2657  0.2339
  470TMC3    C4 7047   3.961   1.361   0.560 -0.3153  0.5065  0.9162
  470TMC3    C5 7048   3.892   1.463   0.615 -0.9637 -0.1975 -0.6584
  470TMC3    C6 7049   3.949   1.575   0.666 -0.4655  0.2104 -0.7640
  470TMC3     C 7050   4.159   1.244   0.555 -0.0906  0.3281 -0.2021
  470TMC3     O 7051   4.271   1.249   0.600  0.3792  0.0320  0.2619
  470TMC3     H 7052   4.272   1.477   0.596  0.0510  1.3378  0.0513
  470TMC3    H1 7053   3.913   1.266   0.540  1.2430 -0.2813  0.9475
  470TMC3    H2 7054   3.881   1.653   0.698 -0.2911  0.7260 -1.6548
  470TMC3    C7 7055   3.751   1.440   0.638 -0.0410  0.0848 -0.3138
  470TMC3    C8 7056   4.137   1.705   0.675 -0.2244  0.0746 -0.2792
  470TMC3    O1 7057   3.684   1.395   0.542  0.1232 -0.0723  0.0326
  470TMC3    O2 7058   4.055   1.794   0.661 -0.3730 -0.7230  0.1122
  471MPD2     C 7059   0.317   3.201  17.107 -0.6221  0.7306  0.7444
  471MPD2    C1 7060   0.326   3.070  17.064 -0.6352  0.3226  0.4835
  471MPD2    C2 7061   0.414   2.993  17.127 -0.7440  0.2266 -0.1266
  471MPD2    C3 7062   0.488   3.034  17.237  0.0947  0.4633  0.1560
  471MPD2    C4 7063   0.471   3.161  17.286  0.2859 -0.8275  0.2570
  471MPD2    C5 7064   0.387   3.240  17.219 -0.3102  0.4746 -0.2506
  471MPD2     H 7065   0.422   2.886  17.107  1.7627  0.6588 -1.4980
  471MPD2    H1 7066   0.534   3.207  17.362 -0.2700 -0.5399  0.5458
  471MPD2    H2 7067   0.250   3.267  17.051 -0.9751 -0.5682 -0.3767
  471MPD2    H3 7068   0.374   3.342  17.252  0.9754  0.5219  0.1270
  471MPD2     N 7069   0.567   2.934  17.289 -0.7959 -0.8522  0.1655
  471MPD2    H5 7070   0.594   2.859  17.226 -1.4296 -1.2307  0.3468
  471MPD2    N1 7071   0.239   3.017  16.970  0.2484  0.2979 -0.2507
  471MPD2    H7 7072   0.276   2.926  16.942  0.6133 -0.1927  1.7976
  472TMC3    C1 7073   0.056   2.981  16.819  0.3912  0.8822  0.4488
  472TMC3    C2 7074   4.684   3.033  16.749  0.1290  0.3207 -0.7261
  472TMC3    C3 7075   4.608   2.950  16.674 -0.0965  0.2348  0.0655
  472TMC3    C4 7076   0.087   2.844  16.802 -0.1030  0.1550  0.1502
  472TMC3    C5 7077   0.008   2.767  16.719 -0.8225 -1.0035  0.0385
  472TMC3    C6 7078   4.634   2.821  16.657 -0.3425 -0.2597  0.4598
  472TMC3     C 7079   0.128   3.068  16.908 -0.4229 -0.3821 -0.3004
  472TMC3     O 7080   0.075   3.177  16.925 -0.0550 -0.1995  0.5198
  472TMC3     H 7081   4.669   3.140  16.741  0.8472  0.5451  0.7964
  472TMC3    H1 7082   0.174   2.798  16.849 -0.6395  1.4633  2.4345
  472TMC3    H2 7083   4.557   2.753  16.621 -2.6104  1.8471  1.2597
  472TMC3    C7 7084   0.025   2.625  16.716  0.1500  0.8167  0.3528
  472TMC3    C8 7085   4.470   2.995  16.638 -0.2200 -0.3529 -0.2657
  472TMC3    O1 7086   0.098   2.577  16.808 -0.1937  0.0594 -0.4407
  472TMC3    O2 7087   4.449   3.110  16.602 -0.0299 -0.3081 -0.2706
  473MPD2     C 7088   0.164   0.017  13.661  0.0664  0.2456 -0.2726
  473MPD2    C1 7089   0.140   0.132  13.600 -0.4682  0.4456  0.6629
  473MPD2    C2 7090   0.118   0.246  13.678 -0.5141  0.2561 -0.2626
  473MPD2    C3 7091   0.132   0.246  13.814  0.2082  0.2730 -0.2237
  473MPD2    C4 7092   0.160   0.121  13.877 -0.4443 -0.1837 -0.5952
  473MPD2    C5 7093   0.180   0.013  13.798  0.3623 -0.2521 -1.1359
  473MPD2     H 7094   0.096   0.334  13.620 -2.0527 -0.4491 -0.7371
  473MPD2    H1 7095   0.178   0.115  13.984 -2.4275  2.9487 -0.0810
  473MPD2    H2 7096   0.180   4.662  13.602 -0.9941 -1.1099  1.4919
  473MPD2    H3 7097   0.196   4.654  13.850  0.3857 -0.4894 -1.5646
  473MPD2     N 7098   0.108   0.359  13.901  0.2249 -0.0632  0.2392
  473MPD2    H5 7099   0.124   0.344  14.000  2.2574 -2.3536 -0.4684
  473MPD2    N1 7100   0.117   0.143  13.460  0.1165  0.0809 -0.0207
  473MPD2    H7 7101   0.071   0.226  13.424 -0.6466 -0.6652 -0.7595
  474TMC3    C1 7102   0.035   0.571  13.978 -0.4556  0.6523  0.2270
  474TMC3    C2 7103   4.708   0.692  13.940 -0.5039  0.1135 -0.7681
  474TMC3    C3 7104   4.706   0.793  14.035 -1.2387 -0.0725 -0.0328
  474TMC3    C4 7105   0.096   0.555  14.099  0.0840 -0.0971  0.4398
  474TMC3    C5 7106   0.097   0.659  14.190 -0.4659 -0.3056  0.5239
  474TMC3    C6 7107   0.035   0.778  14.157  0.8366 -0.1704 -0.6233
  474TMC3     C 7108   0.062   0.483  13.865 -0.2623  0.1246  0.2699
  474TMC3     O 7109   0.038   0.520  13.753 -0.4611 -0.5465 -0.1547
  474TMC3     H 7110   4.664   0.699  13.841  1.7165 -1.3383 -1.8313
  474TMC3    H1 7111   0.132   0.459  14.132  0.8699  0.0564  0.0230
  474TMC3    H2 7112   0.033   0.861  14.226  2.8296 -1.1989  0.6700
  474TMC3    C7 7113   0.210   0.672  14.276  0.2228 -0.0313 -0.0418
  474TMC3    C8 7114   4.662   0.922  13.995  0.1866  0.0587 -0.9317
  474TMC3    O1 7115   0.307   0.619  14.230 -0.6279  0.3014 -0.4667
  474TMC3    O2 7116   4.694   1.018  14.069 -0.2736  0.2461  0.1394
  475MPD2     C 7117   3.070   3.357  11.064 -0.1562 -0.1659 -0.5808
  475MPD2    C1 7118   3.149   3.428  10.981  0.5104  0.4312  0.2140
  475MPD2    C2 7119   3.102   3.457  10.857  0.0971  1.3106 -0.1801
  475MPD2    C3 7120   2.986   3.398  10.808  0.1628  0.1113 -0.3111
  475MPD2    C4 7121   2.914   3.317  10.890  0.4745  0.0210 -0.3765
  475MPD2    C5 7122   2.961   3.296  11.018  0.3763 -0.7958 -0.2950
  475MPD2     H 7123   3.152   3.518  10.783  0.8266  0.8594 -0.0641
  475MPD2    H1 7124   2.823   3.266  10.859  1.1344 -1.3982  0.0198
  475MPD2    H2 7125   3.100   3.348  11.168 -1.5741  0.0018 -0.1634
  475MPD2    H3 7126   2.901   3.232  11.082  0.1368 -1.3013 -1.0348
  475MPD2     N 7127   2.929   3.456  10.688  0.8574  0.0213 -0.0694
  475MPD2    H5 7128   2.981   3.528  10.639  0.8459 -0.1524 -0.3333
  475MPD2    N1 7129   3.266   3.473  11.036  0.3888 -0.2495 -0.0854
  475MPD2    H7 7130   3.285   3.454  11.134  0.8406  2.1711  0.3092
  476TMC3    C1 7131   3.468   3.592  11.042  0.1355 -0.8561 -0.5391
  476TMC3    C2 7132   3.578   3.600  10.958 -0.4227  0.3910  0.0180
  476TMC3    C3 7133   3.644   3.718  10.946 -0.1878 -0.6726  0.1706
  476TMC3    C4 7134   3.440   3.694  11.124 -0.7149 -0.2528 -0.1038
  476TMC3    C5 7135   3.523   3.812  11.125  0.4059  0.6060  0.0595
  476TMC3    C6 7136   3.625   3.823  11.035 -0.4387  0.5178 -0.1687
  476TMC3     C 7137   3.365   3.542  10.965 -0.1423 -0.5371  0.3797
  476TMC3     O 7138   3.392   3.549  10.847 -0.3627 -0.1033  0.3268
  476TMC3     H 7139   3.609   3.516  10.896  1.4986  0.2142  1.2168
  476TMC3    H1 7140   3.337   3.698  11.156 -0.3262 -1.8053  1.3840
  476TMC3    H2 7141   3.693   3.907  11.028 -1.5060  1.5255  1.3669
  476TMC3    C7 7142   3.457   3.941  11.142  0.4206 -0.0635 -0.2047
  476TMC3    C8 7143   3.671   3.764  10.812 -0.7082 -0.3912  0.6120
  476TMC3    O1 7144   3.500   4.028  11.065  0.6733  0.1022  0.1898
  476TMC3    O2 7145   3.708   3.879  10.797 -0.2355  0.3894 -0.4263
  477MPD2     C 7146   1.409   0.265  12.124  0.3218 -0.1809 -0.4569
  477MPD2    C1 7147   1.347   0.167  12.051 -0.4084  0.4630 -0.2767
  477MPD2    C2 7148   1.342   0.040  12.106 -0.5077 -0.7353  0.4866
  477MPD2    C3 7149   1.403   0.009  12.227  0.0393 -0.0356  0.3294
  477MPD2    C4 7150   1.461   0.108  12.299  0.2144  0.6743  0.1429
  477MPD2    C5 7151   1.460   0.240  12.249  0.4243  0.0113  0.2113
  477MPD2     H 7152   1.289   4.696  12.052 -0.4698 -0.0221 -0.5911
  477MPD2    H1 7153   1.525   0.098  12.386  0.0667  1.4242  0.3357
  477MPD2    H2 7154   1.411   0.368  12.090 -0.3346 -0.0288 -0.0264
  477MPD2    H3 7155   1.526   0.313  12.294 -0.1877 -0.2032  1.4675
  477MPD2     N 7156   1.403   4.608  12.270  0.3869 -0.0488  0.1991
  477MPD2    H5 7157   1.368   4.548  12.196  0.7711  0.2863 -0.2529
  477MPD2    N1 7158   1.272   0.209  11.938 -0.6862 -0.2768  0.5728
  477MPD2    H7 7159   1.280   0.307  11.911 -2.6955  0.0056  0.9771
  478TMC3    C1 7160   1.115   0.200  11.769 -0.1800  0.0626 -0.3746
  478TMC3    C2 7161   1.071   0.320  11.810 -0.4923 -0.1671 -0.4315
  478TMC3    C3 7162   0.995   0.394  11.719 -0.4821 -0.6814  0.1620
  478TMC3    C4 7163   1.083   0.148  11.650  0.6011 -0.0463  0.6210
  478TMC3    C5 7164   1.015   0.227  11.556 -0.3293  1.0982  0.0255
  478TMC3    C6 7165   0.972   0.353  11.593  0.1424  0.8812  0.5771
  478TMC3     C 7166   1.210   0.122  11.850 -0.0237  0.1276 -0.1387
  478TMC3     O 7167   1.231   0.005  11.834 -0.4079  0.4103 -0.6499
  478TMC3     H 7168   1.077   0.345  11.915  0.4637 -3.4188  0.2839
  478TMC3    H1 7169   1.106   0.045  11.623  1.9461  0.1282  1.0827
  478TMC3    H2 7170   0.909   0.406  11.523 -0.4811 -0.1954  0.3202
  478TMC3    C7 7171   0.971   0.154  11.440 -0.0286 -0.6393 -0.2999
  478TMC3    C8 7172   0.985   0.539  11.754 -0.4638 -0.0891  0.3737
  478TMC3    O1 7173   0.950   0.035  11.454  0.0365 -0.5620 -0.7433
  478TMC3    O2 7174   1.049   0.578  11.852  0.6210 -0.0932 -0.0199
  479MPD2     C 7175   4.618   2.308  15.303  0.6311 -0.0579  0.1478
  479MPD2    C1 7176   4.568   2.199  15.370 -0.0776 -0.3236  0.2089
  479MPD2    C2 7177   4.589   2.190  15.505 -0.3407 -0.1383  0.4215
  479MPD2    C3 7178   4.635   2.294  15.578 -0.1469 -0.1084  0.0527
  479MPD2    C4 7179   4.679   2.407  15.509  0.0940 -0.0604 -0.1594
  479MPD2    C5 7180   4.674   2.408  15.377  0.0305  0.2064 -0.0353
  479MPD2     H 7181   4.583   2.092  15.551 -0.0782 -0.1548  0.4215
  479MPD2    H1 7182   4.711   2.501  15.553 -2.1232  1.1096 -1.0322
  479MPD2    H2 7183   4.612   2.323  15.196  0.7559  1.2935  0.3208
  479MPD2    H3 7184   4.707   2.494  15.321 -0.6572 -1.3779 -2.8644
  479MPD2     N 7185   4.636   2.304  15.715  0.0432  0.5159 -0.0484
  479MPD2    H5 7186   4.688   2.386  15.743 -1.0819  1.2656 -0.1326
  479MPD2    N1 7187   4.490   2.102  15.298 -0.0822  0.1228 -0.2107
  479MPD2    H7 7188   4.478   2.131  15.201 -0.8288  2.1691  0.4978
  480TMC3    C1 7189   4.363   1.946  15.857 -0.8404  0.2277 -0.3229
  480TMC3    C2 7190   4.259   1.972  15.771  0.4688  0.2112 -0.0911
  480TMC3    C3 7191   4.265   2.091  15.714 -0.6359 -0.0717 -0.1363
  480TMC3    C4 7192   4.468   2.033  15.877  0.0605  0.1639 -0.5286
  480TMC3    C5 7193   4.480   2.130  15.780  0.1886  0.0965 -0.0967
  480TMC3    C6 7194   4.373   2.173  15.714 -0.6609  0.0307  0.1220
  480TMC3     C 7195   4.330   1.844  15.955  0.1032  0.1728 -0.6544
  480TMC3     O 7196   4.249   1.761  15.919  0.7441 -0.6597 -0.0308
  480TMC3     H 7197   4.162   1.927  15.789  0.2267 -0.5879 -3.3926
  480TMC3    H1 7198   4.552   2.020  15.946 -0.6348  0.7333  0.4274
  480TMC3    H2 7199   4.378   2.268  15.662 -0.2377 -0.7407 -1.2526
  480TMC3    C7 7200   4.581   2.226  15.815 -0.0718  0.5342 -1.1455
  480TMC3    C8 7201   4.168   2.109  15.611  0.1899 -0.3156 -0.4104
  480TMC3    O1 7202   4.606   2.245  15.932  0.4985 -0.6792  0.6071
  480TMC3    O2 7203   4.062   2.055  15.624 -0.2294  0.1402 -0.0165
  481MPD2     C 7204   1.422   1.408  14.586  0.3581  0.2917 -0.3299
  481MPD2    C1 7205   1.296   1.456  14.582 -0.1741  0.4067 -1.0865
  481MPD2    C2 7206   1.209   1.444  14.690 -0.2215  0.5517  0.1156
  481MPD2    C3 7207   1.255   1.412  14.814  0.6013 -0.0571 -0.6384
  481MPD2    C4 7208   1.390   1.377  14.817  0.0598  0.3358 -0.2942
  481MPD2    C5 7209   1.471   1.373  14.711  0.3481 -0.7789 -0.3478
  481MPD2     H 7210   1.106   1.473  14.677 -0.5307  1.1696  3.9648
  481MPD2    H1 7211   1.438   1.364  14.914  1.8839  1.0668 -1.0855
  481MPD2    H2 7212   1.487   1.395  14.500  1.7462  1.2447  0.5704
  481MPD2    H3 7213   1.574   1.339  14.717  0.8232  0.7156 -0.0386
  481MPD2     N 7214   1.184   1.421  14.933 -0.1802  0.5534  0.0499
  481MPD2    H5 7215   1.242   1.413  15.017 -1.3016 -2.2302  0.5535
  481MPD2    N1 7216   1.245   1.489  14.450  0.3833 -0.2122  0.4295
  481MPD2    H7 7217   1.305   1.465  14.372  0.9283 -0.1595  0.8297
  482TMC3    C1 7218   1.115   1.588  14.278  0.7414 -0.0633  0.2625
  482TMC3    C2 7219   0.985   1.582  14.223 -0.3861  0.1030  0.6734
  482TMC3    C3 7220   0.972   1.595  14.083  0.3462  0.0151 -0.1316
  482TMC3    C4 7221   1.225   1.599  14.202  0.0857  0.2478  0.1939
  482TMC3    C5 7222   1.205   1.597  14.064 -0.1601 -1.3047 -0.5158
  482TMC3    C6 7223   1.082   1.599  14.006  0.2565  0.5156 -0.6105
  482TMC3     C 7224   1.124   1.546  14.415  0.0082 -0.5178  0.2760
  482TMC3     O 7225   1.026   1.566  14.485 -0.2309  0.1310  0.1510
  482TMC3     H 7226   0.904   1.572  14.294 -2.2778 -1.8677 -1.7564
  482TMC3    H1 7227   1.320   1.630  14.244  1.1032 -0.4796 -1.5868
  482TMC3    H2 7228   1.073   1.578  13.900  2.8277  1.8565 -1.0973
  482TMC3    C7 7229   1.333   1.587  13.990 -0.3519  0.0177  0.5405
  482TMC3    C8 7230   0.871   1.514  14.027 -0.6329 -0.0609 -0.5849
  482TMC3    O1 7231   1.430   1.563  14.057 -0.3354  0.8207  0.2810
  482TMC3    O2 7232   0.859   1.399  14.074 -0.2743  0.1312  0.2509
  483TMC3    C1 7233   4.135   1.062   1.009  0.3982  0.1408  0.6959
  483TMC3    C2 7234   4.240   1.154   1.008 -0.6988  1.4061  0.4443
  483TMC3    C3 7235   4.365   1.111   1.044 -0.8588 -0.3247 -0.4791
  483TMC3    C4 7236   4.157   0.937   1.058 -0.9249  0.8774  0.4826
  483TMC3    C5 7237   4.274   0.895   1.110  0.4583 -0.4802 -0.5294
  483TMC3    C6 7238   4.376   0.988   1.109 -0.2631  0.3027 -0.6554
  483TMC3     C 7239   4.019   1.098   0.938  0.7770  0.3082  0.1459
  483TMC3     O 7240   3.965   1.207   0.957 -0.3523 -0.1212  0.2427
  483TMC3     H 7241   4.236   1.244   0.947  1.4869  2.8403  2.4432
  483TMC3    H1 7242   4.067   0.877   1.061 -0.4893  0.1730 -0.4984
  483TMC3    H2 7243   4.463   0.972   1.172 -0.9252  1.0969  0.4496
  483TMC3    C7 7244   4.319   0.755   1.111  0.4940 -0.4363  0.2084
  483TMC3    C8 7245   4.460   1.137   0.939 -0.0963 -0.1473  0.1808
  483TMC3    O1 7246   4.441   0.741   1.096 -0.2396 -0.1127 -0.6582
  483TMC3    O2 7247   4.450   1.237   0.872 -0.1945  1.0611 -0.7039
  484MPD2     C 7248   1.472   3.650  12.494  0.2312 -0.3115  0.3215
  484MPD2    C1 7249   1.549   3.583  12.585 -0.8126  0.5081 -0.9276
  484MPD2    C2 7250   1.689   3.567  12.567 -0.4131 -0.4301  0.5708
  484MPD2    C3 7251   1.748   3.636  12.459  0.5398 -0.6156  0.1661
  484MPD2    C4 7252   1.668   3.715  12.385  0.5144 -0.6716 -0.3184
  484MPD2    C5 7253   1.536   3.723  12.395  0.8337  0.3511  0.5041
  484MPD2     H 7254   1.749   3.507  12.634 -0.0837  1.4095  1.9256
  484MPD2    H1 7255   1.712   3.761  12.297 -1.1615 -0.8914 -1.2882
  484MPD2    H2 7256   1.364   3.650  12.505  0.2132 -2.5893  0.1946
  484MPD2    H3 7257   1.482   3.777  12.318  3.4062 -1.0292 -2.2523
  484MPD2     N 7258   1.889   3.642  12.430 -0.0118 -0.2559 -0.6121
  484MPD2    H5 7259   1.915   3.702  12.353 -1.7268 -0.0854 -1.0651
  484MPD2    N1 7260   1.476   3.525  12.690  0.4669  1.0730  0.0576
  484MPD2    H7 7261   1.375   3.535  12.689  0.0999 -3.1714 -1.9824
  485TMC3    C1 7262   2.120   3.604  12.480 -0.6175  0.1817  0.3809
  485TMC3    C2 7263   2.220   3.514  12.527  0.2763 -0.0317 -0.5443
  485TMC3    C3 7264   2.348   3.567  12.522  0.2287 -0.7300 -0.3999
  485TMC3    C4 7265   2.147   3.713  12.398  0.7432 -0.5569 -0.5975
  485TMC3    C5 7266   2.283   3.751  12.398  0.4229 -0.3723  0.2497
  485TMC3    C6 7267   2.373   3.692  12.477 -0.4666  0.4758  0.4182
  485TMC3     C 7268   1.979   3.565  12.495 -1.2468 -0.6990  0.8549
  485TMC3     O 7269   1.962   3.460  12.557  0.0154 -0.0012  0.1869
  485TMC3     H 7270   2.205   3.411  12.557  0.2376  0.3389  0.7040
  485TMC3    H1 7271   2.080   3.760  12.327  1.7278  1.7416 -0.0080
  485TMC3    H2 7272   2.475   3.721  12.456 -0.5135  0.8363  0.6962
  485TMC3    C7 7273   2.325   3.812  12.272  0.3633  0.2826 -0.4046
  485TMC3    C8 7274   2.452   3.472  12.474  0.4024  0.7373 -0.5491
  485TMC3    O1 7275   2.246   3.884  12.215  0.3696  0.3501 -0.0575
  485TMC3    O2 7276   2.514   3.527  12.381 -0.3454 -0.4349 -0.3635
  486MPD2     C 7277   3.921   2.235  13.012  0.0211  0.6822 -0.2607
  486MPD2    C1 7278   3.831   2.229  12.903  0.0908  0.8123  0.8441
  486MPD2    C2 7279   3.741   2.333  12.885 -0.2059  0.0223 -0.0480
  486MPD2    C3 7280   3.754   2.448  12.954  0.2656  0.2047  0.4255
  486MPD2    C4 7281   3.851   2.457  13.046  0.3021  0.4343  0.2003
  486MPD2    C5 7282   3.932   2.355  13.081 -0.6781  0.5524  0.4410
  486MPD2     H 7283   3.668   2.334  12.804 -0.1248  2.4382 -0.1102
  486MPD2    H1 7284   3.876   2.555  13.087 -2.6032 -0.0612  3.1457
  486MPD2    H2 7285   3.981   2.151  13.047  0.0525  0.1875 -1.5208
  486MPD2    H3 7286   4.012   2.369  13.153 -1.7827 -2.5303  2.2808
  486MPD2     N 7287   3.664   2.552  12.919 -0.0308 -0.0977  0.5635
  486MPD2    H5 7288   3.596   2.528  12.847  0.6038  1.3289 -0.5178
  486MPD2    N1 7289   3.831   2.113  12.822 -0.0386 -0.6424  0.4132
  486MPD2    H7 7290   3.896   2.040  12.850  2.2465  1.2319 -0.0424
  487TMC3    C1 7291   3.762   1.936  12.687 -0.7750  0.3835  0.0427
  487TMC3    C2 7292   3.651   1.850  12.687  0.2676  0.4024  0.7493
  487TMC3    C3 7293   3.676   1.719  12.667  0.1244  0.2162  0.2333
  487TMC3    C4 7294   3.886   1.893  12.679 -0.1055 -0.1246  0.9658
  487TMC3    C5 7295   3.909   1.755  12.677 -0.1621 -0.3931 -0.5454
  487TMC3    C6 7296   3.805   1.667  12.658  0.9123  0.1606  0.1618
  487TMC3     C 7297   3.730   2.072  12.731  0.0650 -0.9852 -0.6901
  487TMC3     O 7298   3.623   2.128  12.695 -0.6164 -0.5696 -0.0587
  487TMC3     H 7299   3.549   1.884  12.705 -0.1018  1.0212 -2.4871
  487TMC3    H1 7300   3.967   1.965  12.687 -0.1909 -0.1514  2.0601
  487TMC3    H2 7301   3.827   1.561  12.650  0.4315  0.2293 -2.0291
  487TMC3    C7 7302   3.980   1.736  12.797 -0.0838  0.1640 -0.2759
  487TMC3    C8 7303   3.577   1.610  12.696 -0.4031  0.2114 -0.7642
  487TMC3    O1 7304   3.982   1.824  12.882  0.6600  0.0905  0.1222
  487TMC3    O2 7305   3.594   1.506  12.642 -0.5067 -0.2196  0.1711
  488MPD2     C 7306   3.738   4.013  16.306  0.2248  0.6576 -0.6311
  488MPD2    C1 7307   3.787   4.132  16.363  0.1697 -0.2678  0.2056
  488MPD2    C2 7308   3.723   4.183  16.477  0.4212  0.2895 -0.0516
  488MPD2    C3 7309   3.621   4.119  16.538  0.4471  0.0352  0.8086
  488MPD2    C4 7310   3.566   4.005  16.470 -0.2327  0.1038 -0.3700
  488MPD2    C5 7311   3.623   3.959  16.358  0.1954  0.3086 -0.3551
  488MPD2     H 7312   3.766   4.277  16.510 -1.5301  0.9336  0.6039
  488MPD2    H1 7313   3.479   3.956  16.513 -0.6288  0.0814 -1.2075
  488MPD2    H2 7314   3.792   3.955  16.233 -1.1693  0.0096 -1.1556
  488MPD2    H3 7315   3.576   3.871  16.315  0.0221 -1.2639  3.0757
  488MPD2     N 7316   3.564   4.177  16.651  0.1661  0.1733 -0.1074
  488MPD2    H5 7317   3.608   4.259  16.693 -0.8821  0.1222  1.1198
  488MPD2    N1 7318   3.901   4.197  16.316  0.0509 -0.1263  0.8952
  488MPD2    H7 7319   3.919   4.288  16.358  0.9052 -0.5882  1.5317
  489TMC3    C1 7320   3.455   4.195  16.859 -0.0102 -0.3068 -0.3830
  489TMC3    C2 7321   3.502   4.322  16.854  0.0380 -0.1293  0.1491
  489TMC3    C3 7322   3.561   4.380  16.964  0.3181  0.4237 -0.6577
  489TMC3    C4 7323   3.459   4.127  16.977 -0.6125 -0.3421  0.2844
  489TMC3    C5 7324   3.520   4.190  17.085 -0.1579  0.2425 -0.0668
  489TMC3    C6 7325   3.572   4.314  17.084 -0.0844 -0.6319 -0.5178
  489TMC3     C 7326   3.471   4.114  16.736  0.7451 -0.4458 -0.2299
  489TMC3     O 7327   3.425   4.006  16.723 -0.0287  0.0025  0.5416
  489TMC3     H 7328   3.480   4.387  16.770 -2.1037  0.3646  1.0861
  489TMC3    H1 7329   3.425   4.025  16.968  0.9180 -0.7049 -1.4195
  489TMC3    H2 7330   3.626   4.357  17.167 -2.0310  2.4744 -0.8468
  489TMC3    C7 7331   3.522   4.123  17.213  0.9045 -0.9578 -0.1436
  489TMC3    C8 7332   3.670   4.464  16.922  0.2340  0.0975 -0.0074
  489TMC3    O1 7333   3.559   4.180  17.315 -0.2349 -0.2804  0.1351
  489TMC3    O2 7334   3.705   4.451  16.806  0.5839 -0.5289 -0.3316
  490MPD2     C 7335   4.561   3.511  17.161  0.1057  0.6403  0.8204
  490MPD2    C1 7336   4.501   3.434  17.257 -0.2980  0.0200  0.0782
  490MPD2    C2 7337   4.518   3.458  17.391 -0.3807  0.3577  0.4222
  490MPD2    C3 7338   4.600   3.558  17.428 -0.0864  0.4283 -0.3529
  490MPD2    C4 7339   4.664   3.641  17.330 -0.5111  0.0854  0.6655
  490MPD2    C5 7340   4.642   3.612  17.200  1.1924  0.0212  0.6593
  490MPD2     H 7341   4.478   3.391  17.466  0.9804 -2.0740 -1.0609
  490MPD2    H1 7342   0.006   3.712  17.362  0.3479  0.8671 -3.1132
  490MPD2    H2 7343   4.552   3.487  17.056 -3.2443 -0.2426  1.3033
  490MPD2    H3 7344   4.702   3.660  17.124  0.5314 -0.1814  0.0053
  490MPD2     N 7345   4.635   3.582  17.563 -0.6842  0.2579 -0.2196
  490MPD2    H5 7346   4.720   3.636  17.577  0.1710 -0.4204 -2.7821
  490MPD2    N1 7347   4.430   3.316  17.221  0.4304 -0.7443 -0.7162
  490MPD2    H7 7348   4.402   3.242  17.284  0.6214  1.7861  2.3192
  491TMC3    C1 7349   4.350   3.145  17.074 -0.2562  0.9492  0.0891
  491TMC3    C2 7350   4.386   3.064  17.176  0.1124 -0.0470  0.0281
  491TMC3    C3 7351   4.339   2.937  17.155  0.1841 -0.3472 -0.2129
  491TMC3    C4 7352   4.270   3.115  16.967 -0.7456  1.4059  0.0106
  491TMC3    C5 7353   4.201   3.002  16.975 -0.5261 -0.1346 -0.4831
  491TMC3    C6 7354   4.241   2.903  17.063  0.2277 -0.2974  0.3277
  491TMC3     C 7355   4.394   3.286  17.088  0.0699 -0.4207  0.1705
  491TMC3     O 7356   4.371   3.359  16.993 -0.3095  0.3614 -0.0197
  491TMC3     H 7357   4.480   3.082  17.228 -0.2740  0.3921  0.5784
  491TMC3    H1 7358   4.258   3.197  16.896 -0.2658  1.6905  0.2575
  491TMC3    H2 7359   4.198   2.803  17.058  3.2913 -1.6053  0.6177
  491TMC3    C7 7360   4.099   2.979  16.869 -0.3602  0.4030 -0.0081
  491TMC3    C8 7361   4.349   2.839  17.264 -0.1396  0.2202  0.1388
  491TMC3    O1 7362   4.050   2.866  16.874 -0.7873 -0.6187  0.5990
  491TMC3    O2 7363   4.258   2.758  17.276  0.2230  0.5812  0.5215
  492MPD2     C 7364   0.446   3.746  11.495  0.4318 -0.3621  0.2675
  492MPD2    C1 7365   0.352   3.678  11.414 -0.3692  0.0595 -0.0984
  492MPD2    C2 7366   0.272   3.574  11.469  0.3759 -0.3689  0.1528
  492MPD2    C3 7367   0.276   3.551  11.607 -0.3668 -0.4754 -0.4487
  492MPD2    C4 7368   0.360   3.628  11.685 -0.3851  0.2196  0.4769
  492MPD2    C5 7369   0.446   3.718  11.627  1.5922  0.4296 -0.4157
  492MPD2     H 7370   0.204   3.511  11.411 -0.5993  0.7047  0.1353
  492MPD2    H1 7371   0.355   3.615  11.792 -2.1018  0.4333  0.4264
  492MPD2    H2 7372   0.513   3.822  11.457  1.1449 -0.7126  0.8052
  492MPD2    H3 7373   0.514   3.768  11.695  1.2710  0.9824 -0.4999
  492MPD2     N 7374   0.215   3.447  11.679  0.8019 -0.3971 -0.2201
  492MPD2    H5 7375   0.236   3.443  11.778 -2.6986 -1.2393  0.4841
  492MPD2    N1 7376   0.350   3.721  11.284 -0.1625  0.3665 -0.8161
  492MPD2    H7 7377   0.425   3.783  11.254  1.0900  0.4130  2.4768
  493TMC3    C1 7378   0.282   3.739  11.069 -0.1272  0.2766  0.3930
  493TMC3    C2 7379   0.414   3.755  11.031 -0.5334 -0.0615 -0.5031
  493TMC3    C3 7380   0.435   3.801  10.903  0.4797 -0.0301  0.0368
  493TMC3    C4 7381   0.179   3.744  10.978 -0.1138  0.1810  0.1545
  493TMC3    C5 7382   0.207   3.793  10.854  0.6983  0.2097 -0.0451
  493TMC3    C6 7383   0.332   3.833  10.812 -0.7709  0.5109 -0.6214
  493TMC3     C 7384   0.253   3.689  11.200 -0.1788  0.2020  0.6010
  493TMC3     O 7385   0.144   3.638  11.221 -0.1260  0.5354  0.0081
  493TMC3     H 7386   0.498   3.727  11.094 -0.4133  1.9066  0.2098
  493TMC3    H1 7387   0.076   3.713  10.995  0.6066 -1.7127  1.0923
  493TMC3    H2 7388   0.353   3.859  10.709  2.2174 -0.1842 -0.1715
  493TMC3    C7 7389   0.122   3.740  10.747 -0.1387  0.4036 -0.2465
  493TMC3    C8 7390   0.573   3.779  10.862 -0.0657  0.4356  0.1075
  493TMC3    O1 7391   0.105   3.807  10.644 -0.2967  0.0026  0.2058
  493TMC3    O2 7392   0.630   3.688  10.921  0.3153  0.4232 -0.1340
  494TMC3    C1 7393   0.477   0.644   0.460 -0.5577 -0.1800 -0.1779
  494TMC3    C2 7394   0.506   0.527   0.506 -0.1976 -0.1007  0.0008
  494TMC3    C3 7395   0.562   0.431   0.422 -0.0716 -0.0624 -0.3627
  494TMC3    C4 7396   0.495   0.673   0.324 -0.2592  0.4624 -0.0563
  494TMC3    C5 7397   0.527   0.574   0.240 -0.7327 -0.3629 -0.0649
  494TMC3    C6 7398   0.563   0.452   0.290  0.5923  0.0075 -0.1250
  494TMC3     C 7399   0.427   0.743   0.554 -0.9956 -0.4119 -0.1222
  494TMC3     O 7400   0.367   0.836   0.501  0.2092 -0.1373  0.0628
  494TMC3     H 7401   0.473   0.484   0.599  0.1574 -0.8136 -0.2037
  494TMC3    H1 7402   0.492   0.778   0.297 -1.5422  0.7423  1.1964
  494TMC3    H2 7403   0.592   0.378   0.217  0.3931  0.8145 -1.0191
  494TMC3    C7 7404   0.504   0.587   0.094  0.0546 -0.0950  0.1858
  494TMC3    C8 7405   0.580   0.293   0.465  0.5351  1.0537  0.2630
  494TMC3    O1 7406   0.553   0.494   0.028 -0.1140 -0.2939 -0.4691
  494TMC3    O2 7407   0.602   0.226   0.366 -0.2028  0.4124  0.3583
  495TMC3    C1 7408   4.586   2.655  14.896 -0.3052  0.0585 -0.2285
  495TMC3    C2 7409   4.505   2.745  14.823 -0.7806  0.4531  0.4830
  495TMC3    C3 7410   4.369   2.749  14.846 -0.2152 -0.1671 -0.0405
  495TMC3    C4 7411   4.534   2.594  15.013 -0.4170  0.4622  0.5074
  495TMC3    C5 7412   4.400   2.609  15.030 -0.3906  0.3492  0.2644
  495TMC3    C6 7413   4.317   2.683  14.953  0.0171  0.3153 -0.3512
  495TMC3     C 7414   4.634   2.548  14.808 -0.2337 -0.4625  0.2013
  495TMC3     O 7415   4.578   2.445  14.833  0.0911 -0.2926  0.8871
  495TMC3     H 7416   4.545   2.790  14.733 -0.8067 -0.8199 -0.1642
  495TMC3    H1 7417   4.593   2.524  15.071 -2.8171 -1.3034  0.8253
  495TMC3    H2 7418   4.215   2.702  14.981 -0.1384  0.7551 -1.1875
  495TMC3    C7 7419   4.341   2.538  15.145 -0.4543 -0.6857  0.4843
  495TMC3    C8 7420   4.291   2.760  14.728  0.4324 -0.7224 -0.9728
  495TMC3    O1 7421   4.395   2.545  15.255  0.1481 -0.3084  0.0863
  495TMC3    O2 7422   4.167   2.757  14.748  0.4764  0.0990  0.5313
  496MPD2     C 7423   1.904   2.252  15.891  0.2183 -0.0507  0.3809
  496MPD2    C1 7424   1.893   2.208  15.763  0.1763  0.4876  0.0875
  496MPD2    C2 7425   1.779   2.152  15.723 -0.4576  0.2436 -0.3391
  496MPD2    C3 7426   1.672   2.141  15.812  0.9728  0.1583  0.9536
  496MPD2    C4 7427   1.676   2.222  15.926  0.1972  0.2289 -0.1913
  496MPD2    C5 7428   1.793   2.266  15.969 -0.1367 -1.1155 -0.3308
  496MPD2     H 7429   1.792   2.112  15.623 -2.7255 -1.3035 -0.0107
  496MPD2    H1 7430   1.589   2.248  15.985  1.6351 -0.4140  2.2129
  496MPD2    H2 7431   1.998   2.292  15.929  0.2353 -1.3271  1.6406
  496MPD2    H3 7432   1.791   2.323  16.061  0.2836 -0.8681 -0.4741
  496MPD2     N 7433   1.551   2.079  15.776 -0.0770 -0.2975 -0.2016
  496MPD2    H5 7434   1.472   2.093  15.837 -0.6246  0.9447 -1.2007
  496MPD2    N1 7435   2.005   2.188  15.680  0.1588 -0.5197  0.2628
  496MPD2    H7 7436   1.986   2.140  15.592 -0.7780  0.5545 -0.1231
  497TMC3    C1 7437   1.408   1.928  15.667  0.3108  0.6622  0.0332
  497TMC3    C2 7438   1.359   1.892  15.549 -0.2753 -0.9025 -0.0885
  497TMC3    C3 7439   1.235   1.830  15.549 -0.2136  0.0746  0.7670
  497TMC3    C4 7440   1.346   1.899  15.788  0.4056  0.2132 -0.1862
  497TMC3    C5 7441   1.225   1.840  15.786 -0.3155  0.1460  0.5071
  497TMC3    C6 7442   1.163   1.808  15.670 -0.2039 -0.2260  0.1108
  497TMC3     C 7443   1.537   1.988  15.670 -0.4862  0.0298 -0.1454
  497TMC3     O 7444   1.618   1.947  15.582 -0.3107 -0.7509  0.2577
  497TMC3     H 7445   1.412   1.913  15.457 -0.1331  0.2483  0.2532
  497TMC3    H1 7446   1.405   1.883  15.878  0.5776  1.5975 -0.0529
  497TMC3    H2 7447   1.072   1.751  15.670 -0.3783  0.0343 -2.1289
  497TMC3    C7 7448   1.154   1.825  15.910 -0.1079  0.3471 -0.3499
  497TMC3    C8 7449   1.165   1.807  15.421  0.4312 -0.1793 -0.4965
  497TMC3    O1 7450   1.068   1.741  15.902  0.3580  0.6696 -0.3608
  497TMC3    O2 7451   1.044   1.796  15.424  0.0765  0.0004 -0.0070
  498MPD2     C 7452   2.739   3.464   9.725  0.3351 -0.0138 -0.3206
  498MPD2    C1 7453   2.830   3.405   9.815 -0.3357 -0.7944  0.0977
  498MPD2    C2 7454   2.786   3.298   9.885 -0.1003 -0.4228  0.0676
  498MPD2    C3 7455   2.669   3.225   9.865 -0.0004  0.3565  0.1073
  498MPD2    C4 7456   2.582   3.278   9.768 -0.5323  0.3110 -0.1982
  498MPD2    C5 7457   2.623   3.390   9.698 -0.5888 -0.1289 -0.4671
  498MPD2     H 7458   2.855   3.247   9.952 -2.5212 -3.3497  0.3424
  498MPD2    H1 7459   2.487   3.231   9.747  1.2101 -2.4668 -1.8659
  498MPD2    H2 7460   2.749   3.555   9.666  3.2487 -0.4899 -0.5640
  498MPD2    H3 7461   2.548   3.424   9.627 -0.2335  0.4430 -0.5682
  498MPD2     N 7462   2.653   3.107   9.935 -0.0370 -0.3254 -0.0859
  498MPD2    H5 7463   2.725   3.084  10.002 -1.2285  0.2792  1.3856
  498MPD2    N1 7464   2.967   3.446   9.837 -0.1306 -0.3483 -0.1816
  498MPD2    H7 7465   3.026   3.386   9.893 -0.1867  0.2219  0.4991
  499TMC3    C1 7466   3.161   3.566   9.763 -0.0793 -0.1141  0.3453
  499TMC3    C2 7467   3.231   3.451   9.750 -0.8768 -0.0005  0.1112
  499TMC3    C3 7468   3.364   3.461   9.713 -0.8761 -0.2590 -0.0155
  499TMC3    C4 7469   3.216   3.687   9.734  0.0514 -0.3691 -0.1636
  499TMC3    C5 7470   3.352   3.694   9.715  0.0715  0.0167  0.1286
  499TMC3    C6 7471   3.429   3.582   9.701  0.1313  0.3375  0.0292
  499TMC3     C 7472   3.014   3.565   9.782  0.0225  0.1350  0.0193
  499TMC3     O 7473   2.955   3.649   9.714  0.6388  1.0207 -0.0612
  499TMC3     H 7474   3.177   3.357   9.739  0.0234 -0.3961 -0.9058
  499TMC3    H1 7475   3.156   3.777   9.743 -0.8331 -0.9081 -0.5687
  499TMC3    H2 7476   3.535   3.592   9.678  0.5993 -4.1989  0.1694
  499TMC3    C7 7477   3.409   3.808   9.633  0.4420  0.2315  1.1088
  499TMC3    C8 7478   3.449   3.344   9.692 -0.8097 -0.4927  0.2852
  499TMC3    O1 7479   3.527   3.790   9.611 -0.5911 -0.2901 -0.2503
  499TMC3    O2 7480   3.569   3.367   9.677  0.1629 -0.0228 -1.3253
  500MPD2     C 7481   4.194   4.441  11.115 -0.4481  0.1717  0.0855
  500MPD2    C1 7482   4.292   4.415  11.021 -0.4113  0.2879 -0.3547
  500MPD2    C2 7483   4.256   4.406  10.890  0.6697  0.2809 -0.8131
  500MPD2    C3 7484   4.125   4.423  10.847 -0.4290  0.9811 -0.1226
  500MPD2    C4 7485   4.027   4.445  10.942  1.0716  0.2481 -0.2072
  500MPD2    C5 7486   4.058   4.450  11.067 -0.0543  0.6095 -0.0751
  500MPD2     H 7487   4.336   4.389  10.819  0.3457 -0.8100 -0.9152
  500MPD2    H1 7488   3.921   4.456  10.920  1.0143  2.2726  1.1269
  500MPD2    H2 7489   4.216   4.461  11.219 -2.5281 -0.6378  0.6610
  500MPD2    H3 7490   3.979   4.484  11.134 -0.0724 -1.9214  1.1916
  500MPD2     N 7491   4.075   4.411  10.712 -0.5435 -0.8826  0.0553
  500MPD2    H5 7492   3.975   4.401  10.698 -0.6956 -0.1211  0.5753
  500MPD2    N1 7493   4.426   4.397  11.050  0.4723  0.3037  0.3282
  500MPD2    H7 7494   4.488   4.393  10.970  1.6236  2.4314  1.1080
  501TMC3    C1 7495   4.612   4.419  11.185  0.6654 -0.0937  0.4553
  501TMC3    C2 7496   4.689   4.458  11.079 -0.2351 -0.5215  0.4832
  501TMC3    C3 7497   0.089   4.469  11.100 -0.0209  0.0239  0.1208
  501TMC3    C4 7498   4.666   4.414  11.315  0.2895 -0.0142 -0.0021
  501TMC3    C5 7499   0.070   4.446  11.332 -0.1618  0.3106  0.5812
  501TMC3    C6 7500   0.155   4.465  11.221 -0.5091  0.2953  0.7374
  501TMC3     C 7501   4.474   4.398  11.174 -0.0842 -0.1118 -0.0698
  501TMC3     O 7502   4.419   4.357  11.274 -0.5286 -0.0617  0.2888
  501TMC3     H 7503   4.646   4.470  10.980  1.4659  4.2389  0.3475
  501TMC3    H1 7504   4.603   4.387  11.398 -1.1030  0.2722 -0.9698
  501TMC3    H2 7505   0.261   4.488  11.226 -0.0658 -1.3886 -0.6933
  501TMC3    C7 7506   0.141   4.406  11.455  0.0039 -0.4953  0.0961
  501TMC3    C8 7507   0.165   4.532  10.990  0.5493  0.4359  0.3529
  501TMC3    O1 7508   0.251   4.350  11.436 -0.0160  0.6424  0.1980
  501TMC3    O2 7509   0.234   4.620  11.032 -0.2439  0.0812 -0.3892
  502TMC3    C1 7510   3.443   3.010  14.491  0.8968 -0.1181 -0.5417
  502TMC3    C2 7511   3.472   3.138  14.532  0.3584 -0.4227 -0.9386
  502TMC3    C3 7512   3.373   3.205  14.598  0.1582  0.1868  0.4054
  502TMC3    C4 7513   3.309   2.957  14.511  0.1592 -0.2628 -0.9007
  502TMC3    C5 7514   3.220   3.031  14.586  0.3842 -0.4185 -0.0841
  502TMC3    C6 7515   3.250   3.156  14.629 -0.1751 -0.5766 -0.4739
  502TMC3     C 7516   3.545   2.929  14.550 -0.2741 -0.6870  0.4797
  502TMC3     O 7517   3.649   2.909  14.482 -0.0680 -0.0041  0.5302
  502TMC3     H 7518   3.574   3.174  14.520  0.1239  0.6546  0.3492
  502TMC3    H1 7519   3.287   2.858  14.472 -0.3739 -1.0497  1.4280
  502TMC3    H2 7520   3.174   3.206  14.687 -1.5589 -2.0956 -0.9848
  502TMC3    C7 7521   3.178   2.944  14.696  0.2240  0.3415  0.4113
  502TMC3    C8 7522   3.428   3.294  14.700  0.0474  0.1901 -0.3288
  502TMC3    O1 7523   3.237   2.839  14.712 -0.1597  0.0945  0.5851
  502TMC3    O2 7524   3.368   3.394  14.730 -0.0639 -0.3991 -0.2984
  503MPD2     C 7525   0.866   3.740  17.014  0.0982 -0.1389  0.2577
  503MPD2    C1 7526   0.892   3.801  17.129  0.2729 -0.0395  0.3438
  503MPD2    C2 7527   0.966   3.739  17.228 -0.1667 -0.1219 -0.3542
  503MPD2    C3 7528   1.012   3.615  17.206  0.5921  0.5447  0.6654
  503MPD2    C4 7529   0.980   3.548  17.090 -0.7222 -0.3330  0.3401
  503MPD2    C5 7530   0.903   3.613  17.004  0.9384  0.1280 -0.3762
  503MPD2     H 7531   1.001   3.780  17.322 -3.5785  0.9478  0.4502
  503MPD2    H1 7532   1.003   3.445  17.065  2.1961  0.9297 -2.2598
  503MPD2    H2 7533   0.812   3.782  16.930 -0.5545 -0.3019  0.5992
  503MPD2    H3 7534   0.872   3.563  16.912  3.4044 -1.5514 -0.2690
  503MPD2     N 7535   1.094   3.554  17.311  0.1351 -0.1078  0.4828
  503MPD2    H5 7536   1.102   3.604  17.398 -1.7419  0.4846  0.3255
  503MPD2    N1 7537   0.852   3.933  17.153  0.2253 -0.0807 -0.0002
  503MPD2    H7 7538   0.890   3.966  17.241 -0.5603  3.5381 -1.0400
  504TMC3    C1 7539   1.229   3.403  17.422  0.0273  0.0795 -0.0270
  504TMC3    C2 7540   1.186   3.450  17.544 -0.3824  0.3352 -0.3878
  504TMC3    C3 7541   1.255   3.412  17.656 -0.2923 -0.4447  0.3509
  504TMC3    C4 7542   1.333   3.322  17.413  0.4349 -0.7453 -0.2871
  504TMC3    C5 7543   1.411   3.304  17.522 -0.0042 -0.4309 -0.1673
  504TMC3    C6 7544   1.371   3.344  17.647  0.6134  0.0234  0.3504
  504TMC3     C 7545   1.161   3.433  17.302 -1.2500  0.3085  0.4231
  504TMC3     O 7546   1.178   3.356  17.209 -0.0645 -0.7215  0.3950
  504TMC3     H 7547   1.104   3.521  17.551 -1.4787 -1.0603  0.9945
  504TMC3    H1 7548   1.385   3.312  17.319  0.7925  0.5298 -0.2300
  504TMC3    H2 7549   1.415   3.310   0.004  1.2480 -0.0154  0.0329
  504TMC3    C7 7550   1.547   3.255  17.507 -0.4105 -0.0067  0.5113
  504TMC3    C8 7551   1.169   3.408   0.037  0.0488 -0.5965  0.1615
  504TMC3    O1 7552   1.576   3.208  17.397  0.0482  0.4760 -0.0083
  504TMC3    O2 7553   1.056   3.447   0.008 -0.2979 -0.3267  0.0773
  505MPD2     C 7554   1.827   2.274  10.009  0.2209 -0.9953 -0.2547
  505MPD2    C1 7555   1.861   2.191  10.112 -0.1186 -0.9258  0.5055
  505MPD2    C2 7556   1.841   2.220  10.238 -0.7128  0.3663  0.8375
  505MPD2    C3 7557   1.802   2.351  10.272  0.2943  0.1007 -0.1213
  505MPD2    C4 7558   1.778   2.446  10.170  0.5791  0.3565 -0.3393
  505MPD2    C5 7559   1.788   2.400  10.042 -0.7473 -0.1584  0.0451
  505MPD2     H 7560   1.875   2.156  10.319 -1.1060 -2.0912 -0.9652
  505MPD2    H1 7561   1.745   2.546  10.196  1.3589 -0.0825  2.3714
  505MPD2    H2 7562   1.836   2.248   9.905 -1.1102 -0.4837 -0.4967
  505MPD2    H3 7563   1.762   2.467   9.961 -0.4391  0.5045  0.5012
  505MPD2     N 7564   1.803   2.386  10.407  0.0795 -0.6594  0.0502
  505MPD2    H5 7565   1.843   2.312  10.464  0.2362 -0.1918  0.5396
  505MPD2    N1 7566   1.918   2.070  10.071  0.4384  0.2599 -0.6252
  505MPD2    H7 7567   1.945   2.073   9.973 -1.6032  4.0388 -1.0651
  506TMC3    C1 7568   2.037   1.864  10.085  0.1318 -0.6211 -1.0529
  506TMC3    C2 7569   2.152   1.914  10.018 -0.2480  0.0068 -0.4266
  506TMC3    C3 7570   2.266   1.836  10.021  0.2299 -0.1321 -0.6693
  506TMC3    C4 7571   2.050   1.753  10.163  0.2484 -0.3747 -0.4087
  506TMC3    C5 7572   2.163   1.680  10.176  0.4438  0.7933  0.0974
  506TMC3    C6 7573   2.271   1.713  10.093 -0.6122  0.0211  0.3783
  506TMC3     C 7574   1.968   1.973  10.151 -0.0462  0.7032 -0.2772
  506TMC3     O 7575   1.933   1.949  10.263 -0.1403  0.1072  0.8181
  506TMC3     H 7576   2.148   1.997   9.949  2.4452  0.2379 -0.3218
  506TMC3    H1 7577   1.959   1.710  10.203  0.1011  0.4019  0.0742
  506TMC3    H2 7578   2.368   1.668  10.114  1.2042  3.4536 -0.5895
  506TMC3    C7 7579   2.199   1.666  10.313  0.3257  0.4126  0.6139
  506TMC3    C8 7580   2.395   1.870   9.964  0.8850 -0.8303  0.1945
  506TMC3    O1 7581   2.305   1.604  10.339  0.5478 -0.2565  0.0297
  506TMC3    O2 7582   2.461   1.773   9.932  0.3270 -0.1520  1.0851
  507TMC3    C1 7583   2.182   3.235  14.912 -0.3071 -0.2999 -0.4244
  507TMC3    C2 7584   2.204   3.152  14.804 -0.9350  0.1654 -0.4108
  507TMC3    C3 7585   2.256   3.206  14.690  0.0062 -0.0753  0.5399
  507TMC3    C4 7586   2.200   3.370  14.895 -0.7872 -0.7890  0.7262
  507TMC3    C5 7587   2.258   3.421  14.782 -0.0876  0.3459  0.2696
  507TMC3    C6 7588   2.295   3.338  14.682 -0.3123 -0.0553 -0.7077
  507TMC3     C 7589   2.054   3.205  14.980 -0.8929 -0.2406 -0.4419
  507TMC3     O 7590   2.039   3.294  15.065 -0.0995  0.1172  0.9124
  507TMC3     H 7591   2.186   3.046  14.820 -0.0965  0.4264  2.2807
  507TMC3    H1 7592   2.173   3.439  14.975  1.7279  1.3731 -0.2832
  507TMC3    H2 7593   2.349   3.378  14.596  1.7301  1.2296  1.1692
  507TMC3    C7 7594   2.203   3.546  14.733 -0.2278  0.1951  0.1862
  507TMC3    C8 7595   2.166   3.167  14.579  0.0070 -0.2982 -0.1117
  507TMC3    O1 7596   2.174   3.537  14.617  0.5995  0.3837 -0.4807
  507TMC3    O2 7597   2.126   3.048  14.583 -0.0260 -0.4671 -0.1084
  508MPD2     C 7598   2.774   0.951  16.115 -0.9767  0.5365 -0.4288
  508MPD2    C1 7599   2.905   0.949  16.145 -0.2978 -0.1941  0.0428
  508MPD2    C2 7600   2.994   0.996  16.046 -0.2816  0.7051 -0.1800
  508MPD2    C3 7601   2.960   1.038  15.924 -0.1301  0.0948 -0.3339
  508MPD2    C4 7602   2.823   1.040  15.895  0.5676 -0.4300  0.5201
  508MPD2    C5 7603   2.737   1.002  15.994  0.1008 -0.2823 -0.4773
  508MPD2     H 7604   3.098   1.016  16.073 -0.2792  1.3656 -0.6708
  508MPD2    H1 7605   2.781   1.074  15.801 -0.7465  1.8796  1.9345
  508MPD2    H2 7606   2.697   0.913  16.182 -0.1671 -2.8334 -1.4008
  508MPD2    H3 7607   2.631   1.008  15.972  0.2720  0.9855 -0.9409
  508MPD2     N 7608   3.054   1.079  15.828  0.5661 -0.3620  0.5707
  508MPD2    H5 7609   3.152   1.093  15.850  1.1399 -1.7247 -1.1127
  508MPD2    N1 7610   2.955   0.904  16.269  0.6627  0.5511 -0.1900
  508MPD2    H7 7611   3.054   0.917  16.286  1.2788 -3.7887 -0.5208
  509TMC3    C1 7612   3.104   1.404  15.531 -0.6451 -0.0143  0.7088
  509TMC3    C2 7613   3.206   1.458  15.604 -0.4562  0.4463 -0.8379
  509TMC3    C3 7614   3.256   1.384  15.702  0.3761 -0.1237 -0.7567
  509TMC3    C4 7615   3.064   1.275  15.544 -0.0422  0.2328  0.9082
  509TMC3    C5 7616   3.129   1.197  15.635  0.7828 -0.0413  0.3360
  509TMC3    C6 7617   3.225   1.250  15.717 -0.0764  0.3928  0.5091
  509TMC3     C 7618   3.008   1.483  15.462 -0.3929 -0.6321 -0.2266
  509TMC3     O 7619   2.892   1.462  15.495 -0.0553  0.9309 -0.2107
  509TMC3     H 7620   3.237   1.561  15.586  1.0225 -0.1199 -1.5615
  509TMC3    H1 7621   2.973   1.243  15.495 -0.4419  1.4564  0.8446
  509TMC3    H2 7622   3.289   1.188  15.780 -1.6420 -1.7881 -0.0516
  509TMC3    C7 7623   3.023   1.108  15.698 -0.5749  0.4014 -0.7708
  509TMC3    C8 7624   3.338   1.446  15.808  0.4564  0.8396 -0.7058
  509TMC3    O1 7625   2.921   1.072  15.632  0.4945  0.3981 -0.1552
  509TMC3    O2 7626   3.360   1.371  15.904 -0.5617 -0.1007  0.3608
  510MPD2     C 7627   0.999   2.701  14.450  0.4514 -0.0054 -0.1101
  510MPD2    C1 7628   1.026   2.569  14.479 -0.7165  0.1353 -0.4745
  510MPD2    C2 7629   1.154   2.520  14.445 -0.0734  0.4767  0.2627
  510MPD2    C3 7630   1.244   2.603  14.380  0.0702  0.1853  0.2501
  510MPD2    C4 7631   1.203   2.728  14.340 -0.1851  0.2150 -0.0265
  510MPD2    C5 7632   1.080   2.778  14.376 -0.4551 -0.0008  0.4746
  510MPD2     H 7633   1.179   2.416  14.466  2.2493  0.6080 -1.9041
  510MPD2    H1 7634   1.275   2.786  14.284  2.3192 -3.2442 -0.4047
  510MPD2    H2 7635   0.897   2.733  14.465  0.0553 -1.3274 -0.0238
  510MPD2    H3 7636   1.052   2.875  14.336  0.8965 -1.1546 -3.2881
  510MPD2     N 7637   1.369   2.551  14.358 -0.2141 -0.0217 -0.7413
  510MPD2    H5 7638   1.386   2.462  14.403  0.2728 -0.4267 -1.7406
  510MPD2    N1 7639   0.940   2.494  14.560 -0.4591  0.1448  0.6534
  510MPD2    H7 7640   0.958   2.394  14.560  0.0837  0.2417  0.6195
  511TMC3    C1 7641   0.761   2.449  14.692 -0.5232 -0.3996 -0.6147
  511TMC3    C2 7642   0.698   2.481  14.816  0.1144  0.3633 -0.3256
  511TMC3    C3 7643   0.614   2.386  14.870 -0.3060 -0.0598 -0.4508
  511TMC3    C4 7644   0.739   2.333  14.631  0.3118  0.7223  0.1012
  511TMC3    C5 7645   0.657   2.236  14.695  0.5165 -0.4562 -0.2203
  511TMC3    C6 7646   0.585   2.263  14.812 -0.8446  0.3275  0.4306
  511TMC3     C 7647   0.839   2.547  14.638  0.4212  0.4200 -0.6479
  511TMC3     O 7648   0.837   2.665  14.678  0.7482 -0.1539  0.3146
  511TMC3     H 7649   0.710   2.578  14.862  0.8522  0.2721 -0.3198
  511TMC3    H1 7650   0.787   2.301  14.539  0.0797  2.6535 -0.6822
  511TMC3    H2 7651   0.517   2.193  14.860  1.7648 -0.5201  2.8168
  511TMC3    C7 7652   0.609   2.131  14.607  0.3153  0.1867 -0.2429
  511TMC3    C8 7653   0.562   2.411  14.999  0.0116  0.2087  0.1776
  511TMC3    O1 7654   0.631   2.131  14.485 -0.4140 -0.1722  0.3541
  511TMC3    O2 7655   0.538   2.527  15.026 -0.0904  0.2470  0.0252
  512TMC3    C1 7656   4.622   2.193  13.167 -0.3289 -0.4437 -1.2155
  512TMC3    C2 7657   4.670   2.150  13.285  0.0939 -0.4818 -0.2070
  512TMC3    C3 7658   0.025   2.046  13.278 -0.4952  0.1255 -0.7653
  512TMC3    C4 7659   4.652   2.136  13.044  0.0521  1.4814 -0.0496
  512TMC3    C5 7660   0.010   2.038  13.048  0.1587  0.8933 -0.5622
  512TMC3    C6 7661   0.065   1.991  13.164 -0.1215 -0.2446  0.2777
  512TMC3     C 7662   4.525   2.296  13.162 -0.0768  0.6447 -0.1282
  512TMC3     O 7663   4.493   2.345  13.053  0.9908  0.0293 -0.3098
  512TMC3     H 7664   4.656   2.205  13.378 -1.4144  0.6968 -1.1311
  512TMC3    H1 7665   4.591   2.166  12.959  0.5044 -0.7662 -1.1726
  512TMC3    H2 7666   0.145   1.918  13.158  0.1779  0.1682 -0.7900
  512TMC3    C7 7667   0.039   1.974  12.921 -0.9302  0.6309 -0.1496
  512TMC3    C8 7668   0.118   2.013  13.387  0.4459  0.4843 -0.7283
  512TMC3    O1 7669   0.021   2.044  12.821  0.4647 -0.0400  0.0118
  512TMC3    O2 7670   0.128   1.895  13.433 -0.3526 -0.1289 -0.5655
  513MPD2     C 7671   2.195   2.473  13.262  0.0432 -0.2448  0.3859
  513MPD2    C1 7672   2.146   2.358  13.214 -0.0547 -0.2021 -0.4155
  513MPD2    C2 7673   2.182   2.236  13.274  0.0663  0.2811  0.2797
  513MPD2    C3 7674   2.263   2.231  13.382 -0.0045 -0.4424  0.1368
  513MPD2    C4 7675   2.324   2.347  13.426 -0.4100  0.2629 -0.3057
  513MPD2    C5 7676   2.286   2.468  13.363 -0.4912 -0.3411 -0.4650
  513MPD2     H 7677   2.148   2.144  13.228  1.6415 -0.5757  0.8406
  513MPD2    H1 7678   2.394   2.360  13.508 -0.1043 -0.8303 -0.3863
  513MPD2    H2 7679   2.167   2.570  13.222  1.9074 -0.4084 -1.3190
  513MPD2    H3 7680   2.336   2.561  13.388 -0.5767  0.5200 -3.5823
  513MPD2     N 7681   2.311   2.108  13.425  0.2109  0.3448  0.3498
  513MPD2    H5 7682   2.262   2.028  13.387  1.0571 -0.8570  1.7870
  513MPD2    N1 7683   2.057   2.361  13.098 -0.1771 -0.2140 -0.2041
  513MPD2    H7 7684   2.047   2.447  13.045  1.4853 -0.6609 -1.2223
  514TMC3    C1 7685   1.890   2.291  12.945  0.4827 -0.1001  0.8181
  514TMC3    C2 7686   1.911   2.407  12.873  0.0473  0.3059  0.3767
  514TMC3    C3 7687   1.925   2.400  12.743  0.8479 -0.2500 -0.2953
  514TMC3    C4 7688   1.876   2.170  12.886  0.1930 -0.8369  0.0647
  514TMC3    C5 7689   1.896   2.164  12.754  0.3364  0.4002  0.4072
  514TMC3    C6 7690   1.928   2.277  12.685 -0.2519  0.0464  0.1864
  514TMC3     C 7691   1.973   2.260  13.060 -0.2879 -0.0325 -0.4716
  514TMC3     O 7692   1.980   2.140  13.085 -0.0531 -0.1880  1.0249
  514TMC3     H 7693   1.906   2.504  12.921 -0.1403  0.1120  0.7500
  514TMC3    H1 7694   1.827   2.089  12.938  0.3782 -0.2994  1.0842
  514TMC3    H2 7695   1.971   2.258  12.587  4.1794  2.7362  1.5865
  514TMC3    C7 7696   1.988   2.046  12.726 -0.1880 -0.2257 -0.7540
  514TMC3    C8 7697   1.883   2.515  12.663  0.3072 -0.1089 -0.3349
  514TMC3    O1 7698   2.006   2.017  12.610 -0.0610  0.0257  0.1986
  514TMC3    O2 7699   1.833   2.604  12.730 -0.0048  0.0394  0.3460
  515MPD2     C 7700   4.316   4.099  15.420 -0.2067 -0.5238 -0.2281
  515MPD2    C1 7701   4.364   4.054  15.297  0.7346  0.2042 -0.4885
  515MPD2    C2 7702   4.503   4.050  15.286  0.5832 -0.0964 -0.3631
  515MPD2    C3 7703   4.591   4.086  15.393  0.5238 -0.5071 -0.3268
  515MPD2    C4 7704   4.531   4.134  15.509  0.2443  0.0207  0.3122
  515MPD2    C5 7705   4.396   4.137  15.523 -0.2640  0.8229  0.1776
  515MPD2     H 7706   4.545   4.009  15.195  0.3917  2.1301 -1.4418
  515MPD2    H1 7707   4.589   4.168  15.594 -0.2995 -0.5405  0.9126
  515MPD2    H2 7708   4.210   4.111  15.441 -0.4242 -1.1718 -0.9496
  515MPD2    H3 7709   4.350   4.167  15.617  0.5363  0.5924  0.6398
  515MPD2     N 7710   4.725   4.056  15.392  0.1250 -0.0157 -1.0711
  515MPD2    H5 7711   0.045   4.087  15.473  1.8527  0.0695 -2.2512
  515MPD2    N1 7712   4.285   3.994  15.200 -0.3439 -0.0363  0.4431
  515MPD2    H7 7713   4.337   3.933  15.137  1.2647  1.0595  0.6937
  516TMC3    C1 7714   4.097   3.918  15.084  0.0529  0.2523  0.6075
  516TMC3    C2 7715   4.009   3.959  14.985  0.2769  0.5695 -0.1807
  516TMC3    C3 7716   3.989   3.874  14.880  0.4320  0.0790 -0.9397
  516TMC3    C4 7717   4.155   3.795  15.085  0.3054 -0.6497  0.1063
  516TMC3    C5 7718   4.122   3.705  14.985  0.3035  0.1102 -0.3426
  516TMC3    C6 7719   4.041   3.747  14.878  0.1981 -0.2419  0.6361
  516TMC3     C 7720   4.149   4.017  15.181  0.9828  0.7364  0.2960
  516TMC3     O 7721   4.069   4.100  15.226 -0.1848  0.2097 -0.3079
  516TMC3     H 7722   3.976   4.061  14.986 -0.7346  0.2393 -0.7513
  516TMC3    H1 7723   4.206   3.757  15.173  0.4291  0.0269  0.3236
  516TMC3    H2 7724   4.008   3.685  14.795  1.0330  0.1856 -0.0219
  516TMC3    C7 7725   4.173   3.571  14.994  0.3767  0.8621 -0.0992
  516TMC3    C8 7726   3.901   3.922  14.779  0.9321  0.1460  0.1566
  516TMC3    O1 7727   4.253   3.548  15.080  0.5442 -0.2917  0.0892
  516TMC3    O2 7728   3.833   3.836  14.724 -0.1144 -0.0166 -0.1997
  517MPD2     C 7729   3.889   0.574  17.552  0.2412  0.8471 -0.3091
  517MPD2    C1 7730   4.024   0.568  17.521  0.3354  0.0651 -0.2057
  517MPD2    C2 7731   4.097   0.676  17.552 -0.3118  0.2685  0.1801
  517MPD2    C3 7732   4.050   0.783  17.629 -0.1690 -0.1909  0.0793
  517MPD2    C4 7733   3.912   0.784  17.650  0.2358 -0.1421  0.6653
  517MPD2    C5 7734   3.842   0.676  17.622  0.5710 -0.2328  0.4205
  517MPD2     H 7735   4.198   0.681  17.514 -1.0379  1.9737 -1.5337
  517MPD2    H1 7736   3.872   0.874  17.695 -0.0420 -0.5660  1.2684
  517MPD2    H2 7737   3.816   0.500  17.521  1.0835 -0.9761  2.1373
  517MPD2    H3 7738   3.737   0.686  17.649  0.3524  0.0971 -0.5538
  517MPD2     N 7739   4.128   0.877  17.698 -0.1292  0.6269  0.3120
  517MPD2    H5 7740   4.083   0.952   0.013 -1.4569 -1.0102  1.5913
  517MPD2    N1 7741   4.089   0.458  17.452  0.4002  0.5185 -0.1762
  517MPD2    H7 7742   4.189   0.473  17.437  0.3869  0.7260 -0.0547
  518TMC3    C1 7743   4.112   0.256  17.326 -0.4054 -0.1859 -0.6954
  518TMC3    C2 7744   4.110   0.120  17.343  0.5677 -0.1574 -0.2309
  518TMC3    C3 7745   4.188   0.037  17.269 -0.3836 -0.1410 -1.1486
  518TMC3    C4 7746   4.200   0.309  17.229  0.4985 -0.1787 -0.4555
  518TMC3    C5 7747   4.269   0.216  17.150  0.7079  0.3702 -0.1942
  518TMC3    C6 7748   4.269   0.082  17.170 -0.3592 -0.4815 -0.4172
  518TMC3     C 7749   4.028   0.341  17.411 -0.5149 -0.2495  0.1302
  518TMC3     O 7750   3.916   0.300  17.431 -0.1574 -0.5945 -0.2502
  518TMC3     H 7751   4.037   0.088  17.416  0.4404  2.6220  0.8949
  518TMC3    H1 7752   4.204   0.415  17.209  0.5229 -0.5431 -2.4346
  518TMC3    H2 7753   4.301   0.010  17.095  1.5779 -1.0816  0.9956
  518TMC3    C7 7754   4.343   0.278  17.039 -0.0150 -0.1137 -0.0952
  518TMC3    C8 7755   4.194   4.629  17.302  0.1671 -0.5140 -0.4182
  518TMC3    O1 7756   4.321   0.381  16.982 -0.6756  0.3652 -0.7874
  518TMC3    O2 7757   4.266   4.558  17.235  0.0559 -0.1469  0.1374
  519MPD2     C 7758   1.153   3.169  14.426 -0.2301 -0.0158  0.2178
  519MPD2    C1 7759   1.138   3.267  14.330 -0.4567  0.0936  0.0589
  519MPD2    C2 7760   1.244   3.287  14.243  0.0977  0.1852  0.1501
  519MPD2    C3 7761   1.369   3.227  14.258  0.4571  0.5238  0.5282
  519MPD2    C4 7762   1.381   3.139  14.363 -0.3822  0.6044 -0.3686
  519MPD2    C5 7763   1.273   3.102  14.438 -0.5793  0.0578 -0.0678
  519MPD2     H 7764   1.228   3.353  14.158  1.1749 -0.1686 -0.3384
  519MPD2    H1 7765   1.476   3.086  14.368  0.2144  1.5327 -1.7016
  519MPD2    H2 7766   1.067   3.138  14.484 -0.5496 -0.8647 -0.7105
  519MPD2    H3 7767   1.281   3.013  14.499 -1.3285  1.6642  2.3690
  519MPD2     N 7768   1.481   3.260  14.181  0.4023 -0.1007 -0.3081
  519MPD2    H5 7769   1.565   3.204  14.185  1.0305  1.1004  3.0099
  519MPD2    N1 7770   1.012   3.334  14.320  0.7281 -0.0345  0.3897
  519MPD2    H7 7771   0.945   3.309  14.393 -0.1397 -2.1129 -1.1174
  520TMC3    C1 7772   1.621   3.368  14.022  0.8634  0.1531  0.1355
  520TMC3    C2 7773   1.599   3.406  13.888 -0.8149 -0.0750  0.5842
  520TMC3    C3 7774   1.652   3.339  13.781  1.3194  0.6906  0.3285
  520TMC3    C4 7775   1.706   3.264  14.039 -0.3007 -0.1332  0.4949
  520TMC3    C5 7776   1.765   3.203  13.933  0.8348  0.0554  1.3389
  520TMC3    C6 7777   1.738   3.236  13.801  0.0408 -0.0879  0.1590
  520TMC3     C 7778   1.493   3.363  14.095 -0.8670  0.3994  0.0158
  520TMC3     O 7779   1.403   3.430  14.043 -0.3293  0.1312  0.1305
  520TMC3     H 7780   1.527   3.486  13.873 -2.0830 -1.6154 -1.6226
  520TMC3    H1 7781   1.727   3.241  14.143 -0.2026 -3.0883 -0.1799
  520TMC3    H2 7782   1.799   3.195  13.721 -0.8403 -0.8721 -0.1127
  520TMC3    C7 7783   1.832   3.079  13.968 -0.4797 -0.1562  0.1950
  520TMC3    C8 7784   1.574   3.343  13.656 -0.4403 -0.7811 -0.3937
  520TMC3    O1 7785   1.827   3.037  14.085 -0.3698  0.3050 -0.0380
  520TMC3    O2 7786   1.644   3.340  13.556  0.3527  0.2222  0.2842
  521MPD2     C 7787   1.795   1.395  17.712  0.2205  0.0350 -0.7708
  521MPD2    C1 7788   1.799   1.313  17.605  0.2230  0.5057 -0.1783
  521MPD2    C2 7789   1.903   1.319  17.521 -0.0745  0.0575  0.2116
  521MPD2    C3 7790   2.010   1.406  17.544  0.0445  0.4053 -0.3225
  521MPD2    C4 7791   1.994   1.493  17.652 -0.0688 -0.0403  0.3219
  521MPD2    C5 7792   1.887   1.488  17.734  0.6535  0.0163  0.3977
  521MPD2     H 7793   1.918   1.255  17.435  1.7649  2.6494 -1.3886
  521MPD2    H1 7794   2.068   1.569  17.674  2.2108 -1.6960 -1.5429
  521MPD2    H2 7795   1.702   1.397   0.032  0.8534 -0.1569  0.2843
  521MPD2    H3 7796   1.890   1.537   0.095 -0.9256 -1.3954  1.1562
  521MPD2     N 7797   2.124   1.403  17.455 -0.2552 -0.2105 -0.5636
  521MPD2    H5 7798   2.112   1.349  17.370  1.0322  0.7519 -1.3543
  521MPD2    N1 7799   1.690   1.227  17.594 -0.1389  0.1168 -0.2420
  521MPD2    H7 7800   1.617   1.234  17.664  0.4045  0.0340  0.3413
  522TMC3    C1 7801   2.336   1.450  17.374 -0.1688 -0.3429 -0.2724
  522TMC3    C2 7802   2.449   1.394  17.420  0.2688 -0.0828 -0.6888
  522TMC3    C3 7803   2.545   1.378  17.323 -0.4199  0.3371  0.2054
  522TMC3    C4 7804   2.308   1.482  17.247 -0.4294  0.1282  0.2695
  522TMC3    C5 7805   2.407   1.468  17.150 -0.0776 -0.0756 -0.1391
  522TMC3    C6 7806   2.532   1.419  17.189 -0.3125 -0.5638  0.1302
  522TMC3     C 7807   2.242   1.472  17.473 -0.8300 -0.0447 -0.4163
  522TMC3     O 7808   2.278   1.525  17.581  0.0092  0.3313 -0.1712
  522TMC3     H 7809   2.460   1.381  17.527 -0.0855  0.5495 -0.5743
  522TMC3    H1 7810   2.214   1.533  17.226 -0.8957 -0.9265 -0.1763
  522TMC3    H2 7811   2.617   1.439  17.125 -0.0312 -0.6651  0.4776
  522TMC3    C7 7812   2.381   1.512  17.014  0.9513  0.2760 -0.4352
  522TMC3    C8 7813   2.669   1.311  17.352 -0.6110  0.0761 -0.0568
  522TMC3    O1 7814   2.481   1.548  16.951  0.9706 -0.3397 -0.0678
  522TMC3    O2 7815   2.717   1.326  17.458 -0.0252 -0.1146 -0.7765
  523MPD2     C 7816   0.619   2.129  10.524  0.0362 -0.0453  0.3345
  523MPD2    C1 7817   0.564   2.045  10.426  0.8692  0.0969 -0.1486
  523MPD2    C2 7818   0.561   2.087  10.296 -0.0413 -0.1125 -0.5522
  523MPD2    C3 7819   0.587   2.218  10.260  1.2571 -0.5251 -0.2804
  523MPD2    C4 7820   0.617   2.304  10.360  0.5517  0.6705 -0.5901
  523MPD2    C5 7821   0.637   2.258  10.488 -0.0713  0.1754  0.1495
  523MPD2     H 7822   0.547   2.015  10.216 -1.4672 -0.3687 -0.0762
  523MPD2    H1 7823   0.632   2.411  10.345  1.3485  0.5695 -0.4845
  523MPD2    H2 7824   0.630   2.090  10.625  0.0178  0.2618  0.4547
  523MPD2    H3 7825   0.664   2.335  10.559  0.1721  0.3388 -0.1221
  523MPD2     N 7826   0.575   2.273  10.129 -0.2970 -0.1211 -0.1535
  523MPD2    H5 7827   0.587   2.373  10.124 -0.1737 -0.1426 -0.3152
  523MPD2    N1 7828   0.536   1.917  10.468 -0.1782 -0.6256 -0.4980
  523MPD2    H7 7829   0.559   1.897  10.564 -1.7532 -0.9984 -0.2003
  524TMC3    C1 7830   0.475   2.275   9.909 -0.0133 -0.4997  0.1538
  524TMC3    C2 7831   0.449   2.210   9.793  0.2316  0.6927 -0.1917
  524TMC3    C3 7832   0.339   2.257   9.721  0.4583  0.6541 -0.1362
  524TMC3    C4 7833   0.376   2.353   9.967  0.1785  0.1010  0.4785
  524TMC3    C5 7834   0.265   2.383   9.901  0.0797 -0.9402 -0.3202
  524TMC3    C6 7835   0.249   2.351   9.769  0.1985  0.4367 -0.1146
  524TMC3     C 7836   0.552   2.204  10.015  0.4571 -0.3815 -0.4001
  524TMC3     O 7837   0.550   2.087   9.989 -0.1134 -0.4922  0.6664
  524TMC3     H 7838   0.530   2.157   9.744 -0.8393 -0.9876 -0.1331
  524TMC3    H1 7839   0.379   2.376  10.073  1.3304  0.8701  0.2794
  524TMC3    H2 7840   0.168   2.395   9.713  0.6531 -0.2032 -1.2664
  524TMC3    C7 7841   0.185   2.494   9.958 -0.2706  0.2384  0.2427
  524TMC3    C8 7842   0.304   2.209   9.589 -0.1412  0.2863  0.8010
  524TMC3    O1 7843   0.155   2.484  10.074  0.1044  0.1545  0.2161
  524TMC3    O2 7844   0.241   2.278   9.516  0.0527 -0.1304  0.2610
  525MPD2     C 7845   2.541   2.867  14.657 -0.1105 -0.0767  0.3653
  525MPD2    C1 7846   2.669   2.888  14.702  0.0725  0.4339 -0.1024
  525MPD2    C2 7847   2.742   2.996  14.658  0.8802 -0.2711  0.2692
  525MPD2    C3 7848   2.679   3.091  14.585  0.7456 -0.0959 -0.3266
  525MPD2    C4 7849   2.548   3.077  14.557  0.1612  0.5969  0.3516
  525MPD2    C5 7850   2.480   2.968  14.597 -0.6019 -0.6348 -0.1078
  525MPD2     H 7851   2.842   3.015  14.695  0.8115  0.3788  0.1124
  525MPD2    H1 7852   2.493   3.152  14.501 -3.4096 -1.9790  0.3635
  525MPD2    H2 7853   2.473   2.784  14.674  2.4353 -2.1504  0.4505
  525MPD2    H3 7854   2.378   2.952  14.565 -1.0680  1.8314  0.1931
  525MPD2     N 7855   2.733   3.214  14.543  0.1295 -0.1587 -0.0720
  525MPD2    H5 7856   2.676   3.286  14.500 -0.4229 -0.0482  0.8313
  525MPD2    N1 7857   2.719   2.792  14.796  0.5148 -0.1515  0.2306
  525MPD2    H7 7858   2.818   2.797  14.818  0.2484 -0.4754  1.4928
  526TMC3    C1 7859   2.698   2.612  14.959 -0.0124 -0.5724  0.1386
  526TMC3    C2 7860   2.614   2.585  15.059 -0.1103 -0.2433 -0.3497
  526TMC3    C3 7861   2.663   2.508  15.163  0.1946  0.0861  0.2491
  526TMC3    C4 7862   2.829   2.570  14.946 -0.0457 -0.7072 -0.0451
  526TMC3    C5 7863   2.875   2.509  15.058 -0.4114  0.6319 -0.1190
  526TMC3    C6 7864   2.801   2.480  15.167  0.1598  0.5874 -0.8971
  526TMC3     C 7865   2.633   2.698  14.861 -0.2153 -0.3064  0.2357
  526TMC3     O 7866   2.513   2.676  14.860  0.1538  0.1843  0.0815
  526TMC3     H 7867   2.512   2.623  15.060  0.2376  0.7338 -2.3637
  526TMC3    H1 7868   2.881   2.587  14.852 -0.2527 -2.1865 -0.4209
  526TMC3    H2 7869   2.851   2.436  15.252  2.3667  0.7057 -2.1514
  526TMC3    C7 7870   3.018   2.490  15.082  0.3140  0.2788 -0.7489
  526TMC3    C8 7871   2.611   2.519  15.300 -0.0718 -0.2919  0.1288
  526TMC3    O1 7872   3.056   2.471  15.194 -0.0841 -0.2896 -0.0757
  526TMC3    O2 7873   2.694   2.507  15.392  0.0320  0.4881 -0.6490
  527MPD2     C 7874   0.356   1.018   1.489 -0.7749 -0.9604  0.4541
  527MPD2    C1 7875   0.393   1.128   1.410 -0.3842  0.1066 -0.1592
  527MPD2    C2 7876   0.485   1.097   1.310 -0.0400 -0.0371 -0.4297
  527MPD2    C3 7877   0.560   0.982   1.307  0.2432 -0.1453  0.2884
  527MPD2    C4 7878   0.537   0.882   1.399 -0.2510  0.5996 -0.4066
  527MPD2    C5 7879   0.423   0.896   1.479  0.6817 -0.3444  0.2325
  527MPD2     H 7880   0.507   1.178   1.240  0.9235 -0.6182 -0.8039
  527MPD2    H1 7881   0.579   0.783   1.392  0.9069  1.2220 -2.1148
  527MPD2    H2 7882   0.260   1.022   1.538 -1.0064  0.2293 -0.0996
  527MPD2    H3 7883   0.384   0.808   1.528 -2.0926 -0.0507 -1.4201
  527MPD2     N 7884   0.658   0.973   1.203  0.0350  0.3666 -0.2638
  527MPD2    H5 7885   0.650   1.045   1.132 -0.4981  1.8717  1.3050
  527MPD2    N1 7886   0.327   1.249   1.414  0.1750 -0.0911 -0.2835
  527MPD2    H7 7887   0.327   1.310   1.333  2.3850  0.7413  0.3533
  528TMC3    C1 7888   0.159   1.403   1.493  0.8106  0.3521  0.5519
  528TMC3    C2 7889   0.141   1.447   1.366 -0.6012 -0.0663 -0.0482
  528TMC3    C3 7890   0.043   1.539   1.337  0.4738  0.2918  0.2480
  528TMC3    C4 7891   0.072   1.438   1.593 -0.0524  0.1086 -0.1854
  528TMC3    C5 7892   4.696   1.514   1.556 -0.4727 -0.6155  0.0070
  528TMC3    C6 7893   4.675   1.559   1.432  0.3324  0.4125  0.3980
  528TMC3     C 7894   0.252   1.292   1.523 -0.5761  0.1888 -0.6287
  528TMC3     O 7895   0.251   1.238   1.637  1.0163  0.6150 -0.0204
  528TMC3     H 7896   0.219   1.430   1.293 -0.4049 -0.2383  0.2008
  528TMC3    H1 7897   0.091   1.407   1.695 -2.1089 -2.2164 -0.4979
  528TMC3    H2 7898   4.593   1.629   1.420 -0.0757 -0.3933 -1.6252
  528TMC3    C7 7899   4.578   1.510   1.651  0.0587 -0.3514 -0.2307
  528TMC3    C8 7900   0.092   1.643   1.243 -0.0339 -0.0207  0.5433
  528TMC3    O1 7901   4.464   1.518   1.600  0.1086 -0.1228  0.1631
  528TMC3    O2 7902   0.178   1.613   1.157  0.8291 -0.2227  0.3479
  529MPD2     C 7903   2.337   4.152   0.667  0.4978  0.1009 -0.3315
  529MPD2    C1 7904   2.461   4.116   0.635  0.2803  0.1195 -0.6453
  529MPD2    C2 7905   2.524   4.179   0.531  0.5266 -0.3926  0.7341
  529MPD2    C3 7906   2.454   4.271   0.450 -0.0485 -1.0472  0.4178
  529MPD2    C4 7907   2.329   4.299   0.477  0.2876  1.0880 -0.2026
  529MPD2    C5 7908   2.270   4.234   0.581 -0.4865  0.2802  0.1493
  529MPD2     H 7909   2.628   4.159   0.505  0.3073  0.6896 -0.9675
  529MPD2    H1 7910   2.274   4.382   0.434 -0.5488  0.2812 -0.6823
  529MPD2    H2 7911   2.292   4.124   0.762  2.3465  0.8072  0.7624
  529MPD2    H3 7912   2.169   4.267   0.602 -0.7825 -1.2671  1.1508
  529MPD2     N 7913   2.522   4.346   0.342  0.4951 -0.0011 -0.2740
  529MPD2    H5 7914   2.466   4.422   0.303 -0.1607 -0.6053 -0.5160
  529MPD2    N1 7915   2.535   4.020   0.709 -0.4378 -0.8673  0.1450
  529MPD2    H7 7916   2.628   4.000   0.674  0.7224  0.9932  2.1490
  530TMC3    C1 7917   2.581   3.848   0.869  0.0433 -0.0655  0.3532
  530TMC3    C2 7918   2.712   3.850   0.818  0.2056 -0.3012  0.0034
  530TMC3    C3 7919   2.785   3.734   0.839  0.7305 -0.0101 -0.0508
  530TMC3    C4 7920   2.529   3.742   0.950 -0.5738  0.7015 -0.2740
  530TMC3    C5 7921   2.616   3.636   0.954 -0.2013 -0.1399  0.0915
  530TMC3    C6 7922   2.733   3.621   0.893  0.1315  0.0107  0.0825
  530TMC3     C 7923   2.487   3.950   0.815 -0.0181  0.3737  0.3058
  530TMC3     O 7924   2.391   3.966   0.884  0.3957 -0.7487  0.2619
  530TMC3     H 7925   2.763   3.939   0.782  0.6603 -0.1947  0.9285
  530TMC3    H1 7926   2.428   3.741   0.991 -0.1973  2.5670  0.6974
  530TMC3    H2 7927   2.782   3.524   0.886  0.3222 -0.2287  4.6888
  530TMC3    C7 7928   2.574   3.516   1.030 -0.3200 -0.2174 -0.2705
  530TMC3    C8 7929   2.925   3.747   0.833  0.9460 -0.2222 -0.7972
  530TMC3    O1 7930   2.622   3.404   0.996 -0.0030  0.3988  0.2313
  530TMC3    O2 7931   2.971   3.853   0.789  0.1117  0.6126  0.2853
  531MPD2     C 7932   2.345   1.703  12.887 -0.0414  0.2337 -0.3966
  531MPD2    C1 7933   2.302   1.780  12.995  0.4233  0.7375  0.1549
  531MPD2    C2 7934   2.207   1.881  12.969 -0.4776  0.3234 -0.6427
  531MPD2    C3 7935   2.166   1.909  12.843 -0.3260 -0.4239 -0.1658
  531MPD2    C4 7936   2.208   1.826  12.740 -0.0503  0.0791 -0.1305
  531MPD2    C5 7937   2.291   1.726  12.765 -0.0955 -0.1285  0.1539
  531MPD2     H 7938   2.153   1.928  13.050  0.3464 -1.6642  1.0719
  531MPD2    H1 7939   2.172   1.844  12.639  0.3308  3.2834  0.3101
  531MPD2    H2 7940   2.411   1.619  12.906 -0.8898  0.1275  2.1559
  531MPD2    H3 7941   2.317   1.660  12.682  0.0375 -0.6826  0.6376
  531MPD2     N 7942   2.070   2.014  12.832  0.0074  0.3786  0.0856
  531MPD2    H5 7943   2.054   2.060  12.921  3.1709  1.0915  0.2654
  531MPD2    N1 7944   2.341   1.742  13.130  0.0621  0.1077  0.0268
  531MPD2    H7 7945   2.400   1.662  13.147  1.8881  0.9333 -2.4457
  532TMC3    C1 7946   2.377   1.771  13.365 -0.3937 -0.2173 -0.9560
  532TMC3    C2 7947   2.348   1.865  13.456 -0.4602 -0.1326  0.4388
  532TMC3    C3 7948   2.449   1.942  13.511 -0.0707  0.0958 -0.4580
  532TMC3    C4 7949   2.514   1.734  13.352  0.7161  0.4568  0.3898
  532TMC3    C5 7950   2.615   1.803  13.416 -0.6643  0.1424  0.2601
  532TMC3    C6 7951   2.582   1.907  13.499  0.2653  0.1022  0.5758
  532TMC3     C 7952   2.304   1.812  13.242 -0.1333 -0.5685  0.8305
  532TMC3     O 7953   2.242   1.917  13.253  0.3556 -0.1407 -0.2096
  532TMC3     H 7954   2.245   1.888  13.481 -0.4762  0.6574 -0.3725
  532TMC3    H1 7955   2.536   1.659  13.277  0.7921  1.0244 -0.1472
  532TMC3    H2 7956   2.652   1.969  13.554 -0.1136  2.5295 -1.6782
  532TMC3    C7 7957   2.735   1.737  13.467 -0.5956  0.2857 -0.0331
  532TMC3    C8 7958   2.422   2.085  13.506 -0.4241  0.2182  0.4697
  532TMC3    O1 7959   2.828   1.805  13.509 -0.1402 -0.2747  0.0007
  532TMC3    O2 7960   2.493   2.165  13.564  0.2118 -0.1710  0.4126
  533TMC3    C1 7961   2.867   3.393  14.505  0.6036 -0.0746  0.8501
  533TMC3    C2 7962   2.967   3.468  14.556 -0.9623 -0.1107  0.2045
  533TMC3    C3 7963   2.952   3.597  14.575 -0.3805  0.0213 -0.0873
  533TMC3    C4 7964   2.755   3.457  14.469 -0.4393  0.0443  0.8454
  533TMC3    C5 7965   2.722   3.580  14.527  0.4744 -0.1665  0.2042
  533TMC3    C6 7966   2.826   3.660  14.567 -0.5753 -0.0252 -0.0567
  533TMC3     C 7967   2.860   3.263  14.558  0.1312  0.4945 -0.7836
  533TMC3     O 7968   2.946   3.212  14.631 -0.4002 -0.4069  0.8054
  533TMC3     H 7969   3.067   3.430  14.572 -0.4740  0.4609 -1.4896
  533TMC3    H1 7970   2.689   3.412  14.397 -0.4245 -0.5249  1.1880
  533TMC3    H2 7971   2.810   3.766  14.585 -1.7511 -0.2859  0.4183
  533TMC3    C7 7972   2.620   3.565  14.626  0.4808  0.0641 -0.1489
  533TMC3    C8 7973   3.066   3.679  14.624 -0.5714 -0.0959  0.0485
  533TMC3    O1 7974   2.584   3.449  14.633  0.6344 -0.3940  0.2415
  533TMC3    O2 7975   3.148   3.628  14.697  0.6474 -0.0457 -0.0160
  534MPD2     C 7976   4.164   0.698   1.908  0.6062  0.7112 -0.4788
  534MPD2    C1 7977   4.260   0.716   1.807 -0.0337 -0.7130  0.8553
  534MPD2    C2 7978   4.273   0.621   1.707 -0.1612 -0.8575  0.3453
  534MPD2    C3 7979   4.188   0.508   1.697  0.3258  0.5777  0.1705
  534MPD2    C4 7980   4.084   0.507   1.792 -0.3968  0.4576 -0.8198
  534MPD2    C5 7981   4.067   0.601   1.889 -0.0114  0.5485  0.4165
  534MPD2     H 7982   4.362   0.630   1.646  0.3025 -0.6092  1.0564
  534MPD2    H1 7983   4.001   0.439   1.777 -0.3053  0.1578  0.0324
  534MPD2    H2 7984   4.130   0.780   1.969 -0.8094 -0.2100 -0.0275
  534MPD2    H3 7985   3.982   0.586   1.955  0.7697  0.0228  1.3010
  534MPD2     N 7986   4.181   0.417   1.583  0.3087 -0.4712  0.9611
  534MPD2    H5 7987   4.094   0.366   1.570  0.3087  0.1762 -1.5192
  534MPD2    N1 7988   4.351   0.824   1.811  0.2428 -0.3620 -0.2069
  534MPD2    H7 7989   4.419   0.818   1.735  0.2462 -0.5151 -0.1918
  535TMC3    C1 7990   4.232   0.300   1.391 -0.1192 -0.5318  0.2581
  535TMC3    C2 7991   4.102   0.256   1.384 -0.2168 -0.6572  0.0368
  535TMC3    C3 7992   4.084   0.140   1.317  0.0288  0.5229 -0.0766
  535TMC3    C4 7993   4.339   0.234   1.326 -0.3997 -0.4067 -0.0654
  535TMC3    C5 7994   4.309   0.112   1.270  0.0485  0.2635 -0.1073
  535TMC3    C6 7995   4.182   0.067   1.260 -0.1664 -0.5372 -0.0518
  535TMC3     C 7996   4.271   0.406   1.486 -0.9279 -0.3979 -0.3600
  535TMC3     O 7997   4.387   0.443   1.495 -0.4876 -0.1966 -0.3147
  535TMC3     H 7998   4.022   0.299   1.444  0.8654  0.1500  0.9013
  535TMC3    H1 7999   4.441   0.271   1.335 -0.0223 -1.5114  0.2533
  535TMC3    H2 8000   4.161   4.708   1.207 -0.6066  0.0395 -0.8781
  535TMC3    C7 8001   4.413   0.039   1.196 -0.3123 -0.2950 -0.0576
  535TMC3    C8 8002   3.942   0.089   1.304  0.5248 -0.3100 -0.4830
  535TMC3    O1 8003   4.385   4.699   1.103  0.1871  0.8996  0.2834
  535TMC3    O2 8004   3.923   0.001   1.218 -0.1323 -0.4000  0.1452
  536MPD2     C 8005   4.063   2.751  15.813 -0.4419 -0.1050  0.3402
  536MPD2    C1 8006   3.939   2.716  15.859  0.1527 -0.6108 -0.3801
  536MPD2    C2 8007   3.825   2.749  15.788 -0.0456  0.0009  0.3566
  536MPD2    C3 8008   3.827   2.805  15.662 -0.8011 -0.1274 -0.0800
  536MPD2    C4 8009   3.956   2.832  15.614  0.2387  1.0213 -0.5458
  536MPD2    C5 8010   4.066   2.814  15.686 -0.7555 -0.1125 -0.4390
  536MPD2     H 8011   3.722   2.734  15.821  0.0177  0.6418  0.8255
  536MPD2    H1 8012   3.961   2.875  15.515  0.4014  2.2129 -0.0261
  536MPD2    H2 8013   4.151   2.734  15.874  1.1567 -0.2958 -2.0404
  536MPD2    H3 8014   4.161   2.824  15.635 -0.7239 -2.6535 -0.9017
  536MPD2     N 8015   3.707   2.845  15.593  0.5111 -0.0308  0.1089
  536MPD2    H5 8016   3.725   2.890  15.504  0.4919 -1.7020 -0.7367
  536MPD2    N1 8017   3.932   2.644  15.983  0.9775 -0.6846  0.7687
  536MPD2    H7 8018   4.015   2.632  16.040  1.4686 -1.4437 -0.0914
  537TMC3    C1 8019   3.836   2.539  16.163  0.2716  0.4769 -0.1233
  537TMC3    C2 8020   3.870   2.636  16.258  0.8461  0.2854  0.0147
  537TMC3    C3 8021   3.830   2.618  16.385  0.1495  0.0799  0.1986
  537TMC3    C4 8022   3.753   2.435  16.204 -0.2701 -0.1727  0.3870
  537TMC3    C5 8023   3.705   2.430  16.326  0.1055 -0.0694  1.0016
  537TMC3    C6 8024   3.738   2.523  16.416 -0.0430 -0.0164 -0.6767
  537TMC3     C 8025   3.815   2.593  16.034 -0.6922  0.0590 -0.2661
  537TMC3     O 8026   3.709   2.568  15.979  0.2837 -0.3106  0.0337
  537TMC3     H 8027   3.937   2.719  16.239  0.5217  0.6361  0.3991
  537TMC3    H1 8028   3.715   2.365  16.131  0.7141 -0.8197  0.4909
  537TMC3    H2 8029   3.691   2.518  16.514 -2.8353  0.0093 -2.0076
  537TMC3    C7 8030   3.596   2.343  16.348  0.0342 -1.1613  0.9944
  537TMC3    C8 8031   3.842   2.727  16.471  0.5947  0.1812 -0.5838
  537TMC3    O1 8032   3.524   2.322  16.252 -0.1857 -0.0204 -0.3987
  537TMC3    O2 8033   3.815   2.702  16.587 -0.6938 -0.5972 -0.3576
  538TMC3    C1 8034   0.825   1.373  11.419  0.1145 -0.3779 -0.5855
  538TMC3    C2 8035   0.942   1.326  11.357  0.0698 -0.1196 -0.0876
  538TMC3    C3 8036   0.959   1.362  11.228 -0.0342 -0.3046 -0.1019
  538TMC3    C4 8037   0.728   1.445  11.350 -0.4756  0.4548 -0.1417
  538TMC3    C5 8038   0.757   1.475  11.219  0.1971 -0.7022 -0.9342
  538TMC3    C6 8039   0.876   1.445  11.155  0.3347 -0.2674 -0.1074
  538TMC3     C 8040   0.815   1.363  11.559  0.6916 -0.3735  0.3197
  538TMC3     O 8041   0.707   1.342  11.606  0.4684  0.2010  0.1694
  538TMC3     H 8042   0.996   1.246  11.407 -0.5557 -0.1577  0.5204
  538TMC3    H1 8043   0.644   1.483  11.406  2.2925  0.8316  3.7510
  538TMC3    H2 8044   0.887   1.465  11.049 -0.1892  0.2942 -0.0531
  538TMC3    C7 8045   0.669   1.578  11.162 -0.3411 -0.5237  0.4313
  538TMC3    C8 8046   1.075   1.319  11.159 -1.3464 -0.2526 -0.0078
  538TMC3    O1 8047   0.559   1.593  11.209  0.5357 -0.1276 -0.4146
  538TMC3    O2 8048   1.106   1.207  11.192 -0.2700 -0.4632 -0.5601
  539MPD2     C 8049   0.995   0.825  11.727 -0.0375  0.5409  0.8060
  539MPD2    C1 8050   0.891   0.751  11.680 -0.0300  0.5866  0.0099
  539MPD2    C2 8051   0.775   0.818  11.630 -0.3773 -0.0014  0.6312
  539MPD2    C3 8052   0.768   0.957  11.623  0.7873 -0.0308 -0.2460
  539MPD2    C4 8053   0.870   1.029  11.684  0.1519 -0.3204  0.4158
  539MPD2    C5 8054   0.982   0.965  11.732  0.2462 -0.6568  0.2188
  539MPD2     H 8055   0.695   0.754  11.596  0.2215 -1.0536  1.2054
  539MPD2    H1 8056   0.865   1.135  11.709 -0.8364 -0.6886  1.8021
  539MPD2    H2 8057   1.094   0.796  11.760  0.3306 -1.2001 -1.8398
  539MPD2    H3 8058   1.060   1.019  11.786 -0.0233  0.4140 -0.4676
  539MPD2     N 8059   0.651   1.028  11.582  0.4770  0.0335 -0.0809
  539MPD2    H5 8060   0.643   1.124  11.614  2.0366  0.3051 -0.5295
  539MPD2    N1 8061   0.899   0.616  11.675 -0.2860  0.4148 -0.2228
  539MPD2    H7 8062   0.828   0.571  11.619  2.4072  0.1343 -3.4046
  540TMC3    C1 8063   0.429   1.062  11.502  0.0518 -0.2030  0.3773
  540TMC3    C2 8064   0.355   1.048  11.384 -0.0634  0.1672 -1.6224
  540TMC3    C3 8065   0.242   1.125  11.367 -0.1852 -0.2790  0.5526
  540TMC3    C4 8066   0.383   1.143  11.602  0.0728 -0.1432  0.0196
  540TMC3    C5 8067   0.265   1.217  11.585 -0.3375  0.0596 -0.1635
  540TMC3    C6 8068   0.194   1.209  11.469 -0.2938  0.5538 -0.0444
  540TMC3     C 8069   0.544   0.968  11.519 -0.0573 -0.6572 -0.2702
  540TMC3     O 8070   0.529   0.854  11.478  0.0487 -0.5685 -0.6013
  540TMC3     H 8071   0.379   0.955  11.332  1.4042  0.2171 -1.0458
  540TMC3    H1 8072   0.433   1.144  11.697  0.6466 -2.1348 -0.2522
  540TMC3    H2 8073   0.098   1.258  11.459 -0.5923  0.0908  0.5048
  540TMC3    C7 8074   0.194   1.222  11.707  0.6257 -0.0834 -0.6389
  540TMC3    C8 8075   0.143   1.105  11.257 -0.9209 -0.0671  0.4212
  540TMC3    O1 8076   0.076   1.185  11.706  0.1050 -0.1054  0.3842
  540TMC3    O2 8077   0.026   1.134  11.271  0.6437 -0.0008  0.3445
  541MPD2     C 8078   3.468   2.176  13.257  0.9899  0.9302 -0.0521
  541MPD2    C1 8079   3.347   2.119  13.224  0.2688  0.0623 -0.2434
  541MPD2    C2 8080   3.289   2.151  13.101 -0.4418 -0.6620 -0.4643
  541MPD2    C3 8081   3.342   2.252  13.022 -0.6012 -0.2290  0.1337
  541MPD2    C4 8082   3.463   2.308  13.053 -0.0418 -0.3912 -0.0572
  541MPD2    C5 8083   3.532   2.263  13.166 -0.1161 -0.3881  0.7846
  541MPD2     H 8084   3.200   2.102  13.063 -0.1081 -1.7213  0.1273
  541MPD2    H1 8085   3.514   2.386  12.998 -0.9170  0.4177  0.2646
  541MPD2    H2 8086   3.523   2.147  13.346 -1.8797 -1.4642  0.9332
  541MPD2    H3 8087   3.633   2.293  13.191 -0.1971 -0.0471  0.6994
  541MPD2     N 8088   3.271   2.290  12.909  0.0327 -0.2550 -0.0058
  541MPD2    H5 8089   3.179   2.246  12.902 -0.0807 -0.0086 -0.0747
  541MPD2    N1 8090   3.301   2.009  13.308  0.2272  0.2990  0.4767
  541MPD2    H7 8091   3.353   1.991  13.393 -1.9451 -1.9963  1.3277
  542TMC3    C1 8092   3.213   2.393  12.706 -0.2859 -0.2477 -0.6940
  542TMC3    C2 8093   3.273   2.428  12.579  0.3472  0.0307 -0.0782
  542TMC3    C3 8094   3.193   2.478  12.486  0.1976  0.1029 -0.1014
  542TMC3    C4 8095   3.080   2.388  12.724 -0.2438  0.1753 -0.1044
  542TMC3    C5 8096   3.005   2.443  12.623 -0.2259 -0.6307  0.7591
  542TMC3    C6 8097   3.063   2.491  12.507 -0.8748  0.8690  0.2260
  542TMC3     C 8098   3.313   2.381  12.811 -0.7320  0.9678 -0.1958
  542TMC3     O 8099   3.413   2.455  12.808  0.0561 -0.2808 -0.0485
  542TMC3     H 8100   3.381   2.420  12.569  0.4355  0.5434  0.4731
  542TMC3    H1 8101   3.031   2.348  12.812  1.7215 -1.0375  0.4396
  542TMC3    H2 8102   2.996   2.505  12.423  0.8398  0.8131 -1.1442
  542TMC3    C7 8103   2.862   2.465  12.653 -0.0345 -0.2003 -0.0260
  542TMC3    C8 8104   3.233   2.470  12.348  0.2755 -0.0516  0.5650
  542TMC3    O1 8105   2.820   2.412  12.752  0.6626  0.1701 -0.0094
  542TMC3    O2 8106   3.149   2.460  12.258  0.4682 -0.1856  0.2066
  543TMC3    C1 8107   2.679   3.691  16.948  0.6416 -0.4279 -0.4175
  543TMC3    C2 8108   2.729   3.584  17.001  1.0305  0.4634  0.0925
  543TMC3    C3 8109   2.716   3.561  17.132 -0.3972  0.1055 -0.4383
  543TMC3    C4 8110   2.618   3.792  17.012 -0.3694  0.0116  0.9682
  543TMC3    C5 8111   2.589   3.760  17.142 -0.4185 -0.6088  0.4289
  543TMC3    C6 8112   2.633   3.646  17.204 -0.3924  0.6852 -0.5428
  543TMC3     C 8113   2.719   3.714  16.808 -0.1990  0.4258  0.5341
  543TMC3     O 8114   2.729   3.612  16.741  0.1346  0.4745  0.0011
  543TMC3     H 8115   2.799   3.525  16.943 -0.4285  0.2310 -1.4128
  543TMC3    H1 8116   2.563   3.875  16.970 -0.0313 -0.5996 -0.6743
  543TMC3    H2 8117   2.614   3.627  17.309  2.0656  1.2509 -0.0009
  543TMC3    C7 8118   2.552   3.860  17.238  0.6036  0.5388 -0.6166
  543TMC3    C8 8119   2.764   3.442  17.192  0.4528  0.2546  0.1006
  543TMC3    O1 8120   2.523   3.810  17.348 -0.2408  0.2214  0.2173
  543TMC3    O2 8121   2.819   3.361  17.117  0.6524 -0.9373 -0.2414
  544MPD2     C 8122   2.868   3.084  17.540  0.5429 -0.0841 -0.0194
  544MPD2    C1 8123   2.817   3.072  17.408  0.0746 -0.4788 -0.0519
  544MPD2    C2 8124   2.769   3.181  17.342 -0.2353 -0.0008 -0.3735
  544MPD2    C3 8125   2.780   3.308  17.398  0.0073 -0.0699 -0.3760
  544MPD2    C4 8126   2.823   3.327  17.534 -0.1057 -0.6389 -0.0716
  544MPD2    C5 8127   2.865   3.215  17.597  0.1033  0.3201 -0.2446
  544MPD2     H 8128   2.730   3.173  17.241 -2.7892 -4.3682  0.9901
  544MPD2    H1 8129   2.817   3.422  17.584 -1.8177 -0.0418 -1.4168
  544MPD2    H2 8130   2.908   3.003  17.599  1.8311  0.6358  0.0859
  544MPD2    H3 8131   2.883   3.215  17.704  2.0804 -1.6858 -0.5782
  544MPD2     N 8132   2.754   3.431  17.327  0.3843  0.6275 -0.3366
  544MPD2    H5 8133   2.742   3.514  17.383 -0.2671 -0.8891  1.7629
  544MPD2    N1 8134   2.796   2.938  17.358  0.3855 -0.2395  0.3758
  544MPD2    H7 8135   2.831   2.866  17.419  2.0205  0.5279  0.3289
  545TMC3    C1 8136   2.740   2.766  17.217 -0.2768  0.8670  0.1408
  545TMC3    C2 8137   2.719   2.717  17.093  0.3688  0.2504  0.2430
  545TMC3    C3 8138   2.686   2.580  17.088 -0.0585  0.0384  0.9667
  545TMC3    C4 8139   2.730   2.687  17.331  0.4981  0.4385 -0.6951
  545TMC3    C5 8140   2.703   2.554  17.321 -0.1635  0.6641  1.0395
  545TMC3    C6 8141   2.684   2.498  17.195  0.0478 -0.3790 -0.0899
  545TMC3     C 8142   2.742   2.909  17.235  0.0465 -0.0304  0.3992
  545TMC3     O 8143   2.716   2.977  17.137  0.1688  0.3558  0.5751
  545TMC3     H 8144   2.732   2.787  17.012  1.1558 -0.4917 -0.2849
  545TMC3    H1 8145   2.746   2.725  17.431  0.6419  0.5241 -0.7494
  545TMC3    H2 8146   2.662   2.393  17.187  0.4458 -0.3746 -1.2172
  545TMC3    C7 8147   2.759   2.470  17.433  0.5931  0.2197  0.0981
  545TMC3    C8 8148   2.648   2.520  16.964 -0.3492 -0.7847  0.1841
  545TMC3    O1 8149   2.795   2.521  17.537  0.4848 -0.0346 -0.2630
  545TMC3    O2 8150   2.578   2.419  16.970 -0.5901 -0.3290  0.3153
  546MPD2     C 8151   3.974   3.094  17.265  0.0865 -0.5704 -1.3595
  546MPD2    C1 8152   3.944   3.177  17.156  0.1205  0.0145 -0.0048
  546MPD2    C2 8153   4.009   3.299  17.147  0.8474  0.0836 -0.9203
  546MPD2    C3 8154   4.083   3.355  17.254 -0.1465  0.2848 -0.1926
  546MPD2    C4 8155   4.112   3.265  17.356 -0.6708  0.1364 -0.5365
  546MPD2    C5 8156   4.057   3.140  17.358 -0.3465 -0.3746 -0.3084
  546MPD2     H 8157   3.991   3.367  17.064 -0.6495  1.2735  0.3896
  546MPD2    H1 8158   4.173   3.292  17.441 -0.6866  0.3503 -0.5935
  546MPD2    H2 8159   3.941   2.992  17.278 -2.3980  0.5229  0.8753
  546MPD2    H3 8160   4.070   3.070  17.440 -0.5878 -0.7399 -0.5820
  546MPD2     N 8161   4.141   3.485  17.263  0.3676 -0.2878  0.1884
  546MPD2    H5 8162   4.187   3.517  17.347 -1.5631  0.0563  1.1242
  546MPD2    N1 8163   3.856   3.132  17.052 -0.0711 -0.4345 -0.5521
  546MPD2    H7 8164   3.824   3.036  17.060 -0.9526 -0.1717 -0.9835
  547TMC3    C1 8165   3.730   3.112  16.851 -0.3223  0.5101  0.2452
  547TMC3    C2 8166   3.679   3.172  16.740  0.4123  0.2486 -0.5752
  547TMC3    C3 8167   3.603   3.096  16.660  0.2117  0.2046  0.7330
  547TMC3    C4 8168   3.716   2.976  16.877  0.0434  0.2192 -0.3431
  547TMC3    C5 8169   3.639   2.905  16.793  0.6390  0.5106  0.1371
  547TMC3    C6 8170   3.582   2.961  16.678  0.5354  0.1584 -0.3685
  547TMC3     C 8171   3.813   3.196  16.939 -0.1234 -0.3971 -0.1283
  547TMC3     O 8172   3.826   3.310  16.903  0.0135  0.1450 -0.2442
  547TMC3     H 8173   3.688   3.278  16.721  1.5171  0.3982  0.8773
  547TMC3    H1 8174   3.757   2.938  16.970 -2.7327  0.5824  1.0251
  547TMC3    H2 8175   3.518   2.904  16.612  1.4860 -1.2554 -0.0575
  547TMC3    C7 8176   3.606   2.769  16.824  0.2396 -0.1491 -1.0246
  547TMC3    C8 8177   3.530   3.154  16.553 -0.6402 -0.3958  0.1807
  547TMC3    O1 8178   3.634   2.736  16.937  0.1765  0.0088  0.1634
  547TMC3    O2 8179   3.473   3.260  16.569  0.2194 -0.9622 -0.2945
  548MPD2     C 8180   3.923   3.933  13.260 -0.2437  0.6446  0.0292
  548MPD2    C1 8181   3.868   3.827  13.196  1.2611 -0.6345  0.3737
  548MPD2    C2 8182   3.951   3.728  13.140  0.0469  0.4580 -0.1005
  548MPD2    C3 8183   4.088   3.729  13.161 -0.0154  0.1400  0.4695
  548MPD2    C4 8184   4.138   3.821  13.251  0.0171 -0.6530  0.4424
  548MPD2    C5 8185   4.058   3.924  13.278 -0.4344  0.1643 -0.1386
  548MPD2     H 8186   3.901   3.651  13.082 -0.3356  1.2322 -0.7870
  548MPD2    H1 8187   4.244   3.823  13.277  0.5501  1.7557 -1.9427
  548MPD2    H2 8188   3.869   4.023  13.290  1.2154  0.8439  2.0483
  548MPD2    H3 8189   4.108   4.007  13.329  0.2004 -0.4108  0.1682
  548MPD2     N 8190   4.166   3.630  13.096 -0.2033  0.0698 -0.2736
  548MPD2    H5 8191   4.120   3.570  13.029 -1.7889  2.6186 -1.4774
  548MPD2    N1 8192   3.729   3.833  13.177 -0.8713 -0.3292  0.6063
  548MPD2    H7 8193   3.677   3.907  13.223 -1.7863 -0.5340 -0.1130
  549TMC3    C1 8194   3.522   3.790  13.100 -0.7940 -0.1469 -0.1538
  549TMC3    C2 8195   3.503   3.910  13.043  0.7962  0.2076  0.5234
  549TMC3    C3 8196   3.376   3.935  13.002  0.5146  0.5135 -0.1561
  549TMC3    C4 8197   3.428   3.689  13.112  0.0004 -0.1144 -0.3283
  549TMC3    C5 8198   3.297   3.725  13.077  0.5333  0.3149 -0.1083
  549TMC3    C6 8199   3.276   3.840  13.015  0.6350 -0.0723  0.1341
  549TMC3     C 8200   3.659   3.735  13.110  0.2297 -0.3723  0.2136
  549TMC3     O 8201   3.673   3.615  13.089 -0.1912 -0.4880  0.2630
  549TMC3     H 8202   3.586   3.980  13.034 -0.4077  1.4444 -1.1143
  549TMC3    H1 8203   3.448   3.597  13.166  0.1492  0.8501  1.2867
  549TMC3    H2 8204   3.177   3.865  12.977  1.1648  3.5001  1.1462
  549TMC3    C7 8205   3.186   3.638  13.081 -0.4970 -0.6651  0.2472
  549TMC3    C8 8206   3.367   4.012  12.879 -0.1416  0.6218 -0.0394
  549TMC3    O1 8207   3.076   3.670  13.043 -0.6884  0.0559 -0.4064
  549TMC3    O2 8208   3.265   4.076  12.857 -0.9023  0.1084  0.1157
  550TMC3    C1 8209   2.978   1.948  12.087  0.2300 -0.4334  0.3146
  550TMC3    C2 8210   2.973   1.933  12.222  0.7667 -0.1147  0.6669
  550TMC3    C3 8211   2.985   2.050  12.284 -0.2674  0.3302 -0.5327
  550TMC3    C4 8212   2.986   2.064  12.012  0.1409  0.0401 -0.6600
  550TMC3    C5 8213   2.979   2.182  12.087  0.7869 -0.1484  0.4392
  550TMC3    C6 8214   2.993   2.173  12.223 -0.4955 -0.3418 -0.2475
  550TMC3     C 8215   2.947   1.828  12.018 -0.0999 -0.2992  0.1682
  550TMC3     O 8216   3.003   1.722  12.046  0.0832 -0.3541  0.0975
  550TMC3     H 8217   2.978   1.834  12.264  0.1126 -1.5425 -2.6249
  550TMC3    H1 8218   2.981   2.068  11.904  1.0589  0.5380 -0.6850
  550TMC3    H2 8219   2.990   2.264  12.282 -0.4031 -0.1111 -0.6042
  550TMC3    C7 8220   2.903   2.299  12.039  0.0751  0.0650 -0.4076
  550TMC3    C8 8221   2.936   2.068  12.420  0.0629  0.4567  0.1021
  550TMC3    O1 8222   2.836   2.362  12.119 -0.4303 -0.6413  0.5518
  550TMC3    O2 8223   2.971   2.171  12.480 -0.3722 -0.3194  0.1206
  551TMC3    C1 8224   0.461   4.383  13.376 -0.3130  0.1512  0.1114
  551TMC3    C2 8225   0.591   4.442  13.364 -0.2675  0.0508  1.2017
  551TMC3    C3 8226   0.634   4.517  13.470  0.4541 -0.0005  0.8827
  551TMC3    C4 8227   0.401   4.387  13.500  0.1196 -0.0941  0.9612
  551TMC3    C5 8228   0.448   4.476  13.596 -0.2651 -1.1533  0.1673
  551TMC3    C6 8229   0.555   4.557  13.575  0.5291 -0.0439 -0.1644
  551TMC3     C 8230   0.374   4.368  13.262 -0.3062 -0.2851 -0.2214
  551TMC3     O 8231   0.262   4.335  13.290  0.6214  0.3738 -0.6124
  551TMC3     H 8232   0.645   4.442  13.270 -0.7340 -0.0829  0.9358
  551TMC3    H1 8233   0.298   4.356  13.514 -0.0067 -0.2345 -0.3500
  551TMC3    H2 8234   0.592   4.619  13.656 -0.0704 -1.4911  1.2016
  551TMC3    C7 8235   0.398   4.474  13.734  0.0408 -0.9435  0.4464
  551TMC3    C8 8236   0.744   4.602  13.444 -0.5097  0.1112  0.4841
  551TMC3    O1 8237   0.450   4.546  13.819  0.5059 -0.1752 -0.3906
  551TMC3    O2 8238   0.838   4.551  13.382 -0.3743  0.8491 -0.5500
  552MPD2     C 8239   2.687   1.552  13.965 -0.7318 -0.0711  0.1997
  552MPD2    C1 8240   2.625   1.484  14.062  0.4206  0.0496  0.5188
  552MPD2    C2 8241   2.698   1.470  14.181 -0.1850  0.3714 -0.6439
  552MPD2    C3 8242   2.829   1.501  14.192  0.0647  0.5790  0.4098
  552MPD2    C4 8243   2.899   1.553  14.086 -0.2781 -0.1289  0.5249
  552MPD2    C5 8244   2.820   1.572  13.975 -0.2779 -0.0698 -0.1246
  552MPD2     H 8245   2.640   1.435  14.266  0.8071  1.0843  0.3233
  552MPD2    H1 8246   3.005   1.573  14.088  0.3362 -3.2999 -1.1119
  552MPD2    H2 8247   2.646   1.571  13.867  0.6014  1.6364 -0.0201
  552MPD2    H3 8248   2.880   1.618  13.898 -0.4207 -0.6370 -0.5763
  552MPD2     N 8249   2.905   1.498  14.311 -0.0704  1.4272 -0.1157
  552MPD2    H5 8250   2.991   1.551  14.301  0.6731  0.2277 -0.1778
  552MPD2    N1 8251   2.494   1.437  14.058  0.0205 -0.2232 -0.3474
  552MPD2    H7 8252   2.458   1.384  14.137 -2.4013  0.0420 -1.2673
  553TMC3    C1 8253   2.278   1.381  13.983 -0.4834  0.4055 -0.4729
  553TMC3    C2 8254   2.200   1.350  13.873  0.0286 -0.6095  0.4994
  553TMC3    C3 8255   2.097   1.259  13.886 -0.1981  0.4341  0.1280
  553TMC3    C4 8256   2.250   1.333  14.109  1.1024 -0.1181 -0.2317
  553TMC3    C5 8257   2.156   1.240  14.115  0.1349  0.1693  0.3251
  553TMC3    C6 8258   2.073   1.212  14.008 -0.0426  0.7970  0.6453
  553TMC3     C 8259   2.401   1.446  13.956  0.5491  0.4064  0.4262
  553TMC3     O 8260   2.421   1.504  13.850  0.1232 -0.1641  0.2269
  553TMC3     H 8261   2.219   1.407  13.783 -1.3916 -1.0566 -0.0723
  553TMC3    H1 8262   2.307   1.353  14.198  0.6588 -2.1055  0.5019
  553TMC3    H2 8263   1.992   1.143  14.028  1.0697 -1.2441 -1.8212
  553TMC3    C7 8264   2.161   1.143  14.218 -0.3047 -0.1443  0.1355
  553TMC3    C8 8265   2.129   1.154  13.795 -0.0220 -0.7285 -0.4129
  553TMC3    O1 8266   2.059   1.119  14.279  0.0413 -0.6659  0.0725
  553TMC3    O2 8267   2.236   1.176  13.741  0.1693  0.1881 -0.6301
  554TMC3    C1 8268   4.472   1.043  11.773 -0.5868 -0.2575 -0.0214
  554TMC3    C2 8269   4.354   1.001  11.713  0.0747 -0.7433  0.4166
  554TMC3    C3 8270   4.289   1.094  11.635  0.0928  0.1025  0.4770
  554TMC3    C4 8271   4.526   1.173  11.769 -0.7504 -0.5571  0.0304
  554TMC3    C5 8272   4.462   1.249  11.678 -0.6917  0.1980 -0.1617
  554TMC3    C6 8273   4.343   1.219  11.620  0.2052  0.2056  0.2993
  554TMC3     C 8274   4.517   0.967  11.891 -0.3152 -0.4068  1.0657
  554TMC3     O 8275   4.591   1.030  11.966  0.5500  0.8732  0.5266
  554TMC3     H 8276   4.308   0.904  11.729 -3.3131  0.7174 -0.3742
  554TMC3    H1 8277   4.608   1.209  11.830 -0.1346 -2.7023  0.4701
  554TMC3    H2 8278   4.309   1.288  11.543 -0.6964 -0.9841 -0.3806
  554TMC3    C7 8279   4.529   1.381  11.643 -0.3619  0.5526 -1.2956
  554TMC3    C8 8280   4.172   1.047  11.562 -0.2111  0.1574 -0.1434
  554TMC3    O1 8281   4.496   1.428  11.536  0.1991 -0.0734  0.2623
  554TMC3    O2 8282   4.118   0.945  11.599 -0.0979  0.5190 -0.2652
  555TMC3    C1 8283   3.019   4.591  14.902  0.1678 -0.4524  1.4952
  555TMC3    C2 8284   2.994   4.698  14.991 -0.4211 -0.7697 -0.0961
  555TMC3    C3 8285   2.938   4.666  15.112  0.0579 -0.5574  0.2951
  555TMC3    C4 8286   2.986   4.463  14.932 -0.3526 -0.2662  0.2535
  555TMC3    C5 8287   2.921   4.444  15.051  0.7545  0.2928  0.1559
  555TMC3    C6 8288   2.893   4.540  15.140 -0.1901  0.0586  1.0668
  555TMC3     C 8289   3.046   4.620  14.761  0.4657 -0.7632  0.3571
  555TMC3     O 8290   3.101   4.535  14.688  0.1208 -0.3464 -0.2152
  555TMC3     H 8291   3.030   0.062  14.961 -2.2504 -0.5302 -1.4724
  555TMC3    H1 8292   3.011   4.386  14.860  3.0057  1.0751 -0.0220
  555TMC3    H2 8293   2.882   4.516  15.245 -1.2268 -1.2482  0.6518
  555TMC3    C7 8294   2.870   4.311  15.089  0.0054  0.0143  0.6336
  555TMC3    C8 8295   2.981   0.002  15.228  0.0373  0.4292 -0.7401
  555TMC3    O1 8296   2.781   4.310  15.168 -0.0033 -0.3990  0.3203
  555TMC3    O2 8297   3.029   4.670  15.314  0.5266 -0.0812  0.0498
  556MPD2     C 8298   1.474   2.516  10.813 -0.0741  0.9745  0.7080
  556MPD2    C1 8299   1.483   2.415  10.905  0.5070  0.4088 -0.8712
  556MPD2    C2 8300   1.461   2.283  10.857 -0.3494 -0.5215 -0.2198
  556MPD2    C3 8301   1.439   2.265  10.722  0.1704  0.2138  0.1713
  556MPD2    C4 8302   1.441   2.371  10.629 -0.4402  0.0032 -0.1500
  556MPD2    C5 8303   1.466   2.495  10.683  0.0556  0.0813  0.1443
  556MPD2     H 8304   1.445   2.198  10.922 -1.5941 -0.1575 -0.0527
  556MPD2    H1 8305   1.440   2.366  10.521  0.3375 -1.0698 -0.1104
  556MPD2    H2 8306   1.477   2.618  10.849  1.2205 -0.1531  3.8112
  556MPD2    H3 8307   1.465   2.582  10.618 -2.1454  0.4322  0.6357
  556MPD2     N 8308   1.407   2.136  10.686  0.4793 -0.0517 -0.6244
  556MPD2    H5 8309   1.393   2.065  10.758  1.0139 -0.4463 -0.9065
  556MPD2    N1 8310   1.483   2.431  11.044 -0.4465 -0.0771 -0.3180
  556MPD2    H7 8311   1.488   2.351  11.106  1.3575 -0.6047 -1.1415
  557TMC3    C1 8312   1.360   1.950  10.544  0.2337  0.1751 -0.4995
  557TMC3    C2 8313   1.311   1.908  10.422 -0.2302  0.6992  0.1478
  557TMC3    C3 8314   1.317   1.775  10.395  0.2247 -0.2500 -0.0902
  557TMC3    C4 8315   1.413   1.866  10.631  0.0805 -0.4207 -0.1245
  557TMC3    C5 8316   1.419   1.734  10.602 -0.9486  0.6024 -0.0094
  557TMC3    C6 8317   1.369   1.690  10.487 -0.1465  0.6061 -0.3597
  557TMC3     C 8318   1.388   2.091  10.557  0.0685  0.7124 -0.2087
  557TMC3     O 8319   1.372   2.157  10.455 -0.0804  0.1461 -0.9810
  557TMC3     H 8320   1.259   1.982  10.362 -0.6926 -0.3394 -0.7319
  557TMC3    H1 8321   1.457   1.901  10.724  1.6221 -0.5725 -0.7938
  557TMC3    H2 8322   1.380   1.583  10.469  0.1425  0.5752  0.0010
  557TMC3    C7 8323   1.408   1.654  10.725  0.8854 -0.0514 -0.3986
  557TMC3    C8 8324   1.229   1.726  10.289  0.6240  0.3700 -0.0109
  557TMC3    O1 8325   1.393   1.725  10.826 -0.2372 -0.1495 -0.1394
  557TMC3    O2 8326   1.154   1.810  10.242  0.0524  0.0750  0.3107
  558TMC3    C1 8327   4.077   4.367  10.466  0.2318  0.0012  0.6828
  558TMC3    C2 8328   3.938   4.378  10.469 -0.3356 -0.0971  0.4627
  558TMC3    C3 8329   3.871   4.346  10.354  0.6137 -0.8063 -0.3990
  558TMC3    C4 8330   4.140   4.310  10.361 -0.0693 -0.3671  0.6517
  558TMC3    C5 8331   4.069   4.272  10.251  0.3942 -0.5363 -0.0063
  558TMC3    C6 8332   3.937   4.286  10.246 -0.2603 -0.4161  0.0410
  558TMC3     C 8333   4.151   4.382  10.598  0.1074 -0.0023 -0.1261
  558TMC3     O 8334   4.272   4.370  10.595  0.3183  0.0964 -0.1697
  558TMC3     H 8335   3.893   4.440  10.546  0.2611  0.1417  0.6255
  558TMC3    H1 8336   4.248   4.300  10.371 -0.0638 -1.2478 -0.3666
  558TMC3    H2 8337   3.877   4.254  10.162 -0.0568 -1.6857  0.3849
  558TMC3    C7 8338   4.147   4.210  10.152 -0.3070  0.7910 -0.6881
  558TMC3    C8 8339   3.734   4.390  10.332  0.1763 -0.3633 -0.3752
  558TMC3    O1 8340   4.265   4.181  10.181 -0.1360  0.1340 -0.1399
  558TMC3    O2 8341   3.699   4.401  10.216 -0.2981  0.2521  0.3486
  559MPD2     C 8342   3.841   0.927  10.768 -0.6109  0.0704  0.3674
  559MPD2    C1 8343   3.789   0.881  10.887  0.3409  0.1467 -0.4820
  559MPD2    C2 8344   3.871   0.809  10.972 -0.4915  0.1512  0.1143
  559MPD2    C3 8345   3.999   0.778  10.934 -0.3649  0.8974 -0.7822
  559MPD2    C4 8346   4.047   0.835  10.819  0.1070  0.3143  0.3915
  559MPD2    C5 8347   3.971   0.904  10.729 -0.3934 -0.0192  0.1841
  559MPD2     H 8348   3.839   0.752  11.059 -2.7062 -0.0474 -0.8498
  559MPD2    H1 8349   4.149   0.819  10.786  0.0560 -0.8676  0.8284
  559MPD2    H2 8350   3.775   0.982  10.702 -2.2533  1.3179  3.0846
  559MPD2    H3 8351   4.014   0.941  10.636 -0.7929  0.3390  0.1439
  559MPD2     N 8352   4.075   0.679  11.005  0.1025 -0.4427 -0.5212
  559MPD2    H5 8353   4.025   0.640  11.085 -3.3632  3.0908 -0.9493
  559MPD2    N1 8354   3.653   0.897  10.900 -0.1156 -0.1228 -0.6428
  559MPD2    H7 8355   3.610   0.961  10.834 -1.0947  0.7260  0.8039
  560TMC3    C1 8356   4.235   0.522  11.066 -0.1810  0.2250 -0.5761
  560TMC3    C2 8357   4.135   0.428  11.062 -0.4209 -0.5912  0.1775
  560TMC3    C3 8358   4.168   0.297  11.100 -0.0832 -0.1535  0.4824
  560TMC3    C4 8359   4.366   0.490  11.077  0.2313 -1.0909  0.1541
  560TMC3    C5 8360   4.398   0.357  11.109  0.1588 -0.5457 -0.1325
  560TMC3    C6 8361   4.297   0.262  11.125  0.3916  0.0750 -0.8555
  560TMC3     C 8362   4.206   0.642  10.991  0.0610 -0.1354 -0.0455
  560TMC3     O 8363   4.293   0.690  10.922 -0.2062  0.7831  0.6951
  560TMC3     H 8364   4.031   0.450  11.045  0.0462 -0.2128 -2.1502
  560TMC3    H1 8365   4.437   0.572  11.068 -1.0002  0.2527  2.5896
  560TMC3    H2 8366   4.326   0.160  11.150  0.8692  0.4287  0.0441
  560TMC3    C7 8367   4.529   0.306  11.102  1.8884  0.1439 -0.6587
  560TMC3    C8 8368   4.062   0.200  11.111  0.3107 -0.8314 -0.2523
  560TMC3    O1 8369   4.546   0.184  11.086 -0.2535 -0.6322 -0.5789
  560TMC3    O2 8370   3.956   0.246  11.071 -0.1358 -0.9264  0.3773
  561TMC3    C1 8371   1.690   4.082  11.333 -0.1220  0.6646  0.5603
  561TMC3    C2 8372   1.639   3.992  11.420  0.6941 -0.4683 -0.2725
  561TMC3    C3 8373   1.648   4.033  11.553 -0.2067  0.2911  0.2083
  561TMC3    C4 8374   1.744   4.207  11.375 -0.6606  0.2205  0.2582
  561TMC3    C5 8375   1.755   4.228  11.508  0.6614  0.5285 -0.5987
  561TMC3    C6 8376   1.710   4.142  11.604 -0.0352 -0.2542  0.0029
  561TMC3     C 8377   1.655   4.073  11.187 -0.5231 -0.0819  0.0273
  561TMC3     O 8378   1.566   3.990  11.169 -0.2775 -0.1060 -0.3981
  561TMC3     H 8379   1.596   3.896  11.394 -1.1537  0.5708 -1.1061
  561TMC3    H1 8380   1.755   4.288  11.304  1.1704  1.6507  2.1582
  561TMC3    H2 8381   1.731   4.156  11.709 -0.7254  3.8936 -0.4282
  561TMC3    C7 8382   1.804   4.359  11.557 -0.3306  0.1753  0.5356
  561TMC3    C8 8383   1.586   3.944  11.647 -0.2814 -0.1729 -1.0602
  561TMC3    O1 8384   1.771   4.394  11.667 -0.5865 -0.1961  0.1675
  561TMC3    O2 8385   1.546   3.832  11.613  0.0954 -0.0146 -0.3702
  562TMC3    C1 8386   2.796   0.462  16.415 -0.4561 -1.3856  0.6075
  562TMC3    C2 8387   2.677   0.526  16.395 -0.1156  0.1746  0.3250
  562TMC3    C3 8388   2.621   0.513  16.271 -0.8558 -0.0578 -0.2502
  562TMC3    C4 8389   2.848   0.364  16.333  0.3455 -0.2480  0.2582
  562TMC3    C5 8390   2.784   0.348  16.210  0.7213 -0.3776 -0.5874
  562TMC3    C6 8391   2.673   0.422  16.178  0.2394 -0.2083  0.7816
  562TMC3     C 8392   2.869   0.477  16.544  0.2063  0.0341 -0.6227
  562TMC3     O 8393   2.807   0.477  16.648  0.1492 -0.0300 -0.2412
  562TMC3     H 8394   2.643   0.605  16.461 -0.3480 -0.0596  0.4845
  562TMC3    H1 8395   2.914   0.295  16.385 -0.4485 -0.0323  1.5605
  562TMC3    H2 8396   2.626   0.409  16.080  1.0489  2.2149  0.0775
  562TMC3    C7 8397   2.796   0.227  16.132 -0.3610  0.3472 -0.2632
  562TMC3    C8 8398   2.514   0.598  16.237 -0.1143 -1.0753 -0.4599
  562TMC3    O1 8399   2.695   0.191  16.082 -0.2082  0.2327 -0.2531
  562TMC3    O2 8400   2.427   0.613  16.324  0.2331  0.1869 -0.2782
  563MPD2     C 8401   0.377   1.884  15.624  0.0011 -0.4020 -0.0451
  563MPD2    C1 8402   0.458   1.928  15.716 -0.3551  0.1593 -0.5057
  563MPD2    C2 8403   0.566   1.862  15.758 -0.3826 -0.4062  0.2393
  563MPD2    C3 8404   0.603   1.750  15.688  0.2387 -0.3970  0.1135
  563MPD2    C4 8405   0.541   1.708  15.581 -0.1507  0.2937 -0.0188
  563MPD2    C5 8406   0.423   1.776  15.547  0.4654 -0.5000 -0.3152
  563MPD2     H 8407   0.635   1.891  15.837  1.5209 -0.0745 -1.5259
  563MPD2    H1 8408   0.557   1.611  15.536 -0.6177  0.6867 -1.0416
  563MPD2    H2 8409   0.281   1.924  15.596 -0.7654 -2.9987 -1.1395
  563MPD2    H3 8410   0.365   1.735  15.466 -0.3115  3.2882 -1.6769
  563MPD2     N 8411   0.702   1.665  15.753 -0.4646  0.1723  0.0720
  563MPD2    H5 8412   0.730   1.692  15.847  0.8294  0.5378 -0.4242
  563MPD2    N1 8413   0.416   2.050  15.781  0.2126 -0.4594  0.5605
  563MPD2    H7 8414   0.322   2.082  15.763 -0.1278 -1.5245  0.4194
  564TMC3    C1 8415   0.423   2.151  15.996  0.4390  0.1298  0.7127
  564TMC3    C2 8416   0.290   2.156  15.994 -0.0218  0.6808  0.8405
  564TMC3    C3 8417   0.210   2.117  16.104 -0.3658 -0.0140  0.0936
  564TMC3    C4 8418   0.482   2.090  16.113 -0.0394 -0.0294  0.1202
  564TMC3    C5 8419   0.408   2.045  16.219  0.0788  0.2745 -1.0458
  564TMC3    C6 8420   0.272   2.070  16.219 -0.0434 -0.3833 -0.1768
  564TMC3     C 8421   0.498   2.112  15.871  0.6712 -0.1889 -0.5664
  564TMC3     O 8422   0.618   2.109  15.883  0.2621  0.0012 -0.5571
  564TMC3     H 8423   0.243   2.203  15.908  0.4815 -1.5136 -0.6546
  564TMC3    H1 8424   0.588   2.069  16.104 -0.5439 -1.4619 -2.4493
  564TMC3    H2 8425   0.230   1.994  16.284  0.8540 -2.7613 -2.3740
  564TMC3    C7 8426   0.442   1.902  16.233 -0.0751  0.4261 -0.8809
  564TMC3    C8 8427   0.094   2.042  16.066 -0.0956  0.1664  0.1494
  564TMC3    O1 8428   0.493   1.859  16.337  0.0780 -0.5005  0.0081
  564TMC3    O2 8429   0.028   1.992  16.155 -0.2258  0.2551 -0.1544
  565TMC3    C1 8430   0.741   3.350  10.416 -1.0101  0.5886 -0.0909
  565TMC3    C2 8431   0.733   3.219  10.464  0.3323  0.0109 -0.0830
  565TMC3    C3 8432   0.610   3.158  10.451 -0.2992  0.7044  0.2320
  565TMC3    C4 8433   0.641   3.412  10.342 -0.5590 -0.3831  0.3794
  565TMC3    C5 8434   0.528   3.334  10.322 -0.1898 -0.2962  0.4893
  565TMC3    C6 8435   0.512   3.208  10.373  0.3818  0.2423 -0.6179
  565TMC3     C 8436   0.866   3.416  10.380  0.2813  0.1097  0.6323
  565TMC3     O 8437   0.866   3.538  10.363  0.2548  0.5569  0.3355
  565TMC3     H 8438   0.814   3.167  10.513  0.7765 -1.4436 -2.3554
  565TMC3    H1 8439   0.645   3.508  10.293 -1.5864 -1.1489 -1.1953
  565TMC3    H2 8440   0.416   3.158  10.381 -0.5513  2.1085  0.1052
  565TMC3    C7 8441   0.445   3.372  10.213 -0.1321 -0.1998  0.0975
  565TMC3    C8 8442   0.611   3.020  10.478 -0.5361  0.2539 -0.0378
  565TMC3    O1 8443   0.454   3.486  10.174  0.6263  0.0673  0.2184
  565TMC3    O2 8444   0.533   2.944  10.425  0.0409 -0.1321  0.2317
  566MPD2     C 8445   2.235   4.655  14.246  0.2946  0.2552 -0.0201
  566MPD2    C1 8446   2.311   0.001  14.169 -0.8795 -0.5667 -0.1782
  566MPD2    C2 8447   2.248   0.087  14.078  0.4211  0.1039 -0.0307
  566MPD2    C3 8448   2.114   0.072  14.045 -0.1438 -0.9996  0.6122
  566MPD2    C4 8449   2.039   4.732  14.133  0.6409  0.1990  0.1432
  566MPD2    C5 8450   2.102   4.656  14.229 -0.2920  0.0672  0.7067
  566MPD2     H 8451   2.301   0.167  14.027  0.8779 -0.2479 -0.1118
  566MPD2    H1 8452   1.932   0.007  14.126  0.7150  2.2273  1.6658
  566MPD2    H2 8453   2.270   4.589  14.325 -2.3384 -2.4446 -1.0973
  566MPD2    H3 8454   2.051   4.590  14.298 -0.8488  0.8948  1.0941
  566MPD2     N 8455   2.047   0.154  13.951  0.1979 -0.2420 -0.5795
  566MPD2    H5 8456   1.947   0.143  13.967  0.3087 -0.1362  0.1525
  566MPD2    N1 8457   2.449   0.001  14.198 -0.0165  0.8212 -0.5846
  566MPD2    H7 8458   2.479   4.683  14.280 -0.5875 -1.2348 -1.6616
  567TMC3    C1 8459   2.684   4.721  14.139 -0.3386 -0.5908 -0.4387
  567TMC3    C2 8460   2.782   0.020  14.046  0.0634 -0.5384  0.0839
  567TMC3    C3 8461   2.893   4.673  14.049 -0.2722 -0.2324 -0.0397
  567TMC3    C4 8462   2.693   4.611  14.213 -0.5788  0.7887 -0.8351
  567TMC3    C5 8463   2.806   4.537  14.207 -0.3112  0.1900  0.9757
  567TMC3    C6 8464   2.907   4.559  14.114  0.6927  0.0951  0.0372
  567TMC3     C 8465   2.549   0.041  14.112  0.3620  0.3243  0.5375
  567TMC3     O 8466   2.539   0.097  14.004 -0.1648  0.0509  0.0707
  567TMC3     H 8467   2.772   0.111  13.988  1.3452 -2.3030 -2.9195
  567TMC3    H1 8468   2.609   4.574  14.270 -0.1492 -0.6782 -1.1503
  567TMC3    H2 8469   2.995   4.496  14.123 -0.4465 -1.1800  2.3194
  567TMC3    C7 8470   2.836   4.439  14.308 -0.7324  0.4811 -0.0749
  567TMC3    C8 8471   2.985   4.706  13.938 -0.1775  0.4326 -0.5992
  567TMC3    O1 8472   2.934   4.364  14.296 -0.1548 -0.0309 -0.0717
  567TMC3    O2 8473   2.960   0.058  13.850 -0.2736 -0.3659 -0.1256
  568MPD2     C 8474   4.537   0.522  16.294 -0.1606  0.0611 -0.1387
  568MPD2    C1 8475   4.609   0.593  16.384 -0.2493  0.4384  0.2262
  568MPD2    C2 8476   4.621   0.730  16.381 -0.1472 -0.0186  1.0099
  568MPD2    C3 8477   4.555   0.794  16.277 -0.9410  0.4864  0.0267
  568MPD2    C4 8478   4.469   0.718  16.196 -0.4417 -0.7902  0.0151
  568MPD2    C5 8479   4.461   0.588  16.208  0.5256  0.5671 -0.0536
  568MPD2     H 8480   4.701   0.780  16.433 -0.1260  0.5734  0.4132
  568MPD2    H1 8481   4.413   0.772  16.120 -0.6867 -0.2699  0.5663
  568MPD2    H2 8482   4.534   0.414  16.291 -2.0120  0.0651  2.6001
  568MPD2    H3 8483   4.389   0.535  16.147  1.8419  0.0572 -1.1889
  568MPD2     N 8484   4.578   0.932  16.266 -0.0939 -0.2578  0.3042
  568MPD2    H5 8485   4.649   0.978  16.322  0.2094 -0.0874 -0.2117
  568MPD2    N1 8486   4.693   0.518  16.474  0.3986  0.1032  0.5663
  568MPD2    H7 8487   4.713   0.420  16.454  0.5045  0.2006  0.1865
  569TMC3    C1 8488   4.543   1.144  16.187 -0.9362  0.7083  0.2124
  569TMC3    C2 8489   4.565   1.180  16.317  0.9497 -0.8557 -0.1128
  569TMC3    C3 8490   4.613   1.306  16.343  0.9522 -0.7197 -0.0846
  569TMC3    C4 8491   4.547   1.231  16.080 -0.4061  0.1477 -0.1158
  569TMC3    C5 8492   4.587   1.364  16.120  0.0213  0.0705 -0.1666
  569TMC3    C6 8493   4.614   1.402  16.247 -0.4011  0.3701 -0.7440
  569TMC3     C 8494   4.523   1.009  16.164  0.0617 -0.0776  0.1482
  569TMC3     O 8495   4.483   0.976  16.054  0.4273  0.0502  0.1067
  569TMC3     H 8496   4.548   1.109  16.398 -1.5311  1.3490  1.2927
  569TMC3    H1 8497   4.501   1.208  15.984  1.7090 -0.9300 -0.8723
  569TMC3    H2 8498   4.611   1.505  16.280 -0.4708  0.0124  0.3502
  569TMC3    C7 8499   4.569   1.462  16.014  0.5462  0.8979  0.3162
  569TMC3    C8 8500   4.636   1.327  16.484 -0.3026 -0.2474  0.0047
  569TMC3    O1 8501   4.492   1.434  15.924 -0.5984 -0.0171  0.4268
  569TMC3    O2 8502   4.592   1.250  16.568 -0.4762 -0.3528 -0.1405
  570TMC3    C1 8503   4.099   4.256  16.199 -0.4465  0.0229  0.1189
  570TMC3    C2 8504   4.191   4.221  16.102  0.0425  0.1106 -0.1234
  570TMC3    C3 8505   4.279   4.316  16.058 -0.5128 -1.1891 -0.4680
  570TMC3    C4 8506   4.076   4.392  16.222 -0.1565 -0.1813  0.1814
  570TMC3    C5 8507   4.158   4.489  16.172  0.3892  0.4226  0.2557
  570TMC3    C6 8508   4.269   4.445  16.100 -0.1583 -0.6226 -0.1289
  570TMC3     C 8509   3.992   4.155  16.222  0.2770 -0.1345  0.1093
  570TMC3     O 8510   4.001   4.040  16.187  0.0576  0.1944  0.5322
  570TMC3     H 8511   4.209   4.114  16.095 -0.7223 -0.0231 -0.0412
  570TMC3    H1 8512   3.985   4.420  16.274 -0.0348 -1.6358  1.1973
  570TMC3    H2 8513   4.338   4.520  16.065 -0.8035  0.5044  0.9742
  570TMC3    C7 8514   4.122   4.632  16.160 -0.2768  0.8281 -0.3456
  570TMC3    C8 8515   4.380   4.285  15.957 -0.7368 -0.6176  0.9782
  570TMC3    O1 8516   4.214   4.714  16.155 -0.0643  0.5089 -0.1820
  570TMC3    O2 8517   4.416   4.379  15.893  0.8744  0.5643  0.2572
  571MPD2     C 8518   2.357   1.031  17.455 -0.0030 -0.1261 -0.4367
  571MPD2    C1 8519   2.248   1.040  17.539 -0.8034 -0.1926  0.6343
  571MPD2    C2 8520   2.260   1.117  17.666 -0.1035 -0.9961  0.0820
  571MPD2    C3 8521   2.381   1.173  17.702 -0.6724  0.2589 -0.5609
  571MPD2    C4 8522   2.489   1.150  17.622 -0.0334 -0.3243  0.4689
  571MPD2    C5 8523   2.481   1.085  17.505  0.9162  0.3885  0.0052
  571MPD2     H 8524   2.175   1.146  17.725 -0.4508 -0.9154 -0.4563
  571MPD2    H1 8525   2.588   1.185  17.649 -0.8648  2.3948 -0.0063
  571MPD2    H2 8526   2.360   0.977  17.361 -0.0391 -1.1551  0.1524
  571MPD2    H3 8527   2.572   1.073  17.447 -0.0399  0.3486 -1.4931
  571MPD2     N 8528   2.375   1.256   0.080 -0.3681  0.0755  0.2868
  571MPD2    H5 8529   2.284   1.262   0.124 -0.1665 -0.5240  0.7766
  571MPD2    N1 8530   2.125   0.986  17.487 -0.4137  0.1624 -0.0256
  571MPD2    H7 8531   2.136   0.930  17.403 -0.4910  0.2256 -0.0767
  572TMC3    C1 8532   2.440   1.370   0.274 -0.0345  0.2578 -0.6832
  572TMC3    C2 8533   2.369   1.293   0.361  0.0903 -0.1563  0.2785
  572TMC3    C3 8534   2.310   1.345   0.471 -0.1423 -0.1494 -0.1030
  572TMC3    C4 8535   2.483   1.495   0.309 -0.4084  0.3141  0.1507
  572TMC3    C5 8536   2.428   1.542   0.429  0.2312  0.0469 -0.3690
  572TMC3    C6 8537   2.343   1.468   0.504  0.3727 -0.5353  0.8065
  572TMC3     C 8538   2.484   1.314   0.143 -0.1645  0.3580 -0.1048
  572TMC3     O 8539   2.592   1.326   0.094  0.0051 -0.0708 -0.2329
  572TMC3     H 8540   2.370   1.185   0.352 -0.3801 -0.2840  1.8143
  572TMC3    H1 8541   2.537   1.559   0.240 -0.5412 -0.1975 -0.4298
  572TMC3    H2 8542   2.319   1.518   0.598 -1.2356  0.8220 -0.3190
  572TMC3    C7 8543   2.401   1.688   0.428  0.5749 -0.2373 -0.7458
  572TMC3    C8 8544   2.212   1.260   0.544  0.1192 -0.1937 -0.3011
  572TMC3    O1 8545   2.294   1.721   0.474 -0.4332 -0.5606  0.0564
  572TMC3    O2 8546   2.210   1.137   0.529  0.0708 -0.2141 -0.0399
  573MPD2     C 8547   2.997   1.507   0.458 -0.2016  0.0304 -0.1244
  573MPD2    C1 8548   3.118   1.558   0.401 -0.7117 -0.0809 -0.1959
  573MPD2    C2 8549   3.143   1.518   0.266  0.5023  0.0302 -0.9042
  573MPD2    C3 8550   3.053   1.448   0.192  0.3872  0.5009 -0.3003
  573MPD2    C4 8551   2.936   1.402   0.251  0.5903  0.5196  0.0351
  573MPD2    C5 8552   2.910   1.437   0.378  0.3051  1.2043 -0.1690
  573MPD2     H 8553   3.238   1.541   0.220  0.0815  1.4027 -1.0853
  573MPD2    H1 8554   2.859   1.350   0.195  1.8980  0.8889 -2.1175
  573MPD2    H2 8555   2.979   1.521   0.563 -0.0248 -1.1452  0.0639
  573MPD2    H3 8556   2.812   1.407   0.413  0.3803 -1.3983 -2.1783
  573MPD2     N 8557   3.062   1.433   0.051  0.1959 -0.1045  0.4694
  573MPD2    H5 8558   2.990   1.378   0.005 -0.5386  0.5212  0.8578
  573MPD2    N1 8559   3.203   1.633   0.481  0.0827  0.0514  0.7021
  573MPD2    H7 8560   3.162   1.648   0.573 -0.0554  1.8950  0.3538
  574TMC3    C1 8561   3.109   1.511  17.578 -0.4743  0.3386  0.6715
  574TMC3    C2 8562   2.981   1.555  17.558 -0.3366 -0.1344 -0.2880
  574TMC3    C3 8563   2.944   1.655  17.475 -0.0616  0.5653 -0.8541
  574TMC3    C4 8564   3.206   1.560  17.488  0.3194 -0.1967  0.0563
  574TMC3    C5 8565   3.166   1.654  17.396  0.5003  0.1084 -0.0515
  574TMC3    C6 8566   3.035   1.695  17.383 -0.0764 -0.7887 -0.2622
  574TMC3     C 8567   3.155   1.496  17.709  0.4933 -0.0646 -0.3612
  574TMC3     O 8568   3.270   1.539  17.734  0.3669 -0.1912 -0.0419
  574TMC3     H 8569   2.912   1.536  17.640 -1.3270  1.3088 -0.7982
  574TMC3    H1 8570   3.310   1.532  17.500  0.0285 -2.3883 -2.7299
  574TMC3    H2 8571   3.008   1.770  17.310 -3.2119 -1.2097  0.4808
  574TMC3    C7 8572   3.261   1.759  17.356 -0.0691  0.7315 -0.9570
  574TMC3    C8 8573   2.888   1.768  17.541 -0.7628  0.5913  0.1456
  574TMC3    O1 8574   3.218   1.853  17.291  0.5118  0.0718  1.3809
  574TMC3    O2 8575   2.878   1.762  17.661  0.3042 -0.3909  0.2063
  575TMC3    C1 8576   0.878   2.667  11.373 -0.2166  0.7635 -0.1466
  575TMC3    C2 8577   0.815   2.548  11.375  0.3434 -0.3935 -0.2532
  575TMC3    C3 8578   0.793   2.485  11.261  0.7310 -0.2705 -0.1927
  575TMC3    C4 8579   0.932   2.720  11.255 -0.2245 -0.3499 -0.4002
  575TMC3    C5 8580   0.892   2.658  11.139  0.4782 -0.0634 -0.2492
  575TMC3    C6 8581   0.832   2.536  11.137  0.1808  0.0390  0.3532
  575TMC3     C 8582   0.890   2.739  11.500 -0.6343 -0.5420  0.0748
  575TMC3     O 8583   0.809   2.712  11.585 -0.5986  0.0603  0.3798
  575TMC3     H 8584   0.789   2.504  11.471  1.0326 -1.2727 -0.4798
  575TMC3    H1 8585   0.988   2.813  11.251 -1.5709  0.5355  1.7195
  575TMC3    H2 8586   0.811   2.485  11.043  0.2819 -1.4637  1.1370
  575TMC3    C7 8587   0.887   2.737  11.016 -0.8619  0.0134  0.3517
  575TMC3    C8 8588   0.750   2.346  11.270  0.5320  0.0810  0.3412
  575TMC3    O1 8589   0.904   2.856  11.020  0.2552  0.1593  0.8023
  575TMC3    O2 8590   0.667   2.324  11.360  0.2154 -0.6112 -0.3662
  576MPD2     C 8591   0.984   4.343  12.950 -0.2204  0.5017  0.0983
  576MPD2    C1 8592   0.997   4.434  12.848 -0.4345  0.0654  0.3618
  576MPD2    C2 8593   0.937   4.558  12.864  0.4491 -0.1149 -0.9300
  576MPD2    C3 8594   0.865   4.586  12.976  0.1914 -0.1721 -0.0646
  576MPD2    C4 8595   0.850   4.489  13.075  0.3738 -0.1375 -0.5186
  576MPD2    C5 8596   0.910   4.368  13.057  0.2185 -0.2378  0.0328
  576MPD2     H 8597   0.930   4.633  12.786 -0.3609 -0.5479 -1.2678
  576MPD2    H1 8598   0.790   4.507  13.164 -0.5089 -0.8439 -0.9668
  576MPD2    H2 8599   1.029   4.245  12.946 -1.2541 -0.0173  1.3865
  576MPD2    H3 8600   0.901   4.284  13.125 -2.1811  1.0405  1.2834
  576MPD2     N 8601   0.787   4.702  12.981  0.3052  0.3912  0.6697
  576MPD2    H5 8602   0.814   0.047  12.924 -0.2362  0.2480  0.2107
  576MPD2    N1 8603   1.073   4.416  12.728  0.0090 -0.0655  0.0956
  576MPD2    H7 8604   1.092   4.494  12.665  0.8643 -0.6124 -0.3157
  577TMC3    C1 8605   1.226   4.311  12.592 -0.2697  0.2244  0.8242
  577TMC3    C2 8606   1.238   4.202  12.504 -0.0803 -0.1928  0.4067
  577TMC3    C3 8607   1.310   4.220  12.392 -0.1904 -0.1907  0.0497
  577TMC3    C4 8608   1.287   4.426  12.564  0.0664  0.2203  0.4369
  577TMC3    C5 8609   1.368   4.436  12.450 -0.6121 -0.5478  0.2914
  577TMC3    C6 8610   1.379   4.330  12.362 -0.5327 -0.1391  0.1523
  577TMC3     C 8611   1.127   4.297  12.702 -0.1057  0.1557  0.5866
  577TMC3     O 8612   1.092   4.177  12.724 -0.3066  0.3572 -0.0521
  577TMC3     H 8613   1.194   4.108  12.533  1.5204 -1.4371 -1.2076
  577TMC3    H1 8614   1.267   4.517  12.620 -0.0938 -0.5347  1.5998
  577TMC3    H2 8615   1.436   4.335  12.270 -0.1304 -1.6246  0.3177
  577TMC3    C7 8616   1.413   4.572  12.407  0.1058 -0.5664 -0.1952
  577TMC3    C8 8617   1.330   4.096  12.315  0.0016 -0.3039  0.0320
  577TMC3    O1 8618   1.427   4.650  12.503 -0.3840  0.0405  0.6296
  577TMC3    O2 8619   1.290   3.995  12.371  0.2056 -0.9579 -0.2745
  578MPD2     C 8620   3.158   0.332   0.258 -0.1431  0.9597  0.6958
  578MPD2    C1 8621   3.282   0.284   0.281 -0.0424  0.5251  0.0683
  578MPD2    C2 8622   3.295   0.192   0.385 -0.3807  0.1728  0.7080
  578MPD2    C3 8623   3.185   0.144   0.457 -0.0590  0.7968 -0.3076
  578MPD2    C4 8624   3.063   0.190   0.422 -0.3861  0.3213 -0.2643
  578MPD2    C5 8625   3.049   0.286   0.327 -0.0767  0.9231  0.3411
  578MPD2     H 8626   3.394   0.158   0.412 -0.3195 -1.3701 -1.4997
  578MPD2    H1 8627   2.970   0.158   0.467 -0.3669  2.1832  1.0674
  578MPD2    H2 8628   3.140   0.421   0.198 -2.8888 -1.5264 -2.1583
  578MPD2    H3 8629   2.953   0.333   0.311 -0.5662  0.2108  1.1729
  578MPD2     N 8630   3.205   0.051   0.562  0.3034 -0.4174 -0.6864
  578MPD2    H5 8631   3.298   0.010   0.552  1.2496  1.3070  1.1142
  578MPD2    N1 8632   3.396   0.349   0.229  0.6590  0.1615  0.2451
  578MPD2    H7 8633   3.379   0.442   0.192  0.6315 -0.5296 -1.4780
  579TMC3    C1 8634   3.194   4.671   0.766 -0.1501 -0.3491  0.0160
  579TMC3    C2 8635   3.192   4.718   0.894 -0.2535 -0.7876  0.1197
  579TMC3    C3 8636   3.295   4.691   0.980  0.2384  0.3137  0.1147
  579TMC3    C4 8637   3.290   4.579   0.726  0.2285 -0.2736  0.6204
  579TMC3    C5 8638   3.385   4.547   0.822 -0.1972  0.3754 -0.5509
  579TMC3    C6 8639   3.385   4.601   0.944 -0.1631 -0.4441 -0.3421
  579TMC3     C 8640   3.133   0.032   0.676  0.5265  0.3683  1.1856
  579TMC3     O 8641   3.020   0.073   0.708  0.2623 -0.2564 -1.1402
  579TMC3     H 8642   3.123   0.064   0.917  0.5830 -0.2730  0.8615
  579TMC3    H1 8643   3.302   4.536   0.627  2.5891  0.8590  0.4038
  579TMC3    H2 8644   3.460   4.563   1.012  0.3721 -0.1931 -0.7820
  579TMC3    C7 8645   3.479   4.443   0.784  0.3765  0.4171 -0.1764
  579TMC3    C8 8646   3.310   0.026   1.114 -0.2494 -0.1131 -0.5034
  579TMC3    O1 8647   3.587   4.453   0.835 -0.2474 -0.0842  0.0048
  579TMC3    O2 8648   3.215   0.071   1.176 -0.6166 -0.4446  0.3977
  580TMC3    C1 8649   3.253   3.717  12.408  0.5498 -0.0504 -0.1378
  580TMC3    C2 8650   3.333   3.766  12.508 -0.2032  0.1648  0.2434
  580TMC3    C3 8651   3.345   3.703  12.631  0.4693 -0.0476  0.0914
  580TMC3    C4 8652   3.183   3.599  12.423 -0.4805 -0.6711  0.5417
  580TMC3    C5 8653   3.205   3.534  12.540  0.4484 -0.2659 -0.0720
  580TMC3    C6 8654   3.281   3.583  12.647 -0.0447  0.9962  0.0616
  580TMC3     C 8655   3.238   3.793  12.287  0.0892 -0.2045 -0.7265
  580TMC3     O 8656   3.338   3.863  12.255  0.5818 -0.0474 -0.2906
  580TMC3     H 8657   3.381   3.861  12.490 -2.0008  0.3566 -3.4204
  580TMC3    H1 8658   3.129   3.552  12.342  0.3240  0.1587 -0.4799
  580TMC3    H2 8659   3.286   3.539  12.746  0.1607  1.4431  0.2523
  580TMC3    C7 8660   3.166   3.396  12.548 -0.2884 -1.3516 -0.3133
  580TMC3    C8 8661   3.485   3.680  12.675  0.1995 -0.4596  0.4958
  580TMC3    O1 8662   3.126   3.350  12.652 -0.0406  0.0964 -0.6068
  580TMC3    O2 8663   3.506   3.655  12.793  0.1222  0.2995 -0.3279
  581MPD2     C 8664   1.450   2.964  15.332 -0.1957 -0.1901  0.2278
  581MPD2    C1 8665   1.368   2.854  15.330 -0.8178  0.2573  0.2625
  581MPD2    C2 8666   1.240   2.870  15.279 -0.0635  0.3659 -1.0411
  581MPD2    C3 8667   1.205   2.995  15.227 -0.5226 -1.1151  0.8453
  581MPD2    C4 8668   1.285   3.104  15.239 -0.0655  0.4229  0.1824
  581MPD2    C5 8669   1.408   3.090  15.296 -0.3235 -0.1270  0.5539
  581MPD2     H 8670   1.174   2.786  15.293  0.3862 -0.0845 -1.6131
  581MPD2    H1 8671   1.268   3.198  15.189  1.0784  0.6733  0.2763
  581MPD2    H2 8672   1.552   2.950  15.366 -0.9352 -0.1554  2.4737
  581MPD2    H3 8673   1.474   3.176  15.296  0.2623 -0.5769  0.2917
  581MPD2     N 8674   1.077   3.001  15.167 -0.0575  0.0918 -0.1949
  581MPD2    H5 8675   1.037   2.912  15.139  1.2856 -0.2240 -1.1091
  581MPD2    N1 8676   1.422   2.741  15.386 -0.5602  0.4407  0.2924
  581MPD2    H7 8677   1.513   2.752  15.429 -0.2029  2.4791 -0.9982
  582TMC3    C1 8678   1.450   2.519  15.463  0.5700  0.4408 -0.0207
  582TMC3    C2 8679   1.488   2.566  15.591 -0.0082  0.3092  0.7273
  582TMC3    C3 8680   1.441   2.485  15.695 -0.4368 -0.3935  0.1777
  582TMC3    C4 8681   1.387   2.395  15.442 -0.4830 -0.3665 -0.0444
  582TMC3    C5 8682   1.358   2.312  15.547  0.6867 -0.4748 -0.2243
  582TMC3    C6 8683   1.383   2.368  15.669 -0.2899 -0.0691 -0.2623
  582TMC3     C 8684   1.369   2.617  15.380  0.3987 -0.4896  0.1452
  582TMC3     O 8685   1.276   2.576  15.313 -0.0427 -0.0936  0.3026
  582TMC3     H 8686   1.532   2.664  15.609 -0.0935  0.2841  1.0593
  582TMC3    H1 8687   1.364   2.360  15.342 -0.2913  1.8981 -0.8691
  582TMC3    H2 8688   1.346   2.301  15.746  0.3780 -1.4244 -1.1157
  582TMC3    C7 8689   1.219   2.263  15.531  0.1520  0.2239  0.5942
  582TMC3    C8 8690   1.467   2.521  15.832 -0.4200  0.0638 -0.0257
  582TMC3    O1 8691   1.173   2.191  15.615 -0.2395  0.4651 -0.1420
  582TMC3    O2 8692   1.383   2.475  15.906  0.0442  0.1981  0.1213
  583MPD2     C 8693   1.020   4.627  16.893 -0.0319  0.5632  0.2336
  583MPD2    C1 8694   0.988   4.693  16.782  0.0078  0.2674  0.2405
  583MPD2    C2 8695   0.900   0.065  16.793  0.2415  0.0347  0.0391
  583MPD2    C3 8696   0.834   0.095  16.916 -0.6133 -0.3257 -0.2382
  583MPD2    C4 8697   0.871   0.029  17.029  0.2030 -0.1462  0.5713
  583MPD2    C5 8698   0.955   4.660  17.011  0.5743  0.0498  0.0154
  583MPD2     H 8699   0.872   0.130  16.711  0.1987  1.4633  1.1840
  583MPD2    H1 8700   0.828   0.044  17.128 -1.2921  1.2095 -0.2826
  583MPD2    H2 8701   1.094   4.548  16.898  0.5861  1.2322  1.7222
  583MPD2    H3 8702   0.972   4.598  17.098  1.6703 -0.9982 -0.9341
  583MPD2     N 8703   0.750   0.213  16.916  0.0271  0.3659 -0.4223
  583MPD2    H5 8704   0.774   0.267  16.833 -0.6811 -0.8130 -1.4040
  583MPD2    N1 8705   1.052   4.667  16.660  0.2439 -0.1525 -0.1275
  583MPD2    H7 8706   1.034   4.727  16.580 -2.6294  0.6724  1.1653
  584TMC3    C1 8707   0.603   0.357  17.028 -0.1770  0.3184  0.4072
  584TMC3    C2 8708   0.661   0.460  16.959 -0.3980  1.0983 -0.5431
  584TMC3    C3 8709   0.629   0.584  16.995  0.2751 -0.0944 -0.4457
  584TMC3    C4 8710   0.509   0.370  17.126  0.5430  0.4624 -0.2759
  584TMC3    C5 8711   0.496   0.500  17.172 -0.1691 -0.5117  0.1348
  584TMC3    C6 8712   0.551   0.610  17.109 -0.0385 -0.9581 -0.4259
  584TMC3     C 8713   0.664   0.230  17.020 -0.0154  0.4458  0.4734
  584TMC3     O 8714   0.610   0.141  17.086  0.3786 -0.2489 -0.4700
  584TMC3     H 8715   0.725   0.442  16.873 -1.8392 -2.4048 -0.8757
  584TMC3    H1 8716   0.463   0.285  17.175 -0.1569  0.4936 -0.8737
  584TMC3    H2 8717   0.558   0.704  17.162 -2.5477 -0.9422 -0.1180
  584TMC3    C7 8718   0.451   0.525  17.305  0.2527 -0.0059  0.2572
  584TMC3    C8 8719   0.724   0.686  16.951  0.2139  0.6788  0.7146
  584TMC3    O1 8720   0.426   0.432  17.379  0.3033 -0.4079  0.1445
  584TMC3    O2 8721   0.731   0.692  16.828  0.7064 -0.9415 -0.4578
  585MPD2     C 8722   4.546   3.908   0.666  0.4845  0.1586 -0.2493
  585MPD2    C1 8723   4.664   3.926   0.594  0.1209  0.6253 -0.2946
  585MPD2    C2 8724   4.705   3.831   0.509  0.1020 -1.0290  0.1391
  585MPD2    C3 8725   4.634   3.719   0.489 -0.1006  0.1277 -0.3392
  585MPD2    C4 8726   4.519   3.706   0.554  0.0600 -0.1335  0.3628
  585MPD2    C5 8727   4.473   3.795   0.653 -0.6962 -0.3117 -0.3402
  585MPD2     H 8728   0.065   3.843   0.457  0.1972  0.1341  0.5869
  585MPD2    H1 8729   4.466   3.612   0.539  1.2634 -0.9796  1.3473
  585MPD2    H2 8730   4.502   3.988   0.724  1.1105  0.7928 -0.6574
  585MPD2    H3 8731   4.378   3.774   0.702 -0.4847 -1.1878 -0.3125
  585MPD2     N 8732   4.665   3.612   0.407 -0.4562 -0.1467 -0.6341
  585MPD2    H5 8733   4.605   3.531   0.418 -0.4847  0.2330  2.0913
  585MPD2    N1 8734   0.001   4.047   0.599 -0.7106 -0.5274  0.4457
  585MPD2    H7 8735   0.061   4.055   0.517 -0.2842  0.6154  0.8669
  586TMC3    C1 8736   0.031   3.466   0.255 -0.8114  0.0933 -1.3059
  586TMC3    C2 8737   0.149   3.428   0.202  0.4993 -0.5224  0.1324
  586TMC3    C3 8738   0.167   3.434   0.068  0.0244 -0.1291  0.9300
  586TMC3    C4 8739   4.658   3.484   0.167 -0.0737 -0.7420  0.5588
  586TMC3    C5 8740   4.685   3.486   0.032 -0.3486  0.0319  0.5211
  586TMC3    C6 8741   0.067   3.456  17.714 -0.4632 -0.3713 -0.1897
  586TMC3     C 8742   0.050   3.584   0.345  0.2741  0.0916 -0.8645
  586TMC3     O 8743   0.133   3.663   0.318 -0.4346 -0.0621 -0.6346
  586TMC3     H 8744   0.232   3.409   0.269  2.0478 -0.3125 -1.7349
  586TMC3    H1 8745   4.562   3.515   0.206  0.8893  1.8198  0.9415
  586TMC3    H2 8746   0.089   3.448  17.608 -0.4870 -1.5089 -0.1173
  586TMC3    C7 8747   4.583   3.527  17.676 -0.2525  0.0647  0.2282
  586TMC3    C8 8748   0.303   3.436   0.015  0.7147 -0.4065 -0.4146
  586TMC3    O1 8749   4.465   3.492  17.689 -0.3359 -0.3815  0.2636
  586TMC3    O2 8750   0.376   3.357   0.068  0.1899  0.3657  0.1892
  587TMC3    C1 8751   2.534   2.004  16.901 -0.3080  0.1396  0.6117
  587TMC3    C2 8752   2.472   2.089  16.986  0.9807  0.6906 -0.1663
  587TMC3    C3 8753   2.500   2.064  17.119 -0.3647  0.5524  0.2357
  587TMC3    C4 8754   2.605   1.893  16.941 -0.3559  0.8057 -0.0228
  587TMC3    C5 8755   2.622   1.870  17.074 -0.4262 -0.4883  0.1682
  587TMC3    C6 8756   2.565   1.953  17.164 -0.5432  0.7591  0.8174
  587TMC3     C 8757   2.484   1.996  16.766  0.3311  1.0225 -0.5361
  587TMC3     O 8758   2.553   1.959  16.671  0.1054 -0.0002 -0.0526
  587TMC3     H 8759   2.397   2.157  16.947  3.3732  3.5662  0.2228
  587TMC3    H1 8760   2.636   1.823  16.864 -3.2918 -1.0126  0.4751
  587TMC3    H2 8761   2.576   1.932  17.270 -2.6448 -0.6105  0.7744
  587TMC3    C7 8762   2.716   1.768  17.122  0.8205  0.0442 -0.9326
  587TMC3    C8 8763   2.424   2.144  17.213 -0.6347  0.4379 -0.1500
  587TMC3    O1 8764   2.725   1.741  17.241  0.1541 -0.1621 -0.3573
  587TMC3    O2 8765   2.399   2.086  17.318 -0.1655  0.5985 -0.8162
  588TMC3    C1 8766   0.639   0.740  10.087 -0.1144  0.2783 -0.4903
  588TMC3    C2 8767   0.614   0.616  10.029 -0.0848  0.4628  0.0283
  588TMC3    C3 8768   0.705   0.520  10.036  0.1405 -0.6288  1.0949
  588TMC3    C4 8769   0.764   0.769  10.128 -0.5169 -0.2407  0.1528
  588TMC3    C5 8770   0.848   0.665  10.144  0.1711  0.3759 -0.2476
  588TMC3    C6 8771   0.830   0.541  10.089 -0.5136 -0.0860  0.5459
  588TMC3     C 8772   0.568   0.856  10.031 -0.5399 -0.3300 -0.1154
  588TMC3     O 8773   0.544   0.867   9.911 -0.1330 -0.5783  0.2761
  588TMC3     H 8774   0.513   0.611   9.992 -0.3455  2.0584  0.5235
  588TMC3    H1 8775   0.793   0.873  10.136  0.0269 -0.5462  2.0828
  588TMC3    H2 8776   0.912   0.471  10.083 -0.8560 -0.4957  0.6806
  588TMC3    C7 8777   0.965   0.678  10.228 -0.0469 -0.2240 -0.2588
  588TMC3    C8 8778   0.660   0.386  10.010 -1.0936 -0.7281  0.2403
  588TMC3    O1 8779   1.059   0.597  10.214  0.0028 -0.7137  0.2283
  588TMC3    O2 8780   0.545   0.365   9.974  0.3056  0.2167 -0.4847
  589TMC3    C1 8781   3.906   2.441   1.031  0.1772 -0.5100  0.1192
  589TMC3    C2 8782   3.990   2.491   1.131  0.2505 -0.0268 -0.5936
  589TMC3    C3 8783   4.114   2.440   1.143 -0.9781  0.2270 -0.6274
  589TMC3    C4 8784   3.954   2.352   0.936 -0.2386  0.7110  0.2460
  589TMC3    C5 8785   4.086   2.315   0.943  0.3874  0.4371 -0.2948
  589TMC3    C6 8786   4.162   2.356   1.045  0.0032  0.2378  0.1757
  589TMC3     C 8787   3.769   2.493   1.025  0.1273 -0.1173  0.5061
  589TMC3     O 8788   3.718   2.498   0.912  0.2214 -0.2617 -0.1581
  589TMC3     H 8789   3.955   2.560   1.207  0.7407  1.1842 -1.4788
  589TMC3    H1 8790   3.886   2.314   0.860  0.8016 -1.5556  0.4330
  589TMC3    H2 8791   4.240   2.287   1.075 -0.6891  0.2621  2.0374
  589TMC3    C7 8792   4.130   2.198   0.871 -1.5275 -0.2964 -0.4876
  589TMC3    C8 8793   4.142   2.403   1.279  0.1035 -0.5224 -0.4219
  589TMC3    O1 8794   4.039   2.121   0.844  0.0570  0.1587 -0.8638
  589TMC3    O2 8795   4.046   2.373   1.348  0.3429  0.1734 -0.1535
  590MPD2     C 8796   3.559   0.838  16.859  0.4201 -0.0552  0.7775
  590MPD2    C1 8797   3.508   0.889  16.740 -0.3012 -0.0733 -0.0814
  590MPD2    C2 8798   3.592   0.952  16.654  0.1703 -0.2347 -0.0244
  590MPD2    C3 8799   3.725   0.980  16.681  0.3146  0.4223  0.2716
  590MPD2    C4 8800   3.770   0.934  16.805  0.1111 -0.3983 -0.5482
  590MPD2    C5 8801   3.693   0.855  16.885 -0.5721  0.2761 -0.2965
  590MPD2     H 8802   3.559   1.000  16.562 -1.5583 -0.5736  0.4222
  590MPD2    H1 8803   3.872   0.947  16.840 -1.3398 -0.4424  3.6874
  590MPD2    H2 8804   3.490   0.790  16.928  0.4608 -0.0220  0.8408
  590MPD2    H3 8805   3.736   0.823  16.980  2.6797  1.3877 -1.3959
  590MPD2     N 8806   3.807   1.046  16.583  0.4436  0.4606  0.4826
  590MPD2    H5 8807   3.758   1.062  16.496 -1.8476 -0.0506  1.6633
  590MPD2    N1 8808   3.374   0.865  16.720  0.7263 -0.3566  0.3137
  590MPD2    H7 8809   3.316   0.815  16.788  0.6652 -1.4384 -0.5321
  591TMC3    C1 8810   4.006   1.122  16.477  0.1434 -0.4412 -0.4917
  591TMC3    C2 8811   3.978   1.067  16.355 -0.1351 -0.2727 -1.1597
  591TMC3    C3 8812   4.024   1.134  16.242  0.1550 -0.3858  0.1557
  591TMC3    C4 8813   4.091   1.221  16.489 -0.4361  0.0127  0.1922
  591TMC3    C5 8814   4.134   1.284  16.375 -0.0944 -0.2941 -0.2430
  591TMC3    C6 8815   4.101   1.240  16.251  0.3717  0.3385  0.2333
  591TMC3     C 8816   3.940   1.079  16.595 -0.6481  0.1988  0.4693
  591TMC3     O 8817   4.009   1.090  16.696  0.1119  0.6569  0.7778
  591TMC3     H 8818   3.917   0.978  16.339 -1.2627 -0.0603  2.0140
  591TMC3    H1 8819   4.123   1.262  16.584 -1.3566 -0.2228  0.6133
  591TMC3    H2 8820   4.161   1.261  16.163  0.4010 -0.0498  0.1626
  591TMC3    C7 8821   4.250   1.371  16.399  0.4035 -0.5984 -0.0472
  591TMC3    C8 8822   4.056   1.055  16.128  0.2942 -0.4569 -0.3148
  591TMC3    O1 8823   4.308   1.367  16.507 -0.0990  0.0027  0.1915
  591TMC3    O2 8824   4.105   0.947  16.148 -0.1831 -0.0944 -0.1657
  592MPD2     C 8825   4.508   3.359  11.819 -0.1311  0.0094  0.2787
  592MPD2    C1 8826   4.486   3.347  11.950  0.5150 -0.2368 -0.2581
  592MPD2    C2 8827   4.386   3.264  11.995 -0.4952  0.0689 -0.1768
  592MPD2    C3 8828   4.291   3.218  11.906 -0.5703 -0.0134 -0.0774
  592MPD2    C4 8829   4.304   3.240  11.773 -0.1691 -0.7872  0.1951
  592MPD2    C5 8830   4.417   3.304  11.736  1.2179  0.0169  0.1907
  592MPD2     H 8831   4.370   3.247  12.101 -1.0361 -0.8785 -0.4188
  592MPD2    H1 8832   4.239   3.196  11.699  0.0887 -1.8201  0.5791
  592MPD2    H2 8833   4.596   3.410  11.782 -0.2420  1.8003  2.5343
  592MPD2    H3 8834   4.445   3.298  11.632  0.5848 -0.3784  0.0427
  592MPD2     N 8835   4.190   3.136  11.966  0.0654  0.2514  0.0939
  592MPD2    H5 8836   4.192   3.143  12.068 -0.4967 -0.6094  0.1638
  592MPD2    N1 8837   4.587   3.405  12.030 -0.7966 -0.9480 -0.1510
  592MPD2    H7 8838   4.660   3.466  11.995 -1.5864  0.0976  0.0268
  593TMC3    C1 8839   4.696   3.461  12.238 -0.5101  0.0363  0.0452
  593TMC3    C2 8840   4.669   3.514  12.365 -0.0121 -0.3761  0.2726
  593TMC3    C3 8841   0.034   3.589  12.419  0.0070 -0.1732 -0.2561
  593TMC3    C4 8842   0.086   3.460  12.177 -0.0611 -0.6096  0.6301
  593TMC3    C5 8843   0.186   3.513  12.248 -0.2971 -0.4269  0.7848
  593TMC3    C6 8844   0.156   3.594  12.364 -0.0731 -0.0624  0.0516
  593TMC3     C 8845   4.584   3.399  12.166  0.3636 -0.7358  0.1064
  593TMC3     O 8846   4.501   3.350  12.241  0.6097  0.3973  0.4222
  593TMC3     H 8847   4.571   3.527  12.410 -0.4513 -1.5880 -0.3524
  593TMC3    H1 8848   0.121   3.408  12.088  3.8812  1.6161  0.9135
  593TMC3    H2 8849   0.243   3.638  12.411 -0.1523 -0.5632  0.6702
  593TMC3    C7 8850   0.293   3.562  12.172 -0.0877 -0.3932  0.6377
  593TMC3    C8 8851   4.726   3.731  12.452 -0.3829 -0.0604  0.0756
  593TMC3    O1 8852   0.323   3.675  12.197 -0.3434  0.2823  0.1058
  593TMC3    O2 8853   4.609   3.760  12.437  0.2630 -0.0836 -0.5960
  594MPD2     C 8854   3.535   1.718  14.534 -0.1068 -0.4779 -0.1957
  594MPD2    C1 8855   3.413   1.776  14.502 -0.0543 -0.0468  0.3365
  594MPD2    C2 8856   3.413   1.904  14.452 -0.2095  0.1211  0.6815
  594MPD2    C3 8857   3.529   1.970  14.410  0.4476 -0.2855  0.3914
  594MPD2    C4 8858   3.648   1.895  14.423  0.4333 -0.1264  1.0131
  594MPD2    C5 8859   3.647   1.781  14.493 -0.1808  0.0986  0.1085
  594MPD2     H 8860   3.317   1.951  14.429 -0.9464 -1.4376  0.5845
  594MPD2    H1 8861   3.738   1.926  14.371 -0.4176 -0.2852 -0.5811
  594MPD2    H2 8862   3.550   1.611  14.549  4.1011 -0.0202 -1.1265
  594MPD2    H3 8863   3.731   1.712  14.501  1.2228  1.7275 -0.7147
  594MPD2     N 8864   3.526   2.098  14.349 -0.2254  0.3064  0.2727
  594MPD2    H5 8865   3.434   2.141  14.353 -0.8379 -0.9554 -0.4363
  594MPD2    N1 8866   3.296   1.712  14.537  0.8839  0.2082 -0.3611
  594MPD2    H7 8867   3.209   1.749  14.499  0.8307  2.0408  1.5212
  595TMC3    C1 8868   3.749   2.506  14.379 -0.1958 -0.2831  0.0274
  595TMC3    C2 8869   3.744   2.379  14.328  0.0808 -0.2355  0.2064
  595TMC3    C3 8870   3.622   2.314  14.327 -0.2777 -0.5489  1.0010
  595TMC3    C4 8871   3.638   2.554  14.438  0.3203 -0.1584 -0.1397
  595TMC3    C5 8872   3.529   2.482  14.457  0.3966 -0.3728  0.1620
  595TMC3    C6 8873   3.513   2.361  14.399 -0.2039  0.4723 -0.3677
  595TMC3     C 8874   3.880   2.564  14.417  0.2202 -0.3876 -0.1538
  595TMC3     O 8875   3.875   2.643  14.509  0.1100 -0.1437 -0.6402
  595TMC3     H 8876   3.838   2.340  14.289  0.8764  1.1292  0.7462
  595TMC3    H1 8877   3.637   2.654  14.480 -1.0186 -0.3369  0.2719
  595TMC3    H2 8878   3.417   2.313  14.413 -0.6210  1.4360  0.0468
  595TMC3    C7 8879   3.438   2.518  14.568 -0.7628  0.4109 -0.0201
  595TMC3    C8 8880   3.637   2.171  14.317 -0.2519  0.0749  0.2483
  595TMC3    O1 8881   3.332   2.454  14.559 -0.2319 -0.8763  0.2890
  595TMC3    O2 8882   3.754   2.135  14.301  0.6208 -0.2760 -0.1456
  596MPD2     C 8883   1.954   4.419  16.823  0.0286 -0.5343 -0.2778
  596MPD2    C1 8884   1.973   4.545  16.769 -0.4058  0.6494  0.1135
  596MPD2    C2 8885   2.019   4.557  16.633  0.6009 -0.0926  0.1529
  596MPD2    C3 8886   2.040   4.439  16.561 -0.0476  0.3042  0.2671
  596MPD2    C4 8887   2.012   4.315  16.623  0.2423  0.5682  0.2110
  596MPD2    C5 8888   1.972   4.310  16.750  0.3718  0.2302  0.2565
  596MPD2     H 8889   2.040   4.654  16.590 -0.9907 -0.2270 -0.9068
  596MPD2    H1 8890   2.029   4.223  16.568 -1.5122  0.5291 -0.2579
  596MPD2    H2 8891   1.915   4.411  16.924 -0.3076 -0.1313 -0.3751
  596MPD2    H3 8892   1.952   4.213  16.795  0.0304  0.4027  0.4694
  596MPD2     N 8893   2.064   4.434  16.421 -0.8541 -0.2243  0.1272
  596MPD2    H5 8894   2.066   4.341  16.380 -1.2776  0.3208 -1.1312
  596MPD2    N1 8895   1.939   4.668  16.834 -0.3375 -0.2929  0.5713
  596MPD2    H7 8896   1.962   0.022  16.788 -0.8926 -0.5578 -0.2330
  597TMC3    C1 8897   1.851   0.076  17.001 -0.1191  0.8129 -0.3614
  597TMC3    C2 8898   1.938   0.172  16.966  0.6702  0.1535  0.1634
  597TMC3    C3 8899   1.910   0.295  17.016  0.3883  1.0046 -0.8837
  597TMC3    C4 8900   1.729   0.094  17.070  0.6706  0.1560  0.3477
  597TMC3    C5 8901   1.702   0.226  17.105  0.0985  0.6983 -0.0261
  597TMC3    C6 8902   1.795   0.323  17.084  0.4959  0.7053 -0.8042
  597TMC3     C 8903   1.861   4.673  16.949 -0.1255  0.2266  0.5596
  597TMC3     O 8904   1.804   4.584  17.006  0.4878 -0.3645  0.0112
  597TMC3     H 8905   2.032   0.157  16.914  1.7308 -3.1124  3.0000
  597TMC3    H1 8906   1.659   0.016  17.097 -0.0009  0.8911  0.7442
  597TMC3    H2 8907   1.773   0.427  17.103  1.2278  0.6131  0.5252
  597TMC3    C7 8908   1.571   0.268  17.147  0.4553 -0.1055  0.0153
  597TMC3    C8 8909   2.016   0.392  17.028  0.3201  0.2241  0.2967
  597TMC3    O1 8910   1.498   0.185  17.198  0.1401  0.3955  0.3055
  597TMC3    O2 8911   2.104   0.388  16.941  0.2002 -0.7141  0.0400
  598TMC3    C1 8912   0.083   1.407  15.036 -0.6826 -0.1887 -0.5715
  598TMC3    C2 8913   4.709   1.324  15.004 -0.0898  0.6740 -0.5706
  598TMC3    C3 8914   4.663   1.331  14.873 -0.3804 -0.1712  0.2817
  598TMC3    C4 8915   0.126   1.508  14.952  0.1466 -0.5668 -0.4894
  598TMC3    C5 8916   0.077   1.506  14.822  0.2987  0.1475 -0.5194
  598TMC3    C6 8917   4.715   1.419  14.781  0.6144  0.4314  0.1288
  598TMC3     C 8918   0.142   1.416  15.166 -0.3925  0.5010  0.4763
  598TMC3     O 8919   0.243   1.480  15.176 -0.6321  0.2462 -0.2086
  598TMC3     H 8920   4.677   1.245  15.071 -0.9951  1.2024 -0.3786
  598TMC3    H1 8921   0.194   1.585  14.988 -1.8205  0.9095  0.0818
  598TMC3    H2 8922   4.668   1.411  14.684 -0.9527  0.1567  0.9038
  598TMC3    C7 8923   0.155   1.563  14.716  0.1972 -0.1146 -0.1769
  598TMC3    C8 8924   4.582   1.210  14.836  0.0345  0.0593  0.2421
  598TMC3    O1 8925   0.131   1.523  14.606 -0.1659  0.4578  0.2676
  598TMC3    O2 8926   4.526   1.148  14.926 -0.2041  0.3357  0.0330
  599MPD2     C 8927   0.605   3.781  16.010  0.4174 -0.8424  0.7438
  599MPD2    C1 8928   0.524   3.671  16.003  0.1520  0.0422 -0.1464
  599MPD2    C2 8929   0.385   3.682  16.035  0.1681 -0.0462 -0.3037
  599MPD2    C3 8930   0.341   3.804  16.095 -0.4619 -0.2206 -0.7243
  599MPD2    C4 8931   0.430   3.914  16.116 -0.2309  0.2849  0.2285
  599MPD2    C5 8932   0.558   3.903  16.064 -0.1290 -0.9749  0.8532
  599MPD2     H 8933   0.317   3.598  16.030  0.5979 -0.3085 -1.8019
  599MPD2    H1 8934   0.406   4.014  16.149 -2.1830  0.3261 -1.3244
  599MPD2    H2 8935   0.709   3.763  15.985  0.5874  0.6055  0.4137
  599MPD2    H3 8936   0.627   3.983  16.086  2.3523 -2.5625 -1.2462
  599MPD2     N 8937   0.208   3.835  16.135 -0.3399  0.2761  0.3959
  599MPD2    H5 8938   0.194   3.927  16.174 -1.2155  0.5281 -0.5210
  599MPD2    N1 8939   0.590   3.549  15.971 -0.1018 -0.4324  0.3031
  599MPD2    H7 8940   0.692   3.544  15.967 -0.1666  0.3050 -1.9698
  600TMC3    C1 8941   4.712   3.810  16.181  0.2687  0.3848  0.5852
  600TMC3    C2 8942   4.620   3.719  16.228  0.1533  0.3471 -0.1963
  600TMC3    C3 8943   4.510   3.766  16.294 -0.5109 -0.0224 -0.0857
  600TMC3    C4 8944   4.691   3.944  16.185  0.3419 -0.3195 -0.0633
  600TMC3    C5 8945   4.580   3.983  16.254  0.1120  0.1096 -0.2769
  600TMC3    C6 8946   4.483   3.897  16.300 -0.1886 -0.4975  0.9360
  600TMC3     C 8947   0.101   3.750  16.127  0.1539 -0.0039 -0.7011
  600TMC3     O 8948   0.094   3.639  16.075  0.2629 -0.6400  0.0074
  600TMC3     H 8949   4.643   3.613  16.219 -0.3852  0.0841  1.4644
  600TMC3    H1 8950   0.025   4.011  16.134  0.7898  0.0368  1.0020
  600TMC3    H2 8951   4.399   3.934  16.359  1.0841  1.7438  1.3512
  600TMC3    C7 8952   4.546   4.121  16.269  0.6057 -0.0962 -0.1031
  600TMC3    C8 8953   4.389   3.684  16.288 -0.7785  0.9545 -0.9349
  600TMC3    O1 8954   4.444   4.155  16.332 -0.0275  0.7103 -0.7671
  600TMC3    O2 8955   4.279   3.743  16.302 -0.5811  0.3695  0.2045
  601MPD2     C 8956   2.417   2.140   0.181  0.3670  0.7819  0.8154
  601MPD2    C1 8957   2.313   2.075   0.248  0.5079 -0.3434 -0.1729
  601MPD2    C2 8958   2.336   1.954   0.312 -0.5751  0.0358 -0.5246
  601MPD2    C3 8959   2.458   1.893   0.302  0.5492  0.2960 -0.4851
  601MPD2    C4 8960   2.557   1.949   0.231  0.5522  0.5096 -0.6651
  601MPD2    C5 8961   2.535   2.072   0.177 -0.0438  0.2104  0.2871
  601MPD2     H 8962   2.251   1.912   0.365  0.1237  2.0880  2.2059
  601MPD2    H1 8963   2.646   1.894   0.205  0.3750  0.0689 -0.3364
  601MPD2    H2 8964   2.401   2.238   0.138  1.6624  0.9849  0.7874
  601MPD2    H3 8965   2.616   2.121   0.124  0.2569  0.4149  0.9452
  601MPD2     N 8966   2.486   1.766   0.357 -0.3892  0.2571  0.1522
  601MPD2    H5 8967   2.579   1.727   0.339 -1.2918 -1.3566 -0.9734
  601MPD2    N1 8968   2.186   2.132   0.260 -0.2464 -0.3065 -0.4307
  601MPD2    H7 8969   2.126   2.079   0.322 -0.9691  1.6099  0.5167
  602TMC3    C1 8970   2.008   2.277   0.261 -0.7526 -0.0504  0.1566
  602TMC3    C2 8971   1.961   2.401   0.249  0.4769 -0.7210 -0.0466
  602TMC3    C3 8972   1.831   2.429   0.286 -1.0151  0.2473 -0.6346
  602TMC3    C4 8973   1.924   2.171   0.278  0.2126  0.4015  0.3026
  602TMC3    C5 8974   1.789   2.200   0.291 -0.3239 -0.9659  0.2052
  602TMC3    C6 8975   1.746   2.322   0.307 -0.7199 -0.0715 -0.1365
  602TMC3     C 8976   2.143   2.254   0.214  0.8138  0.2839 -0.4475
  602TMC3     O 8977   2.207   2.338   0.152 -0.2087 -0.3764 -0.2817
  602TMC3     H 8978   2.031   2.483   0.233  2.7293 -2.4490  0.9710
  602TMC3    H1 8979   1.954   2.070   0.252  3.2731  1.6903 -1.0570
  602TMC3    H2 8980   1.642   2.339   0.332 -0.3522 -0.4265  1.6606
  602TMC3    C7 8981   1.701   2.113   0.223  0.3321  0.1111  0.0138
  602TMC3    C8 8982   1.772   2.509   0.178  0.4794 -0.2784 -0.1695
  602TMC3    O1 8983   1.723   1.995   0.242 -0.2415 -0.7665 -0.0151
  602TMC3    O2 8984   1.689   2.448   0.110  0.4829  0.2190  0.3740
  603TMC3    C1 8985   0.473   2.817  10.878  0.1746  0.0046 -0.0162
  603TMC3    C2 8986   0.518   2.810  11.009  1.0322  0.2347  0.0511
  603TMC3    C3 8987   0.498   2.918  11.086  0.5682 -0.0749  1.0064
  603TMC3    C4 8988   0.427   2.935  10.821  0.3478 -0.6225  0.1725
  603TMC3    C5 8989   0.417   3.045  10.904 -0.0357  0.1216 -0.0633
  603TMC3    C6 8990   0.450   3.036  11.037  0.5389 -0.0888 -0.2753
  603TMC3     C 8991   0.422   2.694  10.831  0.6915 -0.0223 -0.1293
  603TMC3     O 8992   0.428   2.595  10.904 -0.1823 -0.5215 -0.0838
  603TMC3     H 8993   0.555   2.717  11.049 -0.8346 -1.2980 -1.7890
  603TMC3    H1 8994   0.405   2.952  10.716  0.8835 -1.6449 -0.1023
  603TMC3    H2 8995   0.408   3.114  11.098  1.2796 -0.3920  0.6285
  603TMC3    C7 8996   0.408   3.180  10.854  0.1434  0.2448  0.3664
  603TMC3    C8 8997   0.547   2.896  11.224  0.0888 -0.4577  0.5802
  603TMC3    O1 8998   0.463   3.268  10.916  0.2532  0.1451 -0.0115
  603TMC3    O2 8999   0.541   2.787  11.279 -0.2570 -0.2026 -0.1450
  604MPD2     C 9000   0.798   0.596  16.228 -0.2450  0.0672 -0.8287
  604MPD2    C1 9001   0.800   0.724  16.178  0.5815 -0.2901  0.5452
  604MPD2    C2 9002   0.858   0.752  16.053  0.1613  0.3299 -0.1329
  604MPD2    C3 9003   0.901   0.646  15.976 -0.4911  0.0569 -0.0127
  604MPD2    C4 9004   0.884   0.517  16.026 -0.1584 -0.0745 -0.1299
  604MPD2    C5 9005   0.840   0.493  16.149 -0.0372 -0.6472  0.3881
  604MPD2     H 9006   0.878   0.854  16.022 -1.5749  0.8233  0.3384
  604MPD2    H1 9007   0.916   0.427  15.974 -1.4821 -1.1000  0.8098
  604MPD2    H2 9008   0.752   0.563  16.320  2.6187  1.2447  1.0559
  604MPD2    H3 9009   0.827   0.393  16.190 -1.4124 -1.5153 -2.1864
  604MPD2     N 9010   0.958   0.672  15.848  0.1115  0.2567 -0.3688
  604MPD2    H5 9011   0.958   0.766  15.809 -1.8383 -0.3729 -1.8526
  604MPD2    N1 9012   0.747   0.823  16.273 -0.0484 -0.1384 -0.8042
  604MPD2    H7 9013   0.725   0.795  16.368 -3.2982 -2.1800 -2.1506
  605TMC3    C1 9014   0.650   1.017  16.349 -0.0814 -0.6108  0.2270
  605TMC3    C2 9015   0.718   1.005  16.471 -0.2618 -0.1649  0.4402
  605TMC3    C3 9016   0.720   1.118  16.542 -0.3498  0.3902 -0.2404
  605TMC3    C4 9017   0.577   1.126  16.303  0.4290 -0.2514  0.1593
  605TMC3    C5 9018   0.564   1.223  16.400  0.2207 -0.5820 -0.4119
  605TMC3    C6 9019   0.635   1.219  16.514 -0.6119 -0.5104 -0.1016
  605TMC3     C 9020   0.711   0.952  16.239  1.2277  0.0009  0.0023
  605TMC3     O 9021   0.708   1.009  16.132  0.0454  0.3815  0.1453
  605TMC3     H 9022   0.800   0.934  16.476  0.3219  0.3604 -1.8096
  605TMC3    H1 9023   0.525   1.102  16.211 -0.6633 -1.5298  1.1152
  605TMC3    H2 9024   0.624   1.306  16.577  2.6779 -0.7347  0.7818
  605TMC3    C7 9025   0.517   1.353  16.351 -0.0279  0.3904 -0.4372
  605TMC3    C8 9026   0.846   1.152  16.600 -0.0378  0.5673  0.4701
  605TMC3    O1 9027   0.499   1.445  16.431  0.5775 -1.0224 -0.2008
  605TMC3    O2 9028   0.944   1.102  16.555 -0.1067  0.1629  0.0481
  606TMC3    C1 9029   2.364   4.559  16.768  0.9041  0.5730  0.1725
  606TMC3    C2 9030   2.332   4.636  16.879 -0.0088 -0.2663  0.8607
  606TMC3    C3 9031   2.316   4.585  17.002  0.8003  0.4425  0.3213
  606TMC3    C4 9032   2.347   4.424  16.792 -0.2128  0.0641 -0.0960
  606TMC3    C5 9033   2.335   4.382  16.912 -0.4283 -0.2239 -0.6031
  606TMC3    C6 9034   2.320   4.451  17.023 -0.4755  1.0878  0.3754
  606TMC3     C 9035   2.385   4.613  16.633 -0.5826 -0.6122  0.3216
  606TMC3     O 9036   2.395   4.538  16.536  1.0800  0.5074  0.1927
  606TMC3     H 9037   2.302   0.005  16.866  1.4769 -0.0613 -0.9358
  606TMC3    H1 9038   2.371   4.358  16.709  0.9730  1.5691 -0.9540
  606TMC3    H2 9039   2.312   4.405  17.121 -1.5222 -1.9552 -1.1404
  606TMC3    C7 9040   2.313   4.240  16.926 -0.4673  0.6048 -0.1555
  606TMC3    C8 9041   2.267   4.667  17.116  0.4186  0.2443 -0.0359
  606TMC3    O1 9042   2.371   4.163  16.853  0.2425 -0.3161  0.3154
  606TMC3    O2 9043   2.170   0.005  17.102  0.4298 -0.2580 -0.1896
  607MPD2     C 9044   4.384   2.833  11.792  0.6999 -0.1057 -0.5783
  607MPD2    C1 9045   4.484   2.860  11.888  0.1245  0.5288  0.4030
  607MPD2    C2 9046   4.464   2.828  12.017 -0.1518 -0.8462 -0.0722
  607MPD2    C3 9047   4.344   2.790  12.065 -0.8570  0.9278  0.3281
  607MPD2    C4 9048   4.245   2.751  11.976  0.3252 -0.1329  0.4530
  607MPD2    C5 9049   4.269   2.773  11.841  0.4552 -0.1640 -0.8503
  607MPD2     H 9050   4.539   2.857  12.089 -1.2224  0.6697  0.4256
  607MPD2    H1 9051   4.156   2.696  12.006 -0.0114  0.3884  0.4158
  607MPD2    H2 9052   4.397   2.847  11.685 -0.1283  2.9868 -0.2749
  607MPD2    H3 9053   4.194   2.733  11.775 -0.7014  1.9129 -0.8011
  607MPD2     N 9054   4.338   2.760  12.201 -0.3901  0.3849 -0.3772
  607MPD2    H5 9055   4.406   2.806  12.260 -0.0616 -0.9565  0.2667
  607MPD2    N1 9056   4.610   2.909  11.854  0.3470 -0.0248 -0.4733
  607MPD2    H7 9057   4.686   2.911  11.921 -0.2806  4.1310  0.1183
  608TMC3    C1 9058   0.031   3.034  11.750 -1.3912  1.1057  0.1247
  608TMC3    C2 9059   0.100   3.018  11.866 -0.6337  0.6156 -0.7495
  608TMC3    C3 9060   0.167   3.129  11.910 -0.6252  0.3634 -0.7337
  608TMC3    C4 9061   0.032   3.145  11.671  0.8103 -0.2733  0.3920
  608TMC3    C5 9062   0.099   3.254  11.720  0.4922 -0.1256 -0.6937
  608TMC3    C6 9063   0.176   3.239  11.830 -0.3359 -0.7034 -0.3106
  608TMC3     C 9064   4.652   2.949  11.734 -0.6263 -0.5624  0.3816
  608TMC3     O 9065   4.580   2.962  11.633 -0.2665 -0.6376 -0.4874
  608TMC3     H 9066   0.114   2.925  11.920 -0.1512  0.1888 -1.6087
  608TMC3    H1 9067   4.702   3.152  11.584  0.0511 -0.8833  0.9028
  608TMC3    H2 9068   0.221   3.324  11.879  1.7586 -1.4862 -0.8891
  608TMC3    C7 9069   0.131   3.352  11.623  0.5555 -0.0342  0.7051
  608TMC3    C8 9070   0.196   3.134  12.052 -0.1781  0.7335 -0.1696
  608TMC3    O1 9071   0.088   3.336  11.510 -0.2090  0.3042  0.1337
  608TMC3    O2 9072   0.294   3.201  12.083  0.1917 -0.0432 -0.0778
  609TMC3    C1 9073   4.480   1.995   9.335  0.6025 -0.4634  0.5457
  609TMC3    C2 9074   4.509   1.902   9.244  0.5600 -0.1490  0.4146
  609TMC3    C3 9075   4.615   1.823   9.263  0.1577 -0.0391 -0.6187
  609TMC3    C4 9076   4.562   2.018   9.442  0.0801  0.6748 -0.3632
  609TMC3    C5 9077   4.668   1.930   9.457  0.0620  0.3483  0.2569
  609TMC3    C6 9078   4.707   1.836   9.367 -0.0654 -0.4716 -0.2351
  609TMC3     C 9079   4.344   2.038   9.345 -0.8274  0.8376  0.0761
  609TMC3     O 9080   4.246   1.982   9.298 -0.8970  0.4970 -0.2987
  609TMC3     H 9081   4.450   1.887   9.155  0.2746  1.3617  0.3371
  609TMC3    H1 9082   4.526   2.080   9.523  0.7255  0.8192 -0.1913
  609TMC3    H2 9083   0.071   1.792   9.379  1.5239  3.3357  0.9200
  609TMC3    C7 9084   4.733   1.939   9.592  0.4421  0.2555  0.5915
  609TMC3    C8 9085   4.615   1.707   9.171 -0.1660  0.2046  0.6387
  609TMC3    O1 9086   4.689   2.022   9.668  0.3137  0.1644 -0.7703
  609TMC3    O2 9087   4.530   1.695   9.086 -0.1577 -0.2587  0.2825
  610TMC3    C1 9088   0.280   2.372  13.033 -0.3395  0.2567  0.0259
  610TMC3    C2 9089   0.292   2.458  12.929  0.4326 -0.0934 -0.4058
  610TMC3    C3 9090   0.419   2.463  12.869  0.2088  0.6325  0.4952
  610TMC3    C4 9091   0.387   2.302  13.086  0.0406 -0.4073 -0.3297
  610TMC3    C5 9092   0.506   2.308  13.012 -0.0787  0.0622  0.0738
  610TMC3    C6 9093   0.526   2.395  12.911  0.2937  0.1997  0.1421
  610TMC3     C 9094   0.174   2.385  13.133 -0.0588  0.5054  0.5408
  610TMC3     O 9095   0.203   2.324  13.237 -0.5507 -0.6989  0.1437
  610TMC3     H 9096   0.205   2.510  12.890  0.5845 -0.5006 -1.2895
  610TMC3    H1 9097   0.371   2.214  13.147  0.3829  0.8717  1.5855
  610TMC3    H2 9098   0.615   2.398  12.849  2.4361  1.4357  3.2615
  610TMC3    C7 9099   0.630   2.252  13.062 -0.1536 -0.1503 -1.1075
  610TMC3    C8 9100   0.449   2.563  12.764  1.1538  0.0320  0.2660
  610TMC3    O1 9101   0.730   2.263  12.999 -0.0973  0.0726  0.2490
  610TMC3    O2 9102   0.569   2.576  12.745  0.2336  0.1021 -0.0109
  611MPD2     C 9103   3.988   3.013  10.250 -0.1813 -0.3003 -0.6042
  611MPD2    C1 9104   4.032   2.965  10.130 -0.6125 -0.0001 -0.3366
  611MPD2    C2 9105   4.159   3.006  10.079 -0.1714  0.5578  0.8416
  611MPD2    C3 9106   4.227   3.107  10.146  0.4445 -0.1493 -0.7716
  611MPD2    C4 9107   4.169   3.167  10.255  0.0739  0.3565  0.9290
  611MPD2    C5 9108   4.052   3.114  10.315  0.2936 -0.5434  0.3208
  611MPD2     H 9109   4.207   2.967   9.990 -0.2428  2.3301  0.0197
  611MPD2    H1 9110   4.209   3.255  10.306  0.6712  0.7169 -0.1700
  611MPD2    H2 9111   3.901   2.970  10.298  0.2370  0.8919  1.2367
  611MPD2    H3 9112   4.015   3.147  10.411 -1.6813 -2.2545  0.1498
  611MPD2     N 9113   4.349   3.153  10.085  0.5373 -0.1931  0.8211
  611MPD2    H5 9114   4.378   3.114   9.996  0.4068 -1.0570  1.1594
  611MPD2    N1 9115   3.957   2.860  10.075 -0.4465 -0.6216  0.6122
  611MPD2    H7 9116   3.873   2.829  10.123 -0.9460 -2.2959 -1.3611
  612TMC3    C1 9117   4.551   3.294  10.093 -0.6532 -0.5314 -0.0247
  612TMC3    C2 9118   4.645   3.325  10.195 -0.7193  0.7352 -0.0582
  612TMC3    C3 9119   4.726   3.434  10.172 -0.4549 -0.1517  0.1605
  612TMC3    C4 9120   4.539   3.373   9.982 -0.3215  0.0153  0.1527
  612TMC3    C5 9121   4.630   3.473   9.961  0.0072 -0.1106 -0.0510
  612TMC3    C6 9122   4.728   3.511  10.052 -0.2958  0.2361 -0.5736
  612TMC3     C 9123   4.431   3.244  10.155 -0.2333  1.0911 -0.0657
  612TMC3     O 9124   4.420   3.294  10.266 -0.1010 -0.1139  0.3338
  612TMC3     H 9125   4.642   3.271  10.289  1.4857 -1.8683 -1.4977
  612TMC3    H1 9126   4.468   3.352   9.903 -0.2846  1.2003 -0.1915
  612TMC3    H2 9127   0.071   3.578  10.016  2.0510 -1.5435  1.0673
  612TMC3    C7 9128   4.621   3.549   9.836  0.6627 -0.5036  0.0573
  612TMC3    C8 9129   0.070   3.491  10.277  0.2338  0.0124  0.2387
  612TMC3    O1 9130   4.573   3.502   9.735  0.5385  0.1626  0.4803
  612TMC3    O2 9131   0.094   3.608  10.273  0.5012  0.0920 -0.2937
  613MPD2     C 9132   3.498   0.371  16.481  0.2729 -0.1265  0.6717
  613MPD2    C1 9133   3.406   0.312  16.406 -0.1492  0.3298  0.4190
  613MPD2    C2 9134   3.388   0.177  16.414  0.6343  0.5885 -0.2200
  613MPD2    C3 9135   3.480   0.100  16.490 -0.1025 -0.3589 -0.0977
  613MPD2    C4 9136   3.571   0.163  16.570  0.2268 -0.0292  0.2590
  613MPD2    C5 9137   3.580   0.307  16.567 -0.2664 -0.1061  0.0976
  613MPD2     H 9138   3.306   0.126  16.363  1.5588 -1.7168  0.5730
  613MPD2    H1 9139   3.649   0.112  16.625 -0.5976  1.5697  2.8988
  613MPD2    H2 9140   3.509   0.477  16.464 -0.7662 -0.1113  0.1073
  613MPD2    H3 9141   3.645   0.360  16.636 -0.3297 -0.3982  0.3777
  613MPD2     N 9142   3.496   4.695  16.483  0.3089  0.1635 -0.1145
  613MPD2    H5 9143   3.578   4.659  16.531  0.7140  1.2736  0.0257
  613MPD2    N1 9144   3.338   0.373  16.299 -0.1811 -0.3246  0.2619
  613MPD2    H7 9145   3.386   0.443  16.242 -1.2717 -0.6398 -1.0655
  614TMC3    C1 9146   3.238   0.315  16.091  0.8402  0.0654  0.3371
  614TMC3    C2 9147   3.352   0.245  16.052 -0.3495 -0.8464  0.1636
  614TMC3    C3 9148   3.344   0.174  15.932  0.6770  0.0401  0.8846
  614TMC3    C4 9149   3.127   0.325  16.012 -0.3988  0.2952  0.3286
  614TMC3    C5 9150   3.131   0.260  15.894 -0.5131  0.2757 -0.0246
  614TMC3    C6 9151   3.236   0.188  15.844 -0.0640  0.4473 -0.1627
  614TMC3     C 9152   3.224   0.321  16.239  0.0868 -0.7450 -0.0943
  614TMC3     O 9153   3.139   0.248  16.290 -0.2054 -0.1204 -0.2442
  614TMC3     H 9154   3.429   0.227  16.126 -0.3006  1.8756  0.7881
  614TMC3    H1 9155   3.052   0.395  16.047  0.9645  1.4348  0.9527
  614TMC3    H2 9156   3.232   0.131  15.752 -1.8608  1.3893 -0.6670
  614TMC3    C7 9157   3.029   0.309  15.800 -0.0174 -0.0634 -0.2214
  614TMC3    C8 9158   3.434   0.064  15.926 -1.4744 -0.1368  0.0198
  614TMC3    O1 9159   2.943   0.389  15.834  0.1281  0.0729 -0.0592
  614TMC3    O2 9160   3.495   0.028  16.027  0.1271 -0.0747  0.7154
  615MPD2     C 9161   3.074   1.213  16.579 -0.0585  0.2255 -0.2473
  615MPD2    C1 9162   3.172   1.271  16.497 -0.7656 -0.5703  0.1638
  615MPD2    C2 9163   3.148   1.321  16.369 -0.3494 -0.1936  0.7924
  615MPD2    C3 9164   3.020   1.310  16.326  0.5387 -0.4568 -0.0254
  615MPD2    C4 9165   2.916   1.259  16.406 -0.3645 -0.5602  0.4404
  615MPD2    C5 9166   2.942   1.215  16.534 -0.5142  0.6540 -0.2037
  615MPD2     H 9167   3.231   1.360  16.311 -0.8309 -1.7391 -0.9259
  615MPD2    H1 9168   2.816   1.243  16.366  0.5926 -1.6866 -1.5201
  615MPD2    H2 9169   3.100   1.159  16.669  3.3420  0.0243 -1.3630
  615MPD2    H3 9170   2.867   1.161  16.591 -1.8431  0.7628 -1.8484
  615MPD2     N 9171   2.990   1.371  16.202 -0.0158 -0.1832 -0.6844
  615MPD2    H5 9172   2.894   1.350  16.175 -0.9899  2.0365  1.1285
  615MPD2    N1 9173   3.309   1.294  16.549  0.4401 -0.6104  0.1559
  615MPD2    H7 9174   3.373   1.352  16.495  1.1419 -0.2589  1.3679
  616TMC3    C1 9175   3.504   1.267  16.686 -0.0464  0.3405  0.0243
  616TMC3    C2 9176   3.572   1.318  16.579  0.4402  0.2177  0.3108
  616TMC3    C3 9177   3.703   1.359  16.600 -0.0347 -0.1351 -0.3549
  616TMC3    C4 9178   3.563   1.251  16.812  0.1579  0.2484  0.3351
  616TMC3    C5 9179   3.695   1.297  16.822  0.2736 -0.5784 -0.2190
  616TMC3    C6 9180   3.772   1.348  16.721 -0.9005  0.2712  0.1988
  616TMC3     C 9181   3.358   1.255  16.674 -0.0345 -0.3164  0.1252
  616TMC3     O 9182   3.300   1.203  16.767 -0.9156  0.8437  0.1325
  616TMC3     H 9183   3.536   1.320  16.477  0.5749  2.1983  0.3032
  616TMC3    H1 9184   3.508   1.220  16.900 -1.1622  1.9740  0.1110
  616TMC3    H2 9185   3.877   1.368  16.734 -1.9114  3.4521  3.2726
  616TMC3    C7 9186   3.756   1.293  16.957 -0.2739  0.2086 -0.2823
  616TMC3    C8 9187   3.777   1.406  16.485  0.0089  0.0937  0.7155
  616TMC3    O1 9188   3.833   1.391  16.980  0.4658  0.0011 -0.1534
  616TMC3    O2 9189   3.760   1.348  16.381  0.1309 -0.5105  0.5099
  617MPD2     C 9190   0.845   4.344  13.949 -0.6652  0.3232  0.4396
  617MPD2    C1 9191   0.871   4.235  14.036  0.6425  0.0412  0.0438
  617MPD2    C2 9192   0.774   4.158  14.090  0.6480 -1.0766 -0.3101
  617MPD2    C3 9193   0.645   4.178  14.047  0.2271 -0.0501 -0.9958
  617MPD2    C4 9194   0.624   4.272  13.948 -0.1962 -0.7228 -0.2647
  617MPD2    C5 9195   0.721   4.354  13.897 -0.9678  0.1939  0.2172
  617MPD2     H 9196   0.802   4.074  14.152  1.4947  0.1980  1.0420
  617MPD2    H1 9197   0.523   4.281  13.912 -1.4113 -1.1997  3.0359
  617MPD2    H2 9198   0.923   4.404  13.903  1.1469 -0.7878  2.0268
  617MPD2    H3 9199   0.686   4.428  13.827 -0.0971 -0.3391 -0.7843
  617MPD2     N 9200   0.537   4.098  14.094  0.7099 -0.7418  0.1910
  617MPD2    H5 9201   0.443   4.119  14.063  0.7303 -1.7026 -0.5157
  617MPD2    N1 9202   1.009   4.212  14.061  0.7680 -0.2720  0.5369
  617MPD2    H7 9203   1.076   4.285  14.040  2.1045 -0.9723  2.3727
  618TMC3    C1 9204   1.204   4.114  14.138  0.2570  0.9250  0.9323
  618TMC3    C2 9205   1.275   4.009  14.096  0.0366 -0.3144  0.1035
  618TMC3    C3 9206   1.411   4.022  14.093  0.0275  1.1299 -0.1245
  618TMC3    C4 9207   1.259   4.223  14.197  1.2069 -0.4820  0.1510
  618TMC3    C5 9208   1.395   4.230  14.189 -0.5120  0.3208 -0.2549
  618TMC3    C6 9209   1.473   4.129  14.147  0.2703 -0.6222 -0.1802
  618TMC3     C 9210   1.060   4.107  14.129  0.5624 -0.2385  0.0195
  618TMC3     O 9211   1.017   3.993  14.134  0.9153 -0.5944 -1.0051
  618TMC3     H 9212   1.226   3.919  14.060  0.3324 -0.9097  1.2087
  618TMC3    H1 9213   1.202   4.305  14.240  0.0996 -1.5994  0.7992
  618TMC3    H2 9214   1.579   4.148  14.135  0.3414 -2.0951 -1.9131
  618TMC3    C7 9215   1.454   4.346  14.259 -0.0806  0.0193  0.5261
  618TMC3    C8 9216   1.483   3.922  14.010 -0.6299 -0.2119 -0.0096
  618TMC3    O1 9217   1.418   4.363  14.379  0.3188  0.5963 -0.0379
  618TMC3    O2 9218   1.410   3.859  13.936 -0.1367 -0.6146 -0.2433
  619MPD2     C 9219   2.511   0.718  14.170 -0.6568 -0.4854 -0.2710
  619MPD2    C1 9220   2.449   0.747  14.051 -0.3798  0.0664  0.1269
  619MPD2    C2 9221   2.313   0.759  14.048  0.4228 -0.0476  0.0323
  619MPD2    C3 9222   2.237   0.750  14.158  0.0599 -0.3312 -0.7515
  619MPD2    C4 9223   2.303   0.727  14.281 -0.7144  0.5534 -0.1477
  619MPD2    C5 9224   2.439   0.708  14.286  0.4720 -0.2185 -0.3127
  619MPD2     H 9225   2.265   0.778  13.952  1.2070  0.4926 -0.2561
  619MPD2    H1 9226   2.254   0.725  14.378 -0.4123 -1.9698 -0.0294
  619MPD2    H2 9227   2.615   0.688  14.175 -0.2474  0.9645  0.1571
  619MPD2    H3 9228   2.483   0.676  14.380  1.9914 -0.8318 -1.2331
  619MPD2     N 9229   2.091   0.768  14.151  0.6193 -0.1737 -0.4103
  619MPD2    H5 9230   2.056   0.807  14.065  1.1714  1.0489 -0.0766
  619MPD2    N1 9231   2.520   0.769  13.931  0.8143  0.5537  0.0466
  619MPD2    H7 9232   2.468   0.794  13.847 -0.7143 -0.2999  0.7422
  620TMC3    C1 9233   2.684   0.784  13.780  0.8434 -0.5854 -0.8136
  620TMC3    C2 9234   2.609   0.710  13.696  0.2511 -0.4821  0.3585
  620TMC3    C3 9235   2.580   0.758  13.568 -0.2410  0.8449 -0.6547
  620TMC3    C4 9236   2.734   0.905  13.740 -0.3085  0.0332 -0.1807
  620TMC3    C5 9237   2.731   0.937  13.610  0.2675 -0.5193  0.7871
  620TMC3    C6 9238   2.655   0.863  13.520 -0.1943  0.0301 -0.3793
  620TMC3     C 9239   2.651   0.767  13.913  0.5095 -0.7091  0.1014
  620TMC3     O 9240   2.744   0.787  13.995 -0.6872  0.5958 -0.2692
  620TMC3     H 9241   2.564   0.621  13.737  0.7143  0.1271  2.2054
  620TMC3    H1 9242   2.783   0.967  13.814  1.8845  1.0572 -2.5260
  620TMC3    H2 9243   2.629   0.904  13.423 -0.2172 -0.3917 -0.5511
  620TMC3    C7 9244   2.739   1.080  13.575 -0.4774 -0.2473  0.1888
  620TMC3    C8 9245   2.443   0.800  13.565 -0.5387 -0.2044  0.7049
  620TMC3    O1 9246   2.699   1.117  13.464 -0.0330 -0.2896  0.4876
  620TMC3    O2 9247   2.427   0.921  13.549  0.2097 -0.7123 -0.4595
  621MPD2     C 9248   3.397   0.640  10.634 -0.9850 -0.4687  0.8791
  621MPD2    C1 9249   3.293   0.688  10.563  0.9875 -0.2054  0.2722
  621MPD2    C2 9250   3.310   0.795  10.485 -0.0376  0.8424  0.0071
  621MPD2    C3 9251   3.430   0.869  10.483 -0.6582 -0.3372  0.2227
  621MPD2    C4 9252   3.539   0.814  10.542  0.0919 -0.5540  0.2724
  621MPD2    C5 9253   3.522   0.706  10.622 -0.1705 -0.2040 -0.7960
  621MPD2     H 9254   3.228   0.826  10.422  0.3231 -0.7986 -1.2790
  621MPD2    H1 9255   3.643   0.845  10.535 -0.6466  1.6512 -0.6105
  621MPD2    H2 9256   3.387   0.557  10.703 -2.8734 -2.4001 -1.7482
  621MPD2    H3 9257   3.609   0.656  10.664  0.5607  0.0035 -2.0396
  621MPD2     N 9258   3.433   0.991  10.404  0.5921 -0.6027 -0.0378
  621MPD2    H5 9259   3.355   1.006  10.341 -0.3453 -1.6286  0.8870
  621MPD2    N1 9260   3.166   0.632  10.570  0.4593  0.2618  0.4136
  621MPD2    H7 9261   3.095   0.677  10.514  1.2937 -0.9026 -1.5649
  622TMC3    C1 9262   2.981   0.512  10.671 -0.6777 -0.3774 -0.2466
  622TMC3    C2 9263   2.909   0.631  10.656 -0.5982 -0.1203 -1.0668
  622TMC3    C3 9264   2.775   0.618  10.669  0.0944  0.4631  0.6335
  622TMC3    C4 9265   2.921   0.395  10.700  0.1590  0.0765  0.1641
  622TMC3    C5 9266   2.785   0.392  10.705 -1.2036  0.2308  0.2034
  622TMC3    C6 9267   2.720   0.505  10.714 -0.2690 -0.6350 -0.8339
  622TMC3     C 9268   3.125   0.514  10.636 -0.2090 -0.5075 -0.4993
  622TMC3     O 9269   3.194   0.422  10.675 -0.0609 -0.0212  0.2197
  622TMC3     H 9270   2.957   0.726  10.638 -0.2419 -0.1130 -0.0851
  622TMC3    H1 9271   2.974   0.301  10.712  1.7733  0.6513 -2.5075
  622TMC3    H2 9272   2.611   0.503  10.711 -0.2752  0.7785 -1.9263
  622TMC3    C7 9273   2.717   0.276  10.759  0.0040 -0.2299  0.0868
  622TMC3    C8 9274   2.678   0.723  10.633 -0.4805  0.1086 -0.0097
  622TMC3    O1 9275   2.601   0.277  10.799  0.0062  0.4762  0.1271
  622TMC3    O2 9276   2.564   0.721  10.683  0.5820  0.2796  0.4311
  623MPD2     C 9277   1.423   1.541  15.800 -0.2539 -0.0168 -0.4699
  623MPD2    C1 9278   1.342   1.458  15.868 -0.4392  0.0741  0.2270
  623MPD2    C2 9279   1.385   1.417  15.992  0.1162  0.2932  0.3025
  623MPD2    C3 9280   1.511   1.451  16.048  0.0389  0.8996 -0.2685
  623MPD2    C4 9281   1.586   1.545  15.982 -0.1736  0.0378  0.1693
  623MPD2    C5 9282   1.539   1.586  15.856 -0.2205 -0.4484  0.1047
  623MPD2     H 9283   1.313   1.364  16.054 -0.6400 -0.5865 -1.3136
  623MPD2    H1 9284   1.683   1.574  16.022 -0.3963  0.3372  0.4923
  623MPD2    H2 9285   1.393   1.578  15.703  1.1146 -0.2986 -1.0007
  623MPD2    H3 9286   1.592   1.659  15.796 -2.5457  2.3619  1.5248
  623MPD2     N 9287   1.537   1.397  16.173 -0.3496  0.0815 -0.2381
  623MPD2    H5 9288   1.472   1.328  16.211  1.2069 -0.9508  0.5383
  623MPD2    N1 9289   1.219   1.416  15.813 -0.8015 -0.1344  0.2020
  623MPD2    H7 9290   1.174   1.466  15.737 -2.0776 -1.1913  0.2568
  624TMC3    C1 9291   1.695   1.386  16.603  0.2030  0.1714  0.0121
  624TMC3    C2 9292   1.566   1.378  16.653  0.4081  0.0593 -0.9051
  624TMC3    C3 9293   1.461   1.368  16.568 -0.1221  0.4729 -0.2435
  624TMC3    C4 9294   1.721   1.398  16.469 -0.8748 -0.2211 -0.8768
  624TMC3    C5 9295   1.617   1.389  16.383 -0.0612  0.8722 -0.3838
  624TMC3    C6 9296   1.487   1.371  16.432  0.0429 -0.0756 -0.2042
  624TMC3     C 9297   1.801   1.417  16.697 -0.4338 -0.0859  0.3270
  624TMC3     O 9298   1.801   1.385  16.809  0.4287 -0.0756 -0.0907
  624TMC3     H 9299   1.551   1.370  16.760  1.3140  0.1624 -0.7695
  624TMC3    H1 9300   1.820   1.387  16.426 -0.2407  2.1827 -0.0372
  624TMC3    H2 9301   1.404   1.361  16.363 -1.1771  2.4260  0.9000
  624TMC3    C7 9302   1.647   1.428  16.250  0.1651 -0.2890  0.2955
  624TMC3    C8 9303   1.320   1.364  16.608 -0.4355  0.1183 -0.1293
  624TMC3    O1 9304   1.753   1.479  16.222  0.0473  0.2178  0.1788
  624TMC3    O2 9305   1.238   1.371  16.518 -0.8795 -0.2609  0.1944
  625MPD2     C 9306   1.812   2.542   0.676  0.9043 -0.3027 -0.2154
  625MPD2    C1 9307   1.798   2.674   0.705 -0.4473 -0.4603 -0.6176
  625MPD2    C2 9308   1.910   2.749   0.725 -0.1136 -0.7059 -0.0320
  625MPD2    C3 9309   2.035   2.694   0.717  0.2320 -0.1721  0.5967
  625MPD2    C4 9310   2.052   2.563   0.683 -0.3247 -0.3279 -0.0279
  625MPD2    C5 9311   1.940   2.486   0.662 -0.6018  0.0571  0.0196
  625MPD2     H 9312   1.893   2.853   0.750 -0.4476 -1.0929  1.3399
  625MPD2    H1 9313   2.147   2.513   0.668 -0.7122 -0.1623 -2.9131
  625MPD2    H2 9314   1.734   2.467   0.669  1.2623 -0.8715  1.7189
  625MPD2    H3 9315   1.956   2.380   0.643 -0.9094  0.1540 -0.7976
  625MPD2     N 9316   2.145   2.776   0.746 -0.3055  0.3968  0.0646
  625MPD2    H5 9317   2.132   2.873   0.773 -0.0615 -0.0102  1.5986
  625MPD2    N1 9318   1.664   2.733   0.715 -0.1485 -0.3174  0.0082
  625MPD2    H7 9319   1.656   2.828   0.748 -1.0058 -1.1483  2.1775
  626TMC3    C1 9320   1.440   2.745   0.752 -0.0888  0.0183  0.6589
  626TMC3    C2 9321   1.434   2.870   0.691 -0.7962 -0.7293  0.1226
  626TMC3    C3 9322   1.311   2.935   0.683 -0.3096  0.1943 -0.1094
  626TMC3    C4 9323   1.323   2.699   0.810 -0.2912  1.1411  0.2381
  626TMC3    C5 9324   1.216   2.779   0.829 -0.6422  0.5330 -0.1259
  626TMC3    C6 9325   1.209   2.894   0.764 -0.5262  0.0625 -0.3593
  626TMC3     C 9326   1.555   2.656   0.735  0.0410 -0.0211 -0.3188
  626TMC3     O 9327   1.538   2.537   0.760 -0.0014  0.0274 -0.3432
  626TMC3     H 9328   1.519   2.902   0.631 -0.2941  0.4171  1.4542
  626TMC3    H1 9329   1.330   2.601   0.856 -1.7189  0.8762 -0.0996
  626TMC3    H2 9330   1.131   2.969   0.773  1.5094  2.1100  0.2886
  626TMC3    C7 9331   1.111   2.729   0.915 -0.7187  0.1179  0.0935
  626TMC3    C8 9332   1.300   3.022   0.566 -0.7816  0.0400 -0.7214
  626TMC3    O1 9333   1.131   2.617   0.968  0.5053  0.1857  0.3155
  626TMC3    O2 9334   1.401   3.041   0.501 -0.4634  0.1768  0.3476
  627MPD2     C 9335   0.797   3.017  14.394  0.5127  0.2803 -0.0693
  627MPD2    C1 9336   0.702   3.037  14.492 -0.3650 -1.0341  0.2662
  627MPD2    C2 9337   0.563   3.033  14.457  0.0339  0.7150 -0.2619
  627MPD2    C3 9338   0.524   3.007  14.325 -0.0830  0.2714  0.2078
  627MPD2    C4 9339   0.620   3.000  14.228 -0.3643 -0.0482 -0.3775
  627MPD2    C5 9340   0.752   3.000  14.268  0.1615 -0.7170  0.2293
  627MPD2     H 9341   0.498   3.026  14.543 -0.9487  0.6066 -1.0043
  627MPD2    H1 9342   0.602   2.972  14.125 -1.6109  1.0633 -0.4665
  627MPD2    H2 9343   0.903   3.023  14.416  0.8066 -0.8149 -1.2252
  627MPD2    H3 9344   0.829   2.975  14.195  1.2250  0.0472  1.0823
  627MPD2     N 9345   0.389   2.983  14.298  0.4832 -0.3213  0.0558
  627MPD2    H5 9346   0.328   2.975  14.379  0.0591  1.0414 -0.1295
  627MPD2    N1 9347   0.733   3.062  14.621  0.2097 -0.5362  0.4179
  627MPD2    H7 9348   0.656   3.068  14.686 -2.9937 -0.0028 -3.4461
  628TMC3    C1 9349   0.836   3.080  14.829 -0.0969  0.2252 -0.1193
  628TMC3    C2 9350   0.924   3.041  14.932  0.0025 -0.1780  0.1451
  628TMC3    C3 9351   0.904   3.094  15.057 -0.1878 -0.3134  0.5626
  628TMC3    C4 9352   0.742   3.179  14.857  1.2217  0.0410  0.0485
  628TMC3    C5 9353   0.733   3.242  14.980 -0.2281  0.3606 -0.7759
  628TMC3    C6 9354   0.806   3.183  15.079 -0.2017 -0.3274 -0.4702
  628TMC3     C 9355   0.848   3.036  14.692 -0.2942  0.3006  0.5726
  628TMC3     O 9356   0.957   3.011  14.648  0.1799 -0.5934  0.6746
  628TMC3     H 9357   1.008   2.974  14.921 -0.1892 -0.7026  1.9182
  628TMC3    H1 9358   0.684   3.228  14.780 -0.0928 -3.1896 -0.9716
  628TMC3    H2 9359   0.797   3.234  15.174  0.5171 -1.8127  0.3948
  628TMC3    C7 9360   0.710   3.384  14.988  1.1928 -0.1693  0.1717
  628TMC3    C8 9361   1.017   3.117  15.131 -0.9998 -0.3087  0.3998
  628TMC3    O1 9362   0.764   3.436  15.083  0.4630 -0.0794 -0.7385
  628TMC3    O2 9363   1.022   3.232  15.172  0.5888 -0.0105 -0.6275
  629MPD2     C 9364   4.046   1.773  16.281  0.0353 -0.0443 -0.0173
  629MPD2    C1 9365   4.061   1.785  16.420  0.2079 -0.5058  0.7068
  629MPD2    C2 9366   4.007   1.681  16.496  0.4539  0.7097 -0.1926
  629MPD2    C3 9367   3.923   1.593  16.438 -0.7767  0.4053 -0.4819
  629MPD2    C4 9368   3.906   1.596  16.300 -0.0028  0.2393  0.5322
  629MPD2    C5 9369   3.969   1.679  16.220 -0.1732 -0.0093 -0.0601
  629MPD2     H 9370   4.020   1.676  16.603  0.4086  0.4207 -0.2010
  629MPD2    H1 9371   3.838   1.524  16.256  0.4497 -0.2234  0.5898
  629MPD2    H2 9372   4.097   1.832  16.205 -0.0311  0.0702  0.0264
  629MPD2    H3 9373   3.957   1.680  16.112  0.5087 -2.6908 -0.1613
  629MPD2     N 9374   3.858   1.506  16.527  0.2072 -0.4489  0.3408
  629MPD2    H5 9375   3.867   1.533  16.625  0.5967  0.3873  0.0778
  629MPD2    N1 9376   4.148   1.883  16.471  0.0707  0.1140  0.1588
  629MPD2    H7 9377   4.163   1.878  16.572 -1.4149 -0.9159  0.3363
  630TMC3    C1 9378   4.301   2.060  16.499  0.3636 -0.0442  0.1598
  630TMC3    C2 9379   4.285   2.196  16.517 -0.0123  0.6332  0.1268
  630TMC3    C3 9380   4.339   2.256  16.629  0.2489  0.3181  0.7335
  630TMC3    C4 9381   4.358   1.986  16.601 -0.6454  0.9202  0.3061
  630TMC3    C5 9382   4.391   2.052  16.719 -0.8411 -0.0674  0.1111
  630TMC3    C6 9383   4.387   2.188  16.736  0.0618 -0.2102 -0.4280
  630TMC3     C 9384   4.216   1.985  16.409  0.4075 -0.8027  0.3773
  630TMC3     O 9385   4.216   2.031  16.296 -0.9627  0.5312 -0.4772
  630TMC3     H 9386   4.237   2.252  16.437 -0.3602  1.4902  0.9325
  630TMC3    H1 9387   4.347   1.879  16.596 -1.9787  1.1145 -1.3629
  630TMC3    H2 9388   4.446   2.239  16.812 -1.1409  0.3953  0.0973
  630TMC3    C7 9389   4.345   1.974  16.828  0.1800  0.2585 -0.5226
  630TMC3    C8 9390   4.326   2.399  16.645  0.2844 -0.0626 -0.1779
  630TMC3    O1 9391   4.292   1.868  16.803  0.2896  0.3574  0.0722
  630TMC3    O2 9392   4.388   2.446  16.735  0.5110 -0.4290 -0.4786
  631MPD2     C 9393   2.858   2.215  15.676 -0.2778  0.7258 -0.1757
  631MPD2    C1 9394   2.765   2.122  15.632 -0.1882 -0.0013  0.2715
  631MPD2    C2 9395   2.799   1.986  15.630 -0.0434 -0.3963 -0.0901
  631MPD2    C3 9396   2.923   1.942  15.680 -0.4258 -0.2848  0.0734
  631MPD2    C4 9397   3.013   2.039  15.720  0.1627 -0.4081 -0.0569
  631MPD2    C5 9398   2.979   2.168  15.713 -0.5911 -0.5711 -0.0358
  631MPD2     H 9399   2.726   1.916  15.592  0.3077 -0.7997 -0.0249
  631MPD2    H1 9400   3.116   2.016  15.745  1.1571  2.1795 -1.8258
  631MPD2    H2 9401   2.841   2.322  15.678 -1.9184  0.4488  0.9955
  631MPD2    H3 9402   3.056   2.243  15.724  0.2145 -1.4781  0.4880
  631MPD2     N 9403   2.937   1.802  15.691 -0.3541  0.4133 -0.6832
  631MPD2    H5 9404   2.861   1.744  15.657 -0.4081  1.0519 -1.6617
  631MPD2    N1 9405   2.643   2.177  15.602 -0.8329 -0.1146  0.2391
  631MPD2    H7 9406   2.632   2.275  15.626 -0.6220 -0.4103  1.5034
  632TMC3    C1 9407   2.433   2.209  15.513  1.1347  1.0266 -0.2313
  632TMC3    C2 9408   2.351   2.209  15.623  0.4120 -0.4425  0.0756
  632TMC3    C3 9409   2.219   2.213  15.598 -0.6197 -0.0168  0.7402
  632TMC3    C4 9410   2.389   2.215  15.390 -0.4712  0.7204 -0.1938
  632TMC3    C5 9411   2.258   2.243  15.374 -0.4948  0.0016  0.4430
  632TMC3    C6 9412   2.168   2.247  15.478  0.7357 -0.3986 -0.2638
  632TMC3     C 9413   2.548   2.124  15.515 -0.6574  0.1555  0.2000
  632TMC3     O 9414   2.565   2.024  15.446  0.1584  0.2413 -0.1657
  632TMC3     H 9415   2.385   2.193  15.725 -0.8154 -1.9058  0.2541
  632TMC3    H1 9416   2.463   2.223  15.311 -0.4470  0.4908 -0.1938
  632TMC3    H2 9417   2.062   2.262  15.461  0.6510  0.2410  0.8608
  632TMC3    C7 9418   2.197   2.260  15.248 -0.2682 -0.1222  0.3182
  632TMC3    C8 9419   2.135   2.203  15.716  0.6027  0.8004 -0.2762
  632TMC3    O1 9420   2.074   2.266  15.253 -0.0182  0.3251 -0.0877
  632TMC3    O2 9421   2.189   2.204  15.825  0.1372  0.1627  0.2539
  633MPD2     C 9422   1.226   4.422  17.436  0.0972  0.2566 -0.8225
  633MPD2    C1 9423   1.352   4.422  17.380 -0.6003 -0.0364 -0.4531
  633MPD2    C2 9424   1.445   4.332  17.428  0.6356  0.1285  0.1177
  633MPD2    C3 9425   1.415   4.247  17.534  0.5545  0.4066 -0.2215
  633MPD2    C4 9426   1.286   4.245  17.574  0.2293  0.4612  0.2875
  633MPD2    C5 9427   1.195   4.335  17.534 -0.1544  0.0585 -0.0872
  633MPD2     H 9428   1.548   4.328  17.394  0.3701 -0.8523 -0.5689
  633MPD2    H1 9429   1.257   4.166  17.643  0.0438  1.1805  1.0235
  633MPD2    H2 9430   1.151   4.489  17.395  0.5706  0.0177 -2.0953
  633MPD2    H3 9431   1.094   4.321  17.571  0.0824 -0.4101  0.3818
  633MPD2     N 9432   1.490   4.132  17.559 -0.1687  0.2393 -0.0631
  633MPD2    H5 9433   1.446   4.051  17.602 -0.3538  0.1362 -0.4518
  633MPD2    N1 9434   1.386   4.496  17.269 -0.1156  0.0442 -0.4146
  633MPD2    H7 9435   1.478   4.478  17.230  0.6307  0.0965  1.3328
  634TMC3    C1 9436   1.356   4.632  17.076  0.3531  0.3836  0.5294
  634TMC3    C2 9437   1.447   4.538  17.020 -0.3645 -0.6356 -0.0637
  634TMC3    C3 9438   1.475   4.567  16.892 -0.4776  0.1642  0.0695
  634TMC3    C4 9439   1.294   0.004  17.016  0.7731 -0.1643  0.1333
  634TMC3    C5 9440   1.341   0.031  16.883  0.7041 -0.0454 -0.0492
  634TMC3    C6 9441   1.425   4.677  16.818 -0.1435  0.2147 -0.5185
  634TMC3     C 9442   1.305   4.584  17.200 -0.4339 -0.0528  0.0364
  634TMC3     O 9443   1.195   4.628  17.224 -0.0811 -0.6277  0.6969
  634TMC3     H 9444   1.485   4.450  17.071  1.4890 -1.0499 -2.1813
  634TMC3    H1 9445   1.230   0.078  17.062  0.2205  0.0812 -1.0278
  634TMC3    H2 9446   1.462   4.680  16.716 -2.3679 -1.0832 -1.3715
  634TMC3    C7 9447   1.294   0.139  16.793 -0.0733 -0.1035 -0.3538
  634TMC3    C8 9448   1.529   4.451  16.823 -0.5014  0.0607  0.1620
  634TMC3    O1 9449   1.338   0.136  16.678  0.1080 -1.0444 -0.2186
  634TMC3    O2 9450   1.512   4.342  16.878  0.1566 -0.1191 -0.0123
  635TMC3    C1 9451   1.896   0.906  17.484 -0.7990 -0.7108  0.2464
  635TMC3    C2 9452   1.909   0.878  17.348 -0.3634 -0.2843 -0.3901
  635TMC3    C3 9453   1.827   0.781  17.292  0.5101  0.1068  0.4586
  635TMC3    C4 9454   1.801   0.849  17.562 -0.4137  0.4754 -0.3618
  635TMC3    C5 9455   1.727   0.753  17.499  0.2644  0.3788 -0.4177
  635TMC3    C6 9456   1.738   0.708  17.371 -0.0352 -0.8505  0.6018
  635TMC3     C 9457   2.003   0.981  17.551  0.5764  0.9108  0.7174
  635TMC3     O 9458   1.973   1.023  17.665 -0.0373 -0.8132  0.5997
  635TMC3     H 9459   1.969   0.937  17.280  1.8010 -2.4387 -0.3768
  635TMC3    H1 9460   1.792   0.858  17.670  0.8930  0.2399 -0.2353
  635TMC3    H2 9461   1.665   0.643  17.326 -0.5108 -0.1207  0.3152
  635TMC3    C7 9462   1.627   0.681  17.580  0.1378  0.1082  0.5472
  635TMC3    C8 9463   1.815   0.756  17.149 -0.5024 -0.4901  0.1517
  635TMC3    O1 9464   1.596   0.743  17.677  0.3848 -0.5181 -0.4773
  635TMC3    O2 9465   1.724   0.684  17.112 -0.6015  0.3146  0.8867
  636MPD2     C 9466   2.859   4.698  16.021  0.2744 -0.4659 -0.2669
  636MPD2    C1 9467   2.940   0.031  16.112 -0.4238  0.0945 -0.4080
  636MPD2    C2 9468   3.048   4.689  16.163  0.2940  0.3576 -0.1254
  636MPD2    C3 9469   3.069   4.557  16.124  0.0987  1.0581 -0.6440
  636MPD2    C4 9470   2.982   4.498  16.040 -0.0283 -0.2051  0.5391
  636MPD2    C5 9471   2.877   4.567  15.988  0.1046 -0.1460  0.8236
  636MPD2     H 9472   3.111   4.728  16.242  0.8437 -1.3540  0.2701
  636MPD2    H1 9473   2.997   4.394  16.013  2.7521  0.6877 -1.3790
  636MPD2    H2 9474   2.769   0.012  15.984  0.0713 -2.2618 -2.1736
  636MPD2    H3 9475   2.805   4.530  15.916  1.6775 -1.2771 -0.1620
  636MPD2     N 9476   3.177   4.490  16.180 -0.1201  0.3605 -0.4765
  636MPD2    H5 9477   3.227   4.552  16.244  0.2998 -0.3353 -0.1278
  636MPD2    N1 9478   2.908   0.157  16.162  0.2110 -0.1510 -0.6614
  636MPD2    H7 9479   2.981   0.206  16.213 -1.2728  1.5429 -0.1570
  637TMC3    C1 9480   3.351   4.343  16.240 -0.7480 -0.1947  0.2388
  637TMC3    C2 9481   3.351   4.424  16.349 -0.8871  0.9130  0.1546
  637TMC3    C3 9482   3.465   4.482  16.386  0.5570  0.3997  0.6997
  637TMC3    C4 9483   3.461   4.311  16.162 -0.7690 -0.3903  0.5379
  637TMC3    C5 9484   3.577   4.378  16.192 -0.0292  0.1890  0.0927
  637TMC3    C6 9485   3.580   4.464  16.300  0.7657 -0.6083  0.4916
  637TMC3     C 9486   3.237   4.363  16.151 -0.6841  0.8891  0.1113
  637TMC3     O 9487   3.223   4.296  16.050 -0.3690  0.2542 -0.2393
  637TMC3     H 9488   3.267   4.441  16.415 -1.1700 -0.0575  0.0529
  637TMC3    H1 9489   3.454   4.244  16.077  2.0153 -3.4531  2.7130
  637TMC3    H2 9490   3.674   4.515  16.316  1.1084 -0.5402 -1.6995
  637TMC3    C7 9491   3.692   4.372  16.103 -0.5964  0.1923  0.1634
  637TMC3    C8 9492   3.425   4.616  16.399 -0.6362 -0.4054  0.3671
  637TMC3    O1 9493   3.771   4.469  16.110  0.6365  0.3209 -0.1801
  637TMC3    O2 9494   3.326   4.646  16.331  0.2545  0.2064 -0.4040
  638MPD2     C 9495   2.512   3.756  14.909  0.0385  0.7275  0.0830
  638MPD2    C1 9496   2.567   3.646  14.852 -0.5300 -0.5789  0.5592
  638MPD2    C2 9497   2.560   3.518  14.909  0.6504 -0.2762  0.5685
  638MPD2    C3 9498   2.493   3.495  15.022  0.2639 -0.3061 -0.8413
  638MPD2    C4 9499   2.420   3.603  15.073  0.5259  0.1965  0.2865
  638MPD2    C5 9500   2.434   3.730  15.025 -0.5791  0.9691  0.2772
  638MPD2     H 9501   2.608   3.436  14.857  0.8034  0.0017  0.2722
  638MPD2    H1 9502   2.368   3.586  15.167 -1.4905 -1.1427 -1.0704
  638MPD2    H2 9503   2.524   3.860  14.879  0.8659  1.4533  2.9470
  638MPD2    H3 9504   2.391   3.813  15.079 -0.5695  1.3210 -0.2541
  638MPD2     N 9505   2.483   3.362  15.067 -0.1446  0.1983  0.5633
  638MPD2    H5 9506   2.534   3.291  15.016 -1.8118 -1.1292  0.7195
  638MPD2    N1 9507   2.613   3.665  14.719 -0.7444 -0.5595 -0.3869
  638MPD2    H7 9508   2.635   3.755  14.677 -2.6683 -1.0809 -2.5165
  639TMC3    C1 9509   2.430   3.181  15.214 -0.0159  0.0780 -0.5523
  639TMC3    C2 9510   2.324   3.105  15.256  0.1129  0.5409  0.2303
  639TMC3    C3 9511   2.346   2.971  15.286 -0.5491 -0.3161  0.2647
  639TMC3    C4 9512   2.556   3.133  15.202 -0.4678  0.3780  0.1796
  639TMC3    C5 9513   2.581   3.011  15.257  0.0231 -0.5080  0.4833
  639TMC3    C6 9514   2.476   2.928  15.299 -0.8983  0.2341 -0.4261
  639TMC3     C 9515   2.400   3.315  15.171 -0.6930  0.3814  0.1024
  639TMC3     O 9516   2.304   3.368  15.224 -0.4020  0.1195 -0.1807
  639TMC3     H 9517   2.228   3.148  15.229  1.4570  1.4806 -3.1020
  639TMC3    H1 9518   2.643   3.197  15.186  0.7286 -1.3278 -0.0681
  639TMC3    H2 9519   2.502   2.830  15.336 -1.9965 -0.6382 -1.9573
  639TMC3    C7 9520   2.710   2.944  15.251  0.0844 -0.3008 -0.4821
  639TMC3    C8 9521   2.286   2.877  15.200 -0.1877  0.8106 -0.2578
  639TMC3    O1 9522   2.733   2.851  15.326 -0.1962 -0.6413 -0.0307
  639TMC3    O2 9523   2.359   2.788  15.154  0.2230  0.1932  0.4239
  640MPD2     C 9524   4.067   3.245   9.649 -0.6585 -0.1509  0.4524
  640MPD2    C1 9525   4.032   3.125   9.711 -0.9139 -0.3330  0.0330
  640MPD2    C2 9526   3.925   3.115   9.795 -0.3195  0.2648  0.2691
  640MPD2    C3 9527   3.846   3.219   9.823 -0.4033 -0.2750 -0.2464
  640MPD2    C4 9528   3.874   3.340   9.757 -0.1051  0.2156  0.1450
  640MPD2    C5 9529   3.978   3.356   9.666 -0.2626  0.3938 -0.6206
  640MPD2     H 9530   3.908   3.027   9.855  1.9999  0.4340  1.1700
  640MPD2    H1 9531   3.803   3.422   9.769  1.0108  0.9865  1.4189
  640MPD2    H2 9532   4.164   3.264   9.605 -1.2524  1.1080 -0.3177
  640MPD2    H3 9533   3.982   3.448   9.608 -1.4403  0.9986  0.2731
  640MPD2     N 9534   3.738   3.215   9.906 -0.3186  0.0026  0.0112
  640MPD2    H5 9535   3.705   3.307   9.934 -1.1937  0.0006 -1.0126
  640MPD2    N1 9536   4.109   3.012   9.677 -0.0020 -0.2428  0.3057
  640MPD2    H7 9537   4.088   2.929   9.732  0.2729  0.3168  1.2665
  641TMC3    C1 9538   4.255   2.865   9.567 -0.3027  0.1032  0.2594
  641TMC3    C2 9539   4.297   2.803   9.682  0.2322  0.2116 -0.1835
  641TMC3    C3 9540   4.379   2.700   9.676 -0.5711  0.6674 -0.4408
  641TMC3    C4 9541   4.300   2.832   9.446 -0.1414  0.4654 -0.6496
  641TMC3    C5 9542   4.385   2.725   9.439 -0.2164 -0.8835 -0.0281
  641TMC3    C6 9543   4.419   2.652   9.554  0.6574  0.6672  0.8034
  641TMC3     C 9544   4.195   3.001   9.571  0.0784  0.0146  0.2212
  641TMC3     O 9545   4.198   3.073   9.473  0.1629  0.1069  0.3014
  641TMC3     H 9546   4.281   2.855   9.776  0.6745 -1.0981  0.6063
  641TMC3    H1 9547   4.270   2.884   9.356  1.8507  3.0725  0.1860
  641TMC3    H2 9548   4.474   2.559   9.555  0.4155  0.5657  3.9308
  641TMC3    C7 9549   4.399   2.657   9.310  0.0623  0.1011  0.4549
  641TMC3    C8 9550   4.421   2.620   9.791 -0.3521  0.3316  0.7420
  641TMC3    O1 9551   4.467   2.555   9.301  0.7876  0.5357 -0.5957
  641TMC3    O2 9552   4.488   2.515   9.778  0.5546  0.2809  0.0283
  642TMC3    C1 9553   4.364   3.512  13.031 -0.3023 -0.3099 -0.6575
  642TMC3    C2 9554   4.497   3.537  13.004  0.0967  0.1311 -0.0566
  642TMC3    C3 9555   4.541   3.486  12.884 -0.0782 -0.0559  0.1765
  642TMC3    C4 9556   4.279   3.429  12.952  0.3071  0.9311 -0.7739
  642TMC3    C5 9557   4.332   3.372  12.837  0.8185  0.1009  0.3607
  642TMC3    C6 9558   4.458   3.408  12.801  0.6359 -0.6817  0.7681
  642TMC3     C 9559   4.305   3.607  13.127 -0.1113  0.2446  0.0362
  642TMC3     O 9560   4.380   3.674  13.197  0.0096 -0.3406  0.6693
  642TMC3     H 9561   4.552   3.600  13.072  2.2064  0.1671 -1.7897
  642TMC3    H1 9562   4.182   3.400  12.991  1.2406 -1.2423 -0.0762
  642TMC3    H2 9563   4.484   3.383  12.699 -0.0014 -0.8370  0.6459
  642TMC3    C7 9564   4.246   3.306  12.739 -0.4304 -0.4713  0.0095
  642TMC3    C8 9565   4.665   3.520  12.826  0.4541  0.1876 -0.5509
  642TMC3    O1 9566   4.278   3.307  12.623  0.4045  0.6759 -0.3493
  642TMC3    O2 9567   4.713   3.455  12.735 -0.6376  0.4011 -0.8352
  643TMC3    C1 9568   3.260   2.366  17.441 -0.4099  0.1570 -0.0245
  643TMC3    C2 9569   3.134   2.363  17.394  0.5049 -0.1209 -0.0231
  643TMC3    C3 9570   3.113   2.308  17.269  0.2784  0.5145  0.8591
  643TMC3    C4 9571   3.368   2.335  17.360  0.1055  0.3991 -0.5409
  643TMC3    C5 9572   3.340   2.288  17.234  0.2156  0.6021 -0.2174
  643TMC3    C6 9573   3.215   2.264  17.190 -0.8842 -0.3741 -0.2534
  643TMC3     C 9574   3.269   2.482  17.534  0.1679 -0.3362  0.1335
  643TMC3     O 9575   3.202   2.580  17.526  0.1654  0.1814  0.2891
  643TMC3     H 9576   3.056   2.400  17.460  0.3487 -0.1094 -0.2145
  643TMC3    H1 9577   3.466   2.378  17.376  0.5008 -0.3644 -0.9191
  643TMC3    H2 9578   3.185   2.217  17.097 -1.8390 -1.7783  0.7581
  643TMC3    C7 9579   3.411   2.353  17.128 -0.0260 -0.0226  0.9948
  643TMC3    C8 9580   3.049   2.406  17.185  0.1386  0.0096 -0.8404
  643TMC3    O1 9581   3.498   2.431  17.166 -0.2312 -0.4840  0.7342
  643TMC3    O2 9582   3.005   2.377  17.070  0.3610  0.3438  0.0386
  644MPD2     C 9583   4.241   3.636   9.677  0.0448  0.3536  0.1307
  644MPD2    C1 9584   4.258   3.581   9.542  0.4120  0.5488 -0.2731
  644MPD2    C2 9585   4.174   3.621   9.440  0.4260 -0.4703 -0.5637
  644MPD2    C3 9586   4.068   3.708   9.466 -0.4186 -0.4284  0.2435
  644MPD2    C4 9587   4.054   3.756   9.596 -0.1354  0.5455 -0.2630
  644MPD2    C5 9588   4.136   3.717   9.701 -0.0346 -0.4535  0.3574
  644MPD2     H 9589   4.196   3.588   9.339  0.3141 -2.1356 -0.0479
  644MPD2    H1 9590   3.972   3.815   9.637  0.4616  1.0899  0.1340
  644MPD2    H2 9591   4.301   3.606   9.763  0.3044  1.0982  0.2162
  644MPD2    H3 9592   4.119   3.766   9.796 -1.2410  2.9191 -1.6162
  644MPD2     N 9593   3.972   3.739   9.365 -0.0204  0.3507  0.8078
  644MPD2    H5 9594   3.981   3.680   9.283 -3.6441 -0.2143  0.8202
  644MPD2    N1 9595   4.367   3.494   9.525 -0.3019  0.6861 -0.0394
  644MPD2    H7 9596   4.426   3.479   9.606  0.7098 -1.5094 -1.1928
  645TMC3    C1 9597   3.766   3.796   9.272 -0.1270  0.2045 -0.4198
  645TMC3    C2 9598   3.809   3.871   9.167  0.1227  0.6020 -0.5122
  645TMC3    C3 9599   3.707   3.899   9.081 -0.7404  0.0302  0.0772
  645TMC3    C4 9600   3.635   3.754   9.292  0.5947 -0.5870  0.0362
  645TMC3    C5 9601   3.541   3.782   9.200  0.0310 -0.1680  0.8200
  645TMC3    C6 9602   3.581   3.852   9.092  0.4670  0.6760  0.5630
  645TMC3     C 9603   3.859   3.809   9.385 -0.7095 -0.2506 -0.9244
  645TMC3     O 9604   3.833   3.897   9.468  0.1885  0.3124 -0.0896
  645TMC3     H 9605   3.908   3.915   9.168 -0.3831  1.7062  2.4636
  645TMC3    H1 9606   3.606   3.714   9.388  4.0846  0.8808  1.7032
  645TMC3    H2 9607   3.509   3.887   9.019 -1.5421 -0.7764  1.8160
  645TMC3    C7 9608   3.403   3.750   9.223  0.3365  0.8823  0.1581
  645TMC3    C8 9609   3.721   4.012   8.987 -0.3114  0.6011  0.1240
  645TMC3    O1 9610   3.324   3.809   9.153  0.2538 -0.1876  0.1227
  645TMC3    O2 9611   3.628   4.068   8.933 -0.3663 -0.1717  0.2095
  646MPD2     C 9612   3.038   2.574  14.573 -0.1262 -0.2339 -0.6400
  646MPD2    C1 9613   2.988   2.455  14.628  0.3206  0.2183 -0.2248
  646MPD2    C2 9614   2.849   2.440  14.642  0.0018 -0.2852  0.1189
  646MPD2    C3 9615   2.765   2.530  14.576 -0.4164 -0.0841 -0.5395
  646MPD2    C4 9616   2.817   2.653  14.525 -0.4171  0.4660 -0.7391
  646MPD2    C5 9617   2.952   2.669  14.527  0.5291 -0.3591 -0.0435
  646MPD2     H 9618   2.813   2.343  14.674 -0.7095  0.7890  2.5503
  646MPD2    H1 9619   2.757   2.735  14.490 -1.0273  0.2774 -0.1404
  646MPD2    H2 9620   3.144   2.591  14.557 -0.4445 -0.2637 -2.7813
  646MPD2    H3 9621   2.986   2.760  14.478  3.6203 -1.3812  0.2494
  646MPD2     N 9622   2.629   2.510  14.567 -0.1321 -0.2369 -0.7445
  646MPD2    H5 9623   2.587   2.448  14.636  2.0221  0.2738  1.0293
  646MPD2    N1 9624   3.080   2.350  14.659 -0.2606  0.0307  0.6713
  646MPD2    H7 9625   3.174   2.358  14.622 -1.1311  0.4514 -1.4610
  647TMC3    C1 9626   3.160   2.144  14.745 -0.1604 -0.3297 -0.2204
  647TMC3    C2 9627   3.119   2.019  14.780  0.7480  0.3963  0.4637
  647TMC3    C3 9628   3.210   1.929  14.828  1.1192 -0.1454 -0.1284
  647TMC3    C4 9629   3.293   2.179  14.746  0.1076  0.0452 -0.0408
  647TMC3    C5 9630   3.381   2.090  14.797 -0.1825  0.2223  0.4491
  647TMC3    C6 9631   3.343   1.965  14.837  0.5315  0.1934 -0.8210
  647TMC3     C 9632   3.052   2.236  14.729  0.5434 -0.0029  0.1338
  647TMC3     O 9633   2.950   2.204  14.787  0.0716 -0.0906 -0.5841
  647TMC3     H 9634   3.013   1.994  14.774  0.2929  2.1735  1.0093
  647TMC3    H1 9635   3.329   2.274  14.707 -1.8376  0.3558 -1.0986
  647TMC3    H2 9636   3.405   1.897  14.896  1.8062  1.4426 -0.7407
  647TMC3    C7 9637   3.516   2.120  14.844 -0.1531 -0.1020 -0.1239
  647TMC3    C8 9638   3.166   1.819  14.910  0.2309  0.0278  0.5419
  647TMC3    O1 9639   3.552   2.076  14.952  0.1329 -0.1591  0.4855
  647TMC3    O2 9640   3.245   1.738  14.946  0.1309  0.3966  0.4810
  648TMC3    C1 9641   2.068   4.494  16.192  0.1880  0.0263 -0.3116
  648TMC3    C2 9642   2.148   4.388  16.161 -0.1771 -0.4078 -0.2082
  648TMC3    C3 9643   2.160   4.366  16.030  0.1135  0.0517 -0.5624
  648TMC3    C4 9644   2.002   4.575  16.100 -0.4122 -0.7225 -0.2788
  648TMC3    C5 9645   2.028   4.551  15.967  0.3951 -0.2080 -0.0309
  648TMC3    C6 9646   2.101   4.446  15.928  0.3234  0.3517 -0.0419
  648TMC3     C 9647   2.071   4.539  16.336 -0.9451  0.0656 -0.3693
  648TMC3     O 9648   2.039   4.656  16.355  0.5106 -0.1698 -0.3126
  648TMC3     H 9649   2.209   4.345  16.240 -0.3057  0.3125  0.2860
  648TMC3    H1 9650   1.947   4.662  16.132 -0.1865  0.1553 -2.3040
  648TMC3    H2 9651   2.109   4.422  15.822 -1.0825  1.2042 -0.3461
  648TMC3    C7 9652   1.972   4.645  15.865  0.7194  0.2451 -0.0890
  648TMC3    C8 9653   2.242   4.256  15.980  0.6417  0.0025  0.1134
  648TMC3    O1 9654   2.007   4.632  15.749  0.3545 -0.5818  0.3627
  648TMC3    O2 9655   2.242   4.241  15.860 -0.1926  0.3727  0.1267
  649TMC3    C1 9656   1.194   1.103  13.281  0.6373 -0.3949 -0.1372
  649TMC3    C2 9657   1.318   1.038  13.286 -0.1739 -0.4611 -0.3741
  649TMC3    C3 9658   1.339   0.955  13.394  0.3298  0.4041  0.4064
  649TMC3    C4 9659   1.096   1.067  13.364  0.0410  0.3161  0.4112
  649TMC3    C5 9660   1.117   0.962  13.449  0.5112  0.0460  0.1539
  649TMC3    C6 9661   1.236   0.907  13.465 -0.2354 -0.2801  0.7884
  649TMC3     C 9662   1.176   1.223  13.202 -0.6784  0.6361 -0.2158
  649TMC3     O 9663   1.087   1.302  13.225 -0.0097  0.5416 -0.1589
  649TMC3     H 9664   1.398   1.055  13.215  0.1821 -1.2052 -0.1583
  649TMC3    H1 9665   0.994   1.095  13.342  0.0665 -1.2981 -1.7718
  649TMC3    H2 9666   1.254   0.829  13.539 -1.6539  0.7965  2.2584
  649TMC3    C7 9667   1.013   0.928  13.535 -0.2584  0.0062 -0.4890
  649TMC3    C8 9668   1.473   0.932  13.440 -0.3161 -0.2563 -1.0553
  649TMC3    O1 9669   0.907   0.985  13.530  0.2736 -0.4479 -0.0290
  649TMC3    O2 9670   1.487   0.844  13.523 -0.3177  0.2002 -0.0014
  650TMC3    C1 9671   3.545   2.751  12.926  0.7747  0.6390  0.1408
  650TMC3    C2 9672   3.472   2.829  13.012  0.3165  0.2906 -0.5741
  650TMC3    C3 9673   3.344   2.870  12.979  0.1113 -0.2960  0.2175
  650TMC3    C4 9674   3.499   2.718  12.805  0.3927 -0.0845 -0.9855
  650TMC3    C5 9675   3.376   2.767  12.773 -0.3251 -0.3060 -0.4098
  650TMC3    C6 9676   3.297   2.833  12.859 -0.3725  0.2204  0.5035
  650TMC3     C 9677   3.646   2.674  12.986  0.1221  0.2866 -0.1549
  650TMC3     O 9678   3.696   2.717  13.087  0.7791 -0.3457  0.2567
  650TMC3     H 9679   3.515   2.861  13.107 -1.7587  0.3940  0.3169
  650TMC3    H1 9680   3.563   2.666  12.735  0.6267 -1.0893 -0.0385
  650TMC3    H2 9681   3.205   2.880  12.826  1.5581  1.9862 -2.2737
  650TMC3    C7 9682   3.347   2.787  12.634 -0.6747  0.3789  0.1135
  650TMC3    C8 9683   3.297   2.991  13.042 -0.9034 -0.1602  0.6309
  650TMC3    O1 9684   3.408   2.717  12.552  0.5567 -0.0460  0.1405
  650TMC3    O2 9685   3.370   3.051  13.116 -0.2929 -0.1115 -0.6146
  651MPD2     C 9686   2.842   0.201  11.107  0.0108 -0.4481 -0.3818
  651MPD2    C1 9687   2.781   0.334  11.103  0.7549  0.2441 -0.0644
  651MPD2    C2 9688   2.856   0.443  11.068  0.5949  0.7375 -0.1220
  651MPD2    C3 9689   2.992   0.433  11.059  0.0348  0.0083 -0.3272
  651MPD2    C4 9690   3.054   0.307  11.064 -0.2145  0.7527  0.1672
  651MPD2    C5 9691   2.979   0.197  11.091 -0.1317 -0.5222 -0.4266
  651MPD2     H 9692   2.808   0.540  11.061 -2.5665 -0.8096  0.1279
  651MPD2    H1 9693   3.162   0.298  11.069 -0.1890  2.0804  2.2225
  651MPD2    H2 9694   2.781   0.115  11.131 -2.1182  1.0903 -0.3178
  651MPD2    H3 9695   3.030   0.103  11.106 -0.5654 -0.6441  0.2496
  651MPD2     N 9696   3.072   0.546  11.034  0.2295  0.1415 -0.2843
  651MPD2    H5 9697   3.024   0.636  11.040 -0.8892 -0.4669 -0.0819
  651MPD2    N1 9698   2.642   0.346  11.106 -0.2276 -1.1138 -0.1373
  651MPD2    H7 9699   2.605   0.417  11.042  0.6784 -2.0383 -1.6826
  652TMC3    C1 9700   3.448   0.827  10.987 -0.6768 -0.8264 -0.3225
  652TMC3    C2 9701   3.397   0.710  11.027  0.0932  0.7054  0.2436
  652TMC3    C3 9702   3.267   0.678  10.997 -0.4756  0.3089 -0.2852
  652TMC3    C4 9703   3.387   0.912  10.898  0.2624  0.1729 -1.0648
  652TMC3    C5 9704   3.261   0.871  10.855  0.0998  0.6962  0.4258
  652TMC3    C6 9705   3.200   0.758  10.904  0.2225 -0.9447  0.6061
  652TMC3     C 9706   3.590   0.834  11.004  0.2255  0.1592  0.0574
  652TMC3     O 9707   3.634   0.773  11.100 -0.1993 -0.1731 -0.0037
  652TMC3     H 9708   3.454   0.656  11.102 -1.3828 -0.3402  0.6155
  652TMC3    H1 9709   3.421   1.014  10.892  1.3287 -0.0667  0.8855
  652TMC3    H2 9710   3.096   0.732  10.887  0.8323 -1.3994 -2.2747
  652TMC3    C7 9711   3.174   0.961  10.781 -0.1576 -0.2372  0.4682
  652TMC3    C8 9712   3.209   0.549  11.012 -0.0793  0.0760 -0.4437
  652TMC3    O1 9713   3.062   0.918  10.745  0.0456  0.0131 -0.2582
  652TMC3    O2 9714   3.294   0.463  11.031 -0.0004 -0.1557  0.0845
  653MPD2     C 9715   0.961   4.646   0.012  0.4502 -0.0362  0.0480
  653MPD2    C1 9716   0.909   4.715  17.639  0.3825 -0.0683  0.6149
  653MPD2    C2 9717   0.843   4.650  17.536  0.0998  0.3625  0.7647
  653MPD2    C3 9718   0.811   4.516  17.550 -0.8601  0.5709  0.3077
  653MPD2    C4 9719   0.860   4.443  17.660 -0.0358  0.1494 -0.3048
  653MPD2    C5 9720   0.927   4.514   0.025 -0.2328  0.8524  0.4619
  653MPD2     H 9721   0.819   4.702  17.444 -0.9808  1.0249  1.4169
  653MPD2    H1 9722   0.859   4.336  17.677 -1.0013  0.6717  2.9625
  653MPD2    H2 9723   1.026   4.692   0.085 -1.6324  0.2668  1.7294
  653MPD2    H3 9724   0.964   4.460   0.111 -1.3664  0.1681  0.5127
  653MPD2     N 9725   0.744   4.445  17.446 -0.1178  0.6916  0.6273
  653MPD2    H5 9726   0.717   4.497  17.363  2.0265 -0.1727 -0.6147
  653MPD2    N1 9727   0.921   0.120  17.621  0.4220  0.2664  0.2953
  653MPD2    H7 9728   0.871   0.152  17.539 -0.7168 -2.0741  0.0916
  654TMC3    C1 9729   0.667   4.272  17.297 -0.0552 -0.1992  0.4077
  654TMC3    C2 9730   0.631   4.374  17.214 -0.5616 -0.2734  0.9161
  654TMC3    C3 9731   0.663   4.368  17.081  0.2376 -0.9151 -0.3388
  654TMC3    C4 9732   0.731   4.161  17.243  0.4261 -0.1132 -0.4788
  654TMC3    C5 9733   0.766   4.151  17.113 -0.2629 -0.4086  0.0940
  654TMC3    C6 9734   0.725   4.254  17.030  0.3300 -0.7889 -0.2098
  654TMC3     C 9735   0.733   4.312  17.429  0.6689  0.6205 -0.6767
  654TMC3     O 9736   0.798   4.226  17.488 -0.4422 -0.1506 -0.1932
  654TMC3     H 9737   0.566   4.453  17.250 -3.3716 -1.9057 -0.4932
  654TMC3    H1 9738   0.735   4.079  17.313  0.2018 -1.0808 -1.6172
  654TMC3    H2 9739   0.759   4.255  16.927 -0.6082  0.4081 -0.5176
  654TMC3    C7 9740   0.799   4.020  17.062 -0.1122 -1.2073  0.0157
  654TMC3    C8 9741   0.587   4.463  16.999  0.3533 -0.0504  0.2562
  654TMC3    O1 9742   0.781   4.002  16.939  0.3891  0.4573  0.2421
  654TMC3    O2 9743   0.487   4.517  17.043 -0.2179 -0.2578 -0.0742
  655MPD2     C 9744   2.530   0.028  15.797 -0.0043  0.7167  0.3145
  655MPD2    C1 9745   2.445   0.111  15.727  0.6759  0.2918 -0.7305
  655MPD2    C2 9746   2.466   0.134  15.588  0.2319 -0.4677  0.6944
  655MPD2    C3 9747   2.562   0.056  15.515 -0.0330  0.1085  0.2246
  655MPD2    C4 9748   2.645   4.710  15.587 -0.0404  0.0330 -0.0374
  655MPD2    C5 9749   2.631   4.700  15.722  0.1220  0.2943 -0.2381
  655MPD2     H 9750   2.399   0.203  15.538 -0.6523 -0.4402  1.9304
  655MPD2    H1 9751   2.718   4.651  15.531 -0.7230  0.5234 -1.4512
  655MPD2    H2 9752   2.516   0.015  15.904 -1.7670 -0.9187 -0.1068
  655MPD2    H3 9753   2.704   4.629  15.760  0.9312  1.1001 -0.2597
  655MPD2     N 9754   2.568   0.047  15.375  0.5884  0.3100 -0.4365
  655MPD2    H5 9755   2.601   4.697  15.330 -0.0257  1.1394 -2.4241
  655MPD2    N1 9756   2.335   0.178  15.782  0.0929 -0.1017 -0.3499
  655MPD2    H7 9757   2.294   0.241  15.714  0.9486 -0.1768 -0.9320
  656TMC3    C1 9758   2.173   0.253  15.925 -0.3084 -0.3234  0.8458
  656TMC3    C2 9759   2.099   0.242  16.038  0.0845 -0.6145 -0.1247
  656TMC3    C3 9760   2.005   0.339  16.066  0.0106  0.1416  0.7988
  656TMC3    C4 9761   2.176   0.374  15.858  0.2180 -0.5047 -0.5487
  656TMC3    C5 9762   2.089   0.474  15.899  0.5901  0.0987 -0.3485
  656TMC3    C6 9763   1.996   0.460  15.999  0.2821  0.1032 -0.4760
  656TMC3     C 9764   2.277   0.164  15.904 -0.3905 -0.3995 -0.2998
  656TMC3     O 9765   2.298   0.085  15.995  0.0652 -0.2345 -0.5227
  656TMC3     H 9766   2.089   0.145  16.084 -2.0063 -0.8948 -1.1492
  656TMC3    H1 9767   2.236   0.392  15.770  0.7561 -1.9549 -0.4727
  656TMC3    H2 9768   1.929   0.539  16.028  0.7373  0.2912  0.0478
  656TMC3    C7 9769   2.063   0.566  15.794 -0.2281 -0.0298 -0.2972
  656TMC3    C8 9770   1.882   0.291  16.138  0.0901 -0.6933 -0.9409
  656TMC3    O1 9771   2.150   0.592  15.709  0.2802  0.2604 -0.4966
  656TMC3    O2 9772   1.868   0.172  16.165  0.0594  0.0839  0.1053
  657TMC3    C1 9773   1.382   4.019  14.914 -0.0891  0.1109 -0.3417
  657TMC3    C2 9774   1.439   4.076  15.027  0.6995  0.6419 -0.4906
  657TMC3    C3 9775   1.438   4.210  15.039 -0.3331 -0.3050 -0.3522
  657TMC3    C4 9776   1.323   4.096  14.816 -0.9677  0.1883  1.1796
  657TMC3    C5 9777   1.330   4.231  14.829  0.8178 -0.1661 -0.0635
  657TMC3    C6 9778   1.374   4.283  14.947  0.1391  0.2302  0.5808
  657TMC3     C 9779   1.420   3.884  14.876  0.4536  0.4208  0.3212
  657TMC3     O 9780   1.363   3.818  14.788  0.1795  0.4326  0.1512
  657TMC3     H 9781   1.492   4.026  15.106 -1.5532  2.2847  2.0694
  657TMC3    H1 9782   1.283   4.040  14.732 -1.1561  0.3506  1.1616
  657TMC3    H2 9783   1.377   4.390  14.963  1.5589  0.4300 -0.9932
  657TMC3    C7 9784   1.266   4.333  14.741 -0.6064  0.4354  0.3274
  657TMC3    C8 9785   1.415   4.262  15.179 -0.1951  0.1275  0.2040
  657TMC3    O1 9786   1.285   4.449  14.765 -0.2710  0.0204  0.2045
  657TMC3    O2 9787   1.468   4.366  15.210 -0.2722 -0.0988  0.1768
  658MPD2     C 9788   2.676   4.281  14.777  0.1177  0.0985 -0.1948
  658MPD2    C1 9789   2.650   4.417  14.763  0.0605 -0.2628  0.0680
  658MPD2    C2 9790   2.686   4.480  14.642 -0.5093  0.7986  0.4998
  658MPD2    C3 9791   2.753   4.412  14.544  0.5815  0.1716 -0.2331
  658MPD2    C4 9792   2.776   4.279  14.558  0.4292  0.3345  0.9646
  658MPD2    C5 9793   2.736   4.212  14.675  0.8886 -0.6438  0.2675
  658MPD2     H 9794   2.651   4.580  14.618  2.1303  1.2803 -1.3887
  658MPD2    H1 9795   2.837   4.222  14.489 -1.0235  0.0945 -0.1185
  658MPD2    H2 9796   2.646   4.222  14.863 -1.5035  1.1455 -0.0362
  658MPD2    H3 9797   2.769   4.111  14.695  1.5305 -0.2683  1.0961
  658MPD2     N 9798   2.770   4.480  14.426  0.1268 -0.1655 -0.4963
  658MPD2    H5 9799   2.730   4.573  14.435  2.0097  0.5892  0.0213
  658MPD2    N1 9800   2.586   4.490  14.863  0.5722 -0.3265 -0.4044
  658MPD2    H7 9801   2.526   4.441  14.929 -0.8589 -0.8949 -2.1464
  659TMC3    C1 9802   2.524   4.654  15.001  0.4221 -0.1936 -0.7222
  659TMC3    C2 9803   2.577   4.731  15.094  0.3573 -0.9405  0.7568
  659TMC3    C3 9804   2.500   0.100  15.155 -0.3193 -0.7164  0.9343
  659TMC3    C4 9805   2.397   4.668  14.961  0.6760 -0.3422  0.1974
  659TMC3    C5 9806   2.318   0.026  15.031 -0.0981  0.8411  0.2882
  659TMC3    C6 9807   2.371   0.102  15.130 -0.3110  0.0452 -0.6993
  659TMC3     C 9808   2.611   4.621  14.892 -0.7280  0.2682 -0.4295
  659TMC3     O 9809   2.698   4.695  14.843  0.1396 -0.4056  1.2067
  659TMC3     H 9810   2.683   4.721  15.110  0.5146  1.8826  1.5066
  659TMC3    H1 9811   2.353   4.597  14.891  0.5022 -0.4449  0.4092
  659TMC3    H2 9812   2.310   0.175  15.182  0.3705  0.7089 -0.8316
  659TMC3    C7 9813   2.176   0.015  15.049 -0.2461 -0.1278 -0.3924
  659TMC3    C8 9814   2.538   0.151  15.290 -0.5920 -0.2294  0.2228
  659TMC3    O1 9815   2.126   0.065  15.150  0.1799 -0.0426 -0.0393
  659TMC3    O2 9816   2.497   0.263  15.313 -0.0306  0.4063  0.2644
  660MPD2     C 9817   0.957   3.916  12.926 -0.4458  0.4372  0.8660
  660MPD2    C1 9818   0.828   3.944  12.897  0.6276  0.2997 -0.2120
  660MPD2    C2 9819   0.728   3.851  12.936 -0.2065  0.6750 -0.2078
  660MPD2    C3 9820   0.758   3.742  13.013  0.5461 -0.2510 -0.6837
  660MPD2    C4 9821   0.886   3.733  13.058 -0.1052 -0.2515  0.0959
  660MPD2    C5 9822   0.985   3.816  13.012  0.1188 -0.1823  0.1856
  660MPD2     H 9823   0.627   3.863  12.899 -0.4899  0.1956  0.4086
  660MPD2    H1 9824   0.922   3.657  13.126 -0.3470 -1.1125 -0.7431
  660MPD2    H2 9825   1.039   3.979  12.893  0.4600 -2.5412 -2.4800
  660MPD2    H3 9826   1.084   3.797  13.053  0.7274 -1.0783 -1.7117
  660MPD2     N 9827   0.662   3.649  13.049 -0.6317  0.4592  0.4737
  660MPD2    H5 9828   0.697   3.561  13.087  0.5786  1.2542  1.1781
  660MPD2    N1 9829   0.805   4.057  12.806 -0.5219 -0.3477 -0.0086
  660MPD2    H7 9830   0.885   4.094  12.757 -1.1341  0.0851 -0.6902
  661TMC3    C1 9831   0.678   4.207  12.671 -0.6586 -0.5874  0.3962
  661TMC3    C2 9832   0.787   4.247  12.598 -1.2166  0.8767 -0.0019
  661TMC3    C3 9833   0.767   4.333  12.491 -0.6526  0.1346  0.8199
  661TMC3    C4 9834   0.550   4.254  12.638  0.4540  0.3796  0.7542
  661TMC3    C5 9835   0.539   4.346  12.534 -0.3297  0.1095  0.5495
  661TMC3    C6 9836   0.648   4.391  12.457 -0.3043  0.4704 -0.0251
  661TMC3     C 9837   0.679   4.101  12.774 -0.0341  0.4726  0.3097
  661TMC3     O 9838   0.571   4.078  12.833  0.0762 -0.2946  0.4330
  661TMC3     H 9839   0.887   4.206  12.610 -1.8897 -0.9867 -0.7034
  661TMC3    H1 9840   0.467   4.225  12.701 -0.2693 -0.0903 -0.4227
  661TMC3    H2 9841   0.621   4.444  12.367 -0.0274 -0.3097 -0.5713
  661TMC3    C7 9842   0.421   4.320  12.461 -0.8249 -0.4440 -0.1269
  661TMC3    C8 9843   0.871   4.342  12.397  0.1149  0.5036  0.5006
  661TMC3    O1 9844   0.399   4.378  12.358  0.1241  0.2087  0.4840
  661TMC3    O2 9845   0.951   4.251  12.396 -0.3204 -0.3337  0.6752
  662MPD2     C 9846   0.631   3.594  17.402 -0.0376  0.5482  0.3669
  662MPD2    C1 9847   0.631   3.482  17.482 -0.1991 -0.3695  0.1159
  662MPD2    C2 9848   0.538   3.472  17.579  0.2187  0.6051  0.0243
  662MPD2    C3 9849   0.434   3.564  17.593 -0.0807 -0.3144  0.3039
  662MPD2    C4 9850   0.447   3.683  17.515 -0.4002  0.0618 -0.3397
  662MPD2    C5 9851   0.543   3.697  17.423  0.8341 -0.3669 -0.1626
  662MPD2     H 9852   0.539   3.383  17.641  0.1961  0.5455 -0.0614
  662MPD2    H1 9853   0.384   3.768  17.537 -0.2770  0.6512 -2.2679
  662MPD2    H2 9854   0.705   3.609  17.325 -0.8019  4.0520  0.3050
  662MPD2    H3 9855   0.557   3.789  17.367  0.3291  0.4003  0.9761
  662MPD2     N 9856   0.317   3.542  17.669  0.5202 -0.0796 -0.6647
  662MPD2    H5 9857   0.243   3.611  17.662  1.5605  0.9860 -1.2250
  662MPD2    N1 9858   0.740   3.384  17.481 -0.4048 -0.0971 -0.4373
  662MPD2    H7 9859   0.747   3.315  17.555 -1.0283 -1.9952 -2.1743
  663TMC3    C1 9860   0.883   3.224  17.394 -0.1550 -0.7883  0.3176
  663TMC3    C2 9861   0.942   3.192  17.520  0.1289  0.3652  0.0714
  663TMC3    C3 9862   1.040   3.100  17.522  0.2207 -0.0429 -0.3943
  663TMC3    C4 9863   0.910   3.145  17.284 -0.2923  0.8308 -0.8348
  663TMC3    C5 9864   0.987   3.032  17.305  0.1050 -0.7460 -0.1537
  663TMC3    C6 9865   1.040   2.996  17.431  0.7024 -0.2521 -0.8045
  663TMC3     C 9866   0.800   3.341  17.369 -0.3529 -0.4724  0.9111
  663TMC3     O 9867   0.783   3.376  17.256  0.3407 -0.8610 -0.5086
  663TMC3     H 9868   0.940   3.269  17.596 -0.1618  0.0106  0.4219
  663TMC3    H1 9869   0.869   3.166  17.186 -1.2093 -1.1945 -0.8797
  663TMC3    H2 9870   1.107   2.912  17.445  0.1557 -0.6619 -0.6653
  663TMC3    C7 9871   0.981   2.938  17.196 -0.1421 -0.6557 -0.1787
  663TMC3    C8 9872   1.072   3.042  17.654 -0.7423  0.9648 -0.3430
  663TMC3    O1 9873   0.930   2.974  17.089  0.8417  0.3703  0.0694
  663TMC3    O2 9874   1.185   2.992  17.658  0.4376  0.2990  0.0143
  664MPD2     C 9875   3.407   1.334  17.165  0.2121  0.2363  0.0200
  664MPD2    C1 9876   3.501   1.412  17.227  0.3400  0.3561 -0.0580
  664MPD2    C2 9877   3.524   1.393  17.364 -0.2035 -0.0139 -0.1682
  664MPD2    C3 9878   3.455   1.298  17.437 -0.1344 -0.2122  0.2486
  664MPD2    C4 9879   3.351   1.225  17.368 -0.7773  0.3195 -0.9422
  664MPD2    C5 9880   3.335   1.239  17.235 -0.7104 -0.0511 -0.0602
  664MPD2     H 9881   3.609   1.444  17.408 -0.2885 -0.5658  0.6367
  664MPD2    H1 9882   3.304   1.137  17.410 -0.0972  0.1578 -0.5068
  664MPD2    H2 9883   3.380   1.333  17.060  0.4921 -0.5019 -0.0444
  664MPD2    H3 9884   3.268   1.171  17.184 -0.9374  0.4636 -0.4493
  664MPD2     N 9885   3.488   1.283  17.570  0.5981  0.6744 -0.7889
  664MPD2    H5 9886   3.560   1.342  17.610  1.2372  0.7705 -2.0745
  664MPD2    N1 9887   3.570   1.516  17.168 -0.1067 -0.0321  0.8132
  664MPD2    H7 9888   3.632   1.571  17.228  0.1035  1.2967 -0.6171
  665TMC3    C1 9889   3.445   1.235   0.067  0.7926 -0.5639 -0.2871
  665TMC3    C2 9890   3.358   1.196   0.164 -0.2243 -0.9531  0.3677
  665TMC3    C3 9891   3.368   1.246   0.288  0.1540 -0.5142 -0.2182
  665TMC3    C4 9892   3.549   1.312   0.094 -0.4128 -0.7607  0.1410
  665TMC3    C5 9893   3.558   1.376   0.220 -0.4896  0.1495 -0.3678
  665TMC3    C6 9894   3.468   1.338   0.313  0.0136  0.1497  0.8180
  665TMC3     C 9895   3.407   1.219  17.667 -0.2134 -0.4189 -0.5431
  665TMC3     O 9896   3.297   1.167  17.649  0.0245  0.1856 -0.3082
  665TMC3     H 9897   3.277   1.126   0.145 -1.2628  0.4453 -0.3498
  665TMC3    H1 9898   3.629   1.329   0.022 -1.9098 -2.3378 -1.8967
  665TMC3    H2 9899   3.466   1.392   0.407  0.2107  0.5480  0.5929
  665TMC3    C7 9900   3.609   1.511   0.229 -0.1860  0.3931 -0.1120
  665TMC3    C8 9901   3.277   1.221   0.404  0.8261 -0.0142 -0.3468
  665TMC3    O1 9902   3.616   1.559   0.116  0.0038  0.2233  0.3425
  665TMC3    O2 9903   3.282   1.299   0.498 -0.2364 -0.3022 -0.0503
  666TMC3    C1 9904   3.539   1.143  10.253 -0.0002  0.0676  0.5569
  666TMC3    C2 9905   3.651   1.127  10.173  0.0359  0.2691  0.1836
  666TMC3    C3 9906   3.667   1.212  10.065  0.3128 -0.0844  0.3424
  666TMC3    C4 9907   3.448   1.241  10.230  0.5827  0.3905  0.0051
  666TMC3    C5 9908   3.456   1.317  10.114  0.2038  0.3777  0.8191
  666TMC3    C6 9909   3.564   1.296  10.032 -0.5324  0.2689  0.3461
  666TMC3     C 9910   3.540   1.080  10.389  0.4017  0.5000 -0.0684
  666TMC3     O 9911   3.650   1.077  10.448  0.8452  0.0350  0.0251
  666TMC3     H 9912   3.724   1.051  10.196 -0.7830 -0.4187  0.4964
  666TMC3    H1 9913   3.365   1.256  10.298 -1.0480 -1.8961 -1.4485
  666TMC3    H2 9914   3.574   1.343   9.935  2.2461  0.4603  0.7167
  666TMC3    C7 9915   3.394   1.448  10.114  0.0426 -0.5185 -0.2108
  666TMC3    C8 9916   3.771   1.187   9.971 -0.5982  0.1703  0.1041
  666TMC3    O1 9917   3.289   1.461  10.176  0.4651 -0.3174 -0.1986
  666TMC3    O2 9918   3.797   1.068   9.955  0.2919  0.0972 -0.0305
  667MPD2     C 9919   4.577   1.797  14.287 -0.0983 -0.1530  0.7131
  667MPD2    C1 9920   4.575   1.777  14.423  0.2260  0.3924  0.6431
  667MPD2    C2 9921   4.506   1.664  14.470  0.1678  0.2819  0.0354
  667MPD2    C3 9922   4.429   1.585  14.383  0.2948  0.5651 -0.2021
  667MPD2    C4 9923   4.442   1.612  14.249  0.2987  0.4648 -0.7345
  667MPD2    C5 9924   4.510   1.717  14.202  1.5397 -0.0338  0.5236
  667MPD2     H 9925   4.515   1.627  14.571  1.6352  3.3148  1.0429
  667MPD2    H1 9926   4.398   1.552  14.171  0.2718  0.1871 -0.5033
  667MPD2    H2 9927   4.635   1.880  14.247  0.2300 -1.7034 -2.0284
  667MPD2    H3 9928   4.500   1.737  14.096 -2.0693 -0.6087  0.7737
  667MPD2     N 9929   4.356   1.468  14.416  0.3843  0.2645  0.2531
  667MPD2    H5 9930   4.300   1.416  14.350 -1.0526  1.7057  0.3234
  667MPD2    N1 9931   4.646   1.850  14.527  0.1791  0.7076 -0.2587
  667MPD2    H7 9932   4.629   1.812  14.620 -0.4517 -1.7708 -1.3914
  668TMC3    C1 9933   0.059   2.020  14.624  0.0242 -0.1576 -0.6202
  668TMC3    C2 9934   0.138   2.130  14.609  0.0876  0.3774 -0.1690
  668TMC3    C3 9935   0.189   2.198  14.711  0.3552 -0.2699 -0.5399
  668TMC3    C4 9936   0.031   1.976  14.753  0.3309  0.5509 -0.5149
  668TMC3    C5 9937   0.090   2.039  14.861 -0.1743 -0.0148 -0.0056
  668TMC3    C6 9938   0.164   2.152  14.840 -0.9331 -0.1285  0.0494
  668TMC3     C 9939   0.007   1.949  14.500  0.2996 -0.0265 -0.5207
  668TMC3     O 9940   0.039   2.000  14.393 -0.0582  0.1611  0.5119
  668TMC3     H 9941   0.143   2.175  14.510  2.6398 -0.8472 -0.6011
  668TMC3    H1 9942   4.711   1.883  14.767  1.2495  0.4099  2.0461
  668TMC3    H2 9943   0.218   2.191  14.925 -0.9077  0.5710 -0.2915
  668TMC3    C7 9944   0.083   1.992  15.000 -0.7851  0.8979  0.7768
  668TMC3    C8 9945   0.262   2.320  14.695 -0.4268  0.0472  0.4602
  668TMC3    O1 9946   0.173   2.030  15.074  0.1932  0.2407 -0.0282
  668TMC3    O2 9947   0.300   2.384  14.789  0.0440  0.2135  0.4592
  669TMC3    C1 9948   2.993   1.449  14.768  0.3955 -0.4216 -0.3112
  669TMC3    C2 9949   2.897   1.449  14.667 -0.1045 -0.7176 -0.0686
  669TMC3    C3 9950   2.945   1.492  14.546  0.0055  0.2943  0.2712
  669TMC3    C4 9951   3.125   1.487  14.747  0.4246  0.2459  0.2895
  669TMC3    C5 9952   3.159   1.544  14.627  0.2933 -0.0987  0.2182
  669TMC3    C6 9953   3.068   1.539  14.521 -0.0096  0.5179 -0.4436
  669TMC3     C 9954   2.954   1.416  14.900  0.2089 -0.0589 -0.5454
  669TMC3     O 9955   2.832   1.419  14.922  0.3215  0.2449 -0.4715
  669TMC3     H 9956   2.797   1.430  14.703  0.7921 -1.6536  1.9336
  669TMC3    H1 9957   3.191   1.495  14.833 -0.1147  0.9646  0.6320
  669TMC3    H2 9958   3.102   1.549  14.419  0.3323 -2.3290 -0.6078
  669TMC3    C7 9959   3.285   1.612  14.628 -0.2522 -0.2146  0.4331
  669TMC3    C8 9960   2.865   1.457  14.435  0.7351  0.6826  0.3409
  669TMC3    O1 9961   3.370   1.556  14.691 -0.4074  0.4090 -0.6957
  669TMC3    O2 9962   2.764   1.383  14.459 -0.3894 -0.1538 -0.5357
  670MPD2     C 9963   0.641   4.042  13.648 -0.5157  0.2158  0.5954
  670MPD2    C1 9964   0.771   4.033  13.697  0.3410 -0.4188 -0.5837
  670MPD2    C2 9965   0.795   3.948  13.808  0.0333  0.2055 -0.2831
  670MPD2    C3 9966   0.691   3.870  13.861 -0.0540 -0.0161 -0.0320
  670MPD2    C4 9967   0.569   3.870  13.795  0.2757 -0.2316  0.4183
  670MPD2    C5 9968   0.545   3.963  13.696 -0.0454 -0.2802  0.1419
  670MPD2     H 9969   0.891   3.940  13.858 -0.3877  0.9197  0.6445
  670MPD2    H1 9970   0.486   3.809  13.828  0.9936 -0.7843  1.2151
  670MPD2    H2 9971   0.621   4.106  13.562 -0.8852 -0.6595  0.0361
  670MPD2    H3 9972   0.449   3.966  13.645  0.6305  0.9882 -1.0421
  670MPD2     N 9973   0.724   3.786  13.974 -0.5824 -0.1196  0.4778
  670MPD2    H5 9974   0.820   3.773  14.006  0.0668  0.5068 -1.1724
  670MPD2    N1 9975   0.883   4.102  13.649  0.4877 -0.5949  0.1563
  670MPD2    H7 9976   0.967   4.084  13.703  0.7001  2.7218  0.9374
  671TMC3    C1 9977   0.678   3.626  14.139  0.0815  0.5134 -0.7653
  671TMC3    C2 9978   0.810   3.583  14.157  0.5741 -0.0657  0.0053
  671TMC3    C3 9979   0.845   3.473  14.228 -0.3095  0.3314  0.0008
  671TMC3    C4 9980   0.584   3.544  14.199  0.2251 -0.3238 -0.7236
  671TMC3    C5 9981   0.621   3.421  14.257  0.5349 -0.3387 -0.5350
  671TMC3    C6 9982   0.751   3.388  14.283  0.3989  0.2963 -0.6796
  671TMC3     C 9983   0.631   3.714  14.042 -0.6874  0.5545 -0.2006
  671TMC3     O 9984   0.511   3.718  14.034 -0.1966 -0.2880  0.1889
  671TMC3     H 9985   0.884   3.633  14.096 -0.1729 -0.0708 -0.9025
  671TMC3    H1 9986   0.479   3.570  14.195 -0.0692 -1.1873  1.2358
  671TMC3    H2 9987   0.771   3.299  14.341 -1.3834 -0.0484 -0.5739
  671TMC3    C7 9988   0.532   3.374  14.351 -0.0832 -0.1282 -0.8199
  671TMC3    C8 9989   0.980   3.426  14.225 -0.0655 -0.2850  0.6065
  671TMC3    O1 9990   0.571   3.390  14.469  0.0535  0.2795 -0.2094
  671TMC3    O2 9991   1.036   3.464  14.122 -0.2571  0.4856 -0.4344
  672MPD2     C 9992   1.283   4.307   0.210  0.0299 -0.3059  0.4975
  672MPD2    C1 9993   1.206   4.380   0.294 -0.3712  0.3181  0.5041
  672MPD2    C2 9994   1.266   4.481   0.368  0.0488 -0.3341  0.1191
  672MPD2    C3 9995   1.402   4.499   0.363 -0.5435 -0.2113  0.8451
  672MPD2    C4 9996   1.481   4.426   0.277 -0.6051 -0.5278  0.4961
  672MPD2    C5 9997   1.416   4.339   0.192  1.1168  0.2788  0.3342
  672MPD2     H 9998   1.209   4.529   0.446  0.8863  0.3723  0.2975
  672MPD2    H1 9999   1.584   4.448   0.254 -0.1288  0.0248  3.2009
  672MPD2    H210000   1.237   4.229   0.149  0.5133 -0.3981  0.2487
  672MPD2    H310001   1.475   4.288   0.117  0.9180 -1.2685  1.2381
  672MPD2     N10002   1.460   4.593   0.451  0.0016  0.1529  0.0755
  672MPD2    H510003   1.560   4.587   0.468 -0.1371 -1.5454  0.3104
  672MPD2    N110004   1.067   4.359   0.316  0.1959  0.3767 -0.5279
  672MPD2    H710005   1.020   4.435   0.364  1.4621  0.9627 -0.1962
  673TMC3    C110006   0.862   4.234   0.335 -0.1742  0.1694  0.6294
  673TMC3    C210007   0.815   4.105   0.336  0.1224  0.1198  0.3210
  673TMC3    C310008   0.714   4.080   0.425 -0.5056 -0.6534 -0.6473
  673TMC3    C410009   0.823   4.333   0.420 -0.0798  0.3311 -0.7058
  673TMC3    C510010   0.709   4.304   0.493  0.2190  0.3628 -0.7875
  673TMC3    C610011   0.658   4.180   0.504 -0.4869  0.1479 -0.2571
  673TMC3     C10012   0.989   4.256   0.266 -0.0728  0.6311 -0.4855
  673TMC3     O10013   1.022   4.163   0.193  0.0758  0.6591  0.0073
  673TMC3     H10014   0.859   4.035   0.267 -0.0660 -1.1668  1.5115
  673TMC3    H110015   0.858   4.436   0.414  3.6741 -0.8909  0.1535
  673TMC3    H210016   0.594   4.158   0.589  0.5798  0.5268  0.6507
  673TMC3    C710017   0.688   4.396   0.603 -0.4313  0.2746 -0.0604
  673TMC3    C810018   0.715   3.950   0.476  0.5539  0.1354  0.4491
  673TMC3    O110019   0.635   4.350   0.706 -0.0182 -0.4896  0.4003
  673TMC3    O210020   0.603   3.901   0.502  0.1786 -0.3600  0.5908
  674MPD2     C10021   0.612   4.196   0.035 -0.3502  0.0056 -0.0530
  674MPD2    C110022   0.554   4.093   0.101 -0.1780  0.0050 -0.0078
  674MPD2    C210023   0.453   4.122   0.193 -0.2293 -0.3073  0.0254
  674MPD2    C310024   0.426   4.254   0.229 -0.4294  0.5229  0.0996
  674MPD2    C410025   0.487   4.358   0.163 -0.6047  0.1955 -0.0887
  674MPD2    C510026   0.572   4.323   0.059  0.7616 -0.2366  0.0707
  674MPD2     H10027   0.399   4.043   0.243 -0.1624 -2.0767 -2.6414
  674MPD2    H110028   0.467   4.464   0.176 -0.8700  0.0268  0.9124
  674MPD2    H210029   0.695   4.172  17.704  0.3892 -1.8634  1.5601
  674MPD2    H310030   0.615   4.400  17.732 -1.0805  1.6986  1.2001
  674MPD2     N10031   0.337   4.271   0.334 -0.0941  0.4047  0.1590
  674MPD2    H510032   0.291   4.194   0.381  1.5583 -0.2980  0.6389
  674MPD2    N110033   0.606   3.966   0.073 -0.5426  0.0804  0.3670
  674MPD2    H710034   0.672   3.960  17.731 -0.6166  0.5147  0.2694
  675TMC3    C110035   0.641   3.735   0.112 -0.4141 -0.0434 -0.0794
  675TMC3    C210036   0.576   3.623   0.165  1.0495 -0.3749  0.4653
  675TMC3    C310037   0.654   3.545   0.248  0.1255  0.4615  0.2140
  675TMC3    C410038   0.776   3.753   0.136 -0.6303 -0.2555 -1.1311
  675TMC3    C510039   0.845   3.665   0.220 -0.5505  0.1526  0.2077
  675TMC3    C610040   0.785   3.555   0.273 -0.0065 -0.2727 -0.1460
  675TMC3     C10041   0.569   3.850   0.143  0.3284 -0.2622 -0.7329
  675TMC3     O10042   0.492   3.828   0.234  0.0385 -0.1467  0.7734
  675TMC3     H10043   0.469   3.612   0.156  1.1789 -0.0513 -1.5261
  675TMC3    H110044   0.820   3.844   0.098  0.4503 -0.8505 -1.3048
  675TMC3    H210045   0.822   3.496   0.356 -0.8517 -1.4613 -0.6077
  675TMC3    C710046   0.990   3.682   0.243 -0.0644  0.2796  0.5731
  675TMC3    C810047   0.584   3.497   0.352  0.6005  0.1847  0.0467
  675TMC3    O110048   1.046   3.766   0.176 -0.6896  0.4039  0.2802
  675TMC3    O210049   0.620   3.395   0.404  0.1173 -0.0669 -0.2808
  676MPD2     C10050   3.941   2.759  11.214  0.1819  0.7845  0.6537
  676MPD2    C110051   3.831   2.681  11.247 -0.4262 -0.8787  0.0955
  676MPD2    C210052   3.819   2.554  11.193 -0.0457  0.1196  0.3262
  676MPD2    C310053   3.913   2.509  11.101  0.1631  0.0098 -0.4876
  676MPD2    C410054   4.024   2.585  11.076 -0.2117  0.4958 -0.8831
  676MPD2    C510055   4.029   2.711  11.124 -0.3401  1.2966  0.1707
  676MPD2     H10056   3.738   2.492  11.228 -1.3321 -0.0215 -2.8993
  676MPD2    H110057   4.091   2.562  10.994 -0.1661  0.2378 -0.7731
  676MPD2    H210058   3.944   2.862  11.246 -0.5029  0.6543  1.1395
  676MPD2    H310059   4.115   2.770  11.093  2.7550 -2.8870  0.8263
  676MPD2     N10060   3.882   2.391  11.030 -0.7040  0.2824  0.5922
  676MPD2    H510061   3.949   2.352  10.964  2.6566  2.3071  2.8341
  676MPD2    N110062   3.717   2.726  11.322 -0.2026  0.1868  0.0790
  676MPD2    H710063   3.635   2.667  11.327 -1.2219  1.7588  2.0984
  677TMC3    C110064   3.584   2.865  11.466  0.1735 -0.3086 -0.7459
  677TMC3    C210065   3.491   2.765  11.462  0.1377 -0.2439 -0.1527
  677TMC3    C310066   3.383   2.777  11.544  0.1152 -0.8452 -0.3414
  677TMC3    C410067   3.570   2.981  11.548  0.7450  0.0098 -0.0185
  677TMC3    C510068   3.459   2.981  11.629 -0.2133 -0.6867 -0.0711
  677TMC3    C610069   3.365   2.885  11.622  0.6268 -1.0574 -0.5346
  677TMC3     C10070   3.710   2.852  11.380  0.0225 -0.2649 -0.7308
  677TMC3     O10071   3.790   2.945  11.395  0.3583  0.5881  0.0647
  677TMC3     H10072   3.497   2.673  11.406 -1.0732  0.0347 -0.7327
  677TMC3    H110073   3.637   3.066  11.541 -1.3117  1.7306  0.9952
  677TMC3    H210074   3.280   2.895  11.688  0.5150 -1.2416 -0.6496
  677TMC3    C710075   3.448   3.055  11.760  0.1051  0.3239  0.0391
  677TMC3    C810076   3.291   2.665  11.560  0.2597  0.0035 -0.7658
  677TMC3    O110077   3.340   3.055  11.817  0.3389 -0.5087  0.3315
  677TMC3    O210078   3.262   2.600  11.461 -0.2982 -0.3029 -0.3352
  678MPD2     C10079   4.515   2.163   1.560  0.0385 -0.4399 -0.5491
  678MPD2    C110080   4.569   2.247   1.469  0.1010 -0.2693  0.2549
  678MPD2    C210081   4.493   2.327   1.386 -0.1813  0.1288  0.0359
  678MPD2    C310082   4.355   2.325   1.398  0.2403 -0.4008  0.0367
  678MPD2    C410083   4.297   2.243   1.498  0.3366  0.0870 -0.2559
  678MPD2    C510084   4.381   2.173   1.580  0.3434  0.8523  0.4007
  678MPD2     H10085   4.527   2.395   1.308  1.0834  1.5750  1.8510
  678MPD2    H110086   4.191   2.250   1.520  0.6857  0.7110  1.2603
  678MPD2    H210087   4.582   2.117   1.632 -1.6527 -2.7826 -0.4740
  678MPD2    H310088   4.333   2.116   1.659  1.0982 -1.0162 -0.4797
  678MPD2     N10089   4.276   2.401   1.303 -0.0536  0.2865  0.0510
  678MPD2    H510090   4.325   2.458   1.234 -1.9737 -0.9795 -2.3327
  678MPD2    N110091   4.704   2.250   1.439 -0.6279  0.6357  0.0626
  678MPD2    H710092   4.732   2.316   1.368  0.8964 -1.8285 -1.6193
  679TMC3    C110093   0.374   2.046   1.325 -0.3286 -0.1046 -0.3225
  679TMC3    C210094   0.268   2.053   1.410 -0.2190  0.4157  0.0666
  679TMC3    C310095   0.195   2.172   1.409 -0.7376 -0.1283 -0.7834
  679TMC3    C410096   0.410   2.151   1.239  0.1479 -0.2553 -0.0972
  679TMC3    C510097   0.348   2.267   1.262  0.0685  0.0122  0.1576
  679TMC3    C610098   0.236   2.278   1.340 -0.1224  0.2898 -0.6339
  679TMC3     C10099   0.451   1.926   1.322 -0.4691 -0.1991 -0.2040
  679TMC3     O10100   0.542   1.913   1.239 -0.2069  0.4586  0.0541
  679TMC3     H10101   0.225   1.975   1.473  2.3216  0.3218  1.7045
  679TMC3    H110102   0.484   2.134   1.162  0.3683 -2.1429  0.5206
  679TMC3    H210103   0.185   2.373   1.340 -1.8179 -0.6130  0.4667
  679TMC3    C710104   0.388   2.384   1.186  0.3460  0.3549  0.9458
  679TMC3    C810105   0.071   2.174   1.486 -0.1459  0.0741 -0.6509
  679TMC3    O110106   0.298   2.464   1.166  0.0240  0.0602  0.1173
  679TMC3    O210107   0.054   2.084   1.571  0.6038  0.1069  0.1952
  680MPD2     C10108   0.423   1.466  13.767 -0.1835  0.3812  0.4508
  680MPD2    C110109   0.494   1.379  13.843  0.2193 -0.8677 -0.2469
  680MPD2    C210110   0.620   1.412  13.892  0.2955 -0.1278  0.3407
  680MPD2    C310111   0.658   1.544  13.890 -0.1934  0.1726 -0.4132
  680MPD2    C410112   0.587   1.641  13.818 -0.0321 -0.5122 -0.1887
  680MPD2    C510113   0.474   1.595  13.749 -0.5438  0.2484  0.1724
  680MPD2     H10114   0.672   1.340  13.954  0.6466 -1.5377 -1.6061
  680MPD2    H110115   0.623   1.744  13.824 -0.5810 -0.4015  1.0911
  680MPD2    H210116   0.329   1.433  13.724 -0.2029 -0.4869  1.1497
  680MPD2    H310117   0.426   1.671  13.688 -0.2317  0.7793  0.5911
  680MPD2     N10118   0.783   1.585  13.943  0.3729 -0.3610 -0.1485
  680MPD2    H510119   0.802   1.684  13.950 -1.8440 -0.0433  1.3753
  680MPD2    N110120   0.442   1.256  13.881 -0.0074  0.3306 -0.8987
  680MPD2    H710121   0.520   1.197  13.904 -1.2521 -1.2506 -0.7539
  681TMC3    C110122   0.303   1.089  13.960 -0.1897  1.5161 -0.0834
  681TMC3    C210123   0.236   1.094  14.081  0.5691 -0.0711 -0.2688
  681TMC3    C310124   0.289   1.027  14.186 -0.6453 -0.7543  0.8393
  681TMC3    C410125   0.420   1.017  13.951  0.0156  0.1087  0.0994
  681TMC3    C510126   0.465   0.942  14.051  0.5336  0.3202 -0.5821
  681TMC3    C610127   0.404   0.953  14.175  0.3943  0.1254  0.2944
  681TMC3     C10128   0.310   1.222  13.903 -0.7321  0.0811  0.3713
  681TMC3     O10129   0.209   1.292  13.896 -0.4889 -0.1466 -0.2216
  681TMC3     H10130   0.149   1.158  14.086 -0.3987 -1.5470  1.5976
  681TMC3    H110131   0.462   0.992  13.854 -1.3769 -0.3112 -0.3901
  681TMC3    H210132   0.443   0.895  14.258 -1.4286 -0.7875  0.5153
  681TMC3    C710133   0.577   0.854  14.040  0.5265  0.2692  0.0804
  681TMC3    C810134   0.234   1.057  14.312 -0.4239  0.7232  0.0966
  681TMC3    O110135   0.609   0.792  14.137 -0.1118  0.4547 -0.7783
  681TMC3    O210136   0.116   1.092  14.322 -0.6039 -0.1974 -0.0827
  682MPD2     C10137   2.953   2.657  10.267 -1.6861  0.0907  0.1131
  682MPD2    C110138   2.873   2.558  10.324  0.2925  0.1284  0.0326
  682MPD2    C210139   2.809   2.590  10.440 -0.2662  0.6247  0.1889
  682MPD2    C310140   2.812   2.720  10.494  0.4173 -0.0246  0.4096
  682MPD2    C410141   2.875   2.816  10.421  0.1957  0.6807  0.8011
  682MPD2    C510142   2.947   2.793  10.307 -0.2557 -0.6865 -0.3709
  682MPD2     H10143   2.743   2.513  10.478  1.1355  0.0539  1.4914
  682MPD2    H110144   2.869   2.918  10.458  0.0733  0.9787 -0.0504
  682MPD2    H210145   3.005   2.641  10.173 -1.7156  0.0717  0.0999
  682MPD2    H310146   2.980   2.874  10.243 -0.5329 -0.8573 -0.7308
  682MPD2     N10147   2.733   2.763  10.610 -0.1730  0.5971  0.3424
  682MPD2    H510148   2.737   2.860  10.637  0.3920  0.7584 -0.2935
  682MPD2    N110149   2.860   2.423  10.264 -0.1632 -0.0766 -0.5300
  682MPD2    H710150   2.807   2.351  10.312 -1.8911  1.3525 -0.3419
  683TMC3    C110151   2.539   2.929  10.947  0.2687  0.8063  0.7918
  683TMC3    C210152   2.418   2.874  10.977 -1.0328  0.8374  0.3881
  683TMC3    C310153   2.374   2.759  10.921 -0.2946 -0.0242  0.9465
  683TMC3    C410154   2.620   2.867  10.855  0.2379  1.0359 -0.7171
  683TMC3    C510155   2.566   2.765  10.785 -0.1917  0.7810  0.1446
  683TMC3    C610156   2.451   2.708  10.819  1.5207  0.3573 -0.1503
  683TMC3     C10157   2.609   2.988  11.069 -0.2241  0.1343  0.5852
  683TMC3     O10158   2.544   3.076  11.125  0.8963 -0.3066 -0.1537
  683TMC3     H10159   2.373   2.900  11.073 -2.4442  0.4253 -0.1707
  683TMC3    H110160   2.722   2.897  10.834  0.1337  2.1210  0.3330
  683TMC3    H210161   2.418   2.624  10.758  1.7357 -1.0316  1.6400
  683TMC3    C710162   2.642   2.688  10.678  0.6832 -0.4844 -0.0277
  683TMC3    C810163   2.263   2.687  10.972 -0.1885  0.1378  0.5837
  683TMC3    O110164   2.622   2.566  10.676 -0.0147  0.0230  0.4632
  683TMC3    O210165   2.176   2.751  11.029  0.0308  0.7979 -0.4997
  684MPD2     C10166   0.785   1.526  16.434  0.1090 -0.4158 -0.2397
  684MPD2    C110167   0.774   1.591  16.318  0.0816 -0.2624 -0.2877
  684MPD2    C210168   0.772   1.731  16.322  0.3422  0.0604  0.4758
  684MPD2    C310169   0.792   1.803  16.442  0.3968 -0.4797  0.3206
  684MPD2    C410170   0.812   1.731  16.559 -0.0126  0.3251 -0.4018
  684MPD2    C510171   0.808   1.598  16.545 -0.0120 -0.3933  0.1083
  684MPD2     H10172   0.768   1.786  16.229 -2.4093 -0.3546  0.3396
  684MPD2    H110173   0.817   1.779  16.656  0.4063 -2.3903  0.9053
  684MPD2    H210174   0.797   1.418  16.436  1.5270 -0.2831 -1.4825
  684MPD2    H310175   0.823   1.536  16.633  1.8363 -1.1121 -0.7001
  684MPD2     N10176   0.805   1.945  16.453  0.6257 -0.5941  0.0677
  684MPD2    H510177   0.825   1.978  16.546 -1.2272  1.3637 -0.2196
  684MPD2    N110178   0.783   1.535  16.186  0.2132  0.3592 -0.1358
  684MPD2    H710179   0.784   1.601  16.109 -0.1662 -1.6264 -1.8588
  685TMC3    C110180   0.819   1.382  16.014 -0.5903 -0.1921 -0.2953
  685TMC3    C210181   0.757   1.463  15.921  0.2004 -0.5469  0.5541
  685TMC3    C310182   0.819   1.473  15.800 -0.0676 -0.0754 -0.7720
  685TMC3    C410183   0.935   1.314  15.987  0.3821 -0.2685  0.0651
  685TMC3    C510184   0.996   1.352  15.870 -0.8221 -1.1301  0.4721
  685TMC3    C610185   0.947   1.434  15.777 -0.2560 -0.3455  0.4260
  685TMC3     C10186   0.796   1.403  16.156  0.3711  0.2287  0.2126
  685TMC3     O10187   0.803   1.304  16.227  0.1771 -0.4488 -0.0691
  685TMC3     H10188   0.651   1.482  15.937 -0.5800 -1.2429 -3.7483
  685TMC3    H110189   0.986   1.261  16.067  1.7255 -0.0024 -0.6076
  685TMC3    H210190   1.000   1.467  15.689  2.1771 -0.6188  1.7849
  685TMC3    C710191   1.140   1.318  15.870  0.5205 -0.2248 -0.7086
  685TMC3    C810192   0.757   1.554  15.694  0.0292 -0.1978 -0.6502
  685TMC3    O110193   1.179   1.222  15.935 -0.4940 -0.3861 -0.4329
  685TMC3    O210194   0.784   1.532  15.581  0.3190 -0.1391  0.1810
  686MPD2     C10195   2.339   1.428  15.426 -0.3136  0.1687  0.4908
  686MPD2    C110196   2.325   1.397  15.559  0.2478 -0.1447 -0.3363
  686MPD2    C210197   2.432   1.380  15.640  0.3949  0.1422  0.5621
  686MPD2    C310198   2.558   1.404  15.592 -0.1257  0.0407  0.0610
  686MPD2    C410199   2.570   1.444  15.461 -0.1264  0.0478  0.2006
  686MPD2    C510200   2.464   1.459  15.380  0.5995 -0.2437  0.0137
  686MPD2     H10201   2.428   1.349  15.743 -0.7288  0.7292  0.7052
  686MPD2    H110202   2.668   1.463  15.419  0.3448  1.2983  1.8428
  686MPD2    H210203   2.254   1.447  15.361 -0.0555  1.0164  0.4124
  686MPD2    H310204   2.474   1.490  15.277  0.2168  2.3564  0.7469
  686MPD2     N10205   2.678   1.408  15.672 -0.1304 -0.1990 -0.3068
  686MPD2    H510206   2.761   1.437  15.621 -0.7095  0.1879 -1.0185
  686MPD2    N110207   2.190   1.381  15.604 -0.7390 -0.4673  0.1911
  686MPD2    H710208   2.116   1.385  15.534  0.1004  0.2674 -0.6562
  687TMC3    C110209   2.815   1.454  15.854 -0.5856  0.0657 -0.4753
  687TMC3    C210210   2.863   1.561  15.782  0.2357 -0.4433 -0.3833
  687TMC3    C310211   2.985   1.616  15.812  0.7703 -0.3271  0.3161
  687TMC3    C410212   2.881   1.407  15.957  1.0779 -0.5934  0.9932
  687TMC3    C510213   3.001   1.461  15.989  0.2476  0.2061 -0.3697
  687TMC3    C610214   3.054   1.568  15.919 -0.1302  0.1071 -0.5172
  687TMC3     C10215   2.698   1.382  15.804  0.2575 -0.6628  0.1103
  687TMC3     O10216   2.629   1.322  15.884  0.6069 -0.2701 -0.0080
  687TMC3     H10217   2.801   1.601  15.703  1.2132  0.8008 -0.5312
  687TMC3    H110218   2.837   1.318  16.000 -2.1868  1.1831  1.3821
  687TMC3    H210219   3.145   1.620  15.947 -0.8498  0.8047  0.5161
  687TMC3    C710220   3.061   1.454  16.123  0.3759 -0.1141  0.5968
  687TMC3    C810221   3.043   1.733  15.750 -0.3496  0.3217  0.4663
  687TMC3    O110222   3.176   1.488  16.132 -0.0414 -0.0637  0.4180
  687TMC3    O210223   3.159   1.770  15.759  0.4176  0.2559 -0.2983
  688MPD2     C10224   1.222   0.627  17.202  0.0434  0.2894  0.5902
  688MPD2    C110225   1.260   0.525  17.285 -0.2736 -0.0965 -0.4311
  688MPD2    C210226   1.366   0.437  17.251 -0.0313  0.1005 -1.0924
  688MPD2    C310227   1.428   0.461  17.128 -0.0887 -0.4747 -0.2012
  688MPD2    C410228   1.388   0.569  17.049  0.2535 -0.4906  0.2732
  688MPD2    C510229   1.288   0.647  17.087  0.3490 -0.0353 -0.2450
  688MPD2     H10230   1.392   0.351  17.312  0.8385  0.0416 -1.5475
  688MPD2    H110231   1.451   0.599  16.966 -0.0294 -0.7050 -0.0197
  688MPD2    H210232   1.139   0.693  17.228 -0.1174  1.1574 -2.0824
  688MPD2    H310233   1.267   0.730  17.020 -1.8579 -1.2906 -1.1050
  688MPD2     N10234   1.536   0.387  17.085 -0.4642 -0.0334 -0.1480
  688MPD2    H510235   1.592   0.425  17.009  0.6849 -2.7968 -0.6846
  688MPD2    N110236   1.189   0.497  17.402 -0.3505 -0.5509 -0.4702
  688MPD2    H710237   1.209   0.417  17.461 -1.6341 -0.0721  0.6013
  689TMC3    C110238   1.012   0.523  17.561  0.3124  0.3838 -0.4194
  689TMC3    C210239   0.967   0.610  17.663  0.0670 -0.2901 -0.1459
  689TMC3    C310240   0.931   0.543   0.041 -0.3742 -0.0937 -0.5838
  689TMC3    C410241   1.005   0.384  17.572  0.1048 -0.5712 -0.5970
  689TMC3    C510242   0.940   0.338  17.684  0.0546  1.6389  0.6027
  689TMC3    C610243   0.910   0.414   0.055 -0.2789 -0.8169 -0.2051
  689TMC3     C10244   1.097   0.583  17.461 -0.4981 -0.1685 -0.5270
  689TMC3     O10245   1.063   0.696  17.425 -0.0931 -0.2029  1.0103
  689TMC3     H10246   0.978   0.718  17.662 -0.4872 -0.2340 -0.2982
  689TMC3    H110247   1.029   0.322  17.487  2.9395  1.1725 -1.0862
  689TMC3    H210248   0.876   0.373   0.150 -0.6271  0.9893  0.4454
  689TMC3    C710249   0.961   0.202  17.719  0.3986 -0.4088 -0.3343
  689TMC3    C810250   0.897   0.612   0.165  0.5773 -0.0972 -0.6992
  689TMC3    O110251   1.009   0.182   0.096 -0.1169  0.1314  0.4143
  689TMC3    O210252   0.935   0.561   0.269  0.3293  0.1096 -0.6160
  690MPD2     C10253   4.341   2.526  15.845  0.0152 -0.0801  0.4408
  690MPD2    C110254   4.264   2.509  15.730  0.4148 -0.0439 -0.0896
  690MPD2    C210255   4.321   2.559  15.612 -0.3140 -0.1145 -0.0750
  690MPD2    C310256   4.443   2.628  15.606  0.4948  0.2149 -0.7087
  690MPD2    C410257   4.508   2.648  15.723  0.8523 -0.4890  0.3457
  690MPD2    C510258   4.461   2.590  15.836  0.0949 -0.1293 -0.2947
  690MPD2     H10259   4.269   2.545  15.518 -1.1708 -2.3319  0.7269
  690MPD2    H110260   4.601   2.704  15.731  2.0771 -2.4043 -0.7751
  690MPD2    H210261   4.315   2.492  15.944  0.8807 -0.1410  0.6490
  690MPD2    H310262   4.517   2.616  15.925 -0.2948  1.5421 -0.5378
  690MPD2     N10263   4.491   2.668  15.482 -0.7643  0.8438 -0.6191
  690MPD2    H510264   4.445   2.648  15.393 -0.0466 -1.0442 -0.5619
  690MPD2    N110265   4.137   2.448  15.726 -0.3176 -0.0259  0.2897
  690MPD2    H710266   4.083   2.445  15.641  1.9602  1.8827 -1.2105
  691TMC3    C110267   3.947   2.323  15.787 -0.3981 -0.0959 -0.1992
  691TMC3    C210268   3.863   2.392  15.702  0.2870  1.0659 -0.5282
  691TMC3    C310269   3.733   2.352  15.696 -0.4419 -0.2891  0.1296
  691TMC3    C410270   3.899   2.230  15.869 -0.2839  0.5570  1.0182
  691TMC3    C510271   3.768   2.178  15.853  0.4127  0.1530  0.3416
  691TMC3    C610272   3.689   2.234  15.758 -0.2669  0.2197  0.2379
  691TMC3     C10273   4.071   2.385  15.832 -0.4266  0.8177  0.1867
  691TMC3     O10274   4.115   2.363  15.945  0.2431  0.2000 -0.1809
  691TMC3     H10275   3.891   2.476  15.640  2.4848 -2.3811 -4.2435
  691TMC3    H110276   3.971   2.185  15.936 -0.3678 -0.0678  0.6810
  691TMC3    H210277   3.585   2.206  15.743 -0.2635  0.1546  0.3330
  691TMC3    C710278   3.728   2.058  15.920  0.3143 -0.2760 -0.3259
  691TMC3    C810279   3.642   2.432  15.620 -0.6133  0.0903 -0.2909
  691TMC3    O110280   3.770   2.039  16.033 -0.7549 -0.1613 -1.0343
  691TMC3    O210281   3.686   2.463  15.509  0.0747  0.0376 -0.3463
  692TMC3    C110282   0.640   3.331  15.894  0.2609  0.6359 -0.1204
  692TMC3    C210283   0.771   3.359  15.923 -0.4471 -0.2221 -0.2738
  692TMC3    C310284   0.868   3.258  15.914  0.0136  0.8484  0.0051
  692TMC3    C410285   0.602   3.206  15.861 -0.0849 -0.2544  0.2151
  692TMC3    C510286   0.703   3.117  15.839 -0.6837  0.2945  0.6992
  692TMC3    C610287   0.834   3.145  15.847  0.2210 -0.2693 -0.2652
  692TMC3     C10288   0.531   3.427  15.929  0.2054  0.0230 -0.2794
  692TMC3     O10289   0.413   3.395  15.917 -0.0870 -0.0144 -0.4839
  692TMC3     H10290   0.820   3.455  15.934 -2.0166  0.6358 -0.7365
  692TMC3    H110291   0.499   3.192  15.830  0.3189 -2.8583  0.0472
  692TMC3    H210292   0.909   3.066  15.847  0.4715 -0.0398  2.5214
  692TMC3    C710293   0.669   2.983  15.801  0.6017  0.7936 -0.3038
  692TMC3    C810294   0.902   3.214  16.050  0.0381 -0.4524 -0.2802
  692TMC3    O110295   0.574   2.966  15.728 -0.7990 -0.3902 -0.0643
  692TMC3    O210296   0.904   3.097  16.075 -0.4478  0.2165  0.2249
  693MPD2     C10297   0.565   1.988  10.861 -0.7698  0.1593  0.7376
  693MPD2    C110298   0.509   1.942  10.980 -0.0011  0.1464 -0.4146
  693MPD2    C210299   0.556   1.831  11.041 -0.2884  0.3236  0.1939
  693MPD2    C310300   0.663   1.758  10.984  0.0532 -0.0073 -0.0930
  693MPD2    C410301   0.721   1.810  10.868  0.1312 -0.7700  0.2331
  693MPD2    C510302   0.679   1.926  10.816  1.2454 -0.3681  0.0218
  693MPD2     H10303   0.507   1.782  11.125  1.0552 -0.6214  0.4150
  693MPD2    H110304   0.815   1.767  10.836  1.2327 -0.7234  3.3640
  693MPD2    H210305   0.542   2.084  10.816 -1.1798 -0.1863  0.2221
  693MPD2    H310306   0.737   1.975  10.739 -1.3866  0.9672 -1.1040
  693MPD2     N10307   0.714   1.641  11.046  0.4926 -0.1823 -0.0663
  693MPD2    H510308   0.802   1.612  11.006  0.8197 -0.1894  0.6446
  693MPD2    N110309   0.399   2.024  11.032 -0.0720 -0.9035  0.2761
  693MPD2    H710310   0.356   2.097  10.976  1.2678  0.6289  1.2264
  694TMC3    C110311   0.213   2.075  11.166 -0.2982  0.5997 -0.2590
  694TMC3    C210312   0.116   2.024  11.082 -0.3323  1.0173  0.0076
  694TMC3    C310313   4.734   1.988  11.144  0.6494 -0.1664 -0.1842
  694TMC3    C410314   0.190   2.080  11.300 -0.1396 -0.3408 -0.0677
  694TMC3    C510315   0.087   2.009  11.352  0.4241 -0.4381 -0.0359
  694TMC3    C610316   4.720   1.965  11.276  0.5958  0.5164  0.1066
  694TMC3     C10317   0.333   1.997  11.147 -0.4961 -1.0194 -0.8797
  694TMC3     O10318   0.359   1.915  11.237  0.0290 -0.2988  0.2464
  694TMC3     H10319   0.130   2.026  10.975  3.2882 -0.1695  0.4669
  694TMC3    H110320   0.278   2.100  11.360 -0.8788 -0.9532  1.2361
  694TMC3    H210321   4.629   1.921  11.316  0.7170 -1.1756 -1.4894
  694TMC3    C710322   0.088   1.957  11.491  0.0200  0.1344 -0.4231
  694TMC3    C810323   4.643   1.926  11.051  0.0174 -1.1841 -0.4999
  694TMC3    O110324   0.163   2.014  11.573  0.5752  0.4819  0.6656
  694TMC3    O210325   4.566   1.840  11.103  0.3093 -0.2374  0.2017
  695MPD2     C10326   1.397   3.412  13.433 -0.0845 -0.9686 -0.0629
  695MPD2    C110327   1.354   3.389  13.562  0.1155  0.1880 -0.4141
  695MPD2    C210328   1.217   3.385  13.588  0.0354  0.0774  0.3047
  695MPD2    C310329   1.120   3.409  13.486 -0.8153  0.7031 -0.1105
  695MPD2    C410330   1.170   3.442  13.365 -0.6670 -0.0865 -0.1164
  695MPD2    C510331   1.307   3.443  13.339 -0.5685  0.3635 -0.4389
  695MPD2     H10332   1.174   3.364  13.685 -1.7444  1.8021 -0.1015
  695MPD2    H110333   1.103   3.456  13.281  0.3959 -0.4767 -1.0313
  695MPD2    H210334   1.501   3.410  13.405  0.3541 -4.4005  1.8054
  695MPD2    H310335   1.346   3.470  13.242  1.8614 -0.6172  0.2581
  695MPD2     N10336   0.984   3.403  13.524  0.2394 -0.4928 -0.1685
  695MPD2    H510337   0.960   3.378  13.620  0.0543  0.7601  0.1143
  695MPD2    N110338   1.437   3.357  13.671  0.3619  0.3572  0.8863
  695MPD2    H710339   1.402   3.374  13.764  0.0072  4.3669  0.0235
  696TMC3    C110340   0.750   3.410  13.521  0.6929  0.1937 -0.1432
  696TMC3    C210341   0.734   3.317  13.613  0.3705 -0.0685  0.3663
  696TMC3    C310342   0.612   3.272  13.640  0.1637 -0.7289  0.0804
  696TMC3    C410343   0.643   3.454  13.450 -0.3533  0.0457  0.4548
  696TMC3    C510344   0.517   3.418  13.489 -0.6710  0.6389  0.3628
  696TMC3    C610345   0.498   3.319  13.582  0.8574  0.2813 -0.3930
  696TMC3     C10346   0.877   3.442  13.456  0.0464  0.7636  0.2962
  696TMC3     O10347   0.881   3.510  13.357  0.2799 -0.4141 -0.4311
  696TMC3     H10348   0.820   3.281  13.668 -1.1515  1.2579  3.6207
  696TMC3    H110349   0.655   3.547  13.396 -0.0549 -0.4649 -0.3602
  696TMC3    H210350   0.398   3.277  13.584  1.0292 -0.1313 -0.4098
  696TMC3    C710351   0.444   3.526  13.550 -0.5186  0.8099 -0.0583
  696TMC3    C810352   0.590   3.254  13.785 -0.8079  0.5716 -0.4014
  696TMC3    O110353   0.512   3.622  13.588 -0.0530 -0.4295 -0.6183
  696TMC3    O210354   0.680   3.239  13.869 -0.5269 -0.2154  0.4809
  697MPD2     C10355   0.181   0.409  15.707 -0.8094 -0.5189 -0.3514
  697MPD2    C110356   0.126   0.353  15.595  0.0286  0.1151 -0.0260
  697MPD2    C210357   0.073   0.431  15.493 -0.2700 -0.1180 -0.6707
  697MPD2    C310358   0.079   0.567  15.503 -0.6434 -0.3845 -0.3685
  697MPD2    C410359   0.141   0.624  15.612 -0.1724 -0.0977  0.3779
  697MPD2    C510360   0.184   0.547  15.709 -0.7681 -0.2906  0.1217
  697MPD2     H10361   0.028   0.391  15.403 -0.6190 -2.1288  0.3792
  697MPD2    H110362   0.161   0.730  15.621 -1.5012  0.4351 -2.7554
  697MPD2    H210363   0.233   0.364  15.790 -0.2705  0.9140  0.0846
  697MPD2    H310364   0.246   0.583  15.791 -1.0147  1.5738 -0.5101
  697MPD2     N10365   0.032   0.661  15.413  0.2233 -0.6346 -0.2442
  697MPD2    H510366   0.068   0.755  15.424 -1.9899  0.2575 -0.6909
  697MPD2    N110367   0.137   0.214  15.571 -0.1269  0.1711  0.0250
  697MPD2    H710368   0.109   0.190  15.476  0.3339  0.3898 -0.1641
  698TMC3    C110369   4.684   0.746  15.218  0.2249 -0.5379 -0.8269
  698TMC3    C210370   0.005   0.854  15.273  0.4137  0.1973 -0.1660
  698TMC3    C310371   0.112   0.920  15.228  0.6061 -0.3112 -0.5429
  698TMC3    C410372   4.729   0.698  15.101 -0.3240 -0.0929 -0.0474
  698TMC3    C510373   0.114   0.753  15.059  0.6545  0.3859  0.5575
  698TMC3    C610374   0.173   0.861  15.120  0.4662 -0.6844  0.2717
  698TMC3     C10375   4.686   0.629  15.308  0.0783  0.2046  0.0399
  698TMC3     O10376   4.632   0.527  15.270 -0.5342 -0.0793  0.5755
  698TMC3     H10377   4.695   0.887  15.367 -2.1539  0.7536 -1.5843
  698TMC3    H110378   4.673   0.620  15.049  0.8703 -0.1278 -1.2864
  698TMC3    H210379   0.276   0.886  15.094  1.0040 -0.7951  2.2507
  698TMC3    C710380   0.133   0.746  14.919 -0.0274  0.4850  0.2008
  698TMC3    C810381   0.182   0.987  15.336  0.3134  0.2942 -0.0599
  698TMC3    O110382   0.039   0.708  14.853  0.0915 -0.0983 -0.0475
  698TMC3    O210383   0.161   0.942  15.447  0.3068  0.2416 -0.3073
  699TMC3    C110384   0.442   3.556  13.075 -0.3677  0.5546  0.0723
  699TMC3    C210385   0.501   3.434  13.078  0.4845  0.0075 -0.1360
  699TMC3    C310386   0.422   3.332  13.115 -0.1339 -0.4917  0.4493
  699TMC3    C410387   0.310   3.574  13.104  0.6164  0.0246  0.2738
  699TMC3    C510388   0.231   3.464  13.129 -0.4039  0.1506 -0.1662
  699TMC3    C610389   0.288   3.337  13.129 -0.0561 -1.0756 -0.2482
  699TMC3     C10390   0.525   3.665  13.039  0.2129  0.4156  0.1234
  699TMC3     O10391   0.474   3.773  13.040  0.0313  0.1250  0.0981
  699TMC3     H10392   0.594   3.409  13.028  0.0598 -1.2717 -0.2995
  699TMC3    H110393   0.287   3.677  13.129  2.7823  0.8464 -1.1091
  699TMC3    H210394   0.231   3.245  13.139  0.9791 -2.0781 -3.5614
  699TMC3    C710395   0.101   3.482  13.199  0.4506 -0.2759 -0.1227
  699TMC3    C810396   0.479   3.220  13.187  0.6428 -0.1807  0.7342
  699TMC3    O110397   0.086   3.590  13.255  0.5453 -0.2573  0.0260
  699TMC3    O210398   0.404   3.132  13.225 -0.7410  0.8232 -0.0168
  700TMC3    C110399   4.149   1.102  17.238  0.1382  0.7860  0.6526
  700TMC3    C210400   4.186   0.970  17.241  0.2397 -0.3732  0.3114
  700TMC3    C310401   4.284   0.933  17.330 -0.4465  0.7445  0.0176
  700TMC3    C410402   4.188   1.190  17.336  0.5207  0.1564 -0.3139
  700TMC3    C510403   4.277   1.150  17.428  1.1042  0.4767  0.7386
  700TMC3    C610404   4.334   1.027  17.425  0.1561 -0.2202  0.4186
  700TMC3     C10405   4.135   1.163  17.113 -0.7154 -0.3201 -0.2565
  700TMC3     O10406   4.078   1.093  17.028 -0.1347 -0.7229 -0.1687
  700TMC3     H10407   4.146   0.897  17.172 -1.6883  0.8141  0.1770
  700TMC3    H110408   4.154   1.292  17.319 -0.5662 -0.1251  0.2237
  700TMC3    H210409   4.407   1.002  17.502 -0.0807 -0.2686  0.6247
  700TMC3    C710410   4.331   1.247  17.520 -0.4163 -0.3833 -0.4561
  700TMC3    C810411   4.378   0.830  17.294  0.6992  0.1960 -0.7705
  700TMC3    O110412   4.436   1.224  17.582 -0.8304  0.5696 -0.1480
  700TMC3    O210413   4.354   0.787  17.185 -0.2799 -0.8922  0.1198
  701TMC3    C110414   3.805   0.161  15.803  0.0957  0.5994 -0.3683
  701TMC3    C210415   3.813   0.026  15.780  0.4554  0.2989  0.3424
  701TMC3    C310416   3.933   4.702  15.814  0.0390  1.0615  0.1249
  701TMC3    C410417   3.906   0.226  15.867 -0.3759 -0.2250  0.3498
  701TMC3    C510418   4.020   0.161  15.913 -0.0228  0.0943 -0.6010
  701TMC3    C610419   4.039   0.031  15.876 -0.9039  0.1419 -0.0163
  701TMC3     C10420   3.696   0.237  15.757  0.2580 -0.5478  0.2939
  701TMC3     O10421   3.672   0.340  15.818 -0.2315  0.4218  0.2971
  701TMC3     H10422   3.734   4.699  15.737  0.2480 -1.4133  3.1769
  701TMC3    H110423   3.904   0.330  15.897 -1.1644  0.3651 -1.7659
  701TMC3    H210424   4.135   4.722  15.851 -0.1172  1.1994  1.1954
  701TMC3    C710425   4.141   0.243  15.919 -0.0627  0.2949 -0.5406
  701TMC3    C810426   3.955   4.557  15.785 -0.9032 -0.3002 -0.2958
  701TMC3    O110427   4.129   0.357  15.883  0.6118 -0.4160  0.0139
  701TMC3    O210428   4.049   4.510  15.844  0.1651  0.4374  0.4712
  702MPD2     C10429   4.205   2.219  10.503 -0.0138 -0.4263 -0.4098
  702MPD2    C110430   4.072   2.200  10.492  0.5504  0.2272  0.6127
  702MPD2    C210431   4.006   2.246  10.376 -0.2721 -0.4556  0.3173
  702MPD2    C310432   4.075   2.293  10.268  0.5088 -0.1340  0.2335
  702MPD2    C410433   4.210   2.296  10.276  0.6633  0.1192 -0.1637
  702MPD2    C510434   4.271   2.258  10.392  0.3031 -0.0374  0.2333
  702MPD2     H10435   3.898   2.233  10.368 -0.3754  0.0125  0.8898
  702MPD2    H110436   4.271   2.319  10.190  1.9809 -0.0331  0.7256
  702MPD2    H210437   4.251   2.199  10.599  0.9735  0.8780 -0.6171
  702MPD2    H310438   4.379   2.270  10.395  0.0774  2.1740 -0.4224
  702MPD2     N10439   4.004   2.336  10.153 -0.3696 -0.2747 -0.5517
  702MPD2    H510440   3.904   2.348  10.165 -0.3098  0.8858 -1.1813
  702MPD2    N110441   3.996   2.153  10.606  0.6085  0.0242 -1.1521
  702MPD2    H710442   4.046   2.147  10.694  1.9641 -1.5930 -2.0299
  703TMC3    C110443   3.962   2.442   9.947  0.3807 -0.3621 -0.7943
  703TMC3    C210444   3.835   2.413   9.990 -0.9108  0.2616  0.2760
  703TMC3    C310445   3.758   2.518  10.022 -0.3671 -0.2546 -0.0508
  703TMC3    C410446   3.997   2.565   9.908  0.0166 -0.0946  0.4355
  703TMC3    C510447   3.920   2.670   9.939 -0.1449  0.1140  0.1923
  703TMC3    C610448   3.796   2.644   9.995 -0.0289  0.5026  0.4176
  703TMC3     C10449   4.057   2.381  10.034 -0.2528 -0.3182 -0.5886
  703TMC3     O10450   4.172   2.389   9.996 -0.7041  0.1347  0.4146
  703TMC3     H10451   3.795   2.316  10.014 -1.2023  0.0407 -1.1024
  703TMC3    H110452   4.100   2.569   9.874  0.3771 -1.3310  1.3567
  703TMC3    H210453   3.734   2.724  10.035 -0.1296 -0.3434  1.9494
  703TMC3    C710454   3.991   2.790   9.960  0.1398  0.5420 -0.6132
  703TMC3    C810455   3.610   2.501  10.036 -0.2347  0.1474  0.5116
  703TMC3    O110456   4.092   2.801   9.888  0.4667  0.0155 -0.2445
  703TMC3    O210457   3.556   2.431   9.952 -0.3243 -0.0141 -0.5165
  704TMC3    C110458   1.535   0.257  12.791 -0.6828  0.4431 -0.4427
  704TMC3    C210459   1.669   0.280  12.785 -0.5910 -0.5233 -0.0714
  704TMC3    C310460   1.753   0.183  12.834 -0.2274  1.2703 -0.2801
  704TMC3    C410461   1.484   0.143  12.857 -0.5902 -0.0730  0.4531
  704TMC3    C510462   1.580   0.045  12.900 -0.6142 -0.0792  0.0783
  704TMC3    C610463   1.714   0.073  12.896  0.4980 -0.3876 -0.1950
  704TMC3     C10464   1.449   0.357  12.729 -0.1564  0.4125 -0.1549
  704TMC3     O10465   1.340   0.381  12.780 -0.4163 -0.5181 -0.0140
  704TMC3     H10466   1.705   0.355  12.716 -0.8665 -0.5580 -0.2559
  704TMC3    H110467   1.383   0.109  12.837 -0.2290  0.2860 -1.9510
  704TMC3    H210468   1.791   4.734  12.917 -1.6840 -2.0486  2.0950
  704TMC3    C710469   1.562   4.647  12.846 -0.2855 -0.8633 -0.3782
  704TMC3    C810470   1.892   0.197  12.792 -0.2660 -0.0343  0.7685
  704TMC3    O110471   1.652   4.599  12.782  0.1477 -0.4163  0.0623
  704TMC3    O210472   1.916   0.255  12.686 -0.0723  0.1210  0.0733
  705MPD2     C10473   0.849   2.699  16.558  0.1893 -0.1207  0.0874
  705MPD2    C110474   0.884   2.828  16.595 -0.1769 -0.2817 -0.1003
  705MPD2    C210475   0.785   2.923  16.609 -0.1367 -0.4008 -0.2425
  705MPD2    C310476   0.656   2.885  16.574  0.6296 -0.5345  0.0063
  705MPD2    C410477   0.634   2.761  16.527  0.0128  0.7129 -0.4008
  705MPD2    C510478   0.721   2.665  16.535  0.1266  0.4159  0.7882
  705MPD2     H10479   0.806   3.026  16.636  0.4394 -0.2235 -1.3862
  705MPD2    H110480   0.542   2.730  16.479  0.7710 -1.7873 -0.2678
  705MPD2    H210481   0.923   2.620  16.553 -0.4313 -0.7395  0.6274
  705MPD2    H310482   0.705   2.563  16.502  1.1572  0.8709 -1.0977
  705MPD2     N10483   0.547   2.974  16.577 -0.7804 -0.0915  0.7215
  705MPD2    H510484   0.460   2.933  16.547 -1.5251  2.0594 -0.0949
  705MPD2    N110485   1.015   2.860  16.626  0.2440  0.0850  0.3506
  705MPD2    H710486   1.015   2.950  16.673 -1.1229  0.2768 -0.0197
  706TMC3    C110487   1.461   2.866  16.514  0.1776  0.0611 -0.3646
  706TMC3    C210488   1.477   2.990  16.555  0.1386 -0.5391 -0.4134
  706TMC3    C310489   1.373   3.051  16.630  0.6874  0.8762  0.0280
  706TMC3    C410490   1.358   2.790  16.555 -0.3189 -0.6268  0.1794
  706TMC3    C510491   1.254   2.854  16.617  0.8452 -0.0091 -0.0384
  706TMC3    C610492   1.259   2.985  16.659  0.5558  0.6333  0.0574
  706TMC3     C10493   1.577   2.815  16.434  0.1832 -0.0646  0.5966
  706TMC3     O10494   1.689   2.856  16.455  0.8189 -0.4164  0.8499
  706TMC3     H10495   1.557   3.055  16.521  1.3113 -0.8102  1.8224
  706TMC3    H110496   1.358   2.690  16.514 -0.0867 -0.1658 -0.9231
  706TMC3    H210497   1.178   3.039  16.708 -0.4711 -0.1668 -0.7770
  706TMC3    C710498   1.130   2.787  16.589  0.8246 -0.4229  0.5712
  706TMC3    C810499   1.341   3.179  16.581 -0.6889  0.1994  0.1873
  706TMC3    O110500   1.129   2.683  16.522  0.4087 -0.0184  0.9556
  706TMC3    O210501   1.376   3.196  16.466  0.0379 -0.0051  0.1657
  707TMC3    C110502   2.638   2.409   0.464  0.1257  0.2215  0.8611
  707TMC3    C210503   2.561   2.326   0.538 -0.1150  0.1287  0.1450
  707TMC3    C310504   2.424   2.334   0.525  0.6183  0.4057 -0.7140
  707TMC3    C410505   2.589   2.508   0.380 -0.0671 -0.6796  0.4946
  707TMC3    C510506   2.451   2.520   0.370 -0.9785  0.2059 -0.7497
  707TMC3    C610507   2.367   2.428   0.435  0.1569  0.4299  0.7223
  707TMC3     C10508   2.774   2.355   0.435  0.4139  0.0372 -0.4627
  707TMC3     O10509   2.825   2.303   0.532 -0.3484  0.4348  0.3424
  707TMC3     H10510   2.612   2.254   0.601  2.1960  0.0828 -1.7751
  707TMC3    H110511   2.654   2.575   0.326 -0.2363 -0.7910  0.1456
  707TMC3    H210512   2.260   2.439   0.418  0.5437  1.9266 -0.7296
  707TMC3    C710513   2.399   2.631   0.289  0.1524 -0.1674  0.4174
  707TMC3    C810514   2.337   2.231   0.574 -0.0557 -0.1992  0.1399
  707TMC3    O110515   2.474   2.725   0.301 -0.3711 -0.2755 -0.6177
  707TMC3    O210516   2.215   2.247   0.577  0.3409  0.7406  0.1471
  708MPD2     C10517   4.017   1.484  14.054  0.7398  0.3881  0.1434
  708MPD2    C110518   4.122   1.564  14.019  0.8004 -0.5110 -0.2059
  708MPD2    C210519   4.171   1.653  14.112 -0.0984  0.5579 -0.3861
  708MPD2    C310520   4.098   1.681  14.230 -0.1383 -0.2107 -0.1100
  708MPD2    C410521   3.994   1.594  14.265  0.1312  0.1757  0.8370
  708MPD2    C510522   3.967   1.490  14.177  0.0194  0.9400  0.3106
  708MPD2     H10523   4.253   1.719  14.090  1.1155 -0.5736  0.7341
  708MPD2    H110524   3.945   1.598  14.362  0.0434  0.1637  0.7934
  708MPD2    H210525   3.995   1.405  13.983 -1.8498  0.9410  0.3287
  708MPD2    H310526   3.896   1.417  14.214  1.3354 -0.7561 -0.5429
  708MPD2     N10527   4.135   1.792  14.309  0.2622 -0.1828  0.0086
  708MPD2    H510528   4.217   1.840  14.275  0.5137  0.2605  1.2485
  708MPD2    N110529   4.180   1.552  13.890 -0.5032  0.1473  0.5621
  708MPD2    H710530   4.117   1.519  13.818  0.7823 -0.9979 -0.0441
  709TMC3    C110531   4.280   1.637  13.700 -0.2648  0.3232 -0.2722
  709TMC3    C210532   4.212   1.536  13.633  0.0638 -0.0094 -0.3911
  709TMC3    C310533   4.147   1.575  13.526  0.4190 -0.2640  0.1944
  709TMC3    C410534   4.280   1.768  13.653  0.1631 -1.1695  0.1137
  709TMC3    C510535   4.182   1.806  13.562 -1.1441  0.4575  0.1840
  709TMC3    C610536   4.119   1.705  13.494  0.0539 -0.2533 -0.2802
  709TMC3     C10537   4.289   1.622  13.847 -0.0219  0.0209  0.3069
  709TMC3     O10538   4.367   1.692  13.903 -0.4103  0.3154  0.3724
  709TMC3     H10539   4.230   1.431  13.652  1.4025  0.8413  3.1780
  709TMC3    H110540   4.338   1.841  13.708 -0.6379 -0.6638  0.2959
  709TMC3    H210541   4.047   1.730  13.417  1.9571  2.7315 -1.1079
  709TMC3    C710542   4.108   1.928  13.595  0.0324 -0.3173  0.5963
  709TMC3    C810543   4.143   1.480  13.413 -0.8951 -0.1391  0.0344
  709TMC3    O110544   4.178   2.015  13.642 -0.4297  0.0670 -0.2508
  709TMC3    O210545   4.197   1.373  13.431 -0.1542  0.0924 -0.5603
  710TMC3    C110546   0.323   3.034   0.545 -0.1778  0.1329  0.2826
  710TMC3    C210547   0.398   3.019   0.430 -0.6716 -0.4396  0.1635
  710TMC3    C310548   0.485   2.913   0.431  0.0382  0.6566  0.5610
  710TMC3    C410549   0.329   2.943   0.648 -0.7318 -0.1241  0.0102
  710TMC3    C510550   0.409   2.836   0.637 -0.4702  0.0120 -0.5821
  710TMC3    C610551   0.492   2.824   0.534  0.2495 -0.3341 -0.3082
  710TMC3     C10552   0.215   3.133   0.544  0.1801  0.3474  0.2084
  710TMC3     O10553   0.231   3.230   0.470  0.0135  0.4148  0.0703
  710TMC3     H10554   0.386   3.088   0.347  1.9254  0.0293  0.1689
  710TMC3    H110555   0.275   2.960   0.741  0.3964  0.9571  0.4813
  710TMC3    H210556   0.554   2.735   0.528 -1.6073 -1.8589  3.5733
  710TMC3    C710557   0.433   2.766   0.763 -0.8345  0.3147  0.2999
  710TMC3    C810558   0.595   2.927   0.340  0.3795 -0.1557 -0.0437
  710TMC3    O110559   0.343   2.760   0.847  0.1564  0.3415  0.3342
  710TMC3    O210560   0.572   3.014   0.254  0.3445  0.1028 -0.0905
  711TMC3    C110561   0.212   3.977  15.338 -0.0968 -0.8461 -0.3119
  711TMC3    C210562   0.270   4.051  15.433  0.5098  0.7336 -0.5251
  711TMC3    C310563   0.399   4.026  15.470  1.1026  0.0207  0.0319
  711TMC3    C410564   0.276   3.870  15.278 -0.4438  0.2338  0.1432
  711TMC3    C510565   0.401   3.839  15.327  0.3495  0.3284  1.0004
  711TMC3    C610566   0.469   3.917  15.423  0.2871 -0.1314 -0.5363
  711TMC3     C10567   0.071   3.982  15.301  0.0703 -0.4463 -0.0824
  711TMC3     O10568   0.026   3.934  15.196 -0.5285  0.2096 -0.5910
  711TMC3     H10569   0.216   4.137  15.471 -0.4744 -0.0406 -0.1575
  711TMC3    H110570   0.209   3.804  15.224  0.6184 -2.1928  1.7961
  711TMC3    H210571   0.573   3.897  15.449  0.4672  0.8536 -0.5111
  711TMC3    C710572   0.475   3.723  15.283 -0.1098 -0.1116  0.1797
  711TMC3    C810573   0.445   4.091  15.596 -0.3669  0.2357 -0.4450
  711TMC3    O110574   0.576   3.695  15.347  0.1461 -0.0967 -0.2332
  711TMC3    O210575   0.364   4.167  15.645 -0.1491 -0.0142  0.0159
  712MPD2     C10576   1.546   0.039  14.195 -0.0429  0.0298 -0.4225
  712MPD2    C110577   1.457   0.129  14.131  0.2684 -0.1005 -0.5818
  712MPD2    C210578   1.488   0.263  14.136 -0.7909  0.7778 -0.3240
  712MPD2    C310579   1.598   0.308  14.214 -0.2173  0.0934 -0.3529
  712MPD2    C410580   1.673   0.225  14.283 -0.0366  0.4421 -0.1748
  712MPD2    C510581   1.646   0.090  14.273  0.0722  0.2697  0.4006
  712MPD2     H10582   1.429   0.322  14.068  0.1361  1.8943 -0.1512
  712MPD2    H110583   1.759   0.251  14.344 -1.4686  0.5878  1.7871
  712MPD2    H210584   1.538   4.665  14.194  1.9605 -0.1442  2.3805
  712MPD2    H310585   1.709   0.023  14.331  0.9895 -0.3711 -1.3245
  712MPD2     N10586   1.647   0.440  14.216 -0.2845 -0.2599 -0.3906
  712MPD2    H510587   1.736   0.458  14.261  0.2558  0.7872 -1.8747
  712MPD2    N110588   1.358   0.081  14.044 -0.0210  0.1770  0.0833
  712MPD2    H710589   1.317   0.148  13.980 -0.1707  0.9131  0.9406
  713TMC3    C110590   1.671   0.659  14.149  0.5055 -0.6178  0.7101
  713TMC3    C210591   1.790   0.654  14.219 -0.2679 -0.1230 -0.3450
  713TMC3    C310592   1.860   0.767  14.212 -0.1353 -0.1720 -0.5911
  713TMC3    C410593   1.630   0.771  14.071  0.7134 -0.0186 -0.0768
  713TMC3    C510594   1.719   0.879  14.060  0.2563  0.0570 -0.2576
  713TMC3    C610595   1.841   0.876  14.125 -0.3235 -0.1666  0.2311
  713TMC3     C10596   1.595   0.536  14.137 -0.1351 -0.6411 -0.2966
  713TMC3     O10597   1.494   0.541  14.068 -0.2314 -0.0823  0.6166
  713TMC3     H10598   1.825   0.575  14.285  0.4466  0.2879 -0.2335
  713TMC3    H110599   1.537   0.772  14.015  0.7495 -1.6731 -0.1657
  713TMC3    H210600   1.900   0.965  14.139  0.8962 -0.6719 -1.7171
  713TMC3    C710601   1.693   0.979  13.960  0.0107  0.2592  0.1827
  713TMC3    C810602   2.000   0.747  14.253  0.1423 -0.3638 -0.7961
  713TMC3    O110603   1.794   1.032  13.917 -0.4919  0.1457 -0.3164
  713TMC3    O210604   2.013   0.681  14.354 -0.6153  0.4138  0.1033
  714MPD2     C10605   3.393   3.566   0.835  0.0975  0.7993 -0.6581
  714MPD2    C110606   3.313   3.465   0.879 -0.3557  0.6640  1.0802
  714MPD2    C210607   3.180   3.497   0.892 -0.5844  0.8023  0.3391
  714MPD2    C310608   3.127   3.617   0.870 -0.0088  0.2039 -0.4383
  714MPD2    C410609   3.214   3.723   0.847 -0.2895  0.0478 -0.3313
  714MPD2    C510610   3.346   3.689   0.814  0.4425 -0.3807 -0.2752
  714MPD2     H10611   3.106   3.423   0.920 -1.1896  1.2773  0.0003
  714MPD2    H110612   3.196   3.829   0.840  1.3599  0.2723 -1.3144
  714MPD2    H210613   3.500   3.545   0.835  0.4303  2.4592  0.9691
  714MPD2    H310614   3.414   3.767   0.782 -0.6654  0.9739  0.6632
  714MPD2     N10615   2.989   3.633   0.879 -0.2274 -0.3490  0.2753
  714MPD2    H510616   2.928   3.553   0.895  0.8460 -0.8050  2.1269
  714MPD2    N110617   3.362   3.338   0.915  0.0264  0.1560 -0.6433
  714MPD2    H710618   3.450   3.307   0.875  0.1227 -1.2227  0.6571
  715TMC3    C110619   3.369   3.126   1.027 -0.6967  0.2759 -0.3811
  715TMC3    C210620   3.477   3.091   0.945  1.1918  0.3500  0.2720
  715TMC3    C310621   3.577   3.024   1.000  0.2369 -0.0348 -0.2858
  715TMC3    C410622   3.358   3.068   1.152 -0.1456 -0.2968  0.1775
  715TMC3    C510623   3.469   3.001   1.204  1.1767  0.1968  0.5334
  715TMC3    C610624   3.573   2.974   1.130  0.4277  0.4749  0.5235
  715TMC3     C10625   3.293   3.245   0.997  0.8022  0.6854  0.0623
  715TMC3     O10626   3.189   3.261   1.055 -0.1365  0.8675 -0.2997
  715TMC3     H10627   3.485   3.118   0.840 -0.8914 -1.6088 -0.3918
  715TMC3    H110628   3.272   3.086   1.214  0.3502  0.5510  0.6164
  715TMC3    H210629   3.654   2.912   1.167  1.3656  2.5474  1.9920
  715TMC3    C710630   3.470   2.954   1.342 -0.3153  0.3307  0.4855
  715TMC3    C810631   3.669   2.965   0.907 -0.0430 -0.0205 -0.3570
  715TMC3    O110632   3.582   2.915   1.380 -0.3515  0.2052 -0.0980
  715TMC3    O210633   3.637   2.959   0.790 -0.0812 -0.3028 -0.3187
  716MPD2     C10634   4.328   2.666  10.138  0.3009  0.5231  0.1570
  716MPD2    C110635   4.397   2.610  10.037 -0.9144 -0.2857  0.4752
  716MPD2    C210636   4.506   2.529  10.071  0.0191 -0.4659  0.3274
  716MPD2    C310637   4.528   2.497  10.207 -0.3148 -0.4615 -0.2015
  716MPD2    C410638   4.459   2.562  10.304 -0.1776  0.0507  0.0595
  716MPD2    C510639   4.367   2.654  10.268 -0.0500 -0.1231  0.2148
  716MPD2     H10640   4.564   2.477   9.996 -2.0295 -2.5567  0.1977
  716MPD2    H110641   4.474   2.564  10.411  0.1162 -1.0127  0.0361
  716MPD2    H210642   4.250   2.737  10.113  0.4316  0.3947 -0.6324
  716MPD2    H310643   4.322   2.705  10.352  1.8679  3.3210 -0.8663
  716MPD2     N10644   4.645   2.420  10.237 -0.2414  0.3356  0.3192
  716MPD2    H510645   4.688   2.372  10.159 -0.1352  0.1906  0.4672
  716MPD2    N110646   4.361   2.656   9.907 -0.2965  0.0469 -0.4670
  716MPD2    H710647   4.294   2.732   9.903  0.4740  0.8591  2.0116
  717TMC3    C110648   0.033   2.258  10.366  0.5746 -0.3625  0.5428
  717TMC3    C210649   0.079   2.210  10.249 -0.1848  0.7030  0.0944
  717TMC3    C310650   0.131   2.083  10.237  0.0740 -0.2574  0.3488
  717TMC3    C410651   0.051   2.182  10.480  0.5234 -0.7709  0.6696
  717TMC3    C510652   0.087   2.048  10.469  0.5756 -0.4512 -0.0117
  717TMC3    C610653   0.134   1.996  10.351 -0.4955 -0.5415  0.1243
  717TMC3     C10654   4.688   2.382  10.367  0.6062 -0.9978 -0.1723
  717TMC3     O10655   4.640   2.420  10.474  0.2237 -0.3921  0.3116
  717TMC3     H10656   0.091   2.272  10.160 -1.2475 -1.5855 -1.6288
  717TMC3    H110657   0.001   2.213  10.571 -3.5176 -0.3979 -1.6656
  717TMC3    H210658   0.172   1.895  10.344 -0.0382 -0.4986  2.1400
  717TMC3    C710659   0.137   1.989  10.591 -0.0235  0.0372 -0.1330
  717TMC3    C810660   0.117   2.027  10.105  0.5315  0.4306 -0.4467
  717TMC3    O110661   0.164   2.068  10.681 -0.8421  0.3992 -0.6375
  717TMC3    O210662   0.037   2.092  10.035  0.1980 -0.0990  0.0831
  718MPD2     C10663   3.420   0.092  12.839 -0.2834  0.1342  0.4411
  718MPD2    C110664   3.361   0.206  12.776 -0.7819 -0.5535 -0.0265
  718MPD2    C210665   3.242   0.248  12.828 -0.1722  0.4096 -0.7311
  718MPD2    C310666   3.171   0.181  12.933 -1.3736  0.1419 -0.6696
  718MPD2    C410667   3.240   0.078  12.991 -0.3530  0.5828  0.3263
  718MPD2    C510668   3.359   0.034  12.942 -0.3555 -0.1150  0.0909
  718MPD2     H10669   3.198   0.343  12.799 -1.2741  0.7695  2.1080
  718MPD2    H110670   3.197   0.017  13.070 -2.2429  2.2914  0.5963
  718MPD2    H210671   3.512   0.044  12.807  0.8138  2.2234  0.4825
  718MPD2    H310672   3.413   4.685  12.985  0.9742  0.9114  0.4147
  718MPD2     N10673   3.041   0.222  12.966  0.1870 -0.3594  0.5606
  718MPD2    H510674   3.016   0.314  12.930 -2.6228 -1.7049 -0.9218
  718MPD2    N110675   3.434   0.275  12.668  0.4617  0.4481 -0.8328
  718MPD2    H710676   3.516   0.228  12.631 -0.1104 -1.1022 -0.1600
  719TMC3    C110677   3.441   0.380  12.459 -0.5480  0.3463 -0.4977
  719TMC3    C210678   3.346   0.444  12.392 -0.0192 -0.0855 -0.7232
  719TMC3    C310679   3.371   0.569  12.354  0.0067 -0.7084 -0.4338
  719TMC3    C410680   3.565   0.437  12.486 -0.0858 -0.4049 -0.1084
  719TMC3    C510681   3.593   0.557  12.429  0.6570 -0.7017  0.0792
  719TMC3    C610682   3.491   0.631  12.369 -0.3380 -0.3445 -0.4958
  719TMC3     C10683   3.368   0.360  12.588 -0.1578 -0.3882  0.7161
  719TMC3     O10684   3.261   0.404  12.604  0.4755 -0.0230  0.2996
  719TMC3     H10685   3.250   0.397  12.376 -1.5162  1.9882  2.1920
  719TMC3    H110686   3.633   0.379  12.546 -1.6532  0.1792  2.2207
  719TMC3    H210687   3.506   0.738  12.356 -1.9225 -0.0978 -0.3510
  719TMC3    C710688   3.721   0.619  12.457  0.4111  0.3298 -0.1626
  719TMC3    C810689   3.250   0.641  12.337  0.0318  0.2897 -0.3867
  719TMC3    O110690   3.730   0.739  12.431 -0.2249  0.2645 -0.1557
  719TMC3    O210691   3.247   0.728  12.246 -0.4104  0.1925 -0.3134
  720MPD2     C10692   1.768   1.966  13.822  0.2924 -0.5921  0.7143
  720MPD2    C110693   1.813   2.096  13.798 -0.0824 -0.3195 -0.8797
  720MPD2    C210694   1.898   2.150  13.890 -0.0532  0.3144 -0.5584
  720MPD2    C310695   1.947   2.078  14.003  0.2619 -0.3517  0.0723
  720MPD2    C410696   1.903   1.952  14.019 -0.1831 -0.1433  0.1395
  720MPD2    C510697   1.812   1.905  13.934  0.4530 -0.7848 -0.8550
  720MPD2     H10698   1.943   2.247  13.874  2.1102 -0.4223  1.0700
  720MPD2    H110699   1.932   1.887  14.102  0.9738  1.7122  1.1881
  720MPD2    H210700   1.692   1.913  13.767  0.2312 -0.5376  0.7473
  720MPD2    H310701   1.793   1.800  13.952  0.4191 -0.4463  1.1185
  720MPD2     N10702   2.031   2.143  14.094  0.6217 -0.8559 -0.4690
  720MPD2    H510703   2.062   2.239  14.080 -0.4453 -0.2638  1.2095
  720MPD2    N110704   1.765   2.184  13.700 -0.7166 -0.2420  0.4098
  720MPD2    H710705   1.798   2.280  13.697 -0.4591 -0.3597 -0.3897
  721TMC3    C110706   2.181   2.162  14.274 -0.6538  0.4245  0.1415
  721TMC3    C210707   2.191   2.147  14.411  0.5205 -0.3493 -1.0788
  721TMC3    C310708   2.312   2.164  14.463  0.2750 -0.2568  0.6099
  721TMC3    C410709   2.293   2.180  14.191 -0.4000  0.3982 -0.6654
  721TMC3    C510710   2.417   2.175  14.258 -0.5398 -0.1579 -0.4288
  721TMC3    C610711   2.430   2.165  14.392 -0.2234 -0.3214  0.0648
  721TMC3     C10712   2.069   2.095  14.215 -0.1203  0.3883 -0.6176
  721TMC3     O10713   2.020   2.006  14.281  0.4444 -0.4065  0.2857
  721TMC3     H10714   2.105   2.124  14.472  1.1586 -0.7763 -0.3404
  721TMC3    H110715   2.283   2.168  14.083  0.4720 -1.4462 -0.5440
  721TMC3    H210716   2.521   2.210  14.430 -0.0145 -0.5220 -0.1953
  721TMC3    C710717   2.531   2.179  14.171  0.2862  0.6068 -1.1433
  721TMC3    C810718   2.314   2.196  14.599  0.7150 -0.2704  0.1034
  721TMC3    O110719   2.526   2.264  14.080 -0.3252  0.6024  0.1869
  721TMC3    O210720   2.421   2.166  14.652 -0.5186 -0.1103 -0.2790
  722MPD2     C10721   0.433   1.058  13.552 -0.1608  0.1123  0.0261
  722MPD2    C110722   0.519   1.120  13.460  0.6842  0.6204  0.1297
  722MPD2    C210723   0.484   1.138  13.329  0.1515  0.4484 -0.9202
  722MPD2    C310724   0.364   1.094  13.282  0.2083 -0.0807  0.2940
  722MPD2    C410725   0.276   1.039  13.369 -0.3924  0.0537 -0.4437
  722MPD2    C510726   0.319   1.003  13.500 -0.1251 -0.1491  0.6208
  722MPD2     H10727   0.549   1.188  13.259  1.5257  1.1762  0.8683
  722MPD2    H110728   0.177   1.005  13.342  0.1195 -0.8863 -1.1332
  722MPD2    H210729   0.444   1.053  13.659  0.8845 -0.0023 -0.0870
  722MPD2    H310730   0.244   0.955  13.562  1.5957 -1.1692  1.8766
  722MPD2     N10731   0.340   1.109  13.145 -0.0155 -0.2536 -0.7014
  722MPD2    H510732   0.404   1.169  13.093  0.5765  0.0667  0.4002
  722MPD2    N110733   0.634   1.187  13.502  0.1198  0.2613 -0.0193
  722MPD2    H710734   0.681   1.247  13.436  0.3458 -0.3763 -0.4374
  723TMC3    C110735   0.254   1.049  12.933  0.3148  0.0728  0.1114
  723TMC3    C210736   0.214   0.932  12.865  0.1616  0.6681  0.2984
  723TMC3    C310737   0.179   0.960  12.736  0.0720  0.1384 -0.8069
  723TMC3    C410738   0.268   1.171  12.887  0.3824 -0.4339 -0.2113
  723TMC3    C510739   0.231   1.184  12.754 -0.3005  0.0157  0.6762
  723TMC3    C610740   0.183   1.085  12.676  0.4776  0.6688  0.2747
  723TMC3     C10741   0.246   1.033  13.078 -0.0593 -0.1563  0.3786
  723TMC3     O10742   0.183   0.945  13.130  0.8869  0.3847 -0.5644
  723TMC3     H10743   0.207   0.837  12.916 -1.2744  1.0111  0.7411
  723TMC3    H110744   0.279   1.262  12.944 -2.9207 -0.1799  0.0344
  723TMC3    H210745   0.138   1.103  12.578  0.1343 -2.1196 -0.0855
  723TMC3    C710746   0.233   1.315  12.691 -0.1179 -0.3102  0.1412
  723TMC3    C810747   0.095   0.860  12.664 -0.1942 -0.6008 -0.1163
  723TMC3    O110748   0.243   1.318  12.568 -0.3036 -0.0620 -0.0487
  723TMC3    O210749   0.047   0.906  12.566 -0.6588  0.3672  0.5082
  724TMC3    C110750   1.384   3.373  10.495 -0.2718  0.5856  0.6491
  724TMC3    C210751   1.324   3.495  10.478  0.4234  0.5713 -0.3315
  724TMC3    C310752   1.404   3.597  10.443  0.1745  0.2897  0.2626
  724TMC3    C410753   1.518   3.352  10.460  0.8767  1.0354  0.1296
  724TMC3    C510754   1.593   3.457  10.414 -0.4960  0.4690  0.3864
  724TMC3    C610755   1.540   3.581  10.407 -0.5997 -0.1643  0.3988
  724TMC3     C10756   1.320   3.271  10.576 -0.4849  0.4736 -0.4143
  724TMC3     O10757   1.350   3.154  10.553 -0.3056 -0.1596 -0.4862
  724TMC3     H10758   1.221   3.515  10.508 -0.2617 -2.5937 -0.4971
  724TMC3    H110759   1.563   3.256  10.484 -0.1380  0.3869 -0.5878
  724TMC3    H210760   1.595   3.657  10.353  1.6100 -1.7681  0.3890
  724TMC3    C710761   1.720   3.434  10.347 -0.4279  0.2572  0.4568
  724TMC3    C810762   1.343   3.727  10.459  0.5643  0.0363 -0.2343
  724TMC3    O110763   1.791   3.531  10.323 -0.1367 -0.1492  0.2977
  724TMC3    O210764   1.224   3.737  10.474 -0.2911 -0.0028 -0.2256
  725TMC3    C110765   2.650   2.554  12.971  0.1535  0.3724 -0.3525
  725TMC3    C210766   2.532   2.623  12.970  0.0548 -0.5866  0.8976
  725TMC3    C310767   2.414   2.556  12.976  0.7330 -0.6344 -0.4488
  725TMC3    C410768   2.643   2.416  12.982 -0.0878  0.3508 -0.7501
  725TMC3    C510769   2.519   2.358  12.974  0.1042  0.3500 -0.5094
  725TMC3    C610770   2.403   2.422  12.982  0.3512 -0.7347  0.4876
  725TMC3     C10771   2.764   2.625  13.013 -0.2725 -0.2204  0.1115
  725TMC3     O10772   2.756   2.743  13.029  0.1274  0.6777  0.1073
  725TMC3     H10773   2.533   2.731  12.971  2.0693 -0.6221  2.8904
  725TMC3    H110774   2.729   2.350  12.980  0.0156  0.5041 -1.3138
  725TMC3    H210775   2.313   2.363  12.997 -1.7498  1.8733 -2.0204
  725TMC3    C710776   2.516   2.216  12.928 -0.2237 -0.3296 -0.4081
  725TMC3    C810777   2.298   2.618  12.922 -0.3341 -0.7389  0.3670
  725TMC3    O110778   2.411   2.154  12.944 -0.2688 -0.0576 -0.1263
  725TMC3    O210779   2.193   2.557  12.925 -0.1600 -0.6506 -0.2428
  726MPD2     C10780   0.500   4.209  11.005  0.0718 -0.1819  0.0513
  726MPD2    C110781   0.400   4.238  10.913 -0.0769 -0.2544 -0.2024
  726MPD2    C210782   0.275   4.196  10.944  0.6612 -0.1491  0.2941
  726MPD2    C310783   0.244   4.126  11.057 -0.9683  0.1779 -0.0235
  726MPD2    C410784   0.343   4.113  11.153 -0.4839 -0.1996 -0.3448
  726MPD2    C510785   0.476   4.141  11.127 -0.3813 -0.2299 -0.0963
  726MPD2     H10786   0.206   4.207  10.861  1.3230 -2.0558 -0.4991
  726MPD2    H110787   0.315   4.064  11.245  1.5540 -0.2154  0.2570
  726MPD2    H210788   0.604   4.229  10.983  0.3507  0.4188  1.9689
  726MPD2    H310789   0.556   4.120  11.197  0.6775  0.5493 -1.0632
  726MPD2     N10790   0.112   4.085  11.090  0.9405 -0.2385  0.2998
  726MPD2    H510791   0.103   4.061  11.188  1.7672 -0.2605  0.3708
  726MPD2    N110792   0.430   4.315  10.797 -0.1925  0.6738  0.1309
  726MPD2    H710793   0.353   4.339  10.735 -0.7906  0.4979  0.8056
  727TMC3    C110794   0.547   4.452  10.647  0.6103  0.0935  0.5319
  727TMC3    C210795   0.619   4.562  10.631 -0.3521  0.5158  0.2531
  727TMC3    C310796   0.621   4.629  10.512  0.5235  0.2183 -0.9038
  727TMC3    C410797   0.467   4.412  10.553  0.1181 -0.5844 -0.2201
  727TMC3    C510798   0.467   4.477  10.434  0.1505 -0.2155  0.5125
  727TMC3    C610799   0.541   4.585  10.408 -0.1997 -0.5895 -0.1049
  727TMC3     C10800   0.551   4.370  10.768 -0.7009 -0.8029  0.9956
  727TMC3     O10801   0.640   4.414  10.837  0.3503  0.6417 -0.4783
  727TMC3     H10802   0.672   4.601  10.718 -1.8589  1.7213  0.6207
  727TMC3    H110803   0.406   4.323  10.563  0.2918 -0.6603  0.1969
  727TMC3    H210804   0.544   4.637  10.313  0.7916 -0.6073 -0.0822
  727TMC3    C710805   0.404   4.410  10.322 -0.0994 -0.4953  0.5920
  727TMC3    C810806   0.671   0.030  10.521  0.2305 -0.3520 -0.4975
  727TMC3    O110807   0.377   4.293  10.341  0.6324 -0.6627  0.8733
  727TMC3    O210808   0.741   0.065  10.614  0.4748 -0.5134  0.6812
  728TMC3    C110809   4.601   2.810  15.336  0.7532  0.4764  0.3923
  728TMC3    C210810   4.726   2.848  15.286 -0.5578 -0.5176 -0.6204
  728TMC3    C310811   4.717   2.931  15.177  0.0424  0.3847  0.3367
  728TMC3    C410812   4.475   2.849  15.285 -0.5863  0.6511  0.0241
  728TMC3    C510813   4.482   2.946  15.190 -0.0754 -0.0223  0.2176
  728TMC3    C610814   4.598   2.968  15.120  0.6619 -0.2509  0.3439
  728TMC3     C10815   4.600   2.744  15.465 -0.5373  0.4752  0.8483
  728TMC3     O10816   4.691   2.780  15.545 -0.2158 -0.2851 -0.1768
  728TMC3     H10817   0.088   2.831  15.334 -1.7535 -0.9954  1.5658
  728TMC3    H110818   4.382   2.839  15.339  0.7871  1.6412  2.5546
  728TMC3    H210819   4.591   3.024  15.027 -0.1857 -3.9471 -1.8267
  728TMC3    C710820   4.356   2.978  15.129 -0.7285 -0.0524  0.3646
  728TMC3    C810821   0.101   2.949  15.088 -0.2978 -0.2628  0.2539
  728TMC3    O110822   4.259   2.900  15.146  0.9450 -0.0244  0.2663
  728TMC3    O210823   0.075   3.000  14.977 -0.6024  0.2867 -0.3100
  729MPD2     C10824   1.293   3.923  16.948  0.0603 -0.5953  0.4722
  729MPD2    C110825   1.406   3.845  16.964  0.0745 -0.2064  0.0248
  729MPD2    C210826   1.440   3.799  17.095  0.4134  0.6663 -0.4076
  729MPD2    C310827   1.358   3.831  17.208 -0.5531  1.0316 -0.5719
  729MPD2    C410828   1.242   3.909  17.182 -0.2114  0.2933  0.0377
  729MPD2    C510829   1.214   3.954  17.056  0.0548 -0.5830 -1.2312
  729MPD2     H10830   1.527   3.734  17.106  0.8561  0.8679 -2.6028
  729MPD2    H110831   1.167   3.931  17.256 -1.4514 -1.2164 -0.7525
  729MPD2    H210832   1.262   3.967  16.854 -2.1290 -1.2004  0.9152
  729MPD2    H310833   1.125   4.012  17.032 -0.9586 -1.5007  0.3197
  729MPD2     N10834   1.396   3.803  17.341  0.2724 -0.8936  0.1347
  729MPD2    H510835   1.347   3.852  17.415 -0.1100  0.5371 -1.0586
  729MPD2    N110836   1.477   3.822  16.847  0.5842  0.2557 -0.0251
  729MPD2    H710837   1.444   3.872  16.765  2.6376 -1.1180 -1.6938
  730TMC3    C110838   1.582   3.751  17.469  0.4949  0.0058 -0.3153
  730TMC3    C210839   1.710   3.718  17.438 -0.5481 -0.2845  0.1960
  730TMC3    C310840   1.811   3.811  17.443 -0.1697 -0.3182  0.3548
  730TMC3    C410841   1.557   3.875  17.517  0.1239  0.2407 -0.1701
  730TMC3    C510842   1.655   3.968  17.531  0.3424  0.2379 -0.1918
  730TMC3    C610843   1.783   3.939  17.480 -0.1505  0.3730 -0.0950
  730TMC3     C10844   1.491   3.704  17.370 -1.1657 -0.1941  0.2151
  730TMC3     O10845   1.522   3.605  17.308 -0.0207 -0.1701 -0.2780
  730TMC3     H10846   1.725   3.618  17.399  3.1391 -0.6814  2.6009
  730TMC3    H110847   1.455   3.899  17.545 -0.8688 -3.6655 -0.5138
  730TMC3    H210848   1.856   4.019  17.474  1.2865 -0.7419  2.2018
  730TMC3    C710849   1.623   4.114  17.534 -0.5502  0.6078 -0.2299
  730TMC3    C810850   1.924   3.784  17.361 -0.6766  0.0312  0.4270
  730TMC3    O110851   1.718   4.187  17.505 -0.0975 -0.0882 -0.3947
  730TMC3    O210852   1.961   3.667  17.361  0.5560 -0.4054 -0.2085
  731MPD2     C10853   1.816   2.790  12.232  0.6119 -0.0153  0.4931
  731MPD2    C110854   1.929   2.715  12.219  0.1938 -0.1034 -0.0313
  731MPD2    C210855   1.966   2.617  12.315  0.5114  0.1467  0.1627
  731MPD2    C310856   1.885   2.602  12.430  0.4344 -1.1419 -0.0298
  731MPD2    C410857   1.769   2.682  12.443 -1.0468 -0.2362  0.3401
  731MPD2    C510858   1.738   2.771  12.341 -0.7065  0.3174 -0.4595
  731MPD2     H10859   2.049   2.548  12.300  1.8227  1.5248  1.0820
  731MPD2    H110860   1.719   2.677  12.539 -1.9075 -3.3707 -0.2566
  731MPD2    H210861   1.773   2.840  12.147 -0.7702 -3.9253 -1.1129
  731MPD2    H310862   1.654   2.840  12.352  0.0645  1.0852  0.6294
  731MPD2     N10863   1.922   2.510  12.531  0.1015  0.6266  0.5229
  731MPD2    H510864   1.991   2.439  12.507  0.4049  0.3859  2.0977
  731MPD2    N110865   1.998   2.718  12.096 -0.2643 -0.2998 -0.4185
  731MPD2    H710866   1.950   2.776  12.028 -0.8630 -0.3036 -0.0046
  732TMC3    C110867   2.140   2.661  11.925  0.9692 -0.8330  0.4782
  732TMC3    C210868   2.039   2.635  11.838  0.0554  0.3868  0.2756
  732TMC3    C310869   2.063   2.600  11.710 -0.2384 -0.9978 -0.1695
  732TMC3    C410870   2.270   2.651  11.888 -0.9217  0.1169  0.1843
  732TMC3    C510871   2.292   2.624  11.753  0.4213 -0.1541  0.1691
  732TMC3    C610872   2.189   2.598  11.663 -0.6130 -0.1678 -0.2283
  732TMC3     C10873   2.116   2.663  12.066 -0.4908  0.2657  0.6364
  732TMC3     O10874   2.208   2.631  12.139  0.0167 -0.2312 -0.1848
  732TMC3     H10875   1.940   2.658  11.874  0.2433  1.7322 -0.0730
  732TMC3    H110876   2.357   2.664  11.951 -0.6272  0.0630 -0.2078
  732TMC3    H210877   2.210   2.567  11.562  0.2985  0.5419 -0.2579
  732TMC3    C710878   2.416   2.584  11.703 -0.4822  0.1046  0.4079
  732TMC3    C810879   1.955   2.534  11.631 -0.3255 -0.9403  0.2818
  732TMC3    O110880   2.439   2.581  11.583  0.0366  0.7517 -0.0601
  732TMC3    O210881   1.990   2.493  11.522  0.1589  0.3113 -0.0349
  733TMC3    C110882   2.610   0.279  13.072  0.1858  0.1443  0.8300
  733TMC3    C210883   2.728   0.228  13.107 -0.2441 -0.6639  0.0066
  733TMC3    C310884   2.823   0.220  13.005  0.2719 -0.6574  0.6405
  733TMC3    C410885   2.584   0.331  12.946 -0.2658  0.2504  0.4089
  733TMC3    C510886   2.689   0.337  12.855  0.1315  0.5366 -0.4053
  733TMC3    C610887   2.814   0.284  12.884 -0.0789  0.7101 -0.1177
  733TMC3     C10888   2.501   0.283  13.165  0.7353 -0.6762 -0.7522
  733TMC3     O10889   2.429   0.378  13.139 -0.5474  0.5895  0.4741
  733TMC3     H10890   2.749   0.188  13.206 -0.1011  1.2793  0.7581
  733TMC3    H110891   2.499   0.392  12.922  0.0601  0.2374 -0.7856
  733TMC3    H210892   2.890   0.283  12.806 -0.5903  0.1281 -0.6096
  733TMC3    C710893   2.677   0.411  12.731 -0.7182 -0.0667  1.2412
  733TMC3    C810894   2.949   0.156  13.038 -0.3076 -0.6527  0.1621
  733TMC3    O110895   2.580   0.381  12.658  0.1268 -0.0407 -0.2544
  733TMC3    O210896   2.954   0.053  13.101 -0.7930  0.2032 -0.7418
  734MPD2     C10897   0.032   3.150  12.546 -0.2966 -0.0105  0.3049
  734MPD2    C110898   4.679   3.075  12.470 -0.2145  0.5568  0.2225
  734MPD2    C210899   4.705   3.062  12.335  0.2590 -0.5193 -0.0626
  734MPD2    C310900   0.076   3.116  12.264 -0.1661 -0.7240 -0.1577
  734MPD2    C410901   0.158   3.194  12.345 -0.1195  0.3716  0.1256
  734MPD2    C510902   0.134   3.213  12.481 -0.6905 -0.7610  0.4517
  734MPD2     H10903   4.650   2.988  12.280 -1.3344 -1.0867  2.3104
  734MPD2    H110904   0.246   3.242  12.304 -1.7778  2.0961 -1.4633
  734MPD2    H210905   0.027   3.163  12.653 -1.6143  0.7996  0.1342
  734MPD2    H310906   0.200   3.276  12.539  1.2167 -1.9322 -0.4417
  734MPD2     N10907   0.086   3.099  12.123 -0.0794 -0.3924  0.2511
  734MPD2    H510908   0.011   3.046  12.081 -1.4922  2.7882 -1.2651
  734MPD2    N110909   4.574   2.994  12.527  0.1577 -0.4484  0.2484
  734MPD2    H710910   4.586   2.958  12.620  1.3892 -0.1861  0.1936
  735TMC3    C110911   4.422   2.818  12.525  0.6077  0.3300 -0.4067
  735TMC3    C210912   4.302   2.783  12.468 -0.1683 -0.2114  0.2692
  735TMC3    C310913   4.290   2.663  12.400  0.0479  0.2264  0.9743
  735TMC3    C410914   4.522   2.727  12.536 -0.1382 -0.1512 -0.2235
  735TMC3    C510915   4.507   2.609  12.466  0.5354  0.5073  0.4193
  735TMC3    C610916   4.381   2.570  12.411  0.6319 -0.0553  0.9001
  735TMC3     C10917   4.472   2.936  12.459  0.4127 -0.4903 -0.4836
  735TMC3     O10918   4.434   2.979  12.347  0.1190  0.4207  0.7716
  735TMC3     H10919   4.233   2.863  12.444 -1.2233 -1.9183 -2.4456
  735TMC3    H110920   4.624   2.749  12.566  0.2059  0.2013 -1.6527
  735TMC3    H210921   4.366   2.479  12.353  0.6252  1.3894 -1.3814
  735TMC3    C710922   4.624   2.575  12.392 -0.1040 -0.2226 -0.0956
  735TMC3    C810923   4.245   2.682  12.261  0.1928 -0.1636  0.7314
  735TMC3    O110924   4.687   2.668  12.342  0.4833 -0.5429  0.3044
  735TMC3    O210925   4.137   2.637  12.223 -0.6458 -0.5013 -0.7768
  736MPD2     C10926   0.040   2.243  12.374 -0.3382 -0.1889 -0.1315
  736MPD2    C110927   0.028   2.382  12.356  0.0804  0.4384  1.2734
  736MPD2    C210928   0.140   2.450  12.302 -0.6608 -0.1503  0.7200
  736MPD2    C310929   0.263   2.390  12.277  0.5266 -0.3626  0.1293
  736MPD2    C410930   0.276   2.257  12.306 -0.5274  0.3500  0.1402
  736MPD2    C510931   0.165   2.182  12.349 -0.2827  0.3055  0.6267
  736MPD2     H10932   0.128   2.555  12.282 -1.4092 -0.6385 -1.3321
  736MPD2    H110933   0.370   2.207  12.285  1.1833  3.6243  0.0423
  736MPD2    H210934   4.691   2.180  12.403  1.7020 -3.0663 -0.5561
  736MPD2    H310935   0.167   2.077  12.374  0.2383 -0.1111 -1.1643
  736MPD2     N10936   0.377   2.453  12.229  0.4918  1.0282 -0.0813
  736MPD2    H510937   0.465   2.403  12.230  0.9936  1.8992 -0.5076
  736MPD2    N110938   4.646   2.443  12.401  0.0876  0.0130 -0.0416
  736MPD2    H710939   4.588   2.382  12.457  1.2496  1.0848  2.3173
  737TMC3    C110940   0.519   2.609  12.108 -0.3360 -0.4553 -0.1250
  737TMC3    C210941   0.519   2.737  12.058 -0.6627  0.3008 -0.8431
  737TMC3    C310942   0.608   2.765  11.961 -0.0743 -0.4245 -0.2333
  737TMC3    C410943   0.625   2.526  12.084 -0.7242  0.3778  0.4115
  737TMC3    C510944   0.714   2.563  11.982  0.6035  0.6202 -0.6398
  737TMC3    C610945   0.705   2.680  11.918  0.4206  0.2435  0.4014
  737TMC3     C10946   0.390   2.577  12.177  0.3626  0.3350 -0.9819
  737TMC3     O10947   0.287   2.646  12.147 -0.3529 -0.5755  0.0465
  737TMC3     H10948   0.433   2.801  12.075 -1.3440 -0.8169 -0.1234
  737TMC3    H110949   0.627   2.430  12.135 -3.1077 -0.4722 -1.0735
  737TMC3    H210950   0.778   2.714  11.844 -0.6846 -0.6451 -1.0909
  737TMC3    C710951   0.762   2.448  11.900  0.1975 -0.0109 -0.2862
  737TMC3    C810952   0.582   2.886  11.890 -0.1653 -0.5074 -0.0408
  737TMC3    O110953   0.694   2.346  11.914 -0.1239 -0.0028 -0.1887
  737TMC3    O210954   0.569   2.987  11.958  0.9176 -0.6265  0.1051
  738MPD2     C10955   0.333   1.146  15.532 -0.7795  0.3008  0.5176
  738MPD2    C110956   0.362   1.136  15.399 -0.3306  1.1575 -0.3143
  738MPD2    C210957   0.460   1.215  15.351  0.4845 -0.2701  0.0258
  738MPD2    C310958   0.540   1.284  15.437 -0.1276  0.5737 -0.7091
  738MPD2    C410959   0.520   1.285  15.573  0.9294  0.2872 -1.3896
  738MPD2    C510960   0.403   1.225  15.618  0.8697 -0.1063  0.2923
  738MPD2     H10961   0.478   1.220  15.244  0.2532  3.6321  0.1708
  738MPD2    H110962   0.587   1.337  15.641 -1.2787  1.3246 -0.0261
  738MPD2    H210963   0.252   1.096  15.584  0.3913 -1.7659  0.3517
  738MPD2    H310964   0.376   1.240  15.721 -1.0227  0.9700 -0.3569
  738MPD2     N10965   0.646   1.362  15.394  0.8340 -0.5729  0.4423
  738MPD2    H510966   0.703   1.396  15.471  0.2763 -0.9302  1.0175
  738MPD2    N110967   0.286   1.065  15.303  0.2148  0.5050 -0.0629
  738MPD2    H710968   0.312   1.064  15.205  1.8281 -1.0541  0.3834
  739TMC3    C110969   0.820   1.416  15.243  0.4180  0.1819  0.2486
  739TMC3    C210970   0.870   1.435  15.117 -0.2256  0.2198  0.4704
  739TMC3    C310971   1.003   1.424  15.090  0.0774  0.5428 -0.0694
  739TMC3    C410972   0.914   1.387  15.340 -1.2880 -0.4974  0.1116
  739TMC3    C510973   1.044   1.369  15.305 -0.4502 -0.1303 -0.1007
  739TMC3    C610974   1.094   1.391  15.185  0.0430  0.3239 -0.1610
  739TMC3     C10975   0.680   1.387  15.264 -0.4472 -0.5670 -0.1031
  739TMC3     O10976   0.607   1.405  15.167  0.2634 -0.2945  0.0474
  739TMC3     H10977   0.800   1.435  15.035  1.3731 -0.2914 -0.9027
  739TMC3    H110978   0.885   1.360  15.440 -2.8695 -1.9595 -0.7415
  739TMC3    H210979   1.201   1.383  15.167 -0.0572 -0.6079 -0.3453
  739TMC3    C710980   1.140   1.326  15.408  0.1458 -0.5459  0.3777
  739TMC3    C810981   1.045   1.422  14.949 -0.9832 -0.1261 -0.2532
  739TMC3    O110982   1.108   1.347  15.524  0.0182 -0.5057 -0.1205
  739TMC3    O210983   0.965   1.456  14.866 -0.2466  0.0361 -0.1398
  740TMC3    C110984   1.585   2.522  14.251  0.0458 -0.2526 -0.6998
  740TMC3    C210985   1.652   2.485  14.364  0.8110  0.6424  0.6408
  740TMC3    C310986   1.787   2.473  14.354  0.3579  0.5075  0.5588
  740TMC3    C410987   1.645   2.555  14.127  0.4885  0.6867  0.4243
  740TMC3    C510988   1.783   2.547  14.131 -0.0608 -0.3700  0.5020
  740TMC3    C610989   1.855   2.497  14.238  0.5185 -0.2630 -0.5644
  740TMC3     C10990   1.465   2.597  14.271 -0.6977 -0.0613 -0.3608
  740TMC3     O10991   1.472   2.700  14.207 -0.0362 -0.0690  0.1095
  740TMC3     H10992   1.596   2.475  14.456 -0.5056 -0.2012 -0.2541
  740TMC3    H110993   1.585   2.570  14.038 -1.6259 -3.7667  1.1167
  740TMC3    H210994   1.961   2.478  14.240  0.7697  1.4056  1.4883
  740TMC3    C710995   1.841   2.522  14.005  0.5753 -0.2639 -0.1028
  740TMC3    C810996   1.858   2.387  14.448 -0.1846 -0.3300 -0.8992
  740TMC3    O110997   1.952   2.465  14.002  0.1163  0.3123 -0.1630
  740TMC3    O210998   1.966   2.340  14.421 -0.1861 -0.2953 -0.4317
  741TMC3    C110999   1.027   1.909  14.399 -0.2393  0.3509 -0.0268
  741TMC3    C211000   0.912   1.886  14.330 -0.5797 -0.2274  0.1234
  741TMC3    C311001   0.816   1.832  14.403 -0.1313 -0.3413 -0.0693
  741TMC3    C411002   1.030   1.912  14.539 -0.2988 -0.1157  0.0738
  741TMC3    C511003   0.916   1.877  14.606  0.1687  0.6902  0.3475
  741TMC3    C611004   0.807   1.824  14.542  0.1771  0.1137 -0.2678
  741TMC3     C11005   1.156   1.919  14.325 -0.1226 -0.1257  0.6083
  741TMC3     O11006   1.257   1.873  14.376 -0.5238 -0.2946  0.1257
  741TMC3     H11007   0.912   1.881  14.221 -1.9451  2.5306 -0.0112
  741TMC3    H111008   1.121   1.948  14.585 -0.1053  0.3794 -0.6958
  741TMC3    H211009   0.719   1.796  14.597  0.2945  1.5892  0.6562
  741TMC3    C711010   0.884   1.938  14.733  0.3896 -0.0114  0.2182
  741TMC3    C811011   0.712   1.775  14.319 -0.0939 -0.7953 -0.1047
  741TMC3    O111012   0.816   1.871  14.805 -0.5246 -0.1653  0.2632
  741TMC3    O211013   0.692   1.811  14.203  0.2889  0.2198  0.2897
  742TMC3    C111014   0.756   0.375  15.436 -0.1501  0.1057 -0.0671
  742TMC3    C211015   0.720   0.332  15.308  0.6202  0.4641  0.3579
  742TMC3    C311016   0.820   0.273  15.235 -0.1769 -0.0455  0.4462
  742TMC3    C411017   0.885   0.363  15.482 -0.0810 -0.4922  0.3620
  742TMC3    C511018   0.977   0.299  15.412 -1.3146 -0.0167  0.8124
  742TMC3    C611019   0.952   0.260  15.282 -0.1775 -0.9124  0.4320
  742TMC3     C11020   0.657   0.458  15.505  0.1562  0.1425 -0.6099
  742TMC3     O11021   0.561   0.502  15.442  0.4092  0.4229  0.6368
  742TMC3     H11022   0.613   0.331  15.288  0.8216 -1.2371 -0.5968
  742TMC3    H111023   0.912   0.405  15.578  0.6966  0.7069 -0.3798
  742TMC3    H211024   1.029   0.212  15.223 -1.6108  1.0298 -3.0149
  742TMC3    C711025   1.087   0.227  15.484 -0.2344  0.2355  0.8047
  742TMC3    C811026   0.802   0.241  15.090  0.6579 -0.4470  0.1335
  742TMC3    O111027   1.146   0.143  15.418 -0.1367  0.2656 -0.2717
  742TMC3    O211028   0.887   0.175  15.036 -1.0865 -0.0078  0.0563
  743MPD2     C11029   2.739   1.444   1.495 -0.8107 -0.2347 -0.1296
  743MPD2    C111030   2.806   1.413   1.378 -0.4156  0.4510  0.6083
  743MPD2    C211031   2.950   1.398   1.390 -0.6245  0.2889 -0.5035
  743MPD2    C311032   3.005   1.410   1.515 -1.0142  0.0754  0.0738
  743MPD2    C411033   2.934   1.437   1.628 -0.8958 -0.2954  0.2843
  743MPD2    C511034   2.803   1.455   1.610  0.9523 -0.0096 -0.5697
  743MPD2     H11035   3.008   1.383   1.300 -3.2390  0.7550 -2.2591
  743MPD2    H111036   2.989   1.440   1.722 -1.5238 -0.2177  0.6490
  743MPD2    H211037   2.631   1.450   1.489 -0.7668  0.4519 -0.2277
  743MPD2    H311038   2.740   1.479   1.695  1.4670 -1.8317  0.3230
  743MPD2     N11039   3.148   1.391   1.509 -0.5307 -0.7653  0.2688
  743MPD2    H511040   3.176   1.366   1.414  0.2842  1.8491 -0.1868
  743MPD2    N111041   2.728   1.396   1.266  0.4907 -0.3210  0.5481
  743MPD2    H711042   2.632   1.427   1.282  0.3227 -0.3040 -0.5159
  744TMC3    C111043   2.696   1.365   1.030  0.5559 -0.4770  0.4244
  744TMC3    C211044   2.593   1.460   1.029  0.4563  0.2909  0.0641
  744TMC3    C311045   2.530   1.485   0.913 -0.1966  0.1031  0.1459
  744TMC3    C411046   2.732   1.308   0.912 -0.4300 -0.2163  0.7886
  744TMC3    C511047   2.655   1.323   0.799 -0.0970  0.4710 -0.0043
  744TMC3    C611048   2.542   1.415   0.800 -0.1538  0.1817 -0.7650
  744TMC3     C11049   2.781   1.344   1.146 -0.2765 -0.2979 -0.2645
  744TMC3     O11050   2.861   1.251   1.138 -0.2191  0.2424  0.1420
  744TMC3     H11051   2.568   1.518   1.117 -1.2345  2.2973 -1.7593
  744TMC3    H111052   2.806   1.229   0.921 -1.3566 -0.9871  1.7606
  744TMC3    H211053   2.473   1.446   0.722 -0.7940 -0.2977 -0.3774
  744TMC3    C711054   2.678   1.244   0.685  0.3573  0.3260  0.4699
  744TMC3    C811055   2.441   1.597   0.927  0.4026 -0.0704 -0.3603
  744TMC3    O111056   2.581   1.204   0.619 -0.1714 -0.1408  0.3572
  744TMC3    O211057   2.364   1.582   1.023  0.2201 -0.3063 -0.7115
  745TMC3    C111058   1.194   4.675  13.949  0.0619  0.0691 -0.3852
  745TMC3    C211059   1.079   4.637  14.005 -0.0436 -0.0385 -0.3349
  745TMC3    C311060   0.964   4.692  13.950 -0.4099  0.3766  0.2553
  745TMC3    C411061   1.195   0.018  13.833 -0.2372  0.6566 -0.1576
  745TMC3    C511062   1.076   0.058  13.778 -0.0289 -0.3360  0.0530
  745TMC3    C611063   0.960   0.037  13.841  0.6339 -0.4693  0.0015
  745TMC3     C11064   1.301   4.694  14.047  0.5654  0.0095  0.4187
  745TMC3     O11065   1.310   4.614  14.136  0.1667 -0.0907 -0.3841
  745TMC3     H11066   1.078   4.594  14.105 -0.9503  0.1847 -0.2452
  745TMC3    H111067   1.290   0.058  13.799  0.8418 -0.3537  1.6985
  745TMC3    H211068   0.859   0.057  13.805  0.4813 -0.7466  0.2705
  745TMC3    C711069   1.065   0.182  13.704  0.3119  0.3360 -0.5803
  745TMC3    C811070   0.873   0.011  14.054 -0.5110  0.3291 -0.0368
  745TMC3    O111071   0.978   0.251  13.748  0.6784  0.5246 -0.0359
  745TMC3    O211072   0.833   4.651  14.127 -0.1892  0.0278  0.5132
  746TMC3    C111073   3.748   2.219  10.935  0.3487  0.9626  0.6146
  746TMC3    C211074   3.829   2.207  10.825  0.1189  0.1774  0.1624
  746TMC3    C311075   3.801   2.111  10.732 -0.6515  0.1361 -0.7630
  746TMC3    C411076   3.646   2.137  10.954 -0.1851 -0.1669  0.4494
  746TMC3    C511077   3.616   2.045  10.857 -0.5434  0.3529  1.1094
  746TMC3    C611078   3.695   2.033  10.742  0.5054 -0.1624 -0.4399
  746TMC3     C11079   3.754   2.342  11.016  0.7052  0.2895 -0.4893
  746TMC3     O11080   3.647   2.392  11.046 -0.0450 -0.1946 -0.2721
  746TMC3     H11081   3.915   2.270  10.808 -0.2945  1.5361  3.1010
  746TMC3    H111082   3.592   2.152  11.047 -1.5617 -0.8022 -0.2589
  746TMC3    H211083   3.669   1.960  10.667  0.8800 -0.4203 -0.3198
  746TMC3    C711084   3.480   1.999  10.848  0.7094  0.0658  0.1518
  746TMC3    C811085   3.863   2.119  10.603 -0.4115 -0.5119  0.8033
  746TMC3    O111086   3.455   1.911  10.767  0.1047  0.1561 -0.2230
  746TMC3    O211087   3.808   2.066  10.513 -0.7377  0.2928 -0.0349
  747TMC3    C111088   1.516   2.537  11.240  0.6402  0.4457  0.3138
  747TMC3    C211089   1.403   2.496  11.313 -0.0565 -0.8447  0.1982
  747TMC3    C311090   1.394   2.543  11.437  0.7329 -0.2627  0.8669
  747TMC3    C411091   1.606   2.627  11.296 -0.7286 -0.3747  0.4022
  747TMC3    C511092   1.593   2.657  11.431  0.9131 -0.3302  0.0767
  747TMC3    C611093   1.489   2.618  11.507 -0.1473  0.8099  0.2170
  747TMC3     C11094   1.514   2.548  11.099 -0.3348 -0.2660  0.4195
  747TMC3     O11095   1.540   2.662  11.061  0.3349 -0.2795 -0.3916
  747TMC3     H11096   1.320   2.449  11.262  1.5030 -3.4724  0.0909
  747TMC3    H111097   1.693   2.645  11.233 -0.1183 -3.2451  0.3870
  747TMC3    H211098   1.477   2.643  11.612 -0.8497 -3.2920  1.1239
  747TMC3    C711099   1.663   2.767  11.490  0.7284 -0.2440  0.0694
  747TMC3    C811100   1.272   2.525  11.518  0.6943  0.0670 -0.0974
  747TMC3    O111101   1.600   2.834  11.572  0.6378 -0.6030  1.0966
  747TMC3    O211102   1.264   2.598  11.619  0.5333  0.0826 -0.1268
  748MPD2     C11103   2.030   2.722   1.188 -0.6162 -0.6830 -0.1807
  748MPD2    C111104   2.075   2.619   1.109  0.8909 -0.7356  0.5127
  748MPD2    C211105   2.206   2.600   1.070 -0.0697  0.6987  0.1224
  748MPD2    C311106   2.301   2.690   1.122 -0.2652  0.0895 -0.0694
  748MPD2    C411107   2.259   2.794   1.203 -0.3439  0.1820 -0.5633
  748MPD2    C511108   2.122   2.808   1.230 -0.0281  0.1688 -0.2463
  748MPD2     H11109   2.236   2.519   1.005  0.4746  0.5488  0.5621
  748MPD2    H111110   2.324   2.860   1.260 -0.6907 -0.3112  0.4073
  748MPD2    H211111   1.926   2.724   1.216 -0.4861 -0.2229  0.2846
  748MPD2    H311112   2.089   2.889   1.295  0.1694 -0.7213  0.9567
  748MPD2     N11113   2.441   2.671   1.097 -0.0538 -0.4442  0.6541
  748MPD2    H511114   2.460   2.579   1.057 -0.4231 -0.2767  0.0805
  748MPD2    N111115   1.971   2.531   1.067 -0.5610  0.2811  0.0033
  748MPD2    H711116   1.877   2.565   1.087 -0.4889  0.2744  0.3518
  749TMC3    C111117   2.668   2.733   1.061 -0.4961  0.7132  0.4379
  749TMC3    C211118   2.728   2.616   1.098 -0.2783 -0.1946  0.9463
  749TMC3    C311119   2.859   2.600   1.072  1.0548  0.4407 -0.3677
  749TMC3    C411120   2.742   2.829   1.004  0.1468  0.3394 -0.6167
  749TMC3    C511121   2.877   2.819   0.979 -0.0148 -0.1287  0.0067
  749TMC3    C611122   2.939   2.696   1.007  0.0966  0.4810  0.4646
  749TMC3     C11123   2.533   2.772   1.101  0.4427  0.5182  0.0401
  749TMC3     O11124   2.515   2.891   1.116 -0.3303 -0.1454 -0.7747
  749TMC3     H11125   2.662   2.538   1.135 -0.0332 -0.8938 -0.0706
  749TMC3    H111126   2.696   2.922   0.975  0.9624  1.0516  0.3330
  749TMC3    H211127   3.047   2.687   1.002 -0.0899 -0.4869 -1.6111
  749TMC3    C711128   2.932   2.921   0.896 -0.0385 -0.1303  0.4519
  749TMC3    C811129   2.915   2.499   1.153  0.2283  0.0564  0.0282
  749TMC3    O111130   2.863   3.024   0.887 -0.0639  0.2061 -0.3000
  749TMC3    O211131   2.847   2.451   1.243  0.1556 -0.6772 -0.2631
  750MPD2     C11132   3.901   4.166  11.456 -0.0797 -0.2519 -0.1418
  750MPD2    C111133   3.785   4.095  11.453  0.1007  0.6372  0.4320
  750MPD2    C211134   3.779   3.967  11.392 -0.1132 -0.7040 -0.0584
  750MPD2    C311135   3.899   3.908  11.341 -0.0716 -0.0520  0.2599
  750MPD2    C411136   4.017   3.973  11.362 -0.7791  0.7280 -0.2023
  750MPD2    C511137   4.011   4.100  11.414  0.6322 -0.3301 -0.2949
  750MPD2     H11138   3.689   3.907  11.386 -0.5305 -0.1662  0.9397
  750MPD2    H111139   4.115   3.939  11.332 -1.7140 -2.6030  0.5523
  750MPD2    H211140   3.911   4.259  11.512  0.5107 -0.1617 -0.3952
  750MPD2    H311141   4.104   4.156  11.423  1.7014 -2.3125  0.8724
  750MPD2     N11142   3.903   3.777  11.290 -0.7242  0.4420  0.2006
  750MPD2    H511143   3.998   3.750  11.266 -1.5866 -0.4489 -2.2197
  750MPD2    N111144   3.676   4.160  11.517 -0.6595 -0.4246  0.2795
  750MPD2    H711145   3.692   4.256  11.547  2.9458 -0.2088 -2.3865
  751TMC3    C111146   3.842   3.561  11.234 -0.3299 -0.2201  0.3215
  751TMC3    C211147   3.759   3.459  11.260 -0.2730  0.1770 -0.5327
  751TMC3    C311148   3.753   3.351  11.176  0.4525  0.7998 -0.3001
  751TMC3    C411149   3.911   3.574  11.117  0.1827 -0.7097  0.6440
  751TMC3    C511150   3.906   3.469  11.031  0.0262 -0.3452  0.0577
  751TMC3    C611151   3.833   3.361  11.061 -0.3177  0.1381 -0.6741
  751TMC3     C11152   3.805   3.682  11.293 -0.3113  0.1139  0.5843
  751TMC3     O11153   3.689   3.680  11.334 -0.0496 -0.3699 -0.2533
  751TMC3     H11154   3.692   3.465  11.345 -1.9610  1.2461 -1.9208
  751TMC3    H111155   3.966   3.665  11.094  0.8221 -0.7260  2.0996
  751TMC3    H211156   3.821   3.278  10.993  1.7261 -0.2504 -0.5622
  751TMC3    C711157   3.925   3.499  10.886 -0.1000 -0.0475 -0.2584
  751TMC3    C811158   3.632   3.268  11.169  0.3018 -0.2818 -0.2175
  751TMC3    O111159   4.001   3.592  10.865 -0.8005  0.2654  0.6129
  751TMC3    O211160   3.598   3.238  11.060 -0.1197  0.5392  0.0687
  752TMC3    C111161   2.368   3.430  17.339 -0.1065  0.0540 -1.1007
  752TMC3    C211162   2.429   3.339  17.417  0.0739  0.1753 -0.6343
  752TMC3    C311163   2.428   3.356  17.552 -1.0625  0.7080 -0.7537
  752TMC3    C411164   2.304   3.542  17.388 -0.0322 -0.4934 -0.5873
  752TMC3    C511165   2.304   3.552  17.524 -0.0233  0.4907  0.2520
  752TMC3    C611166   2.365   3.457  17.615 -0.0510 -0.0606  0.2725
  752TMC3     C11167   2.382   3.411  17.194 -0.3228  0.4360  0.3963
  752TMC3     O11168   2.461   3.328  17.150  0.2715 -0.0219 -0.0911
  752TMC3     H11169   2.486   3.258  17.372  0.4910  0.5495 -0.7716
  752TMC3    H111170   2.250   3.605  17.317  0.0990  2.5486  2.0152
  752TMC3    H211171   2.374   3.472  17.722 -0.0188  0.2858  0.2239
  752TMC3    C711172   2.229   3.660  17.580 -0.0006 -0.3220  0.9486
  752TMC3    C811173   2.514   3.263  17.626  0.4618 -0.0455  0.3359
  752TMC3    O111174   2.180   3.643  17.691 -0.4116 -0.4348  0.2477
  752TMC3    O211175   2.559   3.289  17.732  0.4829 -0.2417 -0.4415
  753TMC3    C111176   4.699   0.210  13.088  0.3261 -0.3885  0.2153
  753TMC3    C211177   0.031   0.192  13.207 -1.1454  0.9625  0.0901
  753TMC3    C311178   0.086   0.072  13.238 -0.3523  0.3445 -0.3237
  753TMC3    C411179   4.662   0.097  13.018 -0.5014  0.1656 -0.2772
  753TMC3    C511180   4.712   4.712  13.059  0.3744 -0.6629 -0.4348
  753TMC3    C611181   0.062   4.695  13.166 -1.0157 -0.2071 -0.5183
  753TMC3     C11182   4.648   0.346  13.055 -0.0409  0.0568 -0.1669
  753TMC3     O11183   4.703   0.439  13.108  0.3598 -0.2374  0.3707
  753TMC3     H11184   0.052   0.281  13.265 -0.3700  1.4026 -0.8457
  753TMC3    H111185   4.587   0.112  12.941 -0.0892 -3.8813 -1.4400
  753TMC3    H211186   0.129   4.610  13.167 -2.5778 -1.4386  1.0757
  753TMC3    C711187   4.645   4.592  13.007  0.1569  0.5980  0.3531
  753TMC3    C811188   0.146   0.051  13.363 -0.2327 -0.0162  0.2193
  753TMC3    O111189   4.614   4.592  12.889  0.0314  0.3018  0.5559
  753TMC3    O211190   0.191   4.673  13.380 -0.6695  0.3177 -0.1342
  754MPD2     C11191   3.580   3.757  13.463  0.2016 -0.8015 -0.2285
  754MPD2    C111192   3.610   3.622  13.480 -0.0835  0.2189 -0.5163
  754MPD2    C211193   3.508   3.531  13.456 -0.1577  0.0989 -1.0425
  754MPD2    C311194   3.379   3.573  13.446  0.5110  0.1632 -0.2006
  754MPD2    C411195   3.351   3.709  13.425  0.0981 -0.1524 -0.4462
  754MPD2    C511196   3.455   3.799  13.431 -0.3441 -0.8020  0.9253
  754MPD2     H11197   3.533   3.426  13.440  0.6606 -0.3290  3.1090
  754MPD2    H111198   3.247   3.732  13.405  0.0083 -0.0011  0.2065
  754MPD2    H211199   3.661   3.830  13.465  0.7516 -1.4082 -0.4331
  754MPD2    H311200   3.430   3.903  13.411  1.6744 -0.3688  0.6273
  754MPD2     N11201   3.266   3.478  13.439 -0.1916 -0.3475  0.7137
  754MPD2    H511202   3.173   3.519  13.432  0.0037  0.3947  2.4547
  754MPD2    N111203   3.747   3.593  13.494 -0.0738 -0.3559  0.2433
  754MPD2    H711204   3.809   3.674  13.494  1.9037 -1.8953 -0.4905
  755MPD2     C11205   2.601   3.322  14.066  0.1024  0.2049  0.2072
  755MPD2    C111206   2.601   3.411  13.958  0.2042  0.0249 -0.0097
  755MPD2    C211207   2.657   3.378  13.841 -0.1521  0.1261  0.6065
  755MPD2    C311208   2.728   3.262  13.830  0.0589 -0.1484  0.4228
  755MPD2    C411209   2.735   3.180  13.943  0.8345  0.2835  0.2423
  755MPD2    C511210   2.672   3.209  14.053 -0.5794  0.7775  0.4041
  755MPD2     H11211   2.638   3.447  13.760  0.7587 -0.1683  0.1458
  755MPD2    H111212   2.792   3.088  13.938  2.1971  1.1881 -0.8044
  755MPD2    H211213   2.548   3.331  14.160 -1.3701 -1.1579 -0.4935
  755MPD2    H311214   2.673   3.143  14.139  0.9316 -0.4632 -0.5885
  755MPD2     N11215   2.808   3.231  13.714  0.3858  0.0358 -0.0723
  755MPD2    H511216   2.863   3.146  13.714  0.4594  0.0771  3.2471
  755MPD2    N111217   2.527   3.531  13.962 -0.1784  0.2412  0.2947
  755MPD2    H711218   2.543   3.584  13.877 -2.5980  2.1877  1.0384
  756MPD2     C11219   4.257   4.097   9.910 -0.3148 -1.1334  0.5011
  756MPD2    C111220   4.142   4.176   9.906 -0.7810  0.8545 -0.6485
  756MPD2    C211221   4.086   4.202   9.786  0.3835 -0.0284 -0.5761
  756MPD2    C311222   4.137   4.153   9.667  0.0882  0.1600  0.4660
  756MPD2    C411223   4.253   4.081   9.670 -0.2141 -0.0719 -0.0831
  756MPD2    C511224   4.313   4.058   9.787 -0.6874  0.0528  0.3532
  756MPD2     H11225   4.000   4.268   9.780 -2.1094 -3.2972 -1.0537
  756MPD2    H111226   4.295   4.039   9.579  1.0669  2.6992 -0.7788
  756MPD2    H211227   4.300   4.063  10.004 -0.5943 -1.0836  0.6492
  756MPD2    H311228   4.400   3.993   9.790  1.4054  2.8657  1.0041
  756MPD2     N11229   4.067   4.190   9.559 -0.1692  0.6917 -0.1856
  756MPD2    H511230   3.969   4.217   9.568 -1.0758 -2.4839 -0.2948
  756MPD2    N111231   4.087   4.220  10.027  0.1410 -0.7460 -0.1717
  756MPD2    H711232   4.001   4.273  10.015  0.9134  0.7754  1.1471
  757MPD2     C11233   3.229   4.056   9.423 -0.0215  0.5294 -0.5831
  757MPD2    C111234   3.335   3.990   9.484  0.4582 -0.2466  0.0599
  757MPD2    C211235   3.464   4.033   9.459  0.4528  0.1346  0.1311
  757MPD2    C311236   3.489   4.140   9.377  0.2957  0.1763  0.5570
  757MPD2    C411237   3.386   4.204   9.307  1.1381 -0.0189  0.1521
  757MPD2    C511238   3.258   4.161   9.337 -0.9508 -0.5184  0.7550
  757MPD2     H11239   3.549   3.988   9.508  2.3950  1.6479 -1.8202
  757MPD2    H111240   3.390   4.302   9.261 -1.4476  0.6879  1.4645
  757MPD2    H211241   3.127   4.023   9.439 -0.6492  1.7769 -2.0283
  757MPD2    H311242   3.177   4.218   9.291 -0.4970 -1.3610 -1.0740
  757MPD2     N11243   3.623   4.168   9.352 -0.0036 -0.6625  0.5645
  757MPD2    H511244   3.694   4.114   9.402  0.0694 -1.3681 -0.3088
  757MPD2    N111245   3.306   3.881   9.571  0.7932  0.1000 -0.2625
  757MPD2    H711246   3.209   3.856   9.589  0.7425 -0.1379 -0.8552
  758MPD2     C11247   3.117   3.469  15.367  0.0689  0.0204  0.6306
  758MPD2    C111248   3.131   3.385  15.470  0.3293 -0.0847  0.5089
  758MPD2    C211249   3.061   3.410  15.587 -0.3611 -0.1224  0.3571
  758MPD2    C311250   2.987   3.524  15.602 -0.8602 -0.2666  0.8017
  758MPD2    C411251   2.979   3.613  15.497 -0.3310 -0.3426 -0.4390
  758MPD2    C511252   3.050   3.588  15.383 -0.2479  0.3814  0.4753
  758MPD2     H11253   3.071   3.345  15.672  1.9126  0.6991  0.7125
  758MPD2    H111254   2.922   3.704  15.515  0.3832 -0.1740  0.9251
  758MPD2    H211255   3.171   3.464  15.274 -0.6545 -0.6463  0.2414
  758MPD2    H311256   3.047   3.669  15.311  3.2761 -0.9825 -1.2206
  758MPD2     N11257   2.921   3.554  15.728  0.4418 -0.4741 -0.0467
  758MPD2    H511258   2.897   3.650  15.751 -0.4299 -0.2396 -1.9686
  758MPD2    N111259   3.221   3.275  15.451 -0.4262  0.0152 -0.0666
  758MPD2    H711260   3.253   3.254  15.357 -2.5506  2.0013 -1.2313
  759MPD2     C11261   3.437   1.258   9.706 -0.3799  0.1442 -0.0321
  759MPD2    C111262   3.326   1.344   9.729 -0.5678  0.7572  0.3652
  759MPD2    C211263   3.346   1.485   9.722  0.2446  0.9668  0.1621
  759MPD2    C311264   3.459   1.535   9.667 -0.6183 -0.2166  0.0785
  759MPD2    C411265   3.560   1.448   9.630 -0.2877  0.1878 -0.7025
  759MPD2    C511266   3.551   1.317   9.659  0.8263 -0.2809 -0.0486
  759MPD2     H11267   3.271   1.553   9.762 -1.0555 -0.0050 -0.6101
  759MPD2    H111268   3.655   1.479   9.588  0.0420  0.4864  0.2418
  759MPD2    H211269   3.437   1.151   9.720  0.3271 -0.0085 -1.1953
  759MPD2    H311270   3.640   1.259   9.638  0.7886 -0.3346 -0.0589
  759MPD2     N11271   3.456   1.677   9.646  0.1541  0.2963  0.1195
  759MPD2    H511272   3.373   1.731   9.669 -0.1774 -0.4968  0.8056
  759MPD2    N111273   3.199   1.299   9.783 -0.5078  0.1550 -0.3627
  759MPD2    H711274   3.137   1.368   9.823 -0.2719  1.9713 -3.1161
  760MPD2     C11275   1.811   3.741  12.039 -0.5415  0.1442  0.3608
  760MPD2    C111276   1.951   3.774  12.040 -0.5839 -0.1982 -0.1777
  760MPD2    C211277   2.038   3.675  12.079  0.2374  0.5975 -0.6626
  760MPD2    C311278   1.986   3.550  12.117  0.1058  0.5233  0.4617
  760MPD2    C411279   1.851   3.524  12.121 -0.6095  0.2984  0.5875
  760MPD2    C511280   1.768   3.618  12.073  0.2440  0.5004 -0.0220
  760MPD2     H11281   2.144   3.693  12.078  1.0585 -4.1045 -1.7306
  760MPD2    H111282   1.808   3.432  12.160 -1.0648 -1.7516 -4.7503
  760MPD2    H211283   1.739   3.820  12.021 -0.5951  0.3713  1.5566
  760MPD2    H311284   1.660   3.605  12.071  0.3711 -0.3484 -1.2124
  760MPD2     N11285   2.070   3.444  12.160 -0.4598  0.1207 -0.6951
  760MPD2    H511286   2.026   3.357  12.185  1.8900 -1.3754 -1.7122
  760MPD2    N111287   2.007   3.897  12.011  0.2594  0.1966 -0.1033
  760MPD2    H711288   2.107   3.907  12.021  0.4704 -0.0739 -1.9241
  761MPD2     C11289   3.171   3.099  11.315  0.1836  0.2678  0.0086
  761MPD2    C111290   3.243   3.081  11.196  1.1556  0.3854  0.4576
  761MPD2    C211291   3.367   3.141  11.186  0.2939  0.2470 -0.1719
  761MPD2    C311292   3.433   3.204  11.297  0.7199 -0.2206  0.0887
  761MPD2    C411293   3.362   3.201  11.413  0.2322 -0.2418 -0.0390
  761MPD2    C511294   3.235   3.151  11.417 -1.2742  0.4104  0.1855
  761MPD2     H11295   3.422   3.127  11.094  1.3671  0.8384  0.3818
  761MPD2    H111296   3.410   3.242  11.501 -0.6125 -1.6993  1.0988
  761MPD2    H211297   3.068   3.070  11.327  0.6133 -0.8241  1.0574
  761MPD2    H311298   3.187   3.150  11.513  0.2589  1.2382  0.9591
  761MPD2     N11299   3.562   3.249  11.287 -0.0084  0.4250  0.8078
  761MPD2    H511300   3.606   3.296  11.365  1.4764  1.1241 -0.4532
  761MPD2    N111301   3.189   3.013  11.083  0.6800  0.7233 -0.4548
  761MPD2    H711302   3.111   2.952  11.101  0.9542  0.3008 -0.7095
  762MPD2     C11303   3.208   2.426  10.348  0.7140 -0.5625  0.0475
  762MPD2    C111304   3.274   2.539  10.393  1.1860  0.0846 -0.3605
  762MPD2    C211305   3.384   2.592  10.321  0.1579 -0.5592 -0.1747
  762MPD2    C311306   3.427   2.522  10.205 -0.3373  0.4276 -0.0962
  762MPD2    C411307   3.350   2.416  10.159 -0.7284  0.0023 -0.8862
  762MPD2    C511308   3.247   2.370  10.229  0.3001  0.5432  0.1181
  762MPD2     H11309   3.434   2.685  10.346 -1.1004  0.3387 -1.0340
  762MPD2    H111310   3.382   2.371  10.065  2.4929  2.6632 -1.1000
  762MPD2    H211311   3.131   2.386  10.413 -0.9742 -0.4804 -1.9156
  762MPD2    H311312   3.201   2.282  10.186  0.9643  0.7852 -1.0738
  762MPD2     N11313   3.549   2.563  10.144 -0.1557  0.4488 -0.0138
  762MPD2    H511314   3.609   2.633  10.186  2.4814 -1.4400 -0.6311
  762MPD2    N111315   3.203   2.608  10.496  0.2051  0.3975 -0.0138
  762MPD2    H711316   3.116   2.570  10.530  0.7146 -1.0227 -0.3266
  763MPD2     C11317   0.560   2.868  16.161  0.2737 -0.0380 -0.1487
  763MPD2    C111318   0.460   2.948  16.117 -0.0049  0.0146 -0.4846
  763MPD2    C211319   0.458   3.083  16.164  0.0596  0.3886 -0.3500
  763MPD2    C311320   0.553   3.135  16.258 -0.0836 -0.0619 -0.1915
  763MPD2    C411321   0.655   3.051  16.297 -0.1917  0.4350 -0.4891
  763MPD2    C511322   0.654   2.925  16.242  0.7964  0.2201  0.3020
  763MPD2     H11323   0.384   3.155  16.129  2.6425  3.0584 -0.2572
  763MPD2    H111324   0.739   3.087  16.355  0.0467  1.5877 -1.5544
  763MPD2    H211325   0.577   2.770  16.119 -5.4886 -1.6742  1.3503
  763MPD2    H311326   0.741   2.865  16.264  0.4701 -0.8263 -1.2528
  763MPD2     N11327   0.561   3.266  16.307 -0.2229  0.1276  0.1858
  763MPD2    H511328   0.643   3.291  16.362  1.5058 -0.3288 -2.1356
  763MPD2    N111329   0.371   2.914  16.013  0.3738  0.6367  0.0023
  763MPD2    H711330   0.313   2.981  15.962  0.5042  0.8153  0.0894
  764MPD2     C11331   3.453   0.033  17.675 -0.2076 -0.3531  0.5023
  764MPD2    C111332   3.355   0.045  17.577  0.4718 -0.1026  0.3205
  764MPD2    C211333   3.227   4.734  17.605 -0.1529 -0.2984 -0.2121
  764MPD2    C311334   3.201   4.684  17.732  0.1664 -0.1731 -0.1440
  764MPD2    C411335   3.297   4.689   0.095 -0.0831  0.4443 -0.6155
  764MPD2    C511336   3.422   4.721   0.066  0.2386  0.3733  0.2753
  764MPD2     H11337   3.153   4.731  17.525  0.8685  1.2452 -1.2023
  764MPD2    H111338   3.270   4.681   0.200 -0.8231 -3.8416 -1.1587
  764MPD2    H211339   3.551   0.075  17.655 -0.9590  0.3575 -1.6578
  764MPD2    H311340   3.510   4.719   0.129  2.2137 -0.3355 -2.4962
  764MPD2     N11341   3.064   4.647   0.022  0.0599 -0.5880  0.1977
  764MPD2    H511342   2.999   4.654  17.679  1.4968 -0.3698 -0.9590
  764MPD2    N111343   3.376   0.101  17.449 -0.2488 -0.4976  0.0320
  764MPD2    H711344   3.296   0.099  17.387  0.5127  3.2798 -1.0407
  765MPD2     C11345   3.170   2.605  15.515  0.2404  0.1615 -0.9097
  765MPD2    C111346   3.165   2.565  15.646 -0.4692  0.3622  0.4388
  765MPD2    C211347   3.287   2.524  15.697  0.7641  0.4889 -0.3444
  765MPD2    C311348   3.405   2.512  15.619  0.7754  0.0652  0.2202
  765MPD2    C411349   3.404   2.558  15.490  0.3791  0.4307 -0.4795
  765MPD2    C511350   3.292   2.615  15.445 -0.0152  0.5037 -0.6258
  765MPD2     H11351   3.291   2.494  15.801 -1.0241 -1.9774 -0.9824
  765MPD2    H111352   3.489   2.546  15.424 -1.5012 -2.8598 -2.3043
  765MPD2    H211353   3.082   2.653  15.472 -1.3648 -1.1924  0.8533
  765MPD2    H311354   3.286   2.666  15.350 -1.2528  0.2732 -0.6750
  765MPD2     N11355   3.520   2.443  15.673  0.9135 -0.2185  0.2071
  765MPD2    H511356   3.503   2.401  15.764  0.5303 -1.2055 -0.3285
  765MPD2    N111357   3.043   2.586  15.716  0.0601 -0.3143 -0.1771
  765MPD2    H711358   2.966   2.630  15.667 -0.1899 -0.4627  0.0820
  766MPD2     C11359   2.256   2.630  15.644 -0.0284  0.2457 -0.0824
  766MPD2    C111360   2.389   2.587  15.656  0.0298  0.7734 -0.4887
  766MPD2    C211361   2.454   2.553  15.541  0.5224 -0.3500  0.0864
  766MPD2    C311362   2.396   2.574  15.417 -0.6348  0.6012 -0.0385
  766MPD2    C411363   2.260   2.614  15.402  0.2689 -0.3671  0.6150
  766MPD2    C511364   2.189   2.641  15.521 -0.1244  0.0080  0.2461
  766MPD2     H11365   2.557   2.521  15.553 -0.0077 -2.0018  0.2378
  766MPD2    H111366   2.206   2.629  15.309  1.8026 -0.0832 -0.2122
  766MPD2    H211367   2.194   2.667  15.724  1.0229  0.5927  0.5616
  766MPD2    H311368   2.085   2.672  15.516 -1.0730 -2.8173  2.6741
  766MPD2     N11369   2.474   2.549  15.300 -0.0340 -0.2777  0.5887
  766MPD2    H511370   2.431   2.555  15.208  0.8723 -1.2282  0.1054
  766MPD2    N111371   2.449   2.580  15.786  0.4757  0.1052  0.1870
  766MPD2    H711372   2.403   2.626  15.864  0.3856  1.5615 -0.7363
  767MPD2     C11373   1.955   2.842  15.056 -0.1815  0.1737 -0.1482
  767MPD2    C111374   2.092   2.844  15.059  0.0382  0.0722 -0.1772
  767MPD2    C211375   2.152   2.784  14.946  0.8070 -0.8901 -0.2753
  767MPD2    C311376   2.085   2.751  14.830  0.3052  0.3201 -0.2771
  767MPD2    C411377   1.950   2.757  14.840 -0.0951 -0.9804 -0.5178
  767MPD2    C511378   1.882   2.788  14.954 -0.3003 -0.0930  0.4997
  767MPD2     H11379   2.260   2.784  14.938  0.8127 -0.4072 -0.1572
  767MPD2    H111380   1.887   2.729  14.756 -2.2813 -0.0042  0.7787
  767MPD2    H211381   1.895   2.878  15.139 -0.9202 -0.6422 -0.3250
  767MPD2    H311382   1.775   2.773  14.969  0.0316 -1.9110  1.0666
  767MPD2     N11383   2.159   2.701  14.719  0.4633  0.4649  0.5081
  767MPD2    H511384   2.259   2.697  14.730  0.7672  0.9420 -1.9416
  767MPD2    N111385   2.158   2.901  15.167 -0.1325 -0.9011  0.4833
  767MPD2    H711386   2.102   2.945  15.240  0.7965 -0.4804  0.9527
  768MPD2     C11387   3.224   1.096  11.118 -0.3285 -0.1326  0.3017
  768MPD2    C111388   3.259   1.227  11.077 -0.0681 -0.6726  0.3217
  768MPD2    C211389   3.373   1.294  11.113 -0.1702 -0.1580 -0.4638
  768MPD2    C311390   3.459   1.220  11.198  0.3537 -0.1435  0.5283
  768MPD2    C411391   3.439   1.086  11.225  0.0821 -0.4471  0.3409
  768MPD2    C511392   3.319   1.025  11.185  0.0739 -0.2492  0.5764
  768MPD2     H11393   3.396   1.394  11.081  1.1596 -0.6994 -1.1927
  768MPD2    H111394   3.515   1.037  11.285  0.2455 -1.4239 -0.6782
  768MPD2    H211395   3.132   1.045  11.093 -0.1867  0.2338 -0.9902
  768MPD2    H311396   3.285   0.930  11.225 -0.2253 -0.3690  0.0271
  768MPD2     N11397   3.575   1.278  11.256 -0.9324 -0.5113 -0.0564
  768MPD2    H511398   3.625   1.226  11.328 -0.0239 -0.3026 -0.5437
  768MPD2    N111399   3.163   1.305  11.014 -0.1332  0.0555 -0.3588
  768MPD2    H711400   3.196   1.400  11.004 -1.5265  0.4747 -1.0031
  769MPD2     C11401   3.890   4.104  15.598 -0.1945 -0.2870  0.2670
  769MPD2    C111402   3.826   4.184  15.510 -0.0116 -0.0274  0.3067
  769MPD2    C211403   3.820   4.320  15.540 -0.3315  0.6016  0.1517
  769MPD2    C311404   3.874   4.362  15.661  1.0348 -0.4616 -0.3933
  769MPD2    C411405   3.922   4.277  15.756 -0.3363 -0.1240  0.0859
  769MPD2    C511406   3.929   4.145  15.721 -0.2270  0.2509  0.0290
  769MPD2     H11407   3.763   4.389  15.479  0.8536  0.7427 -0.8101
  769MPD2    H111408   3.952   4.306  15.856  1.5011 -1.5565 -0.0453
  769MPD2    H211409   3.906   3.998  15.580 -0.4679 -0.4951  1.2249
  769MPD2    H311410   3.957   4.065  15.788 -0.5976  0.1825  0.1029
  769MPD2     N11411   3.875   4.504  15.686 -0.1824 -0.2845 -0.3366
  769MPD2    H511412   3.813   4.558  15.626  0.5790  1.1168  0.1232
  769MPD2    N111413   3.789   4.117  15.390  0.5378 -0.4026  0.4510
  769MPD2    H711414   3.799   4.016  15.385 -1.9204 -0.5120 -2.3800
  770MPD2     C11415   3.714   3.248  14.911 -0.2729 -0.5026  0.2139
  770MPD2    C111416   3.621   3.324  14.851 -0.3903  0.2556 -0.4277
  770MPD2    C211417   3.592   3.450  14.894 -0.2986 -0.0009 -0.2391
  770MPD2    C311418   3.682   3.512  14.978  0.5394  0.6894  0.3059
  770MPD2    C411419   3.782   3.440  15.052  0.0449 -0.2276  1.0904
  770MPD2    C511420   3.796   3.306  15.006 -0.4884 -0.7055  0.6189
  770MPD2     H11421   3.513   3.510  14.850  0.0173  0.4020 -0.2584
  770MPD2    H111422   3.854   3.486  15.118  3.4527 -0.3644 -2.5330
  770MPD2    H211423   3.731   3.146  14.879 -1.4153 -1.5155  2.8852
  770MPD2    H311424   3.879   3.245  15.042 -0.1718 -1.0104 -0.6161
  770MPD2     N11425   3.668   3.643  15.000  0.1976 -0.1424 -0.0185
  770MPD2    H511426   3.588   3.690  14.959  1.1617 -0.5847 -2.4646
  770MPD2    N111427   3.546   3.256  14.753 -0.7237 -0.2805  0.1666
  770MPD2    H711428   3.563   3.161  14.722  0.8055  1.1507 -3.3836
  771MPD2     C11429   0.470   2.201  13.717 -0.1940  0.2206  0.3258
  771MPD2    C111430   0.411   2.312  13.655  0.3695  0.1941  0.3302
  771MPD2    C211431   0.315   2.288  13.556  0.0944  0.2377 -0.8454
  771MPD2    C311432   0.274   2.153  13.533 -0.5342  0.2446 -0.1973
  771MPD2    C411433   0.330   2.046  13.601  0.2633  0.3145  0.3212
  771MPD2    C511434   0.429   2.070  13.686 -0.4288 -0.3864 -0.5363
  771MPD2     H11435   0.260   2.367  13.506 -0.1518  0.8286  0.3564
  771MPD2    H111436   0.309   1.942  13.580 -2.5697  1.3990 -2.2721
  771MPD2    H211437   0.543   2.213  13.797  0.7129  0.4433 -0.5356
  771MPD2    H311438   0.473   1.983  13.735 -0.7182 -0.8003 -1.0071
  771MPD2     N11439   0.175   2.130  13.436 -0.1599  0.7094  0.2229
  771MPD2    H511440   0.166   2.211  13.377 -1.7570  0.5921  0.2873
  771MPD2    N111441   0.455   2.440  13.673 -0.2979  0.0250 -0.2482
  771MPD2    H711442   0.400   2.516  13.636 -0.8381 -0.1603  0.1634
  772MPD2     C11443   0.106   3.024  13.609  0.1211 -0.5185  0.6359
  772MPD2    C111444   0.120   2.985  13.738 -0.6010  0.3133 -0.2866
  772MPD2    C211445   0.012   2.976  13.820 -0.0235  0.2119 -0.2986
  772MPD2    C311446   4.623   3.018  13.775  0.0979 -0.1642  0.5426
  772MPD2    C411447   4.611   3.055  13.649  0.7303  0.4228  0.2369
  772MPD2    C511448   4.715   3.058  13.564 -0.1672 -0.6488  0.5879
  772MPD2     H11449   0.017   2.937  13.920 -1.0202 -2.9356 -1.4921
  772MPD2    H111450   4.514   3.083  13.609  0.3224 -2.5250 -0.7842
  772MPD2    H211451   0.190   3.027  13.540 -0.7230  1.8255 -0.3056
  772MPD2    H311452   4.704   3.091  13.462  2.1281 -0.0519  0.5185
  772MPD2     N11453   4.509   3.014  13.854 -0.1866  0.4060 -0.0591
  772MPD2    H511454   4.419   3.013  13.806 -0.4723 -2.8381  0.5757
  772MPD2    N111455   0.241   2.931  13.784 -0.0194 -0.4226  0.2407
  772MPD2    H711456   0.247   2.905  13.882 -2.2715 -1.0499  0.1941
  773MPD2     C11457   3.639   3.167   0.029 -0.6449 -0.2135 -0.0086
  773MPD2    C111458   3.576   3.076  17.684 -0.3736  0.0595 -0.0221
  773MPD2    C211459   3.635   2.952  17.669 -0.4283 -0.3729 -1.2378
  773MPD2    C311460   3.751   2.914   0.010  0.0413  0.7005  0.2110
  773MPD2    C411461   3.804   3.012   0.097 -0.1456 -0.5963 -0.1422
  773MPD2    C511462   3.749   3.135   0.102  0.4655  0.1605 -0.0178
  773MPD2     H11463   3.610   2.872  17.599 -1.0933 -1.7566  0.5783
  773MPD2    H111464   3.884   2.992   0.166  0.4756 -0.8220 -0.9204
  773MPD2    H211465   3.602   3.267   0.045  0.0394  0.3108 -1.7383
  773MPD2    H311466   3.790   3.211   0.167 -0.7327  0.5407  0.3018
  773MPD2     N11467   3.811   2.787  17.730  0.4399  0.5122  0.2125
  773MPD2    H511468   3.766   2.731  17.658  1.1082 -1.0948  1.0305
  773MPD2    N111469   3.458   3.106  17.614 -0.4951 -0.2937  0.8030
  773MPD2    H711470   3.430   3.032  17.550 -0.3815  0.5045 -0.1603
  774MPD2     C11471   3.453   2.581  13.474 -0.6010 -0.1714 -0.2176
  774MPD2    C111472   3.359   2.661  13.544 -0.4294  0.3034 -0.1116
  774MPD2    C211473   3.374   2.799  13.542  0.2226  0.2058 -0.9864
  774MPD2    C311474   3.482   2.853  13.472 -0.2600  0.4073  0.4873
  774MPD2    C411475   3.571   2.775  13.394  0.5983  0.3503  0.1569
  774MPD2    C511476   3.554   2.635  13.401 -0.4039  0.1284 -0.1001
  774MPD2     H11477   3.309   2.858  13.605  0.8303 -0.2938  0.1197
  774MPD2    H111478   3.651   2.816  13.333  0.1545 -0.0016 -0.6573
  774MPD2    H211479   3.427   2.476  13.464  1.1091 -0.5963 -0.1872
  774MPD2    H311480   3.600   2.569  13.328  0.0132 -0.2520  0.5140
  774MPD2     N11481   3.501   2.990  13.501 -0.0635 -0.3121  0.2951
  774MPD2    H511482   3.436   3.048  13.553  0.1418  1.0048 -0.9086
  774MPD2    N111483   3.268   2.595  13.625 -0.7636 -0.0852 -0.5399
  774MPD2    H711484   3.289   2.498  13.646  0.0068 -0.1070 -1.3852
  775MPD2     C11485   4.573   3.985  15.863 -0.3468  0.0299  0.0640
  775MPD2    C111486   4.548   4.116  15.884 -0.5539 -0.1034  0.0450
  775MPD2    C211487   4.645   4.207  15.857 -0.5145 -0.0141 -0.4206
  775MPD2    C311488   0.037   4.171  15.819  0.2788  0.0936 -0.0037
  775MPD2    C411489   0.063   4.041  15.793 -0.5350 -0.5312 -0.4909
  775MPD2    C511490   4.704   3.946  15.825 -0.4693 -0.2873 -0.3478
  775MPD2     H11491   4.633   4.314  15.866 -0.4991  0.0662 -1.4205
  775MPD2    H111492   0.157   4.019  15.744  0.8322  2.1371  0.9378
  775MPD2    H211493   4.489   3.918  15.878  0.4887 -0.4674  2.6140
  775MPD2    H311494   4.726   3.842  15.801 -1.1121  0.1614 -2.9562
  775MPD2     N11495   0.136   4.267  15.776 -0.5762  0.0681 -0.3547
  775MPD2    H511496   0.217   4.239  15.722 -0.5704  1.6905 -1.1881
  775MPD2    N111497   4.414   4.151  15.928 -0.0742  0.2006  0.2478
  775MPD2    H711498   4.362   4.075  15.970  0.9778 -0.7548 -0.1714
  776MPD2     C11499   3.061   0.022  11.457  0.5640  0.6440  0.2321
  776MPD2    C111500   3.193   4.712  11.466 -0.3111  0.0812 -0.3943
  776MPD2    C211501   3.290   0.064  11.418  0.7566 -0.3314 -0.5506
  776MPD2    C311502   3.255   0.184  11.369  0.3990 -0.0440 -0.0758
  776MPD2    C411503   3.128   0.224  11.369 -0.2166 -0.0596 -0.4737
  776MPD2    C511504   3.029   0.144  11.419 -0.0773  0.2787 -0.3049
  776MPD2     H11505   3.396   0.039  11.418  0.8239 -0.0196 -0.0351
  776MPD2    H111506   3.100   0.325  11.341 -0.5845 -0.4204 -1.4130
  776MPD2    H211507   2.985   4.686  11.491  0.8737 -0.2198 -0.8512
  776MPD2    H311508   2.929   0.183  11.430  0.2912  1.5099 -1.2238
  776MPD2     N11509   3.354   0.272  11.323  1.4816 -0.4066 -0.3064
  776MPD2    H511510   3.326   0.355  11.271  0.1655 -0.8294 -0.2717
  776MPD2    N111511   3.216   4.580  11.507 -0.7683  0.2564  0.2529
  776MPD2    H711512   3.137   4.531  11.548 -1.9118  1.6000 -0.3382
  777MPD2     C11513   3.748   1.963   0.395 -0.2432  0.0298 -0.8793
  777MPD2    C111514   3.726   1.889   0.507 -0.5669 -0.0182 -0.2128
  777MPD2    C211515   3.696   1.754   0.484  0.3687  0.8407 -0.2684
  777MPD2    C311516   3.699   1.696   0.361  0.1127 -0.0028  0.2062
  777MPD2    C411517   3.728   1.778   0.251 -0.7715  0.2526 -0.6186
  777MPD2    C511518   3.748   1.914   0.267 -0.4019 -0.3660  0.2468
  777MPD2     H11519   3.657   1.693   0.564 -1.6248 -0.8986 -2.5577
  777MPD2    H111520   3.731   1.740   0.149  2.4492 -2.6293  0.5509
  777MPD2    H211521   3.772   2.068   0.409 -0.4623  0.0884 -0.9467
  777MPD2    H311522   3.764   1.975   0.179  0.1879 -1.4977 -0.4283
  777MPD2     N11523   3.645   1.566   0.347  0.2956 -0.5440 -0.0683
  777MPD2    H511524   3.644   1.512   0.433  0.2284  0.5800  0.6429
  777MPD2    N111525   3.723   1.953   0.628  0.1924 -0.0586 -0.5430
  777MPD2    H711526   3.741   2.052   0.637  1.7892 -0.5673  2.1416
  778MPD2     C11527   0.377   2.559  14.575 -0.1418 -0.4812 -0.1036
  778MPD2    C111528   0.397   2.433  14.519  0.4079  0.7226 -0.0757
  778MPD2    C211529   0.502   2.406  14.438 -0.2046  0.4082  0.3111
  778MPD2    C311530   0.585   2.502  14.391  0.4915 -0.0215 -0.4428
  778MPD2    C411531   0.566   2.627  14.437  0.7869  0.0217 -0.1955
  778MPD2    C511532   0.465   2.654  14.524  0.2782 -0.2784  0.1503
  778MPD2     H11533   0.521   2.304  14.404 -0.4793 -0.2333  2.0715
  778MPD2    H111534   0.629   2.713  14.416  2.3413 -1.4831 -1.6055
  778MPD2    H211535   0.302   2.579  14.650 -0.1079  0.7475 -0.4000
  778MPD2    H311536   0.453   2.758  14.552 -0.4043 -0.5582  0.9119
  778MPD2     N11537   0.684   2.473  14.294 -0.5823 -0.5238  0.2588
  778MPD2    H511538   0.693   2.373  14.276  0.3447 -0.3832 -0.0430
  778MPD2    N111539   0.330   2.324  14.571  0.0765 -0.0203  0.1552
  778MPD2    H711540   0.324   2.233  14.526 -0.5225  1.0252 -1.8803
  779MPD2     C11541   4.472   1.037  13.710 -0.1977  0.7496  0.5472
  779MPD2    C111542   4.567   1.052  13.808 -0.7320  0.1369  0.3640
  779MPD2    C211543   4.624   1.170  13.838 -0.2271  0.2162  0.2621
  779MPD2    C311544   4.587   1.281  13.767  0.0107  0.8520  0.1649
  779MPD2    C411545   4.491   1.264  13.666  0.0359  0.9734  0.2754
  779MPD2    C511546   4.437   1.143  13.635  0.1970 -0.3258 -0.1811
  779MPD2     H11547   4.704   1.184  13.910 -0.3799  0.0110  0.4719
  779MPD2    H111548   4.452   1.346  13.607 -0.6000 -0.1794 -0.9047
  779MPD2    H211549   4.436   0.935  13.702  0.8413  0.4669 -0.5036
  779MPD2    H311550   4.362   1.134  13.557  0.6506 -0.0909 -0.6431
  779MPD2     N11551   4.659   1.403  13.793  0.2037  0.2252  0.3201
  779MPD2    H511552   4.718   1.417  13.874 -0.5927  1.6992  0.6558
  779MPD2    N111553   4.597   0.928  13.876  0.1106  0.2156 -0.4754
  779MPD2    H711554   4.579   0.842  13.824  1.3803  0.2220 -0.9045
  780MPD2     C11555   0.007   0.937   0.804  0.8812  0.0142 -0.2647
  780MPD2    C111556   4.622   1.001   0.808 -0.2402  0.3608 -0.1739
  780MPD2    C211557   4.560   1.032   0.687  0.4685 -0.2299 -0.3632
  780MPD2    C311558   4.611   0.980   0.570  0.1141  0.2144  0.0839
  780MPD2    C411559   4.731   0.899   0.570  0.4924 -0.2072 -0.0451
  780MPD2    C511560   0.058   0.885   0.693 -0.1331 -0.0765  0.1564
  780MPD2     H11561   4.455   1.058   0.682  0.8362  1.7248  1.8486
  780MPD2    H111562   0.026   0.854   0.475  0.6283 -0.2092 -0.0028
  780MPD2    H211563   0.056   0.923   0.900  1.2830  1.8237 -0.1997
  780MPD2    H311564   0.145   0.821   0.690  1.6136  2.4060 -2.1596
  780MPD2     N11565   4.539   1.020   0.458 -0.0179 -0.4803  0.0332
  780MPD2    H511566   4.463   1.082   0.482  1.6853  1.9928 -1.0354
  780MPD2    N111567   4.558   1.034   0.929 -0.4930 -0.8819 -0.3410
  780MPD2    H711568   4.573   0.986   1.018  0.9266 -1.5386 -0.9320
  781MPD2     C11569   1.121   3.415  12.001 -0.4428 -0.4783  0.3931
  781MPD2    C111570   1.216   3.338  12.067  0.3609 -0.4257  0.3301
  781MPD2    C211571   1.350   3.345  12.031  0.5125 -1.2240 -0.6173
  781MPD2    C311572   1.391   3.416  11.920  0.1024 -0.4389  0.5074
  781MPD2    C411573   1.294   3.492  11.855  0.4355 -0.3156 -0.1307
  781MPD2    C511574   1.162   3.487  11.894  0.7835  0.1052  0.2685
  781MPD2     H11575   1.419   3.284  12.088  1.3289 -0.9678 -1.3393
  781MPD2    H111576   1.310   3.567  11.778 -0.6256 -1.6606 -1.6589
  781MPD2    H211577   1.016   3.424  12.026 -0.1411 -0.6043  1.6829
  781MPD2    H311578   1.092   3.544  11.834  1.0741  1.1714  0.9277
  781MPD2     N11579   1.528   3.416  11.876  0.1465  0.4206 -0.4099
  781MPD2    H511580   1.588   3.356  11.932  1.8147  1.9582 -0.5515
  781MPD2    N111581   1.192   3.261  12.179  0.1506  0.1063 -0.1715
  781MPD2    H711582   1.268   3.211  12.225 -0.7282  0.9244  2.1558
  782MPD2     C11583   4.023   3.981  10.523  0.1596 -0.2836  0.0451
  782MPD2    C111584   4.160   3.949  10.508  0.1955  0.5754 -0.0867
  782MPD2    C211585   4.236   3.953  10.617  0.0047  0.0296 -0.4859
  782MPD2    C311586   4.196   3.993  10.740  0.0206 -0.0404 -0.9937
  782MPD2    C411587   4.060   4.019  10.752 -0.3287 -0.2628 -0.0805
  782MPD2    C511588   3.978   4.014  10.649 -0.0411  0.6463 -0.0435
  782MPD2     H11589   4.339   3.918  10.612 -0.0357 -0.1967  0.1728
  782MPD2    H111590   4.020   4.056  10.845 -0.4234 -1.4787  0.3597
  782MPD2    H211591   3.952   3.978  10.440 -1.3097  0.0610  1.2941
  782MPD2    H311592   3.872   4.034  10.657  0.4434  2.4018  1.8539
  782MPD2     N11593   4.284   3.993  10.851 -0.2917  0.2547  0.8479
  782MPD2    H511594   4.382   3.971  10.834 -0.6442 -1.6646  1.3913
  782MPD2    N111595   4.219   3.912  10.380  0.2394  0.3602  0.2933
  782MPD2    H711596   4.316   3.881  10.376  0.2895  0.6434 -0.6337
  783MPD2     C11597   3.788   3.297  10.594  0.4494  0.2789  0.3817
  783MPD2    C111598   3.864   3.399  10.657 -0.3201  0.2715  0.1538
  783MPD2    C211599   3.935   3.484  10.577  0.4730  0.4540  0.2152
  783MPD2    C311600   3.939   3.472  10.432  0.5258  0.0344 -0.2623
  783MPD2    C411601   3.848   3.382  10.379  0.1229 -0.5140  0.4733
  783MPD2    C511602   3.793   3.284  10.459 -0.8533  0.5294  0.1988
  783MPD2     H11603   3.998   3.552  10.633  1.7401 -1.5510  1.1965
  783MPD2    H111604   3.849   3.359  10.273 -2.5929 -0.7453  0.4786
  783MPD2    H211605   3.740   3.220  10.654  0.9234  1.3616  2.1601
  783MPD2    H311606   3.743   3.195  10.423  0.7674 -0.4427  0.3287
  783MPD2     N11607   4.028   3.551  10.356 -0.1859  0.1559  0.6845
  783MPD2    H511608   4.106   3.600  10.398  0.1312 -0.1361  0.4355
  783MPD2    N111609   3.861   3.408  10.803 -0.7062  0.7412 -0.4842
  783MPD2    H711610   3.806   3.345  10.860 -0.4692 -0.8127 -1.9959
  784MPD2     C11611   0.934   3.579   0.746 -0.4266  0.3327  0.4085
  784MPD2    C111612   1.026   3.682   0.743 -0.1844 -0.0748  0.0597
  784MPD2    C211613   0.990   3.790   0.660  0.7061  0.1808  0.2657
  784MPD2    C311614   0.876   3.789   0.583 -0.3073  0.9423  0.5347
  784MPD2    C411615   0.787   3.682   0.593 -0.4295 -0.3698  0.0826
  784MPD2    C511616   0.824   3.580   0.667 -0.5148 -0.1545 -0.2517
  784MPD2     H11617   1.064   3.869   0.657  1.6094 -0.8172 -3.9703
  784MPD2    H111618   0.696   3.672   0.535 -0.0967  0.0890 -0.5213
  784MPD2    H211619   0.959   3.490   0.803  1.6682 -0.8132 -2.2899
  784MPD2    H311620   0.766   3.488   0.666  1.3566 -1.3537  1.9913
  784MPD2     N11621   0.843   3.911   0.525  0.2164 -0.1635 -0.0716
  784MPD2    H511622   0.923   3.970   0.505  0.6291  0.2593  2.8282
  784MPD2    N111623   1.142   3.700   0.823 -0.2862  0.0815 -0.3092
  784MPD2    H711624   1.191   3.785   0.800 -0.7178 -0.1118 -1.9073
  785MPD2     C11625   2.240   1.963  10.742  0.3032 -0.4554 -0.1344
  785MPD2    C111626   2.132   1.999  10.665  0.3697 -0.3381  0.5725
  785MPD2    C211627   2.098   1.928  10.547 -0.2018  0.8932  0.3071
  785MPD2    C311628   2.173   1.818  10.506  0.1712  0.2154  0.3391
  785MPD2    C411629   2.279   1.780  10.585  0.2165  0.2826 -0.6338
  785MPD2    C511630   2.311   1.852  10.697  0.6105 -0.1075 -0.2084
  785MPD2     H11631   2.006   1.948  10.494  1.1613  1.8466 -1.6724
  785MPD2    H111632   2.345   1.696  10.570  1.5485  1.3295 -0.5871
  785MPD2    H211633   2.277   2.009  10.833  1.6367  0.4224 -1.0990
  785MPD2    H311634   2.402   1.832  10.751  1.7166 -1.0644 -2.4054
  785MPD2     N11635   2.137   1.763  10.383 -0.0322  0.9657  0.1944
  785MPD2    H511636   2.051   1.794  10.338 -0.9052 -0.2482  1.0251
  785MPD2    N111637   2.059   2.111  10.703  0.6273 -0.1816  0.5291
  785MPD2    H711638   2.109   2.165  10.774  0.5469  1.2222 -0.4766
  786MPD2     C11639   0.487   0.215  14.682 -0.2091  0.0093 -0.0310
  786MPD2    C111640   0.588   0.125  14.723 -0.0119 -0.1474  0.3381
  786MPD2    C211641   0.658   0.155  14.842  0.1268  0.4612 -0.4600
  786MPD2    C311642   0.635   0.268  14.909  0.6824 -0.2965 -0.1405
  786MPD2    C411643   0.536   0.359  14.866 -0.4548 -0.4350 -0.3369
  786MPD2    C511644   0.463   0.329  14.757 -0.5581  0.0714 -0.1763
  786MPD2     H11645   0.722   0.080  14.887 -2.5936 -1.3308  0.3834
  786MPD2    H111646   0.531   0.459  14.909  1.1498 -0.5364  0.0866
  786MPD2    H211647   0.426   0.203  14.593  0.9310 -0.2648 -0.7680
  786MPD2    H311648   0.394   0.404  14.722 -0.4256  0.1169 -0.3408
  786MPD2     N11649   0.689   0.301  15.035 -0.0704 -0.6974 -0.2067
  786MPD2    H511650   0.654   0.375  15.094 -0.6054 -0.4085 -0.8864
  786MPD2    N111651   0.601   4.733  14.663 -0.1028  0.1447 -0.0815
  786MPD2    H711652   0.662   4.661  14.701  0.2599  0.7593  0.4901
  787MPD2     C11653   0.940   4.265  14.910 -0.4409 -0.0923 -0.0548
  787MPD2    C111654   0.865   4.203  14.812  0.6368  0.4442  0.3224
  787MPD2    C211655   0.898   4.070  14.793 -0.3983 -0.2328 -0.0100
  787MPD2    C311656   0.991   4.001  14.862 -0.5706 -0.2934 -0.0219
  787MPD2    C411657   1.060   4.063  14.959  0.1051  0.4071 -0.1588
  787MPD2    C511658   1.035   4.196  14.979  0.1536  0.4858 -0.2926
  787MPD2     H11659   0.841   4.018  14.716  1.1831  0.8803 -1.9287
  787MPD2    H111660   1.129   4.011  15.024 -1.8109 -0.4228  1.2063
  787MPD2    H211661   0.913   4.368  14.935  1.0604  0.1323  0.6519
  787MPD2    H311662   1.079   4.245  15.065  2.1739  0.9831 -1.6125
  787MPD2     N11663   1.000   3.865  14.836 -0.0257  0.1237  0.5941
  787MPD2    H511664   0.938   3.824  14.767 -0.5534  0.5753  0.8046
  787MPD2    N111665   0.769   4.278  14.738 -0.7639  0.4304  0.0891
  787MPD2    H711666   0.762   4.377  14.758  1.0087 -0.1402  3.5390
  788MPD2     C11667   2.153   3.427   0.984  0.1841 -0.0326 -0.2800
  788MPD2    C111668   2.243   3.416   0.884  0.5592 -0.5143 -0.2835
  788MPD2    C211669   2.263   3.528   0.798  0.3041  0.2891  0.2468
  788MPD2    C311670   2.192   3.644   0.814 -0.5764 -0.0141  0.0031
  788MPD2    C411671   2.109   3.656   0.919  0.0866  0.6770 -0.6874
  788MPD2    C511672   2.090   3.550   1.001  0.3611  0.1796 -0.0868
  788MPD2     H11673   2.337   3.514   0.720 -0.6773  2.2373 -1.0290
  788MPD2    H111674   2.055   3.748   0.935 -0.1879  0.7185 -1.8323
  788MPD2    H211675   2.128   3.360   1.066  1.9420 -0.8899 -0.4293
  788MPD2    H311676   2.024   3.567   1.085 -0.7467  0.6277 -1.0406
  788MPD2     N11677   2.193   3.746   0.713 -0.9295  0.0397 -0.3830
  788MPD2    H511678   2.117   3.814   0.720  0.9693  2.2787 -1.7841
  788MPD2    N111679   2.318   3.293   0.865  0.7443  0.2405  0.2798
  788MPD2    H711680   2.389   3.289   0.794  1.1702 -0.6287  0.7530
  789MPD2     C11681   2.260   2.336  17.335  0.6582 -0.1529  0.1367
  789MPD2    C111682   2.343   2.374  17.230 -0.3164 -0.2394  0.0675
  789MPD2    C211683   2.349   2.502  17.181 -0.5119 -0.6338 -0.0044
  789MPD2    C311684   2.271   2.597  17.249 -0.4670  0.4700  0.2567
  789MPD2    C411685   2.192   2.555  17.351 -0.2594  0.0205 -0.5412
  789MPD2    C511686   2.185   2.431  17.398  0.1064  0.2350 -0.0522
  789MPD2     H11687   2.417   2.526  17.100 -0.1906  0.5895  0.6319
  789MPD2    H111688   2.137   2.629  17.409  0.2159 -0.8695  1.0520
  789MPD2    H211689   2.246   2.235  17.372 -1.8126 -0.1259 -0.7120
  789MPD2    H311690   2.123   2.400  17.482  1.2868  2.5021  1.6670
  789MPD2     N11691   2.277   2.730  17.217  0.1979 -0.8646  0.5151
  789MPD2    H511692   2.228   2.799  17.272  1.2724  0.8352 -0.6547
  789MPD2    N111693   2.416   2.272  17.169  0.0712 -0.3758 -0.1272
  789MPD2    H711694   2.460   2.293  17.080 -0.8360 -2.1365 -0.9923
  790MPD2     C11695   4.275   4.378  13.747  0.3387 -0.6197 -0.0348
  790MPD2    C111696   4.146   4.328  13.746  0.2428  0.7749  0.5080
  790MPD2    C211697   4.075   4.341  13.626  1.1274  0.0265 -0.4996
  790MPD2    C311698   4.132   4.389  13.509 -0.0786 -0.3551  0.0356
  790MPD2    C411699   4.265   4.440  13.519  0.5650  0.2536  0.5182
  790MPD2    C511700   4.331   4.438  13.633  0.3846  0.3705  0.1028
  790MPD2     H11701   3.974   4.304  13.616  0.1887  1.9557  1.9761
  790MPD2    H111702   4.326   4.490  13.445 -1.1485  1.4546 -0.0909
  790MPD2    H211703   4.332   4.373  13.839 -0.5477  0.7199  0.5798
  790MPD2    H311704   4.427   4.487  13.633  0.7872 -0.4154 -0.0095
  790MPD2     N11705   4.042   4.398  13.399  0.7109 -0.6162  0.4223
  790MPD2    H511706   3.946   4.374  13.420 -0.0917  1.5775 -0.7046
  790MPD2    N111707   4.100   4.264  13.863  0.1174 -0.0830  0.5127
  790MPD2    H711708   4.152   4.278  13.949  0.9692 -2.4855  0.3809
  791MPD2     C11709   3.397   4.518  13.224  0.1983  0.5286 -0.5174
  791MPD2    C111710   3.448   4.422  13.135  0.3094 -0.3854  0.1581
  791MPD2    C211711   3.355   4.360  13.052 -0.6162  0.2561 -0.3689
  791MPD2    C311712   3.219   4.389  13.053 -0.5844  0.5377  0.2607
  791MPD2    C411713   3.174   4.492  13.128 -0.1245  0.7668 -0.1037
  791MPD2    C511714   3.267   4.551  13.219  0.2070 -0.0489  1.1189
  791MPD2     H11715   3.386   4.280  12.986 -1.3771 -0.0151 -0.3931
  791MPD2    H111716   3.072   4.530  13.126 -0.7235 -0.7605  0.8002
  791MPD2    H211717   3.459   4.574  13.293 -0.2404  2.0537 -1.3569
  791MPD2    H311718   3.229   4.629  13.284  0.4074  2.4347 -1.7472
  791MPD2     N11719   3.138   4.312  12.971  0.6368  1.0547 -0.7711
  791MPD2    H511720   3.179   4.263  12.892  0.5624 -0.7933  0.3356
  791MPD2    N111721   3.583   4.396  13.145 -0.4736 -0.2963  0.0709
  791MPD2    H711722   3.640   4.458  13.201  0.0323 -1.2346  0.5969
  792MPD2     C11723   4.017   4.665  11.364 -0.0936  0.0576  0.0202
  792MPD2    C111724   3.988   4.731  11.242 -0.4450  0.4058  0.1372
  792MPD2    C211725   3.858   4.720  11.182  0.2589  0.2571 -0.5187
  792MPD2    C311726   3.754   4.655  11.247  1.3093 -0.2195  0.1916
  792MPD2    C411727   3.783   4.585  11.358 -0.1732  0.3263 -0.0622
  792MPD2    C511728   3.911   4.595  11.418 -0.6258  0.5333  0.8566
  792MPD2     H11729   3.841   0.045  11.093  1.9670  0.3938 -0.7562
  792MPD2    H111730   3.717   4.515  11.408 -0.0632  0.0705 -0.2727
  792MPD2    H211731   4.109   4.672  11.421 -1.2933  2.3857  1.6530
  792MPD2    H311732   3.934   4.552  11.515  0.7066  1.1301  0.8001
  792MPD2     N11733   3.616   4.664  11.203  0.2265 -0.4670 -0.1391
  792MPD2    H511734   3.554   4.617  11.269  0.9570 -1.6760 -0.3019
  792MPD2    N111735   4.087   0.089  11.189  0.1930  0.4140  0.8393
  792MPD2    H711736   4.169   0.098  11.249  1.2838  1.7977 -0.8480
  793MPD2     C11737   3.488   4.570  10.335 -0.4171  0.1747 -0.1072
  793MPD2    C111738   3.556   4.521  10.443 -0.6601 -0.0578 -0.2056
  793MPD2    C211739   3.510   4.555  10.572  0.6263 -0.3776  0.2555
  793MPD2    C311740   3.402   4.633  10.590 -0.4230  0.6039 -0.6063
  793MPD2    C411741   3.327   4.665  10.483 -0.2101  0.5393 -0.5606
  793MPD2    C511742   3.374   4.646  10.362 -0.3373  0.5964 -0.0663
  793MPD2     H11743   3.571   4.518  10.653 -0.8810 -0.2381  1.4557
  793MPD2    H111744   3.236   4.723  10.486 -0.9899 -0.4523 -4.0350
  793MPD2    H211745   3.526   4.560  10.234  0.2565 -0.7309  0.2311
  793MPD2    H311746   3.340   4.694  10.271  0.8031 -0.0202 -0.8329
  793MPD2     N11747   3.372   4.664  10.723  0.3596  0.2887 -0.7120
  793MPD2    H511748   3.447   4.653  10.790 -1.6226 -0.4838  1.4085
  793MPD2    N111749   3.679   4.449  10.441 -0.1696 -0.0920 -0.0816
  793MPD2    H711750   3.738   4.432  10.522  1.9463  0.4710 -1.5329
  794MPD2     C11751   2.940   3.783  17.345 -0.4860  0.2040  0.7710
  794MPD2    C111752   3.013   3.705  17.260 -0.5337  0.1756 -0.2777
  794MPD2    C211753   3.027   3.747  17.128  0.2475 -0.1186  0.3411
  794MPD2    C311754   2.982   3.878  17.096 -0.0125 -0.2314  0.4603
  794MPD2    C411755   2.911   3.953  17.180  1.3092 -0.1111 -0.1096
  794MPD2    C511756   2.880   3.898  17.303  0.4784 -0.2915  0.4172
  794MPD2     H11757   3.090   3.685  17.066 -0.5799  0.3246 -0.9397
  794MPD2    H111758   2.871   4.052  17.158 -0.2820 -0.4479  1.2306
  794MPD2    H211759   2.908   3.750  17.444  0.0305 -1.0971  0.4982
  794MPD2    H311760   2.806   3.942  17.369 -1.1629 -0.0067 -1.6178
  794MPD2     N11761   2.999   3.942  16.977 -0.2488 -0.1488  0.8429
  794MPD2    H511762   2.979   4.041  16.967  1.5114  0.0095 -1.2356
  794MPD2    N111763   3.070   3.583  17.302  0.2494  0.0088 -0.2030
  794MPD2    H711764   3.115   3.531  17.227  1.8397  1.1709 -0.0291
  795MPD2     C11765   1.417   1.272  13.641 -0.3346 -0.7222  0.0428
  795MPD2    C111766   1.321   1.202  13.718 -0.8663  0.9034 -0.5074
  795MPD2    C211767   1.376   1.112  13.807  1.4193  0.1065  0.0568
  795MPD2    C311768   1.513   1.096  13.823  0.7647 -0.4514 -0.3814
  795MPD2    C411769   1.601   1.156  13.741  0.4840 -0.7383 -0.2136
  795MPD2    C511770   1.556   1.255  13.652 -0.1007 -0.4217 -0.4306
  795MPD2     H11771   1.308   1.068  13.879 -0.7056  2.5295 -0.4462
  795MPD2    H111772   1.709   1.146  13.736  0.4669 -1.3925  0.9720
  795MPD2    H211773   1.391   1.335  13.557 -0.8304  2.6524  2.7423
  795MPD2    H311774   1.618   1.301  13.576  1.1199 -0.3705  0.5964
  795MPD2     N11775   1.564   0.999  13.918  0.4685  0.1762 -0.4557
  795MPD2    H511776   1.494   0.948  13.972 -0.0864  0.0238 -1.3227
  795MPD2    N111777   1.187   1.234  13.719  0.8145  0.3833  0.4165
  795MPD2    H711778   1.138   1.190  13.796 -0.9051 -1.2513 -1.6114
  796MPD2     C11779   0.682   2.477  15.871 -0.1044  0.2562  0.3970
  796MPD2    C111780   0.760   2.535  15.969 -0.0001 -0.2765  0.3987
  796MPD2    C211781   0.780   2.675  15.966 -0.5356  0.2353  0.1459
  796MPD2    C311782   0.728   2.753  15.868 -1.2588  0.2001 -1.0542
  796MPD2    C411783   0.648   2.690  15.771 -0.7703  0.3692 -0.3528
  796MPD2    C511784   0.631   2.554  15.771 -0.2362  0.1727 -0.3658
  796MPD2     H11785   0.834   2.729  16.043  1.4738  0.3861 -1.3642
  796MPD2    H111786   0.581   2.740  15.702 -3.4265  1.2218  2.8396
  796MPD2    H211787   0.667   2.369  15.874 -0.4403  0.2799 -0.5025
  796MPD2    H311788   0.574   2.511  15.689 -2.8010  1.5466  0.6792
  796MPD2     N11789   0.741   2.890  15.878  0.7070 -0.1604  0.1548
  796MPD2    H511790   0.798   2.930  15.953  0.2811 -1.1922  1.0260
  796MPD2    N111791   0.820   2.450  16.067  0.4129  0.2517 -0.7734
  796MPD2    H711792   0.813   2.350  16.052  2.2756  0.3776 -2.4842
  797MPD2     C11793   1.545   2.006  17.722 -0.3930  0.1116  0.3415
  797MPD2    C111794   1.559   2.138   0.022 -0.8959  0.4829  0.3683
  797MPD2    C211795   1.498   2.230  17.677 -0.1141 -0.4456 -0.0486
  797MPD2    C311796   1.418   2.195  17.570 -0.1755 -0.7035  0.5456
  797MPD2    C411797   1.413   2.065  17.526 -0.5692  0.0774 -0.7688
  797MPD2    C511798   1.474   1.973  17.607 -1.1013 -0.1131 -0.6403
  797MPD2     H11799   1.517   2.329  17.717  0.1935 -1.4713  2.3887
  797MPD2    H111800   1.349   2.032  17.445 -2.0464  0.1768  0.3623
  797MPD2    H211801   1.586   1.929   0.051 -0.2909  1.4717  1.9088
  797MPD2    H311802   1.464   1.868  17.579 -0.4743 -0.8560  1.9786
  797MPD2     N11803   1.382   2.308  17.490 -0.4864  0.0037  0.0628
  797MPD2    H511804   1.416   2.401  17.515  0.2284 -0.5919  1.2859
  797MPD2    N111805   1.638   2.184   0.126 -0.3897  0.5237 -0.3792
  797MPD2    H711806   1.661   2.283   0.128  1.8237  0.0093 -0.5600
  798MPD2     C11807   1.710   2.919  17.610  1.3333 -0.5458 -0.3595
  798MPD2    C111808   1.652   2.795  17.605 -0.7147  0.0969 -0.0300
  798MPD2    C211809   1.684   2.702  17.708  0.0810 -0.3257  0.7505
  798MPD2    C311810   1.777   2.734   0.062 -0.2515  0.5896  0.0112
  798MPD2    C411811   1.841   2.858   0.056 -0.5725  0.2820 -0.6170
  798MPD2    C511812   1.802   2.951  17.708  0.0722 -0.4115 -0.4686
  798MPD2     H11813   1.647   2.600  17.705 -3.8895  1.1085  0.6094
  798MPD2    H111814   1.922   2.880   0.125 -0.8810 -0.3898 -0.0425
  798MPD2    H211815   1.688   3.000  17.542  0.6918 -0.6619 -0.2830
  798MPD2    H311816   1.861   3.042  17.705 -1.6465  0.6419 -2.3290
  798MPD2     N11817   1.830   2.631   0.155  0.2843 -0.3295  0.3419
  798MPD2    H511818   1.897   2.668   0.222  1.8977 -1.1790 -0.8074
  798MPD2    N111819   1.572   2.769  17.493 -0.4455 -0.5024 -0.1522
  798MPD2    H711820   1.563   2.847  17.429 -2.8910  1.5807  2.7729
  799MPD2     C11821   0.675   3.675  14.942 -0.6249 -0.6109 -0.4731
  799MPD2    C111822   0.619   3.583  14.856  0.0383  0.0940 -0.0710
  799MPD2    C211823   0.543   3.624  14.740  0.4798 -0.2245 -0.3091
  799MPD2    C311824   0.513   3.756  14.731  0.0556 -0.2808  0.4484
  799MPD2    C411825   0.569   3.847  14.821 -0.3044  0.8516  0.4747
  799MPD2    C511826   0.654   3.807  14.924  0.1898  0.1577  0.4056
  799MPD2     H11827   0.515   3.545  14.671  0.3215  0.3722 -0.9281
  799MPD2    H111828   0.560   3.955  14.818 -0.2175  0.9074  1.8630
  799MPD2    H211829   0.741   3.653  15.025 -2.7193 -2.2644  0.7150
  799MPD2    H311830   0.701   3.882  14.987  0.2343 -0.3389  0.9602
  799MPD2     N11831   0.433   3.813  14.634  0.1353  0.5784 -0.5885
  799MPD2    H511832   0.430   3.914  14.633  2.1706  0.6952  2.0532
  799MPD2    N111833   0.636   3.443  14.881  0.1512  0.5933  0.1397
  799MPD2    H711834   0.590   3.389  14.808  2.2994 -0.3854 -0.5034
  800MPD2     C11835   0.902   0.340  14.421 -0.1197  0.0714  0.2661
  800MPD2    C111836   0.971   0.388  14.315  0.9312  0.2556 -0.1323
  800MPD2    C211837   0.951   0.327  14.198  0.2307  0.2354  0.5473
  800MPD2    C311838   0.882   0.209  14.194  0.6024  0.5716  0.4296
  800MPD2    C411839   0.811   0.159  14.301 -0.4759 -0.0007  0.2663
  800MPD2    C511840   0.821   0.231  14.415  0.6025  0.0782  0.4227
  800MPD2     H11841   1.013   0.341  14.110  0.9272 -0.1511  0.9697
  800MPD2    H111842   0.751   0.069  14.302 -2.8858  1.5873  1.2414
  800MPD2    H211843   0.908   0.370  14.525 -0.1728 -0.6444  0.4795
  800MPD2    H311844   0.763   0.201  14.501  1.6443 -0.5728  0.9082
  800MPD2     N11845   0.899   0.140  14.075  0.2036  0.0357  0.1585
  800MPD2    H511846   0.950   0.194  14.005  0.6076  0.8750  1.0936
  800MPD2    N111847   1.072   0.483  14.342 -0.1890  0.4822 -0.6254
  800MPD2    H711848   1.095   0.508  14.437 -0.7166 -1.3257 -0.0308
  801MPD2     C11849   1.098   1.176  14.328  0.1586 -0.2545  0.7712
  801MPD2    C111850   1.169   1.105  14.420 -0.1735  0.1270 -0.5294
  801MPD2    C211851   1.136   1.106  14.555  0.0830  0.0703 -0.4760
  801MPD2    C311852   1.031   1.183  14.601  0.4023 -1.3852  0.0388
  801MPD2    C411853   0.955   1.252  14.505 -0.4464 -0.1415  1.0303
  801MPD2    C511854   0.995   1.255  14.373  0.3872  0.7586 -0.2352
  801MPD2     H11855   1.196   1.060  14.633  1.1657 -0.0795 -1.3871
  801MPD2    H111856   0.863   1.300  14.536 -1.7352 -0.7397 -1.8406
  801MPD2    H211857   1.122   1.185  14.223 -1.9170 -3.1146  0.0381
  801MPD2    H311858   0.926   1.302  14.303  0.6414  0.4899 -0.6685
  801MPD2     N11859   0.981   1.177  14.730 -0.0657 -0.2636  0.9046
  801MPD2    H511860   0.905   1.242  14.745 -1.5648 -0.9307 -3.6786
  801MPD2    N111861   1.270   1.009  14.379  1.2048  0.0782 -0.1073
  801MPD2    H711862   1.305   0.951  14.455 -0.2588 -2.0014 -1.0392
  802MPD2     C11863   0.453   2.108   0.393 -0.4137 -0.3929 -0.8351
  802MPD2    C111864   0.430   1.988   0.464  0.1572 -0.3413 -0.4065
  802MPD2    C211865   0.513   1.880   0.438 -0.0803  0.0001  0.3616
  802MPD2    C311866   0.621   1.888   0.358  0.0552 -0.2883 -0.6002
  802MPD2    C411867   0.652   2.016   0.304  0.0602  0.4539  0.7940
  802MPD2    C511868   0.567   2.117   0.330 -0.1597  0.1218 -0.2588
  802MPD2     H11869   0.507   1.785   0.490  1.2970 -0.6714 -0.7323
  802MPD2    H111870   0.744   2.037   0.252  0.2757  1.7088  1.7067
  802MPD2    H211871   0.399   2.201   0.408  1.2011  0.1265  1.6127
  802MPD2    H311872   0.597   2.215   0.295 -2.4978  0.2416 -1.9603
  802MPD2     N11873   0.685   1.766   0.329  0.5067  0.6092 -0.2542
  802MPD2    H511874   0.633   1.689   0.370  0.9094  0.1525 -0.6115
  802MPD2    N111875   0.311   1.971   0.540 -0.3550  0.2377  0.0551
  802MPD2    H711876   0.280   1.886   0.587 -1.2979 -0.6891 -2.2504
  803MPD2     C11877   2.030   4.560  12.041 -0.0728 -0.5313 -0.0165
  803MPD2    C111878   2.113   4.511  12.140  0.5265 -0.8828  0.1682
  803MPD2    C211879   2.071   4.405  12.210  1.1051 -0.2377 -0.2875
  803MPD2    C311880   1.949   4.340  12.178 -0.1791  0.0469 -0.0890
  803MPD2    C411881   1.875   4.388  12.073  0.2431 -0.6724  0.2725
  803MPD2    C511882   1.913   4.500  12.010 -0.1257 -0.7134 -1.2007
  803MPD2     H11883   2.123   4.364  12.295  3.8416  1.3392 -1.1837
  803MPD2    H111884   1.786   4.337  12.039  0.1605 -0.5865  0.3599
  803MPD2    H211885   2.055   4.652  11.989  0.4931 -0.3505  0.5780
  803MPD2    H311886   1.849   4.534  11.929 -0.1659  2.0337 -0.0174
  803MPD2     N11887   1.903   4.216  12.248 -0.6146  0.3164 -0.3130
  803MPD2    H511888   1.808   4.192  12.224 -0.4048 -1.0460  0.2231
  803MPD2    N111889   2.228   4.583  12.195 -0.5288  1.0760 -0.8181
  803MPD2    H711890   2.263   4.551  12.285 -1.8718 -0.3476 -0.8140
  804MPD2     C11891   0.933   0.903  16.907  0.4271  0.0897 -0.1116
  804MPD2    C111892   0.900   0.838  17.032  0.7171 -0.0083  0.0414
  804MPD2    C211893   0.969   0.869  17.144  0.3583  0.9267 -0.1817
  804MPD2    C311894   1.082   0.954  17.135 -0.0931  0.0664 -0.1283
  804MPD2    C411895   1.109   1.017  17.016  0.3944  0.6729  0.0880
  804MPD2    C511896   1.038   0.993  16.900  0.1327 -0.7733  0.6271
  804MPD2     H11897   0.953   0.818  17.239 -3.0378  1.0639 -0.6820
  804MPD2    H111898   1.193   1.086  17.011  0.6351  0.4713  1.3254
  804MPD2    H211899   0.882   0.875  16.816 -4.3916  1.5059  2.1557
  804MPD2    H311900   1.071   1.028  16.803 -0.1536  0.4734  0.9799
  804MPD2     N11901   1.163   0.961  17.246  0.5668  0.3834 -0.4872
  804MPD2    H511902   1.137   0.916  17.333  2.9456  0.9063  0.4952
  804MPD2    N111903   0.796   0.742  17.050 -0.0174 -0.1886 -0.3267
  804MPD2    H711904   0.774   0.713  17.144 -1.9969  0.6788 -0.5331
  805MPD2     C11905   0.607   4.243  15.779 -0.3507 -0.1643  0.1286
  805MPD2    C111906   0.642   4.119  15.733  0.7322 -0.5449  0.0440
  805MPD2    C211907   0.757   4.055  15.791 -0.1825  1.1088 -0.0884
  805MPD2    C311908   0.819   4.114  15.899  0.3304  0.0949 -0.2242
  805MPD2    C411909   0.770   4.235  15.948 -0.9086  0.1752  0.2406
  805MPD2    C511910   0.671   4.305  15.883  0.0430  0.6575 -0.7623
  805MPD2     H11911   0.792   3.959  15.756  0.4949  1.2344  0.2287
  805MPD2    H111912   0.811   4.278  16.038  0.6157  1.0224 -0.8635
  805MPD2    H211913   0.527   4.301  15.734  0.1905 -0.8830 -1.7307
  805MPD2    H311914   0.644   4.407  15.905 -0.6398  0.8564 -2.5070
  805MPD2     N11915   0.927   4.034  15.955  0.0345 -0.2536 -0.4529
  805MPD2    H511916   0.932   3.939  15.920 -3.8877 -0.6168  0.0246
  805MPD2    N111917   0.564   4.044  15.644 -0.4790 -0.5087 -0.0096
  805MPD2    H711918   0.596   3.949  15.627  3.2988  0.9483 -1.0595
  806MPD2     C11919   0.245   3.619   0.718  0.1204 -0.1293 -0.4037
  806MPD2    C111920   0.318   3.506   0.707 -0.0846  0.5613 -0.4112
  806MPD2    C211921   0.398   3.492   0.593  0.0601 -0.0392  0.6473
  806MPD2    C311922   0.411   3.598   0.500 -0.2472 -0.2387  0.3955
  806MPD2    C411923   0.336   3.710   0.514  0.7919  0.2080 -0.2588
  806MPD2    C511924   0.266   3.722   0.628 -0.1675 -0.3709  0.3190
  806MPD2     H11925   0.449   3.400   0.569  0.3420  0.6605 -1.5035
  806MPD2    H111926   0.355   3.794   0.448  0.5592  1.0796  0.7863
  806MPD2    H211927   0.180   3.628   0.804  1.0984 -0.8136  0.4041
  806MPD2    H311928   0.204   3.810   0.643 -0.0811 -0.1965 -0.3502
  806MPD2     N11929   0.503   3.598   0.396  0.3504  0.1317 -0.5429
  806MPD2    H511930   0.500   3.683   0.341 -3.9177 -0.1942 -0.7655
  806MPD2    N111931   0.307   3.410   0.804 -0.0069  0.2784  0.8014
  806MPD2    H711932   0.242   3.425   0.880  1.0103 -0.1386  1.7430
  807MPD2     C11933   4.541   3.312   1.333  0.0993  0.0254 -0.0875
  807MPD2    C111934   4.623   3.194   1.347 -0.5599  0.0913 -0.0865
  807MPD2    C211935   4.590   3.102   1.446 -0.0767 -0.4515  0.2289
  807MPD2    C311936   4.478   3.121   1.528 -0.4007 -0.2876 -0.9700
  807MPD2    C411937   4.401   3.234   1.514  0.0936  0.5775 -0.2714
  807MPD2    C511938   4.432   3.324   1.418  0.6915 -0.0779  0.1567
  807MPD2     H11939   4.660   3.020   1.452  0.4377 -0.0516 -0.3649
  807MPD2    H111940   4.316   3.264   1.573 -0.6962 -0.1127 -1.0506
  807MPD2    H211941   4.555   3.382   1.251 -0.4700 -2.2844 -2.1735
  807MPD2    H311942   4.370   3.413   1.418 -0.4679 -0.8878 -2.6574
  807MPD2     N11943   4.445   3.018   1.617 -0.7154 -0.1832 -0.4129
  807MPD2    H511944   4.499   2.932   1.609  0.3091  0.4276 -0.0647
  807MPD2    N111945   4.728   3.158   1.264 -0.0848 -0.2432  0.7848
  807MPD2    H711946   0.018   3.060   1.273 -1.4098 -0.6651 -0.0803
  808MPD2     C11947   2.327   4.185   9.792 -0.4560 -0.5576 -0.3205
  808MPD2    C111948   2.293   4.317   9.814 -0.3525  0.4260  0.1579
  808MPD2    C211949   2.379   4.421   9.775 -0.2699 -0.5541  0.3135
  808MPD2    C311950   2.495   4.392   9.707  0.6358 -0.6457 -1.2470
  808MPD2    C411951   2.529   4.259   9.684  0.1223 -0.0670 -0.1439
  808MPD2    C511952   2.444   4.156   9.716 -0.1843 -1.4555  0.4798
  808MPD2     H11953   2.353   4.524   9.794 -1.1280 -0.4516 -1.3995
  808MPD2    H111954   2.621   4.231   9.634  0.3723  0.0207  0.2717
  808MPD2    H211955   2.274   4.098   9.830  0.8036 -0.3788  1.8183
  808MPD2    H311956   2.473   4.056   9.686 -2.3999 -2.4126  1.4997
  808MPD2     N11957   2.599   4.493   9.671  0.0017  0.4789  0.0628
  808MPD2    H511958   2.692   4.462   9.644  0.4111 -0.4249  2.4387
  808MPD2    N111959   2.171   4.344   9.884 -0.9321  0.0387 -0.0059
  808MPD2    H711960   2.131   4.437   9.880 -0.8060  0.1360  0.8365
  809MPD2     C11961   3.342   4.421  10.098  0.8170  0.3315 -0.5759
  809MPD2    C111962   3.212   4.423  10.154 -0.2436 -0.5164  1.0611
  809MPD2    C211963   3.106   4.483  10.089  0.2273  0.2470 -0.1877
  809MPD2    C311964   3.135   4.546   9.968  0.1741  0.1027 -0.0686
  809MPD2    C411965   3.263   4.551   9.918  0.0682 -0.1166  0.2164
  809MPD2    C511966   3.370   4.486   9.982 -0.4169  0.2759 -0.0542
  809MPD2     H11967   3.007   4.480  10.133 -0.3362  1.7706 -1.3244
  809MPD2    H111968   3.287   4.591   9.821  1.5883 -5.3709 -1.5671
  809MPD2    H211969   3.421   4.373  10.155 -0.2271 -1.2784 -0.4918
  809MPD2    H311970   3.470   4.484   9.942 -0.1647 -0.8108  0.6203
  809MPD2     N11971   3.036   4.620   9.906 -0.6978 -0.1406 -0.1129
  809MPD2    H511972   2.941   4.620   9.940 -0.7077  1.2137 -0.1365
  809MPD2    N111973   3.178   4.363  10.276 -0.3445 -0.2502  0.0270
  809MPD2    H711974   3.083   4.384  10.303 -0.2909 -0.3276  0.2767
  810MPD2     C11975   1.273   4.687  10.997  0.4410  0.0188 -0.5225
  810MPD2    C111976   1.245   4.722  10.867  0.3299  0.7039  0.5526
  810MPD2    C211977   1.245   0.122  10.836  0.0424  0.4504 -0.0569
  810MPD2    C311978   1.267   0.222  10.929  0.0405  0.3575  0.3807
  810MPD2    C411979   1.293   0.189  11.062 -0.2556 -0.2457 -0.1771
  810MPD2    C511980   1.299   0.055  11.095  0.4468 -0.7036  0.3069
  810MPD2     H11981   1.209   0.158  10.740 -0.1996  0.5851  0.0863
  810MPD2    H111982   1.306   0.263  11.140 -0.5812 -0.1491 -0.2139
  810MPD2    H211983   1.285   4.586  11.034  0.9061 -0.0607 -0.8801
  810MPD2    H311984   1.305   0.028  11.200  1.2775 -1.5646  0.0334
  810MPD2     N11985   1.258   0.363  10.892  0.0866  0.6015  0.0497
  810MPD2    H511986   1.225   0.421  10.968  3.4176  1.0947  1.1300
  810MPD2    N111987   1.207   4.627  10.775  0.3091 -0.5253  0.6106
  810MPD2    H711988   1.187   4.534  10.810  0.1372 -0.9131 -0.5247
  811MPD2     C11989   0.689   4.615  10.060 -0.0569  0.2658 -0.0307
  811MPD2    C111990   0.792   4.672  10.128 -0.6657 -0.5135 -0.3680
  811MPD2    C211991   0.813   0.074  10.120 -0.7660 -0.0887  0.7712
  811MPD2    C311992   0.724   0.154  10.053  0.1733 -0.8007  0.4805
  811MPD2    C411993   0.630   0.089   9.979  0.4665 -0.5687  0.4391
  811MPD2    C511994   0.611   4.688   9.983 -0.1987 -0.3821 -0.3010
  811MPD2     H11995   0.891   0.128  10.172 -2.2869  2.2544  0.6234
  811MPD2    H111996   0.557   0.142   9.920  1.1656 -0.8786 -0.7012
  811MPD2    H211997   0.676   4.508  10.064  0.1330  0.2189 -0.5703
  811MPD2    H311998   0.532   4.649   9.922 -0.6473  0.2227 -0.1064
  811MPD2     N11999   0.746   0.291  10.061  0.3865  0.1724  0.4627
  811MPD2    H512000   0.830   0.321  10.111 -0.3294  4.0662 -0.6353
  811MPD2    N112001   0.878   4.586  10.202 -0.8185  0.7068  0.5833
  811MPD2    H712002   0.851   4.489  10.216 -4.8558  1.7602  0.0399
  812MPD2     C12003   4.273   4.221  11.996  0.3766 -0.1815  0.1223
  812MPD2    C112004   4.361   4.312  12.049  0.2252  0.7860  0.1602
  812MPD2    C212005   4.412   4.286  12.172  0.0509  0.3588 -0.9361
  812MPD2    C312006   4.362   4.183  12.245 -0.1420  0.2494  0.0848
  812MPD2    C412007   4.273   4.090  12.196  0.2825  0.3527  0.1085
  812MPD2    C512008   4.235   4.105  12.067  0.1704 -0.4128 -0.3006
  812MPD2     H12009   4.487   4.352  12.215 -0.5947  0.6242 -0.2186
  812MPD2    H112010   4.250   3.996  12.245  0.5861  0.1598 -0.1128
  812MPD2    H212011   4.237   4.234  11.894 -1.2491  0.0210  0.7255
  812MPD2    H312012   4.183   4.022  12.022 -0.3509  0.0223 -0.4901
  812MPD2     N12013   4.397   4.182  12.378  0.7244  0.2338 -0.4930
  812MPD2    H512014   4.463   4.255  12.405 -0.1226  1.4479 -1.7093
  812MPD2    N112015   4.392   4.435  11.982 -0.9056  0.5450  0.0698
  812MPD2    H712016   4.335   4.467  11.903 -1.4543  2.3392  1.1997
  813MPD2     C12017   3.333   1.448  12.787 -0.7820  0.2249 -0.2758
  813MPD2    C112018   3.376   1.569  12.837 -0.0926  0.2590  0.6831
  813MPD2    C212019   3.306   1.618  12.943  0.3060  0.3303 -0.4271
  813MPD2    C312020   3.212   1.541  13.010  0.7626  0.5555  0.6167
  813MPD2    C412021   3.189   1.414  12.971  0.1691  0.0868 -0.2213
  813MPD2    C512022   3.244   1.368  12.857 -0.0623  0.0784 -0.0742
  813MPD2     H12023   3.325   1.716  12.985 -3.3844  0.1790  1.6110
  813MPD2    H112024   3.130   1.340  13.025  2.3883 -0.2579  1.7095
  813MPD2    H212025   3.379   1.419  12.693 -0.8834  0.4738 -0.4015
  813MPD2    H312026   3.222   1.265  12.831 -2.9476  0.4059  0.9899
  813MPD2     N12027   3.152   1.598  13.129  0.4230  0.2158 -0.1875
  813MPD2    H512028   3.176   1.694  13.154 -0.0665  0.2980 -0.0395
  813MPD2    N112029   3.478   1.652  12.786 -0.5368  0.0871  0.5599
  813MPD2    H712030   3.487   1.742  12.832 -0.9544  0.9461 -1.0560
  814MPD2     C12031   3.922   2.929  12.626 -0.2759  0.1818 -0.0309
  814MPD2    C112032   4.007   3.003  12.541 -0.0265  0.1986  0.4677
  814MPD2    C212033   4.087   3.099  12.600 -0.5076 -0.1070 -0.1151
  814MPD2    C312034   4.087   3.119  12.737  0.2384 -0.5677 -0.2378
  814MPD2    C412035   4.007   3.043  12.818  0.5189  0.2708  0.4863
  814MPD2    C512036   3.923   2.947  12.762 -0.4303 -0.2679  0.1139
  814MPD2     H12037   4.132   3.170  12.532  2.9134 -0.6595  1.5571
  814MPD2    H112038   4.007   3.057  12.925  2.5067  0.5596  0.4336
  814MPD2    H212039   3.869   2.843  12.587  0.7193 -0.5114  0.1677
  814MPD2    H312040   3.862   2.885  12.827  0.6134 -0.0832  1.2919
  814MPD2     N12041   4.162   3.217  12.801  0.3192 -0.3842 -0.1246
  814MPD2    H512042   4.148   3.220  12.902  0.3659 -0.7707 -0.1067
  814MPD2    N112043   4.008   2.984  12.397 -0.3263 -0.6444 -0.1976
  814MPD2    H712044   4.074   3.046  12.351 -0.5593  1.0819  1.7978
  815MPD2     C12045   0.323   1.335  12.034  0.1767 -0.3936 -1.1582
  815MPD2    C112046   0.235   1.283  11.943 -0.4983 -0.2958 -0.2522
  815MPD2    C212047   0.116   1.241  11.990 -0.8795  0.1161  0.5324
  815MPD2    C312048   0.080   1.252  12.122 -0.1672 -0.5819  0.9439
  815MPD2    C412049   0.171   1.309  12.212  0.4698 -0.1488 -0.6399
  815MPD2    C512050   0.290   1.349  12.166 -0.2624 -0.4825  0.9491
  815MPD2     H12051   0.041   1.197  11.924 -1.4435 -0.5743  1.6330
  815MPD2    H112052   0.139   1.333  12.312 -0.9397 -1.5187 -0.7619
  815MPD2    H212053   0.424   1.356  12.000  0.9968  1.0217  2.1617
  815MPD2    H312054   0.362   1.383  12.240 -0.6673 -1.0480  1.6130
  815MPD2     N12055   4.679   1.213  12.153 -0.2678  0.1915  0.1814
  815MPD2    H512056   4.621   1.169  12.082  2.5353  1.8251 -3.1265
  815MPD2    N112057   0.269   1.279  11.805 -0.3875  0.4716 -0.3947
  815MPD2    H712058   0.364   1.304  11.778 -1.1838 -0.6184 -4.1375
  816MPD2     C12059   4.674   0.689  17.454 -0.6185  0.1983  0.2447
  816MPD2    C112060   4.581   0.710  17.356 -0.3212  0.3058  0.6961
  816MPD2    C212061   4.603   0.649  17.232  0.0849  1.1297  0.0005
  816MPD2    C312062   4.717   0.575  17.208  0.3595 -0.4632 -0.6021
  816MPD2    C412063   0.062   0.545  17.314 -0.6709  0.5532  0.3755
  816MPD2    C512064   0.037   0.597  17.441  0.4615 -0.2125 -0.1043
  816MPD2     H12065   4.541   0.671  17.146 -2.2053 -0.6337  1.2107
  816MPD2    H112066   0.141   0.472  17.309  0.6844  2.1197 -1.3162
  816MPD2    H212067   4.678   0.743  17.548  1.5872  1.4120 -0.5624
  816MPD2    H312068   0.108   0.583  17.522  1.4649 -2.7161 -1.4099
  816MPD2     N12069   0.002   0.526  17.078  0.1583 -0.1097 -0.0046
  816MPD2    H512070   4.675   0.560  17.006  1.3925 -0.5292 -1.2534
  816MPD2    N112071   4.468   0.791  17.387 -0.4556 -0.1064  0.4219
  816MPD2    H712072   4.466   0.830  17.480 -4.2273 -0.6929  0.5658
  817MPD2     C12073   0.048   2.746  10.037  0.2899 -0.3406 -0.5359
  817MPD2    C112074   0.068   2.704   9.905 -0.5963  0.3170  0.3073
  817MPD2    C212075   0.039   2.792   9.806 -0.8028 -0.2000  0.6523
  817MPD2    C312076   4.685   2.892   9.830  0.5998 -0.0946  0.3359
  817MPD2    C412077   4.651   2.928   9.960 -0.3971  0.6321  0.9647
  817MPD2    C512078   4.710   2.856  10.059  0.0846  0.3947  0.0641
  817MPD2     H12079   0.063   2.767   9.704  0.6170  0.5559  0.8017
  817MPD2    H112080   4.585   3.010   9.986  0.7170  1.2793  1.7351
  817MPD2    H212081   0.080   2.686  10.122 -1.5910 -0.9619 -0.2718
  817MPD2    H312082   4.701   2.879  10.165  0.8504 -1.4748  0.5392
  817MPD2     N12083   4.641   2.969   9.722  0.1704  0.1230  0.1365
  817MPD2    H512084   4.684   2.949   9.632  2.3280  0.4216  1.1055
  817MPD2    N112085   0.150   2.592   9.874  0.3626  0.1106  0.3730
  817MPD2    H712086   0.180   2.582   9.778  0.0798 -2.8132  0.5900
  818MPD2     C12087   3.409   1.928   9.938  0.3304 -0.0095 -1.3560
  818MPD2    C112088   3.301   1.860   9.997  0.3341 -0.3562  0.3828
  818MPD2    C212089   3.328   1.731  10.046  0.4290 -0.7108  0.5923
  818MPD2    C312090   3.447   1.667  10.016 -0.3754 -0.1874  0.1675
  818MPD2    C412091   3.548   1.738   9.956 -0.1740  0.4150 -0.5577
  818MPD2    C512092   3.527   1.867   9.915  0.2137 -0.1440  0.1308
  818MPD2     H12093   3.245   1.685  10.099  1.2163 -4.3351 -1.3056
  818MPD2    H112094   3.647   1.714   9.920 -0.4015  0.6470 -1.3251
  818MPD2    H212095   3.400   2.030   9.902  0.8723  0.2873 -0.6643
  818MPD2    H312096   3.610   1.917   9.867 -1.5919  1.0711 -1.7581
  818MPD2     N12097   3.474   1.539  10.049  0.3084 -0.1865 -0.5139
  818MPD2    H512098   3.571   1.510  10.040  0.1342 -1.0816  0.4214
  818MPD2    N112099   3.174   1.917  10.013  0.6514  0.0650  0.1321
  818MPD2    H712100   3.111   1.872  10.080 -0.6812  1.9891  0.1719
  819MPD2     C12101   1.163   3.394  15.681  0.0225 -0.3610 -0.0957
  819MPD2    C112102   1.158   3.257  15.686 -1.1040  0.0701 -0.7075
  819MPD2    C212103   1.229   3.187  15.779  0.2314  0.0739 -0.4057
  819MPD2    C312104   1.302   3.261  15.868 -0.2040  0.2171 -0.1183
  819MPD2    C412105   1.301   3.398  15.876 -0.2871 -0.6222 -0.3653
  819MPD2    C512106   1.230   3.464  15.776  0.6728 -0.2716 -0.3803
  819MPD2     H12107   1.237   3.080  15.765 -1.9260 -0.3126  1.2187
  819MPD2    H112108   1.347   3.464  15.949  1.0102 -0.7247 -1.1039
  819MPD2    H212109   1.116   3.448  15.600 -0.5993 -0.3219  0.2963
  819MPD2    H312110   1.226   3.573  15.778  0.4169 -0.2944  0.3196
  819MPD2     N12111   1.392   3.190  15.956  0.4223  0.1687  0.3763
  819MPD2    H512112   1.390   3.090  15.939 -1.7771  0.0205  1.4285
  819MPD2    N112113   1.071   3.202  15.579  0.0481  0.3096  0.1773
  819MPD2    H712114   1.036   3.264  15.508  2.2631  0.9593 -0.3390
  820MPD2     C12115   0.334   3.470  15.057 -0.2948 -0.5290 -0.3645
  820MPD2    C112116   0.407   3.520  15.160  0.3429  0.8039  0.5905
  820MPD2    C212117   0.481   3.435  15.242  0.7010  0.7717  0.0551
  820MPD2    C312118   0.472   3.300  15.220  0.0258  0.0070 -0.3445
  820MPD2    C412119   0.398   3.253  15.115  0.1603 -0.6567  0.7733
  820MPD2    C512120   0.332   3.336  15.032 -0.3638  0.5936  0.0306
  820MPD2     H12121   0.557   3.476  15.307 -0.5484 -1.4533  2.9612
  820MPD2    H112122   0.386   3.147  15.097  1.1914 -0.8821  1.4180
  820MPD2    H212123   0.287   3.539  14.988  1.5703 -0.0873 -1.2018
  820MPD2    H312124   0.280   3.298  14.945  1.5691 -2.6493  0.3105
  820MPD2     N12125   0.550   3.210  15.306  0.1253  0.0992 -0.1978
  820MPD2    H512126   0.565   3.112  15.283  0.7530 -0.0522  0.8703
  820MPD2    N112127   0.405   3.661  15.185  0.4939 -0.1466  0.4692
  820MPD2    H712128   0.343   3.722  15.133 -1.5503 -0.9530  1.9502
  821MPD2     C12129   1.105   0.428  13.563 -0.7469 -0.5805  0.4268
  821MPD2    C112130   1.209   0.345  13.591 -0.4772  0.0110 -0.9891
  821MPD2    C212131   1.337   0.364  13.547  0.1013 -0.4341  0.1736
  821MPD2    C312132   1.362   0.479  13.479  0.1511 -0.4049  0.8270
  821MPD2    C412133   1.263   0.569  13.460  0.3611  0.4866 -0.4147
  821MPD2    C512134   1.134   0.544  13.498  0.4708 -0.2211 -0.0548
  821MPD2     H12135   1.415   0.293  13.573  2.3937  2.1063  0.2565
  821MPD2    H112136   1.273   0.657  13.397 -1.2590  0.5959 -0.5305
  821MPD2    H212137   1.001   0.418  13.593 -0.8521 -1.8629 -0.4140
  821MPD2    H312138   1.053   0.614  13.482  0.0714 -0.4287  1.0678
  821MPD2     N12139   1.487   0.528  13.446 -0.1860  0.3282  0.1501
  821MPD2    H512140   1.488   0.618  13.400  2.8604  0.2019 -0.0392
  821MPD2    N112141   1.186   0.216  13.642  0.0490  0.2290 -0.0035
  821MPD2    H712142   1.262   0.148  13.641  0.3914  0.6337 -2.5088
  822MPD2     C12143   1.808   0.118  15.728  0.6259  0.3994  0.1273
  822MPD2    C112144   1.780   0.068  15.848 -0.2016  0.2943  0.9428
  822MPD2    C212145   1.668   0.121  15.912  0.2627  0.0528  0.2105
  822MPD2    C312146   1.590   0.222  15.870  0.2789  0.1273 -0.5222
  822MPD2    C412147   1.618   0.263  15.737  0.1204 -0.1778  0.0973
  822MPD2    C512148   1.724   0.204  15.675 -0.1713 -0.1148  0.3386
  822MPD2     H12149   1.651   0.088  16.014 -0.6370  0.5268  0.2167
  822MPD2    H112150   1.560   0.336  15.683 -0.3316 -1.3883 -1.0678
  822MPD2    H212151   1.895   0.100  15.667  0.0133  0.4109 -0.7489
  822MPD2    H312152   1.744   0.242  15.576  0.7101 -2.8681 -0.5600
  822MPD2     N12153   1.490   0.277  15.951 -0.1601  0.0632 -0.0815
  822MPD2    H512154   1.492   0.244  16.047  0.4592  0.7632  0.1458
  822MPD2    N112155   1.864   4.708  15.911 -0.7179 -0.0887  0.4892
  822MPD2    H712156   1.834   4.679  16.003 -0.0426  0.5717  0.9069
  823MPD2     C12157   1.018   0.533  16.630 -0.6238 -0.1450  0.1289
  823MPD2    C112158   1.085   0.438  16.566  0.4117  0.1252 -0.1097
  823MPD2    C212159   1.142   0.329  16.631 -0.2474  0.2102 -0.7813
  823MPD2    C312160   1.131   0.320  16.768  0.0928 -1.1162  0.5095
  823MPD2    C412161   1.061   0.416  16.837  0.3526 -0.1386  0.5464
  823MPD2    C512162   1.020   0.530  16.766 -0.3881  0.3143 -0.3567
  823MPD2     H12163   1.206   0.272  16.565 -1.6335 -0.1368 -1.8355
  823MPD2    H112164   1.074   0.411  16.944 -2.0274 -0.5704  0.8200
  823MPD2    H212165   0.990   0.625  16.580 -2.4617 -2.0622 -2.3268
  823MPD2    H312166   0.963   0.609  16.815  1.4852  0.0170  2.2674
  823MPD2     N12167   1.206   0.232  16.850  0.1417 -0.1413 -0.5363
  823MPD2    H512168   1.177   0.219  16.946  1.3546  1.4450  0.0292
  823MPD2    N112169   1.110   0.460  16.432 -0.1319  0.6597 -0.4035
  823MPD2    H712170   1.089   0.550  16.391  0.3988 -0.9864 -4.3208
  824MPD2     C12171   2.457   4.025  16.176  0.2791 -0.0696  0.3097
  824MPD2    C112172   2.398   4.081  16.064  0.3752  0.5557 -0.4835
  824MPD2    C212173   2.425   4.015  15.943 -0.7403  0.0510  0.5210
  824MPD2    C312174   2.520   3.911  15.927  0.0559  0.7333  0.4411
  824MPD2    C412175   2.572   3.855  16.038 -0.6895  0.3530  0.7089
  824MPD2    C512176   2.538   3.918  16.159  0.1702  0.5163  0.1036
  824MPD2     H12177   2.365   4.053  15.861 -0.4056 -0.0122  0.2479
  824MPD2    H112178   2.645   3.776  16.037 -1.5812 -0.4618  0.5645
  824MPD2    H212179   2.447   4.062  16.278 -1.5299  0.0505  0.0858
  824MPD2    H312180   2.575   3.867  16.248 -0.0232 -0.8189 -0.5778
  824MPD2     N12181   2.541   3.861  15.797  0.1950 -0.2277  0.2105
  824MPD2    H512182   2.488   3.909  15.725  0.1605 -0.7271 -0.0970
  824MPD2    N112183   2.307   4.185  16.078  0.5840  0.6510 -0.4682
  824MPD2    H712184   2.294   4.202  16.177  0.9600  0.9177 -0.4647
  825MPD2     C12185   2.862   3.794  15.045 -0.3102  0.0563  0.0459
  825MPD2    C112186   2.785   3.876  15.121  0.2234 -0.0719 -0.2189
  825MPD2    C212187   2.800   4.012  15.117 -0.2933 -0.0774 -0.1223
  825MPD2    C312188   2.898   4.068  15.036  0.4018 -0.1418 -0.2426
  825MPD2    C412189   2.976   3.984  14.962 -0.2212  0.0995 -0.8213
  825MPD2    C512190   2.960   3.851  14.970 -0.8119 -0.0735  0.1358
  825MPD2     H12191   2.742   4.077  15.181  1.5999  0.6354  0.8494
  825MPD2    H112192   3.049   4.014  14.887  1.0092  1.2266  0.8367
  825MPD2    H212193   2.854   3.686  15.050 -2.4142  0.2175 -0.1431
  825MPD2    H312194   3.027   3.789  14.912  0.2420  1.2680 -0.0916
  825MPD2     N12195   2.936   4.208  15.026 -0.3124  0.4670 -0.0905
  825MPD2    H512196   3.022   4.234  14.979 -0.3844 -0.3757 -0.6925
  825MPD2    N112197   2.692   3.816  15.208  0.4270 -0.1341 -1.2389
  825MPD2    H712198   2.705   3.715  15.212 -0.0497 -0.2216 -1.9023
  826MPD2     C12199   2.678   4.294  13.962 -0.5798  0.9527  0.4915
  826MPD2    C112200   2.680   4.317  13.824 -0.1765 -0.2669  0.3684
  826MPD2    C212201   2.580   4.402  13.774 -0.6477  0.4186  0.2508
  826MPD2    C312202   2.496   4.474  13.856 -0.7543 -0.1253  0.2811
  826MPD2    C412203   2.500   4.460  13.991 -0.0582  0.5735  0.2409
  826MPD2    C512204   2.598   4.377  14.041 -0.3508 -0.6985 -0.6767
  826MPD2     H12205   2.586   4.430  13.670  1.0224  2.3125  0.8588
  826MPD2    H112206   2.430   4.511  14.056  2.0066  1.7275  1.5798
  826MPD2    H212207   2.738   4.222  14.015  0.0723  1.8462  0.9649
  826MPD2    H312208   2.599   4.351  14.146 -0.9050  2.1420  0.0398
  826MPD2     N12209   2.414   4.581  13.809 -0.0050 -0.1988 -0.4414
  826MPD2    H512210   2.375   4.638  13.883  1.2656  1.1562 -0.8246
  826MPD2    N112211   2.770   4.252  13.737 -0.6018 -0.7018  0.8491
  826MPD2    H712212   2.851   4.210  13.781  0.7750  1.2670  0.1747
  827MPD2     C12213   4.192   1.506  10.137  0.0369  0.0662 -0.0020
  827MPD2    C112214   4.157   1.398  10.218  0.8534 -0.4360 -0.2951
  827MPD2    C212215   4.162   1.271  10.167  0.3838 -0.3224 -0.7012
  827MPD2    C312216   4.175   1.247  10.035  0.8585  0.6074 -0.1854
  827MPD2    C412217   4.194   1.356   9.950  0.8747 -0.9279 -0.6854
  827MPD2    C512218   4.207   1.480  10.005  0.1533 -0.1904 -0.0649
  827MPD2     H12219   4.146   1.188  10.234 -0.5430  0.8193  0.5053
  827MPD2    H112220   4.183   1.339   9.844  3.2902 -1.3276 -0.8658
  827MPD2    H212221   4.175   1.608  10.168 -2.4425 -0.1514 -0.6253
  827MPD2    H312222   4.195   1.553   9.925  0.4776 -0.7271 -0.5992
  827MPD2     N12223   4.189   1.114   9.989 -0.4868  0.0994  0.3975
  827MPD2    H512224   4.153   1.040  10.048 -0.5369  0.9689  1.4587
  827MPD2    N112225   4.145   1.422  10.358 -0.1530  0.4563 -0.0720
  827MPD2    H712226   4.174   1.513  10.394  0.0788 -0.6095  2.4259
  828MPD2     C12227   1.860   0.449  13.017  0.3958 -0.1560 -0.0549
  828MPD2    C112228   1.891   0.546  12.921 -0.0338  0.0654 -0.1748
  828MPD2    C212229   2.018   0.556  12.872 -0.0496  0.4778  0.2189
  828MPD2    C312230   2.127   0.500  12.939 -0.1140  0.0287 -0.6500
  828MPD2    C412231   2.101   0.416  13.045  0.0978 -0.0181 -0.3025
  828MPD2    C512232   1.974   0.380  13.076  0.5895  0.5526  0.0180
  828MPD2     H12233   2.037   0.636  12.801  1.3375  1.4131  1.6536
  828MPD2    H112234   2.178   0.357  13.095  0.7796  1.9052  0.9112
  828MPD2    H212235   1.763   0.415  13.052  0.9290 -2.0140 -0.3779
  828MPD2    H312236   1.952   0.313  13.158  0.9921  0.0857 -0.2596
  828MPD2     N12237   2.263   0.517  12.905 -0.5917  0.2883  0.4201
  828MPD2    H512238   2.321   0.501  12.987 -0.6402 -0.3083  0.3372
  828MPD2    N112239   1.793   0.621  12.860 -0.2239 -0.0601 -0.0210
  828MPD2    H712240   1.823   0.687  12.789  0.5030 -0.0296  0.3058
  829MPD2     C12241   1.983   1.285  12.363  0.2785  0.1041  0.0493
  829MPD2    C112242   1.846   1.298  12.350 -0.4107 -0.0445  0.0993
  829MPD2    C212243   1.776   1.219  12.434 -0.5540  0.4176 -0.1437
  829MPD2    C312244   1.829   1.124  12.522  0.0574  0.0567  0.3896
  829MPD2    C412245   1.959   1.097  12.512  0.3110  0.9658  0.1062
  829MPD2    C512246   2.035   1.185  12.440  0.2747  0.4168 -0.2439
  829MPD2     H12247   1.669   1.231  12.447 -0.5750 -0.4637  0.4820
  829MPD2    H112248   2.005   1.015  12.567  1.2049  0.9246 -0.7036
  829MPD2    H212249   2.055   1.336  12.301  2.2679  1.4483  3.4398
  829MPD2    H312250   2.142   1.171  12.436  0.1566 -1.1048  2.7606
  829MPD2     N12251   1.752   1.041  12.608  0.3008  0.4680  0.7914
  829MPD2    H512252   1.809   0.974  12.658 -0.3385 -0.3939  0.3726
  829MPD2    N112253   1.795   1.388  12.255  0.1573  0.8348 -0.0395
  829MPD2    H712254   1.863   1.438  12.198  0.4698 -0.8192 -1.1397
  830MPD2     C12255   2.211   2.955  15.872 -0.5060  0.5536 -0.4263
  830MPD2    C112256   2.087   3.020  15.849 -0.0218  0.0146  0.3922
  830MPD2    C212257   2.074   3.096  15.734  0.4272  0.2973 -0.1124
  830MPD2    C312258   2.180   3.116  15.649  0.1329  0.7318  0.0320
  830MPD2    C412259   2.305   3.052  15.673 -0.4489 -0.3846  0.0698
  830MPD2    C512260   2.318   2.965  15.784  0.1317  0.7806 -0.1942
  830MPD2     H12261   1.984   3.152  15.713  0.4298 -0.0067 -0.9325
  830MPD2    H112262   2.390   3.052  15.606 -0.6725 -1.0177 -0.2071
  830MPD2    H212263   2.217   2.892  15.960 -1.0001  0.1814 -0.6587
  830MPD2    H312264   2.417   2.927  15.803 -0.4933  0.2985  2.0696
  830MPD2     N12265   2.181   3.211  15.548  0.1669 -0.0559 -0.5572
  830MPD2    H512266   2.275   3.213  15.508  1.0037 -0.9960  1.3382
  830MPD2    N112267   1.986   2.996  15.946  0.5690 -0.4711 -0.3256
  830MPD2    H712268   2.010   2.953  16.035  2.6826 -1.9756 -1.6195
  831MPD2     C12269   1.670   0.498  16.356  0.4904  0.6221  0.5889
  831MPD2    C112270   1.707   0.383  16.280 -0.0373  0.4667  0.0038
  831MPD2    C212271   1.629   0.265  16.282  0.9354 -0.0640  0.0858
  831MPD2    C312272   1.523   0.251  16.374  0.0696  0.0425  0.5541
  831MPD2    C412273   1.496   0.361  16.451  0.3303 -0.0360 -0.0711
  831MPD2    C512274   1.569   0.479  16.444  0.7151 -0.0839 -0.3062
  831MPD2     H12275   1.640   0.188  16.207  1.6818 -2.8721  3.0447
  831MPD2    H112276   1.411   0.351  16.518 -1.4932  1.3657 -2.1635
  831MPD2    H212277   1.723   0.592  16.349 -1.2818  1.6610  1.2074
  831MPD2    H312278   1.538   0.571  16.493 -0.3917  0.0382 -1.2318
  831MPD2     N12279   1.434   0.137  16.388 -0.9594 -0.1041  0.0323
  831MPD2    H512280   1.371   0.143  16.468  1.9610 -2.1565  2.4651
  831MPD2    N112281   1.816   0.399  16.196 -0.3608 -0.1201 -0.4915
  831MPD2    H712282   1.852   0.489  16.168  0.1679 -0.4898 -1.0132
  832MPD2     C12283   0.561   1.656  17.469  0.1805  0.9308 -0.3349
  832MPD2    C112284   0.591   1.746  17.365  0.2187  0.3464  0.6558
  832MPD2    C212285   0.505   1.763  17.257  0.9374 -0.5020  1.1515
  832MPD2    C312286   0.383   1.692  17.254  0.1140  0.3637  0.0716
  832MPD2    C412287   0.367   1.598  17.351  0.5788  0.4146 -0.0978
  832MPD2    C512288   0.445   1.586  17.464  0.0932 -0.3282  0.4407
  832MPD2     H12289   0.521   1.843  17.186  1.6367 -1.2804  0.4477
  832MPD2    H112290   0.273   1.547  17.336  0.2458  1.3432 -1.1341
  832MPD2    H212291   0.627   1.645  17.554 -1.1837  1.0221  0.7443
  832MPD2    H312292   0.425   1.512  17.540 -0.2320 -2.6215 -1.8876
  832MPD2     N12293   0.279   1.720  17.157 -0.1872 -0.1848  0.0796
  832MPD2    H512294   0.194   1.664  17.166  0.7394 -1.4219  1.1293
  832MPD2    N112295   0.709   1.834  17.386 -0.2182 -0.3498 -0.4847
  832MPD2    H712296   0.759   1.820  17.474 -0.4313 -1.0735 -0.4809
  833MPD2     C12297   2.497   3.101  12.502 -0.1302  1.2454 -0.1104
  833MPD2    C112298   2.511   3.234  12.457 -0.2204  0.2358  0.1339
  833MPD2    C212299   2.583   3.250  12.338 -0.4846  0.1887 -0.2215
  833MPD2    C312300   2.654   3.152  12.280  0.2417  0.0190 -0.6458
  833MPD2    C412301   2.653   3.025  12.327 -0.3165 -0.3669  0.3731
  833MPD2    C512302   2.570   3.006  12.434  0.5794  0.1546 -0.3784
  833MPD2     H12303   2.590   3.346  12.288  0.0947  0.4370  0.3274
  833MPD2    H112304   2.716   2.947  12.287 -1.2782 -0.2716 -1.3250
  833MPD2    H212305   2.435   3.066  12.584  0.5928 -0.8704 -0.4714
  833MPD2    H312306   2.572   2.908  12.480 -0.4164  0.3073 -0.0177
  833MPD2     N12307   2.731   3.169  12.158 -0.2059 -0.7947  0.5687
  833MPD2    H512308   2.770   3.081  12.126  0.1478 -1.1960  2.0551
  833MPD2    N112309   2.438   3.340  12.515 -0.3237  0.6134  0.3011
  833MPD2    H712310   2.384   3.329  12.600  0.6666 -0.6395  0.7521
  834MPD2     C12311   2.889   2.823  11.260  0.0515  0.0064  0.8223
  834MPD2    C112312   2.790   2.922  11.233 -0.2711 -0.2886 -0.2712
  834MPD2    C212313   2.769   3.022  11.325  0.1128  0.2415  0.1023
  834MPD2    C312314   2.823   3.019  11.451 -0.1361  0.8815  1.1652
  834MPD2    C412315   2.917   2.911  11.471 -0.4644 -0.4551  0.3643
  834MPD2    C512316   2.950   2.813  11.377 -0.5931  1.4720 -0.0706
  834MPD2     H12317   2.687   3.093  11.316 -1.3411 -1.5224 -0.7428
  834MPD2    H112318   2.966   2.900  11.567 -1.1901  1.2453  0.9180
  834MPD2    H212319   2.901   2.733  11.201 -2.5267  0.1774  0.0384
  834MPD2    H312320   3.030   2.741  11.394 -1.6762  0.1498 -0.6484
  834MPD2     N12321   2.778   3.108  11.554 -0.2754 -0.1550  0.1629
  834MPD2    H512322   2.715   3.183  11.528  0.6849  1.0647  1.3320
  834MPD2    N112323   2.720   2.912  11.107 -0.1608 -0.7760  0.4165
  834MPD2    H712324   2.745   2.830  11.053  0.6595 -0.9294  1.0245
  835MPD2     C12325   2.423   1.261  11.200  0.4765  0.2340  0.4544
  835MPD2    C112326   2.310   1.303  11.265 -0.3311  0.6201  0.2359
  835MPD2    C212327   2.325   1.351  11.400  0.3145 -0.1076  0.1189
  835MPD2    C312328   2.451   1.351  11.466  0.1732 -0.4059  0.6244
  835MPD2    C412329   2.555   1.306  11.390 -0.1324 -1.0811 -0.0740
  835MPD2    C512330   2.540   1.269  11.261 -0.3373  0.8498  0.4473
  835MPD2     H12331   2.234   1.377  11.453 -1.4073 -2.7028 -1.6096
  835MPD2    H112332   2.657   1.310  11.427  0.0276  1.8770 -0.8607
  835MPD2    H212333   2.420   1.200  11.110  0.1278 -0.3482  0.8568
  835MPD2    H312334   2.631   1.249  11.208  0.2100 -0.7826  2.0096
  835MPD2     N12335   2.473   1.382  11.596  0.5906 -0.0617  0.5906
  835MPD2    H512336   2.559   1.362  11.645  1.5830  1.0298 -0.7209
  835MPD2    N112337   2.182   1.298  11.211  0.5981  0.6225  0.2382
  835MPD2    H712338   2.106   1.314  11.276 -0.5809 -0.0327 -0.9964
  836MPD2     C12339   1.989   1.826  12.106 -0.1750  0.7090  0.9322
  836MPD2    C112340   2.067   1.730  12.168  0.1603 -0.1924  0.4251
  836MPD2    C212341   2.023   1.677  12.293 -0.0970  0.3342 -0.0728
  836MPD2    C312342   1.925   1.740  12.368 -0.0955  0.2134 -0.1494
  836MPD2    C412343   1.859   1.838  12.300  0.4607  0.9775 -1.1540
  836MPD2    C512344   1.885   1.881  12.175 -0.1772  0.3642  0.4524
  836MPD2     H12345   2.078   1.596  12.341 -1.5782  0.1120  1.2743
  836MPD2    H112346   1.789   1.899  12.355 -0.4099 -0.5707 -0.5164
  836MPD2    H212347   2.009   1.863  12.006 -0.6629  1.5416  1.1406
  836MPD2    H312348   1.818   1.957  12.135 -1.3945  0.1066  1.9987
  836MPD2     N12349   1.899   1.711  12.501 -0.3088  0.0788  0.0330
  836MPD2    H512350   1.830   1.767  12.550  3.0280  3.6124  0.6853
  836MPD2    N112351   2.165   1.676  12.090 -0.0093 -0.6506  0.1172
  836MPD2    H712352   2.176   1.716  11.998 -1.4155  0.7090  0.5410
  837MPD2     C12353   1.180   0.823  10.378 -0.3229  0.2469  0.7368
  837MPD2    C112354   1.044   0.866  10.371  0.4511  0.1035 -0.2582
  837MPD2    C212355   1.010   0.989  10.419 -0.5198  0.9615  0.4030
  837MPD2    C312356   1.109   1.080  10.458 -0.2608 -0.7163  0.4644
  837MPD2    C412357   1.236   1.043  10.469  0.2763  0.9721  0.2296
  837MPD2    C512358   1.267   0.909  10.440 -0.4612  0.6149 -0.2585
  837MPD2     H12359   0.906   1.020  10.419 -0.4009  1.3686 -0.3035
  837MPD2    H112360   1.308   1.103  10.523  0.2671  1.4770 -0.3197
  837MPD2    H212361   1.215   0.728  10.341 -0.7843  0.4874 -0.3282
  837MPD2    H312362   1.366   0.869  10.459 -1.4124 -1.1985  0.8141
  837MPD2     N12363   1.060   1.205  10.498 -0.3708 -0.1024 -0.4012
  837MPD2    H512364   0.959   1.215  10.500 -0.5262 -1.0849 -2.9491
  837MPD2    N112365   0.949   0.794  10.304  0.2505 -0.0157 -0.6159
  837MPD2    H712366   0.861   0.845  10.298 -1.2643 -2.9514 -3.3528
  838MPD2     C12367   3.998   3.703  12.569 -0.0046 -0.0796  0.5620
  838MPD2    C112368   3.920   3.695  12.454  0.4408 -0.2782  0.7322
  838MPD2    C212369   3.777   3.690  12.458 -0.0319  0.1808  0.0919
  838MPD2    C312370   3.709   3.686  12.578 -0.0201  0.1652  0.7315
  838MPD2    C412371   3.785   3.698  12.693  0.0113 -0.7509 -0.3276
  838MPD2    C512372   3.925   3.709  12.685 -0.1520 -0.0038 -0.5020
  838MPD2     H12373   3.721   3.693  12.365  0.2785 -0.9467 -0.1329
  838MPD2    H112374   3.733   3.704  12.788  1.6512  1.4055  0.4479
  838MPD2    H212375   4.106   3.711  12.571 -0.0349  1.0416 -2.9605
  838MPD2    H312376   3.982   3.718  12.777 -2.1352  0.9472  0.6225
  838MPD2     N12377   3.572   3.688  12.572  0.5914 -0.4467  0.2425
  838MPD2    H512378   3.528   3.687  12.481 -0.4379 -1.3815  0.7613
  838MPD2    N112379   3.982   3.690  12.330 -0.2346  0.5216  0.0086
  838MPD2    H712380   3.919   3.675  12.251 -0.6653 -0.2203  0.4959
  839MPD2     C12381   3.557   3.127  12.022 -0.1122 -0.1948  0.1126
  839MPD2    C112382   3.619   3.156  11.905 -0.7407 -0.6607  0.3698
  839MPD2    C212383   3.737   3.227  11.900  0.0645  0.1726 -0.1336
  839MPD2    C312384   3.786   3.272  12.020 -0.4154  0.5725  0.6473
  839MPD2    C412385   3.722   3.240  12.142 -0.0719  0.5341 -0.3757
  839MPD2    C512386   3.609   3.165  12.142 -0.2355 -0.3377  0.3889
  839MPD2     H12387   3.779   3.246  11.802 -1.9722  1.3761 -0.7871
  839MPD2    H112388   3.761   3.278  12.236  2.6263 -1.5953 -0.6389
  839MPD2    H212389   3.469   3.062  12.024 -0.5613  0.4262  0.3884
  839MPD2    H312390   3.542   3.157  12.227  0.0412  1.9890  0.8259
  839MPD2     N12391   3.905   3.342  12.033  0.0448  0.0280  0.2159
  839MPD2    H512392   3.927   3.374  12.127 -2.6911 -1.2421  1.3078
  839MPD2    N112393   3.566   3.117  11.778  0.2247  0.2791  0.0745
  839MPD2    H712394   3.625   3.115  11.695  0.3397  2.7925  0.0981
  840MPD2     C12395   4.419   1.886  10.594  0.1039 -0.2307  0.1483
  840MPD2    C112396   4.400   1.812  10.708 -0.0185 -0.4752  0.3156
  840MPD2    C212397   4.475   1.840  10.815  0.5642 -0.1733 -0.6143
  840MPD2    C312398   4.557   1.952  10.813 -0.0344 -0.5239 -0.4694
  840MPD2    C412399   4.562   2.036  10.713  0.4419 -0.4297  0.5936
  840MPD2    C512400   4.500   1.996  10.593 -0.4409 -0.4270  0.6346
  840MPD2     H12401   4.489   1.781  10.905 -2.8144  0.7370  0.5295
  840MPD2    H112402   4.622   2.127  10.717  1.2613 -1.0251  1.8457
  840MPD2    H212403   4.367   1.868  10.500  0.6101  0.7660 -0.3185
  840MPD2    H312404   4.513   2.048  10.499  1.4251 -1.3121  0.4143
  840MPD2     N12405   4.641   1.987  10.927 -0.8439 -0.3536 -0.2113
  840MPD2    H512406   4.692   2.075  10.923  0.7071 -1.2162  0.5298
  840MPD2    N112407   4.309   1.707  10.699 -0.2964  0.1827 -0.0510
  840MPD2    H712408   4.255   1.703  10.613 -0.0312  0.0215 -0.2099
  841MPD2     C12409   3.525   1.038  14.148 -0.2099  0.3620 -0.6960
  841MPD2    C112410   3.644   1.055  14.079  0.9151 -0.4865 -0.5066
  841MPD2    C212411   3.760   1.092  14.155 -0.2335  0.7653 -0.6134
  841MPD2    C312412   3.752   1.101  14.292  0.0058 -0.0910 -0.0134
  841MPD2    C412413   3.629   1.091  14.359 -0.2358 -0.1890  0.2967
  841MPD2    C512414   3.523   1.056  14.285 -0.2321 -0.5719 -0.1234
  841MPD2     H12415   3.852   1.115  14.102  0.9366  0.8756  1.4516
  841MPD2    H112416   3.623   1.113  14.465 -2.6922  1.6979 -0.2290
  841MPD2    H212417   3.433   1.016  14.096 -2.0830  2.6943  1.6361
  841MPD2    H312418   3.432   1.037  14.341 -1.1839  0.8652 -1.1751
  841MPD2     N12419   3.864   1.121  14.377 -0.1053 -0.6049 -0.0771
  841MPD2    H512420   3.848   1.128  14.477  1.8530 -0.9774  0.2652
  841MPD2    N112421   3.649   1.053  13.936 -0.2256 -0.1831  0.0088
  841MPD2    H712422   3.733   1.090  13.894  0.7994  0.4917  2.6546
  842MPD2     C12423   4.387   2.021  17.189  0.1138 -0.4962  0.5087
  842MPD2    C112424   4.330   1.986  17.070  0.0224  0.4660  0.4030
  842MPD2    C212425   4.215   1.901  17.081 -0.0173  0.4344  0.2637
  842MPD2    C312426   4.137   1.908  17.198 -0.1069  0.1975 -0.0970
  842MPD2    C412427   4.198   1.935  17.320  0.6235 -0.1732 -0.4708
  842MPD2    C512428   4.320   2.004  17.308 -0.3831 -0.0872 -0.1477
  842MPD2     H12429   4.162   1.881  16.989 -1.2240 -0.5642  1.1843
  842MPD2    H112430   4.144   1.921  17.413  2.1419  0.9613  0.5649
  842MPD2    H212431   4.479   2.079  17.187 -1.0476  1.2660 -1.4615
  842MPD2    H312432   4.372   2.033  17.399 -0.4372 -0.5304  0.0233
  842MPD2     N12433   3.997   1.884  17.198 -0.4673  0.2553  0.1001
  842MPD2    H512434   3.952   1.886  17.289  2.4556 -0.3384  1.5658
  842MPD2    N112435   4.380   2.032  16.951 -0.1663  0.5504  0.2420
  842MPD2    H712436   4.464   2.090  16.948  0.3639 -0.3545 -2.6368
  843MPD2     C12437   1.238   2.396   0.056 -0.3075  0.2153  0.0017
  843MPD2    C112438   1.325   2.372   0.164 -0.2178  0.6471  0.2315
  843MPD2    C212439   1.391   2.475   0.219 -0.0109 -0.2733  0.2216
  843MPD2    C312440   1.371   2.606   0.169 -0.2098  0.2898 -0.7870
  843MPD2    C412441   1.286   2.626   0.066 -0.2960 -0.7269  0.2961
  843MPD2    C512442   1.222   2.523   0.008  0.6833  0.4914  0.8357
  843MPD2     H12443   1.471   2.457   0.289 -0.7283 -1.0746  0.8394
  843MPD2    H112444   1.266   2.723   0.023  1.2666 -0.2721  0.5867
  843MPD2    H212445   1.165   2.321   0.026  0.5169 -0.9917  1.0254
  843MPD2    H312446   1.148   2.548  17.668  1.5304 -1.1903 -0.5335
  843MPD2     N12447   1.452   2.713   0.211 -0.6149 -0.0648 -1.0686
  843MPD2    H512448   1.462   2.790   0.145 -0.7538  0.4502 -0.4916
  843MPD2    N112449   1.333   2.241   0.212  0.1423 -0.1756  0.1858
  843MPD2    H712450   1.294   2.168   0.153 -2.4181 -2.3008  4.4497
  844MPD2     C12451   4.719   1.406  16.759  0.1815 -0.1393  0.2785
  844MPD2    C112452   0.045   1.451  16.648  0.3678 -1.3385 -0.0675
  844MPD2    C212453   0.169   1.518  16.665  0.3978  0.1282 -0.1624
  844MPD2    C312454   0.231   1.523  16.788 -0.0165 -0.6619 -0.5381
  844MPD2    C412455   0.169   1.466  16.897  0.5126  0.2564  0.2866
  844MPD2    C512456   0.043   1.422  16.881  0.2109  0.1766 -0.6006
  844MPD2     H12457   0.214   1.571  16.582  0.1678  0.5753 -0.0003
  844MPD2    H112458   0.208   1.472  16.998  0.6764 -0.9323  0.2949
  844MPD2    H212459   4.615   1.375  16.752  1.1052 -3.9215  3.4097
  844MPD2    H312460   4.713   1.394  16.965 -1.0063 -0.6224 -1.7942
  844MPD2     N12461   0.362   1.579  16.796 -0.3703 -0.0440  0.1874
  844MPD2    H512462   0.389   1.621  16.708 -0.0681 -1.1974 -0.2665
  844MPD2    N112463   4.728   1.425  16.517 -0.0544 -0.1552 -0.1989
  844MPD2    H712464   0.033   1.484  16.443  0.0180  1.3470  1.0439
  845MPD2     C12465   0.661   2.476  16.922 -0.4301 -0.4364 -0.4659
  845MPD2    C112466   0.679   2.415  17.046 -0.3138  0.5759 -0.4160
  845MPD2    C212467   0.696   2.274  17.052  0.4635 -0.2371 -0.2842
  845MPD2    C312468   0.682   2.201  16.938  0.2643 -0.4930  1.0552
  845MPD2    C412469   0.679   2.266  16.817  0.7548  0.6462  0.3947
  845MPD2    C512470   0.669   2.401  16.808 -1.0353  0.3527 -0.2760
  845MPD2     H12471   0.700   2.224  17.149  0.4521  0.0986 -0.1089
  845MPD2    H112472   0.686   2.211  16.724  3.5855 -0.6544  1.3631
  845MPD2    H212473   0.658   2.584  16.915 -0.3179 -0.4192 -0.2440
  845MPD2    H312474   0.685   2.452  16.714  0.9232 -1.3192 -0.8440
  845MPD2     N12475   0.683   2.060  16.943 -0.3993  0.1132  0.4281
  845MPD2    H512476   0.705   2.026  17.036  2.0089 -0.4116 -0.3466
  845MPD2    N112477   0.682   2.510  17.157 -0.0395  0.0422  0.0602
  845MPD2    H712478   0.679   2.606  17.126 -0.0439  0.1734  0.4693
  846MPD2     C12479   1.917   2.601  13.503  0.1156  0.2708  0.6814
  846MPD2    C112480   1.808   2.685  13.537  0.0039  0.7620 -0.2398
  846MPD2    C212481   1.771   2.682  13.671 -0.1728  0.5745 -0.4606
  846MPD2    C312482   1.817   2.586  13.759  0.7814  0.3384 -0.1900
  846MPD2    C412483   1.914   2.495  13.710  1.0199  0.5546  0.5580
  846MPD2    C512484   1.968   2.505  13.587  0.6548 -0.0922 -0.2126
  846MPD2     H12485   1.706   2.762  13.705 -0.6331  0.3480 -0.8130
  846MPD2    H112486   1.961   2.417  13.768  1.5759  1.1500  0.9098
  846MPD2    H212487   1.962   2.609  13.404  0.2903  2.1366  0.9229
  846MPD2    H312488   2.048   2.439  13.556  2.3476  2.8553 -2.0876
  846MPD2     N12489   1.774   2.575  13.896  0.3686 -0.1525  0.2034
  846MPD2    H512490   1.691   2.628  13.918 -1.1697 -0.6319 -4.3688
  846MPD2    N112491   1.772   2.800  13.460  0.4444 -0.3558 -0.4431
  846MPD2    H712492   1.723   2.872  13.513  2.5082  1.0152 -0.3935
  847MPD2     C12493   1.712   3.316  14.424  0.0858  0.2084  0.0386
  847MPD2    C112494   1.798   3.423  14.404 -0.6974 -0.3454  0.5483
  847MPD2    C212495   1.932   3.408  14.441  0.0644 -0.1334  0.0268
  847MPD2    C312496   1.981   3.288  14.486 -0.3838 -0.1163  0.2202
  847MPD2    C412497   1.894   3.181  14.492 -0.0779 -0.0481  0.3873
  847MPD2    C512498   1.766   3.202  14.469 -0.4793  0.5156  0.0680
  847MPD2     H12499   1.999   3.492  14.435 -1.9536  1.2731 -2.9314
  847MPD2    H112500   1.921   3.083  14.528 -1.7559 -0.5132  0.3656
  847MPD2    H212501   1.604   3.320  14.420  0.0800  0.7871  0.6277
  847MPD2    H312502   1.697   3.124  14.499  1.5337 -1.0998  0.5355
  847MPD2     N12503   2.106   3.279  14.529  0.2984  0.3885  0.1520
  847MPD2    H512504   2.158   3.362  14.556 -1.1982  1.2851  0.2837
  847MPD2    N112505   1.762   3.555  14.371  0.4105 -0.3221  0.2457
  847MPD2    H712506   1.827   3.625  14.339 -0.6709  1.4754  1.9859
  848MPD2     C12507   4.703   2.176  16.480  0.4284  0.4442 -0.6994
  848MPD2    C112508   0.016   2.206  16.606 -0.2455  0.1044 -0.9954
  848MPD2    C212509   0.023   2.338  16.645 -0.1511 -0.1261  0.0660
  848MPD2    C312510   4.709   2.439  16.567 -0.1595  0.6159 -0.1427
  848MPD2    C412511   4.665   2.404  16.441 -0.6040  0.0705  0.9370
  848MPD2    C512512   4.659   2.275  16.397 -0.9288  0.0486  0.2771
  848MPD2     H12513   0.051   2.364  16.747  0.8884 -0.7940 -0.0428
  848MPD2    H112514   4.623   2.470  16.365 -1.6188  0.6242  1.9881
  848MPD2    H212515   4.681   2.074  16.450  1.6492 -0.0788  0.2148
  848MPD2    H312516   4.625   2.247  16.299  0.2630  1.7433 -0.6257
  848MPD2     N12517   4.707   2.575  16.599 -1.5566  0.3438 -0.2731
  848MPD2    H512518   4.668   2.639  16.529  0.5997  0.9919 -0.8779
  848MPD2    N112519   0.044   2.114  16.702  0.1670  0.0893  0.0363
  848MPD2    H712520   0.089   2.151  16.785 -0.1261  0.4459  0.0357
  849MPD2     C12521   3.787   1.881  13.766 -0.4062  0.7510  0.7889
  849MPD2    C112522   3.918   1.923  13.756  0.0878 -0.4707  0.6193
  849MPD2    C212523   3.984   1.982  13.859 -0.7246  0.4888  0.6170
  849MPD2    C312524   3.909   1.994  13.976  0.1654 -0.2550  0.1870
  849MPD2    C412525   3.779   1.947  13.998 -0.3593 -0.2195  0.1685
  849MPD2    C512526   3.718   1.888  13.883 -0.3568  0.2308 -0.8666
  849MPD2     H12527   4.089   2.009  13.856 -0.6875  0.1149 -1.5203
  849MPD2    H112528   3.728   1.949  14.094 -1.3728 -4.3979 -0.2757
  849MPD2    H212529   3.746   1.826  13.682  0.0857  0.5599  0.6680
  849MPD2    H312530   3.620   1.843  13.886 -0.7168  0.8778 -2.7662
  849MPD2     N12531   3.972   2.043  14.097 -0.4242  0.5784  0.2949
  849MPD2    H512532   3.909   2.031  14.176 -0.3436 -1.3468  0.0632
  849MPD2    N112533   3.979   1.889  13.634 -0.3510  0.1493  0.8480
  849MPD2    H712534   3.929   1.812  13.591  0.4739 -0.2641  0.6373
  850MPD2     C12535   1.716   4.525  14.967  0.7323 -0.4137  0.1240
  850MPD2    C112536   1.779   4.557  15.082 -0.1158  0.1307 -1.0217
  850MPD2    C212537   1.911   4.617  15.072 -0.0221 -0.2545 -0.0060
  850MPD2    C312538   1.977   4.643  14.953  0.0039  0.0391  0.3369
  850MPD2    C412539   1.907   4.610  14.842  0.5245 -1.1592 -0.2493
  850MPD2    C512540   1.781   4.562  14.848 -0.3863 -0.6504  0.4995
  850MPD2     H12541   1.981   4.622  15.155 -1.3379 -1.0423  1.1437
  850MPD2    H112542   1.955   4.618  14.745 -0.4486  1.3065 -0.5227
  850MPD2    H212543   1.614   4.490  14.965  0.1992  1.1567 -0.2493
  850MPD2    H312544   1.734   4.548  14.751 -1.0473  0.9621  0.5767
  850MPD2     N12545   2.113   4.691  14.945  0.7797  0.1712 -0.9830
  850MPD2    H512546   2.151   4.700  14.851 -0.0352 -0.8862 -1.4087
  850MPD2    N112547   1.717   4.525  15.209 -0.1615  0.4306 -0.2681
  850MPD2    H712548   1.628   4.478  15.220  1.3675 -2.3723  0.0677
  851MPD2     C12549   1.962   4.074  15.849 -0.6435  0.6671  0.5152
  851MPD2    C112550   1.910   4.074  15.721 -0.0519  0.2342 -0.5490
  851MPD2    C212551   1.960   3.985  15.625  0.0077 -0.6098  0.4936
  851MPD2    C312552   2.066   3.899  15.658  0.0677  0.6050 -0.4456
  851MPD2    C412553   2.107   3.897  15.795 -0.4545 -0.0572  0.2242
  851MPD2    C512554   2.050   3.983  15.887  0.5103  0.1330  0.3638
  851MPD2     H12555   1.918   3.981  15.525  1.1687  0.6847 -0.0394
  851MPD2    H112556   2.174   3.819  15.828  0.7158 -0.1151 -2.3053
  851MPD2    H212557   1.942   4.142  15.931  0.3577  0.4327  0.9504
  851MPD2    H312558   2.079   3.991  15.991  3.2482  0.9638 -0.4727
  851MPD2     N12559   2.100   3.802  15.569 -0.0307  0.1126 -0.2206
  851MPD2    H512560   2.048   3.800  15.482  0.4083  2.7025 -0.5308
  851MPD2    N112561   1.804   4.165  15.693 -0.0811 -0.7721  0.6312
  851MPD2    H712562   1.786   4.234  15.765 -0.4558 -1.5223  1.2529
  852MPD2     C12563   2.615   2.028   9.826  0.2719  0.4987 -0.3594
  852MPD2    C112564   2.530   2.075   9.921  0.1227  0.0497 -0.4544
  852MPD2    C212565   2.531   2.211   9.946 -0.4750  1.6582  0.0706
  852MPD2    C312566   2.623   2.294   9.887  0.9466 -0.1916  0.3443
  852MPD2    C412567   2.717   2.240   9.798 -0.8781  0.7532 -0.1005
  852MPD2    C512568   2.719   2.104   9.782  0.2049 -0.1169  0.9020
  852MPD2     H12569   2.458   2.253  10.014 -0.7593 -2.0180  2.0574
  852MPD2    H112570   2.800   2.295   9.757  0.9212 -1.6154  0.4098
  852MPD2    H212571   2.613   1.922   9.807  1.1634  0.3194  0.5444
  852MPD2    H312572   2.799   2.062   9.722 -0.3576 -1.2176  0.9170
  852MPD2     N12573   2.610   2.421   9.933 -0.1597  0.4049  0.3769
  852MPD2    H512574   2.548   2.435  10.012 -0.6850  0.5848 -0.0661
  852MPD2    N112575   2.428   2.001   9.988  0.3266 -0.4293 -0.2270
  852MPD2    H712576   2.359   2.056  10.037 -0.5475  0.4812 -2.4486
  853MPD2     C12577   3.581   2.462  12.239  0.0971 -0.4654  0.9051
  853MPD2    C112578   3.446   2.450  12.222 -0.9250  0.6073  0.8826
  853MPD2    C212579   3.404   2.393  12.104 -0.2308 -0.9351  0.6789
  853MPD2    C312580   3.496   2.361  11.998  0.5313  0.6463 -0.2572
  853MPD2    C412581   3.631   2.385  12.019 -0.0955  0.2519  0.7612
  853MPD2    C512582   3.672   2.437  12.142 -0.2495 -0.1004 -0.1457
  853MPD2     H12583   3.298   2.376  12.088  0.0446 -0.3011 -1.8699
  853MPD2    H112584   3.709   2.370  11.946 -0.4773 -0.3585  0.4755
  853MPD2    H212585   3.617   2.497  12.335 -0.4779  1.3159  0.4614
  853MPD2    H312586   3.776   2.463  12.154 -0.4031  0.1529  0.6706
  853MPD2     N12587   3.466   2.295  11.874 -0.4116 -0.0775 -0.3830
  853MPD2    H512588   3.550   2.295  11.817 -0.7934  1.4097 -0.9541
  853MPD2    N112589   3.368   2.476  12.340  0.1864  0.7289 -0.7302
  853MPD2    H712590   3.414   2.508  12.425 -0.1326 -0.5563 -0.0687
  854MPD2     C12591   0.735   2.191  13.400  0.4557 -0.3638  0.3946
  854MPD2    C112592   0.742   2.175  13.266 -0.3449 -0.6941 -0.0310
  854MPD2    C212593   0.850   2.110  13.217  0.4076 -0.2694  0.6264
  854MPD2    C312594   0.940   2.043  13.300  0.0081  0.7479 -0.8985
  854MPD2    C412595   0.936   2.078  13.434 -0.0915  0.2117 -0.1339
  854MPD2    C512596   0.835   2.145  13.485  0.2742 -0.4280 -0.1803
  854MPD2     H12597   0.852   2.092  13.110 -2.4597  2.1024  0.1599
  854MPD2    H112598   1.016   2.035  13.494  0.7868  0.3673 -1.1904
  854MPD2    H212599   0.654   2.248  13.443  1.2829  0.6265  0.6428
  854MPD2    H312600   0.844   2.160  13.592  2.6350  0.7489 -0.5476
  854MPD2     N12601   1.057   1.974  13.250  0.0871 -0.7612  0.1762
  854MPD2    H512602   1.113   1.934  13.325 -0.3840 -0.0238  0.9323
  854MPD2    N112603   0.621   2.224  13.197  0.2156 -0.2984  0.0307
  854MPD2    H712604   0.536   2.253  13.243 -0.8510 -3.5536  0.1246
  855MPD2     C12605   1.551   1.603  13.800 -0.5336 -0.9723  0.1193
  855MPD2    C112606   1.417   1.632  13.769  1.4495 -0.1741 -0.3830
  855MPD2    C212607   1.379   1.680  13.644  0.1924 -0.1254 -0.1931
  855MPD2    C312608   1.468   1.692  13.538  0.1981 -0.1830 -0.6033
  855MPD2    C412609   1.598   1.656  13.564  0.0306  0.0787  1.0513
  855MPD2    C512610   1.632   1.612  13.683 -0.2961 -0.1377  0.5451
  855MPD2     H12611   1.274   1.702  13.628  0.3820  0.5887 -0.4434
  855MPD2    H112612   1.671   1.646  13.484  0.6112 -0.5860  1.6633
  855MPD2    H212613   1.585   1.573  13.898  0.7736 -1.1347 -0.3792
  855MPD2    H312614   1.734   1.576  13.689  0.5047  2.0044 -0.3491
  855MPD2     N12615   1.415   1.727  13.415  0.3004  0.0706  0.1416
  855MPD2    H512616   1.314   1.738  13.412  0.0338 -2.5089 -0.2593
  855MPD2    N112617   1.315   1.607  13.858 -1.3614  0.3369 -0.0693
  855MPD2    H712618   1.221   1.630  13.828 -1.3782 -0.7271 -0.8333
  856MPD2     C12619   3.129   2.546  14.237 -0.6538  0.6346 -0.5002
  856MPD2    C112620   3.114   2.680  14.198 -0.1334  0.0361  0.1162
  856MPD2    C212621   2.985   2.729  14.170  0.0829 -0.5061  0.3361
  856MPD2    C312622   2.871   2.651  14.169 -0.2894  0.5276  0.6351
  856MPD2    C412623   2.895   2.516  14.193 -0.2581  0.5962  0.1405
  856MPD2    C512624   3.020   2.467  14.231 -0.9427 -0.6930  0.6888
  856MPD2     H12625   2.967   2.831  14.139  0.7991 -0.5206 -0.1166
  856MPD2    H112626   2.814   2.444  14.191  0.0875  0.2265 -0.3178
  856MPD2    H212627   3.224   2.502  14.265 -0.3289  1.2434 -0.6343
  856MPD2    H312628   3.027   2.360  14.248  0.3524 -0.8263 -0.6570
  856MPD2     N12629   2.739   2.701  14.142  0.1900 -0.2451  0.0179
  856MPD2    H512630   2.664   2.635  14.123 -0.6954  0.2633  1.7598
  856MPD2    N112631   3.213   2.775  14.179  0.6189  0.0408  0.3025
  856MPD2    H712632   3.186   2.864  14.137  1.5060  1.1917  2.1833
  857MPD2     C12633   4.606   0.406  12.603 -0.3630  0.2172  0.8703
  857MPD2    C112634   4.721   0.389  12.678  0.0222 -0.2126  0.0362
  857MPD2    C212635   0.063   0.497  12.721  1.1692 -0.7345 -0.1159
  857MPD2    C312636   0.032   0.621  12.675 -0.0529 -0.4001 -0.6492
  857MPD2    C412637   4.651   0.637  12.603  0.6885 -0.1660 -0.3821
  857MPD2    C512638   4.574   0.528  12.562 -0.0534 -0.1775 -0.2922
  857MPD2     H12639   0.156   0.480  12.775 -1.0373 -1.8474  3.3353
  857MPD2    H112640   4.603   0.732  12.583 -0.5579 -0.4423  1.2455
  857MPD2    H212641   4.548   0.324  12.565  0.7205  0.4448 -1.2711
  857MPD2    H312642   4.482   0.539  12.506 -0.9909 -0.2661  1.2224
  857MPD2     N12643   0.116   0.733  12.711 -0.0992 -0.3005  0.1191
  857MPD2    H512644   0.196   0.720  12.771 -0.3377  1.7741  0.9158
  857MPD2    N112645   0.010   0.251  12.705 -0.0054  0.1672  0.8453
  857MPD2    H712646   4.696   0.184  12.646 -0.8543  2.2117 -0.7912
  858MPD2     C12647   0.025   3.828  16.517 -0.3146  0.0963 -0.3822
  858MPD2    C112648   0.152   3.871  16.499 -0.0338  0.3885  0.6277
  858MPD2    C212649   0.181   4.006  16.500 -0.2360 -0.0915 -0.2578
  858MPD2    C312650   0.083   4.095  16.532 -0.8499 -0.4661 -0.3876
  858MPD2    C412651   4.686   4.050  16.558  1.1268 -0.0350  0.4302
  858MPD2    C512652   4.659   3.915  16.556 -0.6568  0.0224 -0.0564
  858MPD2     H12653   0.284   4.038  16.487  0.5254 -2.4540 -0.0395
  858MPD2    H112654   4.610   4.122  16.585  0.3436 -0.6420 -0.1519
  858MPD2    H212655   4.730   3.724  16.507  1.4952 -0.6982  2.6473
  858MPD2    H312656   4.571   3.875  16.604 -1.1826 -1.1925 -2.0113
  858MPD2     N12657   0.097   4.234  16.535 -0.1429  0.6420 -0.2487
  858MPD2    H512658   0.019   4.279  16.582  0.3776  1.0923  0.1928
  858MPD2    N112659   0.255   3.779  16.471 -0.4023 -0.0765  0.1861
  858MPD2    H712660   0.240   3.679  16.483 -1.4040 -0.2153 -2.2356
  859MPD2     C12661   3.901   1.761  15.709  0.6026 -0.4565 -0.0586
  859MPD2    C112662   3.896   1.715  15.580 -0.7035  0.5325 -0.2814
  859MPD2    C212663   3.838   1.593  15.550 -0.1664 -0.0969  1.2909
  859MPD2    C312664   3.791   1.511  15.642  0.5194 -0.3289  0.2740
  859MPD2    C412665   3.801   1.554  15.771 -0.5827  0.5562 -0.0061
  859MPD2    C512666   3.850   1.676  15.805  0.0010 -0.2895  0.3825
  859MPD2     H12667   3.824   1.573  15.444  0.8234 -1.4255  1.4064
  859MPD2    H112668   3.775   1.487  15.853  1.0159  1.0561  0.9228
  859MPD2    H212669   3.944   1.858  15.733  0.0082 -0.3585  0.6185
  859MPD2    H312670   3.866   1.701  15.909  0.3029 -2.4889  0.8785
  859MPD2     N12671   3.729   1.389  15.608 -0.5397  0.0417  0.0471
  859MPD2    H512672   3.679   1.339  15.682  0.2428 -0.9351 -0.0805
  859MPD2    N112673   3.971   1.797  15.482 -0.0680  0.2357  0.2225
  859MPD2    H712674   4.011   1.883  15.519  0.1748  0.5657 -0.8175
  860MPD2     C12675   1.756   2.335  11.533  0.2517  0.2091 -0.5144
  860MPD2    C112676   1.750   2.405  11.651 -0.3211  0.4606  0.2191
  860MPD2    C212677   1.632   2.390  11.723 -0.2697  0.4702 -0.3766
  860MPD2    C312678   1.532   2.297  11.687  0.6014 -0.7020 -0.2096
  860MPD2    C412679   1.541   2.245  11.561 -0.5353  0.9434 -0.0237
  860MPD2    C512680   1.653   2.259  11.486 -0.1923  0.3830 -0.0933
  860MPD2     H12681   1.619   2.462  11.803 -0.5876  0.9976 -0.8971
  860MPD2    H112682   1.463   2.187  11.514 -1.3459  1.4900  0.6426
  860MPD2    H212683   1.838   2.338  11.463  0.5314 -3.0748 -0.3169
  860MPD2    H312684   1.664   2.207  11.392  2.6393  0.0303  0.4443
  860MPD2     N12685   1.412   2.284  11.764 -0.2177 -0.3640  0.0187
  860MPD2    H512686   1.413   2.336  11.851 -0.4543 -2.4746  1.3059
  860MPD2    N112687   1.846   2.500  11.700  0.3490  0.0140 -0.8894
  860MPD2    H712688   1.834   2.535  11.795 -1.2432 -0.8070 -0.7891
  861MPD2     C12689   0.967   0.035  11.169 -0.1165  0.0210  0.2002
  861MPD2    C112690   0.941   0.174  11.201  0.1830 -0.5448  0.5829
  861MPD2    C212691   0.889   0.251  11.099  0.6131  0.2214  0.4185
  861MPD2    C312692   0.860   0.193  10.975 -0.5801  0.1082  0.4089
  861MPD2    C412693   0.895   0.057  10.940  0.0088  0.1657 -0.8019
  861MPD2    C512694   0.931   4.712  11.047  0.0318 -0.1377  0.0369
  861MPD2     H12695   0.864   0.355  11.114 -1.1978 -0.1579  0.0783
  861MPD2    H112696   0.884   0.014  10.841  1.3379  1.3761 -1.4792
  861MPD2    H212697   1.006   4.700  11.243  1.0777  1.2337  0.7039
  861MPD2    H312698   0.955   4.609  11.023 -1.8845 -0.8021  0.8991
  861MPD2     N12699   0.783   0.263  10.874 -0.3982 -0.0911 -0.1707
  861MPD2    H512700   0.748   0.213  10.793  0.0355 -1.1046  0.2586
  861MPD2    N112701   0.969   0.227  11.326 -0.3337 -0.0556 -0.1379
  861MPD2    H712702   0.979   0.328  11.336  3.0359 -0.5926  1.9971
  862MPD2     C12703   0.203   0.028  10.528 -0.4779 -0.0671  0.2535
  862MPD2    C112704   0.281   0.038  10.646 -0.6785 -0.2487  0.0955
  862MPD2    C212705   0.263   4.691  10.752  0.4535  0.4726 -0.1942
  862MPD2    C312706   0.157   4.593  10.743 -0.1851  0.1780 -0.1903
  862MPD2    C412707   0.092   4.574  10.625 -0.5041 -0.1769 -0.4961
  862MPD2    C512708   0.121   4.649  10.513  0.2036  0.2709 -0.2815
  862MPD2     H12709   0.322   4.700  10.842  0.5769 -1.7829 -0.0574
  862MPD2    H112710   0.020   4.494  10.627 -0.5276 -0.1713 -1.1535
  862MPD2    H212711   0.206   0.100  10.448  2.2099 -1.3238 -0.7772
  862MPD2    H312712   0.062   4.635  10.423  0.4102 -1.9721 -0.0679
  862MPD2     N12713   0.121   4.513  10.860  0.0129  0.3034 -0.4867
  862MPD2    H512714   0.038   4.458  10.841  0.2057 -0.6865  1.5398
  862MPD2    N112715   0.366   0.149  10.665 -0.9277 -0.0521  0.2695
  862MPD2    H712716   0.433   0.128  10.738 -1.8147 -0.1907  1.0332
  863MPD2     C12717   3.376   3.110  16.064  0.9112 -0.5971  0.0455
  863MPD2    C112718   3.344   3.199  16.157 -0.2191  0.2774  0.1067
  863MPD2    C212719   3.399   3.190  16.288  0.0974 -0.3715  0.5744
  863MPD2    C312720   3.500   3.097  16.312 -1.0942 -0.0514  0.3153
  863MPD2    C412721   3.531   3.005  16.210  0.1156 -0.2414 -0.7638
  863MPD2    C512722   3.469   3.012  16.086  0.7385  0.0505  0.7124
  863MPD2     H12723   3.359   3.254  16.366  1.0310  0.1827  0.5919
  863MPD2    H112724   3.607   2.929  16.224 -0.5073 -0.7663 -0.2622
  863MPD2    H212725   3.335   3.122  15.964  0.2277  2.4690  0.7100
  863MPD2    H312726   3.491   2.948  16.002  0.0958  0.8266 -0.0334
  863MPD2     N12727   3.554   3.077  16.436  0.4150 -0.4719  0.0688
  863MPD2    H512728   3.626   3.006  16.443 -0.0259 -0.9320 -0.0691
  863MPD2    N112729   3.241   3.293  16.122 -0.1114  0.1307  0.0885
  863MPD2    H712730   3.203   3.294  16.027  1.0687  0.0419 -0.3884
  864MPD2     C12731   3.797   0.023  17.101 -0.3821  0.4858  0.3358
  864MPD2    C112732   3.797   4.667  16.996 -1.1014 -0.2766  0.1399
  864MPD2    C212733   3.877   4.696  16.884 -0.2121 -0.5126  0.1637
  864MPD2    C312734   3.946   0.082  16.878  0.1240  0.2297  0.3357
  864MPD2    C412735   3.938   0.171  16.985 -0.3896  0.1726  0.4115
  864MPD2    C512736   3.870   0.136  17.095 -0.2910  0.5654 -0.5944
  864MPD2     H12737   3.878   4.617  16.810  2.0480  0.5608 -0.9587
  864MPD2    H112738   3.986   0.268  16.993  0.0603  0.0603 -0.8384
  864MPD2    H212739   3.741   0.008  17.192  0.0487  0.4214  0.5885
  864MPD2    H312740   3.861   0.199  17.183  0.4076 -1.9751  1.2686
  864MPD2     N12741   4.032   0.112  16.769  0.0871  0.0093  0.3768
  864MPD2    H512742   4.072   0.205  16.776 -3.2403  1.3824  1.6338
  864MPD2    N112743   3.704   4.559  17.017 -0.5001  0.0846 -0.0970
  864MPD2    H712744   3.664   4.547  17.109 -2.4615  0.3829 -0.9129
  865MPD2     C12745   3.783   0.049  16.197 -0.5785 -0.1069 -0.4035
  865MPD2    C112746   3.917   0.037  16.213 -0.1669 -0.3983  1.2696
  865MPD2    C212747   3.989   0.149  16.259 -0.2964 -0.6935  0.0932
  865MPD2    C312748   3.915   0.259  16.296 -0.3006  0.4663  0.7086
  865MPD2    C412749   3.775   0.266  16.295  0.6362  0.0162 -0.5563
  865MPD2    C512750   3.714   0.163  16.231  0.4205 -1.1520 -0.4392
  865MPD2     H12751   4.097   0.144  16.255 -0.2193  1.6985 -0.7947
  865MPD2    H112752   3.725   0.356  16.327  0.5668 -1.0290  2.2707
  865MPD2    H212753   3.725   4.705  16.150  0.2053 -0.9800  0.0756
  865MPD2    H312754   3.606   0.169  16.218  0.3055 -2.2099  0.1001
  865MPD2     N12755   3.983   0.378  16.343  0.4215  0.1326 -0.1424
  865MPD2    H512756   3.935   0.468  16.334 -0.1164 -0.0023  1.3422
  865MPD2    N112757   3.982   4.653  16.166  0.3524  0.0577  0.1420
  865MPD2    H712758   3.923   4.574  16.141  0.1861  0.1963  0.1026
  866MPD2     C12759   1.367   0.752  11.507 -0.6247  0.3301 -0.1012
  866MPD2    C112760   1.313   0.631  11.491 -0.9554  0.0894 -0.0680
  866MPD2    C212761   1.183   0.620  11.450 -0.2074  0.5532 -0.3226
  866MPD2    C312762   1.111   0.736  11.405  0.0421  0.1636  0.0067
  866MPD2    C412763   1.173   0.858  11.420 -0.0492 -0.2176  0.4366
  866MPD2    C512764   1.293   0.862  11.482  0.6065  0.5402  0.4216
  866MPD2     H12765   1.125   0.528  11.449  0.8778 -0.1331 -0.3023
  866MPD2    H112766   1.127   0.953  11.399 -1.3824 -1.2027 -1.1863
  866MPD2    H212767   1.461   0.764  11.560 -1.2417 -0.3863  1.1485
  866MPD2    H312768   1.340   0.957  11.503  0.0186  0.7430  0.8151
  866MPD2     N12769   0.987   0.740  11.346 -0.2704 -0.5129  0.5225
  866MPD2    H512770   0.945   0.827  11.316  1.9635 -0.0449 -1.2344
  866MPD2    N112771   1.394   0.527  11.518 -0.3848 -0.1359  0.4984
  866MPD2    H712772   1.493   0.542  11.534 -0.6574  2.5682 -0.4974
  867MPD2     C12773   3.058   4.654  16.549 -0.4146  0.3677  0.0441
  867MPD2    C112774   3.103   4.568  16.651  0.2026  0.2075 -0.1940
  867MPD2    C212775   3.180   4.631  16.751  0.0427  0.3736  0.2694
  867MPD2    C312776   3.205   0.031  16.754 -0.3007  0.1436  0.8829
  867MPD2    C412777   3.158   0.113  16.658 -0.4553 -0.1065  0.6658
  867MPD2    C512778   3.084   0.057  16.553 -0.1349  0.0676  0.3763
  867MPD2     H12779   3.232   4.568  16.821 -1.4048  0.3097  1.2899
  867MPD2    H112780   3.194   0.215  16.659  1.3170 -0.7386  1.3706
  867MPD2    H212781   3.007   4.604  16.467 -0.7033  1.9890 -0.7552
  867MPD2    H312782   3.056   0.118  16.469  1.6018 -2.4134 -2.0352
  867MPD2     N12783   3.287   0.093  16.852 -0.8519 -0.2533  0.4304
  867MPD2    H512784   3.295   0.194  16.844  0.6686 -0.3002  1.4464
  867MPD2    N112785   3.078   4.429  16.648 -0.0386 -0.5559 -0.4067
  867MPD2    H712786   3.029   4.399  16.564 -0.6368  1.1349 -0.6570
  868MPD2     C12787   4.563   3.239  13.236  0.5540 -0.3257  0.3605
  868MPD2    C112788   4.639   3.349  13.261 -0.0757 -0.8364  0.3465
  868MPD2    C212789   4.592   3.440  13.353 -0.5265 -0.2046 -1.4975
  868MPD2    C312790   4.476   3.421  13.421 -0.5961  0.2769  0.3787
  868MPD2    C412791   4.410   3.303  13.402 -0.0937  0.0232 -0.1589
  868MPD2    C512792   4.446   3.216  13.306  0.1062  0.1431 -0.3678
  868MPD2     H12793   4.644   3.531  13.379  1.5055 -1.0438 -2.7095
  868MPD2    H112794   4.331   3.276  13.471 -0.6153 -1.7160 -1.4562
  868MPD2    H212795   4.594   3.168  13.161  1.7284  0.6640 -0.0858
  868MPD2    H312796   4.395   3.122  13.291  0.8164  0.1250 -2.5656
  868MPD2     N12797   4.421   3.526  13.506 -0.0479  0.6692  0.4440
  868MPD2    H512798   4.471   3.611  13.528  1.4035 -0.3429  1.1370
  868MPD2    N112799   0.028   3.367  13.191 -0.1396 -0.1321  0.2091
  868MPD2    H712800   0.055   3.296  13.124  2.9358  0.9789  0.2719
  869MPD2     C12801   0.967   1.679   0.543  0.2664  0.0316 -0.3094
  869MPD2    C112802   0.878   1.699   0.646 -0.1527  0.0591  0.2137
  869MPD2    C212803   0.867   1.595   0.741  0.1702  0.1995 -0.0432
  869MPD2    C312804   0.942   1.477   0.722  0.5112 -0.8142  0.1508
  869MPD2    C412805   1.034   1.468   0.625  0.2127 -0.0273  0.1248
  869MPD2    C512806   1.042   1.565   0.534  0.1485  0.3723  0.1869
  869MPD2     H12807   0.814   1.617   0.833 -0.1253  0.1246 -0.1965
  869MPD2    H112808   1.095   1.379   0.608 -0.9270 -0.8286  0.2244
  869MPD2    H212809   0.996   1.745   0.462  0.2357  1.2666  0.6909
  869MPD2    H312810   1.122   1.564   0.460 -1.9480  4.1120 -2.1388
  869MPD2     N12811   0.950   1.374   0.815  0.1907  0.5618 -0.0330
  869MPD2    H512812   1.028   1.311   0.805  0.7615  1.4354 -1.0921
  869MPD2    N112813   0.807   1.820   0.659 -0.0695  0.0866  0.1442
  869MPD2    H712814   0.838   1.900   0.606  1.4427 -1.7643 -1.7849
  870MPD2     C12815   4.338   1.296   1.387 -0.1206  0.0623  0.6767
  870MPD2    C112816   4.466   1.243   1.407  0.6721  0.0397  0.5874
  870MPD2    C212817   4.560   1.258   1.304  0.1174 -0.4810  0.0166
  870MPD2    C312818   4.537   1.349   1.196  0.2888 -0.2493  0.2087
  870MPD2    C412819   4.410   1.396   1.181  0.1771 -0.2996  0.3816
  870MPD2    C512820   4.315   1.368   1.276 -0.4206  0.4666 -0.5163
  870MPD2     H12821   4.664   1.240   1.327  0.2120  0.2242  0.1260
  870MPD2    H112822   4.382   1.461   1.099  0.9070  0.2371  0.5565
  870MPD2    H212823   4.265   1.298   1.468  1.4478  1.0544  2.0455
  870MPD2    H312824   4.214   1.405   1.264  0.0759  2.0242  0.1400
  870MPD2     N12825   4.643   1.369   1.106 -0.3271 -0.1348  0.2304
  870MPD2    H512826   4.727   1.316   1.130  0.5833  1.5388  0.7383
  870MPD2    N112827   4.496   1.197   1.539 -0.0446 -0.1776  0.4003
  870MPD2    H712828   4.424   1.223   1.606 -1.9801  0.7664 -2.0483
  871MPD2     C12829   1.653   4.448  16.480  0.4018  0.5412 -0.0688
  871MPD2    C112830   1.625   4.396  16.605 -0.4140 -0.2421 -0.0988
  871MPD2    C212831   1.625   4.255  16.614 -0.1882  0.7945  0.0159
  871MPD2    C312832   1.679   4.176  16.512  0.4022 -0.3336 -0.4678
  871MPD2    C412833   1.729   4.237  16.402  0.0411 -0.0793 -0.3604
  871MPD2    C512834   1.710   4.367  16.383  0.0869 -0.5447 -0.4625
  871MPD2     H12835   1.589   4.196  16.698  0.1755  0.6511  0.0694
  871MPD2    H112836   1.776   4.174  16.327 -2.1275 -2.1650  0.0669
  871MPD2    H212837   1.656   4.555  16.469  1.2975  0.5830  0.5357
  871MPD2    H312838   1.739   4.421  16.293 -0.6357 -0.2622 -0.5301
  871MPD2     N12839   1.675   4.036  16.536 -0.4465 -0.3025  0.6817
  871MPD2    H512840   1.614   4.008  16.613 -0.5977 -0.9995  0.3119
  871MPD2    N112841   1.584   4.485  16.706  0.5528  0.5701 -0.5612
  871MPD2    H712842   1.607   4.583  16.691 -0.8023  0.5229 -2.9691
  872MPD2     C12843   3.005   2.027  14.051 -0.3594  0.3008 -0.7302
  872MPD2    C112844   2.947   2.147  14.026 -0.6779 -0.6260  0.0607
  872MPD2    C212845   2.819   2.164  14.073  0.3010  0.2576 -0.5002
  872MPD2    C312846   2.762   2.077  14.163  0.6888 -0.7711 -0.1015
  872MPD2    C412847   2.824   1.957  14.191 -0.2098 -0.0766 -0.1038
  872MPD2    C512848   2.944   1.933  14.129 -0.4715 -0.0396 -1.2140
  872MPD2     H12849   2.773   2.260  14.054  1.0552  0.1896 -2.6630
  872MPD2    H112850   2.782   1.889  14.263  0.5302 -2.3930 -1.8626
  872MPD2    H212851   3.104   1.999  14.018 -1.4499 -2.3354 -1.7822
  872MPD2    H312852   2.991   1.838  14.153 -2.3208 -0.5634  0.3112
  872MPD2     N12853   2.636   2.096  14.213 -0.4941 -0.3549  0.7442
  872MPD2    H512854   2.605   2.024  14.278  1.6760 -1.1428  0.8912
  872MPD2    N112855   3.018   2.254  13.962 -0.1425 -0.0685 -0.1885
  872MPD2    H712856   2.964   2.335  13.933 -0.2711  0.4137  1.3524
  873MPD2     C12857   4.468   2.038   0.866 -0.0800 -0.0610  0.0508
  873MPD2    C112858   4.333   2.050   0.843  0.2034 -0.5907  0.2698
  873MPD2    C212859   4.269   1.950   0.781  0.2258 -0.1877  0.1222
  873MPD2    C312860   4.334   1.835   0.755  0.0913 -0.0781 -0.2633
  873MPD2    C412861   4.468   1.821   0.775 -0.3697  0.0172  0.6326
  873MPD2    C512862   4.536   1.922   0.827  0.1848  0.1463 -0.0514
  873MPD2     H12863   4.160   1.955   0.778  0.3408  2.8825  0.8730
  873MPD2    H112864   4.516   1.731   0.739  3.3602  2.4761 -0.4921
  873MPD2    H212865   4.514   2.132   0.895  0.0299  0.1516 -0.7817
  873MPD2    H312866   4.643   1.913   0.842  0.6983  0.3399 -3.7626
  873MPD2     N12867   4.267   1.717   0.705  0.1267  0.2450 -0.2960
  873MPD2    H512868   4.323   1.632   0.700 -1.5194 -0.8281 -0.2003
  873MPD2    N112869   4.262   2.172   0.877  0.3996  0.1516 -0.1693
  873MPD2    H712870   4.315   2.250   0.915 -2.1012  1.8103 -0.0824
  874MPD2     C12871   4.199   2.639  16.429  1.5471 -0.4702  0.5600
  874MPD2    C112872   4.228   2.601  16.552  0.2080  0.0037  0.0669
  874MPD2    C212873   4.282   2.694  16.640 -0.0192 -0.1850 -0.5072
  874MPD2    C312874   4.304   2.826  16.605  1.0020 -0.2763 -0.2821
  874MPD2    C412875   4.269   2.857  16.479  0.1823 -0.1994 -0.1794
  874MPD2    C512876   4.207   2.771  16.395  0.7014  0.6775  0.4101
  874MPD2     H12877   4.311   2.665  16.740  2.6272 -0.7366 -1.4368
  874MPD2    H112878   4.294   2.957  16.446  1.5565 -0.4102  0.2243
  874MPD2    H212879   4.157   2.562  16.366 -0.3397  1.1834 -0.1908
  874MPD2    H312880   4.188   2.808  16.295  0.5378 -0.7599 -0.0899
  874MPD2     N12881   4.377   2.904  16.687  0.3314  0.3367  0.2609
  874MPD2    H512882   4.408   2.848  16.766  1.3385 -0.8939 -1.0231
  874MPD2    N112883   4.238   2.458  16.565 -0.7101 -0.8154  0.1556
  874MPD2    H712884   4.200   2.399  16.492  2.1960 -0.3775 -1.6773
  875MPD2     C12885   0.407   0.685  14.496  0.2855 -0.4021 -0.9768
  875MPD2    C112886   0.274   0.717  14.509  0.3133 -0.4125 -0.8178
  875MPD2    C212887   0.224   0.742  14.631 -0.0129  0.0353  0.7931
  875MPD2    C312888   0.304   0.744  14.744  0.7322  0.8746  0.2014
  875MPD2    C412889   0.435   0.726  14.721  0.7125 -0.0450 -0.3978
  875MPD2    C512890   0.485   0.706  14.601  0.1000 -0.3901 -0.5880
  875MPD2     H12891   0.120   0.772  14.646  0.5195  2.0737  0.4859
  875MPD2    H112892   0.493   0.712  14.811  0.3435 -1.6160 -0.3878
  875MPD2    H212893   0.447   0.674  14.396  1.2823 -1.0111 -0.5056
  875MPD2    H312894   0.590   0.685  14.587 -0.1873  0.1815 -3.6861
  875MPD2     N12895   0.261   0.762  14.879 -0.1737  0.3389  0.3146
  875MPD2    H512896   0.329   0.759  14.954 -1.2239  1.7992  1.3304
  875MPD2    N112897   0.190   0.728  14.403  0.2734 -0.0715 -0.4678
  875MPD2    H712898   0.092   0.744  14.422  0.1523  0.1455 -1.2921
  876MPD2     C12899   4.483   1.824  16.290 -0.7399 -0.2148 -0.4107
  876MPD2    C112900   4.413   1.778  16.179  0.2061 -0.6803 -0.2884
  876MPD2    C212901   4.336   1.659  16.181  0.1694  0.2901  0.2816
  876MPD2    C312902   4.342   1.582  16.299  0.1511 -0.1894 -0.1639
  876MPD2    C412903   4.421   1.620  16.406  0.1187 -0.1997 -0.7559
  876MPD2    C512904   4.476   1.742  16.399  0.0108  0.5935 -0.3025
  876MPD2     H12905   4.274   1.619  16.102  1.4167 -3.0973  1.0302
  876MPD2    H112906   4.406   1.577  16.504  1.6442  1.6164  0.2835
  876MPD2    H212907   4.549   1.910  16.292 -0.5064 -0.4014  0.1345
  876MPD2    H312908   4.527   1.778  16.488 -0.1448 -0.2743  0.1389
  876MPD2     N12909   4.265   1.466  16.300  0.5554  0.3327 -0.0671
  876MPD2    H512910   4.209   1.452  16.216 -1.9928 -1.9088  1.9940
  876MPD2    N112911   4.400   1.858  16.067  1.0298  0.0541 -0.2186
  876MPD2    H712912   4.441   1.950  16.074  1.7317 -0.2291 -0.5932
  877MPD2     C12913   4.024   2.206  15.361 -0.0541  0.1088 -0.2771
  877MPD2    C112914   4.148   2.244  15.403 -0.0358 -0.4409  0.4196
  877MPD2    C212915   4.218   2.327  15.321  0.2179  0.3205  0.4969
  877MPD2    C312916   4.169   2.374  15.197 -0.1122 -0.1168  0.0051
  877MPD2    C412917   4.051   2.319  15.154 -0.1548 -0.8341 -0.0505
  877MPD2    C512918   3.982   2.236  15.237  0.0927 -0.6233 -0.2334
  877MPD2     H12919   4.320   2.354  15.347  1.4126 -0.8351 -2.9886
  877MPD2    H112920   4.005   2.336  15.058 -1.9798  1.4340  1.2275
  877MPD2    H212921   3.968   2.139  15.425 -0.8295  0.1276 -0.9350
  877MPD2    H312922   3.888   2.193  15.206  0.0872 -0.0639 -1.0034
  877MPD2     N12923   4.236   2.463  15.110  0.2434  0.2925 -0.2778
  877MPD2    H512924   4.218   2.466  15.010  0.8212  1.6677 -0.3351
  877MPD2    N112925   4.212   2.193  15.515 -0.1209 -0.3477  1.3866
  877MPD2    H712926   4.305   2.229  15.532 -0.6854  1.1587  1.2668
  878MPD2     C12927   4.093   1.403  12.887  0.0254  0.3020 -0.5875
  878MPD2    C112928   4.054   1.534  12.920  0.1209  0.0020  0.3592
  878MPD2    C212929   4.069   1.574  13.056  0.1198 -0.4477 -0.9586
  878MPD2    C312930   4.111   1.490  13.155 -0.3898 -0.0986  0.0142
  878MPD2    C412931   4.143   1.357  13.115 -0.0091  0.4252 -0.8231
  878MPD2    C512932   4.131   1.309  12.987 -0.2183  0.0185 -0.5643
  878MPD2     H12933   4.040   1.675  13.079 -0.8408 -0.2671 -2.9679
  878MPD2    H112934   4.161   1.291  13.198 -3.6145  0.9031  0.3379
  878MPD2    H212935   4.089   1.372  12.783  1.9476 -3.5496  0.5123
  878MPD2    H312936   4.153   1.206  12.963  2.2061  0.1239  1.2094
  878MPD2     N12937   4.105   1.542  13.290 -0.6017 -0.3746  0.0545
  878MPD2    H512938   4.065   1.635  13.304 -2.0483 -0.8925 -0.6411
  878MPD2    N112939   4.011   1.610  12.808  0.1463 -0.3813 -0.0457
  878MPD2    H712940   4.008   1.573  12.714  1.4335 -0.5952 -0.0024
  879MPD2     C12941   4.004   3.186  16.586 -0.0876  0.0143 -0.0349
  879MPD2    C112942   4.010   3.078  16.665 -0.4614 -0.0611  0.4007
  879MPD2    C212943   3.961   2.964  16.606  0.1799 -0.1497  0.1994
  879MPD2    C312944   3.905   2.958  16.480  0.4665 -0.1376  0.0957
  879MPD2    C412945   3.893   3.072  16.406 -0.2051  0.0935 -0.1779
  879MPD2    C512946   3.943   3.184  16.464 -0.2825 -0.2147  0.2202
  879MPD2     H12947   3.972   2.871  16.660  1.7432 -0.5326 -0.7904
  879MPD2    H112948   3.862   3.070  16.302 -2.7991 -1.4237  0.6070
  879MPD2    H212949   4.030   3.281  16.631 -0.0892 -0.4197  0.8769
  879MPD2    H312950   3.949   3.276  16.407 -1.9191 -0.4866 -0.4053
  879MPD2     N12951   3.860   2.844  16.406  0.1393  0.4779 -0.4993
  879MPD2    H512952   3.843   2.855  16.307  0.3933  2.3771 -0.3400
  879MPD2    N112953   4.093   3.084  16.779 -0.5941  0.3920  0.6996
  879MPD2    H712954   4.127   3.175  16.806 -1.0372 -0.0202  2.6010
  880MPD2     C12955   0.605   0.126   0.794 -0.5480  0.1279 -0.1258
  880MPD2    C112956   0.602   0.137   0.658  0.3245  0.6543 -0.1480
  880MPD2    C212957   0.637   0.018   0.589 -0.8982 -0.5479  0.0586
  880MPD2    C312958   0.663   4.635   0.651  0.0847  0.0444 -0.5017
  880MPD2    C412959   0.666   4.629   0.788 -0.7213 -0.2837 -0.0328
  880MPD2    C512960   0.638   0.010   0.862 -0.1641  0.1636 -0.2802
  880MPD2     H12961   0.631   0.015   0.481  1.1472  0.0486 -0.0804
  880MPD2    H112962   0.690   4.536   0.838 -0.1589 -0.6003 -0.8830
  880MPD2    H212963   0.569   0.210   0.853  0.8741  0.4691  0.2446
  880MPD2    H312964   0.624   0.012   0.970  0.2189  0.7930 -0.2438
  880MPD2     N12965   0.700   4.525   0.567 -0.2523  0.1597  0.6688
  880MPD2    H512966   0.702   4.547   0.468  1.0384 -1.7082  0.2921
  880MPD2    N112967   0.578   0.264   0.603  0.0570  0.0212 -0.3063
  880MPD2    H712968   0.561   0.342   0.666  0.5182 -0.1265  0.0087
  881MPD2     C12969   0.364   0.855  17.423 -0.1580  0.0395 -0.5057
  881MPD2    C112970   0.386   0.726  17.437  0.0558  0.7181  0.1674
  881MPD2    C212971   0.442   0.680  17.555  0.3539  0.4519  0.4445
  881MPD2    C312972   0.411   0.750  17.671 -0.6280  0.1895  0.1844
  881MPD2    C412973   0.361   0.877  17.658  0.3154  0.5495  0.3228
  881MPD2    C512974   0.335   0.928  17.534 -0.2319 -0.0942  0.0486
  881MPD2     H12975   0.487   0.581  17.561  0.2259  0.3316 -0.5989
  881MPD2    H112976   0.346   0.943   0.008  0.1257 -0.5053  1.1125
  881MPD2    H212977   0.352   0.889  17.320 -1.2545  2.9253  0.5643
  881MPD2    H312978   0.316   1.034  17.520  0.2754 -0.0656 -0.4538
  881MPD2     N12979   0.437   0.700   0.061  0.3292 -0.0124  0.7031
  881MPD2    H512980   0.408   0.757   0.139  1.3239 -0.1106  1.1473
  881MPD2    N112981   0.401   0.655  17.318  0.3133  0.0342 -0.5937
  881MPD2    H712982   0.375   0.700  17.231  2.3031  0.7659 -0.8172
  882MPD2     C12983   4.401   2.617  14.403 -0.1057 -0.4941  0.6535
  882MPD2    C112984   4.307   2.660  14.496 -0.6441  0.2091 -1.0684
  882MPD2    C212985   4.171   2.635  14.480  0.6663  0.4528  0.0760
  882MPD2    C312986   4.127   2.556  14.371 -0.0143 -0.4601 -0.0061
  882MPD2    C412987   4.222   2.523  14.281 -0.3673 -0.6169 -0.1689
  882MPD2    C512988   4.358   2.550  14.299  0.6642 -0.3756 -0.4051
  882MPD2     H12989   4.095   2.664  14.551  0.6755 -1.2525  0.7649
  882MPD2    H112990   4.190   2.502  14.179 -0.3417 -1.1074 -0.0739
  882MPD2    H212991   4.507   2.639  14.412 -0.2318  0.5780 -0.6155
  882MPD2    H312992   4.422   2.525  14.215 -2.0686  0.7322 -2.8256
  882MPD2     N12993   3.990   2.524  14.342  0.6106  0.5358  0.2791
  882MPD2    H512994   3.985   2.469  14.257  0.1542  0.0148  0.6411
  882MPD2    N112995   4.362   2.720  14.614 -0.1972 -0.3037 -0.5301
  882MPD2    H712996   4.462   2.737  14.614 -0.4867  1.4326  0.8527
  883MPD2     C12997   1.119   1.759  16.199  0.5912 -0.1943 -0.5291
  883MPD2    C112998   1.191   1.865  16.149 -0.7724 -0.3895  0.5172
  883MPD2    C212999   1.259   1.943  16.241 -0.2781  0.0839 -0.0380
  883MPD2    C313000   1.244   1.933  16.377  0.5828 -0.3414  0.2025
  883MPD2    C413001   1.169   1.837  16.428 -0.9407 -0.1995 -0.2411
  883MPD2    C513002   1.109   1.750  16.336 -0.1985 -0.1718 -0.3702
  883MPD2     H13003   1.319   2.025  16.203 -1.0933  0.9788  0.6033
  883MPD2    H113004   1.172   1.810  16.533  1.6868 -1.9145 -0.7640
  883MPD2    H213005   1.073   1.681  16.139 -0.3338 -0.4079  0.4454
  883MPD2    H313006   1.066   1.664  16.385  0.1508 -1.9372 -3.2014
  883MPD2     N13007   1.333   2.009  16.452 -0.2566 -0.5183  0.1528
  883MPD2    H513008   1.389   2.072  16.395  0.2184  0.0439  1.2360
  883MPD2    N113009   1.208   1.898  16.014 -0.9641 -0.1675  0.1487
  883MPD2    H713010   1.268   1.974  15.984 -0.8007  0.2766  1.6271
  884MPD2     C13011   3.128   2.867  14.975 -0.3396 -0.0047  0.5360
  884MPD2    C113012   3.047   2.961  14.912  0.7658  0.2365 -0.6567
  884MPD2    C213013   2.928   3.001  14.963  0.2039  0.7900 -0.6280
  884MPD2    C313014   2.889   2.952  15.083 -0.0787  0.0654  1.0731
  884MPD2    C413015   2.977   2.879  15.162 -0.3075  0.2060  0.2293
  884MPD2    C513016   3.087   2.835  15.101 -0.9793  0.2546 -0.0300
  884MPD2     H13017   2.868   3.070  14.907  1.5077  0.4572 -2.4405
  884MPD2    H113018   2.960   2.846  15.264  1.2949  0.8539  0.7060
  884MPD2    H213019   3.224   2.831  14.942 -0.0120 -0.5162  2.0715
  884MPD2    H313020   3.153   2.781  15.168 -3.7972 -0.8119  1.8745
  884MPD2     N13021   2.766   2.988  15.134  0.7292 -0.4309 -0.8580
  884MPD2    H513022   2.709   3.047  15.073 -0.4114  0.1831  0.8091
  884MPD2    N113023   3.078   3.001  14.777  0.4871 -0.8470  0.4802
  884MPD2    H713024   3.033   3.087  14.748  1.3791 -0.3576  0.5492
  885MPD2     C13025   0.991   3.164   0.450  0.1316  0.2438  0.3648
  885MPD2    C113026   1.129   3.150   0.452  0.0704 -0.2424  0.7441
  885MPD2    C213027   1.202   3.208   0.349  0.3678  0.5985  0.4364
  885MPD2    C313028   1.136   3.271   0.244 -0.7644  0.4190  0.4941
  885MPD2    C413029   0.999   3.282   0.248  0.6554  0.4409  0.4533
  885MPD2    C513030   0.931   3.215   0.346  0.0311 -0.6244 -0.3816
  885MPD2     H13031   1.309   3.193   0.349  0.5939  2.2759 -1.5293
  885MPD2    H113032   0.937   3.321   0.168  1.2114  1.2352  0.4133
  885MPD2    H213033   0.929   3.108   0.519  1.4303 -1.1600  0.4099
  885MPD2    H313034   0.825   3.191   0.337 -0.1935  0.0779  0.3901
  885MPD2     N13035   1.215   3.327   0.139 -0.5103  0.6261 -0.3340
  885MPD2    H513036   1.312   3.298   0.141 -0.2913  1.2482 -2.0127
  885MPD2    N113037   1.176   3.078   0.555  0.6541 -0.0851 -0.3412
  885MPD2    H713038   1.110   3.050   0.627  0.2765 -2.8927 -1.7948
  886MPD2     C13039   2.857   1.680  15.301 -0.3946  0.9249  0.4547
  886MPD2    C113040   2.992   1.653  15.279  0.9416 -0.3158  0.1664
  886MPD2    C213041   3.048   1.706  15.159  0.2406  0.0437 -0.2162
  886MPD2    C313042   2.981   1.784  15.070 -0.3290  0.0809 -0.3240
  886MPD2    C413043   2.857   1.815  15.103  0.1639  0.4868  0.6789
  886MPD2    C513044   2.794   1.759  15.216 -0.5004 -0.8105 -0.0126
  886MPD2     H13045   3.150   1.673  15.140 -1.1371 -3.8490 -0.7064
  886MPD2    H113046   2.796   1.887  15.050  0.4054  1.3691  1.5859
  886MPD2    H213047   2.808   1.652  15.394 -0.9277  0.1747 -0.0592
  886MPD2    H313048   2.692   1.782  15.244  0.7259  1.3134  2.6894
  886MPD2     N13049   3.038   1.848  14.958 -0.2678 -0.2253 -0.1059
  886MPD2    H513050   2.984   1.923  14.915 -1.0331  1.1863  3.3328
  886MPD2    N113051   3.062   1.565  15.362 -0.3269  0.0699  0.3021
  886MPD2    H713052   3.158   1.544  15.337  0.0410  1.2709  0.6995
  887MPD2     C13053   3.522   1.592  15.984  0.4521 -0.4491 -0.1509
  887MPD2    C113054   3.470   1.645  15.868 -0.5548  0.3907  0.8446
  887MPD2    C213055   3.519   1.767  15.829 -0.2195  0.1296  0.4293
  887MPD2    C313056   3.601   1.849  15.905  0.5161  0.2824 -0.3341
  887MPD2    C413057   3.633   1.793  16.028 -0.5496  0.2157 -0.8069
  887MPD2    C513058   3.607   1.667  16.060  0.1214 -0.2834 -0.6971
  887MPD2     H13059   3.472   1.812  15.743  0.4940 -0.5774 -0.3322
  887MPD2    H113060   3.698   1.845  16.098 -0.2072 -2.5868  0.9552
  887MPD2    H213061   3.500   1.492  16.020  0.6748 -1.1366 -1.9049
  887MPD2    H313062   3.644   1.616  16.148  1.3917  1.2622 -0.3324
  887MPD2     N13063   3.644   1.973  15.856 -0.2345 -0.1250 -0.1275
  887MPD2    H513064   3.616   1.993  15.760 -3.0034  1.9876  1.1215
  887MPD2    N113065   3.383   1.573  15.781  0.1839 -0.3247 -0.2878
  887MPD2    H713066   3.364   1.617  15.691 -2.0099  0.4072  0.5327
  888MPD2     C13067   0.273   1.753  14.511 -0.9075 -0.6691 -0.1972
  888MPD2    C113068   0.304   1.750  14.649  0.1592  0.1623  0.1639
  888MPD2    C213069   0.399   1.844  14.692  0.8497  0.3963 -0.0467
  888MPD2    C313070   0.454   1.937  14.613  0.6292  0.4018 -0.0439
  888MPD2    C413071   0.416   1.936  14.480 -0.3091  0.3299 -0.1479
  888MPD2    C513072   0.325   1.848  14.427  0.1663 -0.1695 -0.6978
  888MPD2     H13073   0.427   1.835  14.796 -1.0375  1.8460  0.5746
  888MPD2    H113074   0.449   2.009  14.407 -2.3586  2.6115  1.2005
  888MPD2    H213075   0.188   1.698  14.472  0.2873 -1.8493 -1.1713
  888MPD2    H313076   0.301   1.840  14.321 -0.2847 -0.5969 -0.5629
  888MPD2     N13077   0.539   2.034  14.673 -0.2582 -0.1492 -0.9514
  888MPD2    H513078   0.554   2.025  14.773 -0.2691  2.0834 -0.7418
  888MPD2    N113079   0.241   1.666  14.748  0.3152 -0.0515 -0.3388
  888MPD2    H713080   0.270   1.675  14.845  3.7265 -0.0607 -1.3264
  889MPD2     C13081   0.160   1.602  12.628  0.3876 -0.3804 -0.0832
  889MPD2    C113082   0.178   1.546  12.755 -0.0834  0.3354  0.0953
  889MPD2    C213083   0.157   1.629  12.861 -0.0090 -0.7399  0.7274
  889MPD2    C313084   0.133   1.764  12.837  0.5606 -0.1258 -0.3059
  889MPD2    C413085   0.133   1.812  12.712 -0.3121 -0.6390  0.3393
  889MPD2    C513086   0.136   1.731  12.608  0.6596  0.3994  0.0907
  889MPD2     H13087   0.141   1.579  12.956  0.2263 -2.1842  0.0136
  889MPD2    H113088   0.104   1.910  12.677  2.1119 -0.0066  0.1488
  889MPD2    H213089   0.151   1.526  12.552 -1.5884 -2.1695  1.9223
  889MPD2    H313090   0.130   1.770  12.507 -0.2450  0.3169  0.1112
  889MPD2     N13091   0.094   1.849  12.939  0.1642 -0.3455  0.1190
  889MPD2    H513092   0.096   1.804  13.030  1.8156  0.7094  0.6131
  889MPD2    N113093   0.192   1.411  12.780  0.7199  0.1471 -0.5116
  889MPD2    H713094   0.189   1.381  12.877 -0.6218 -0.2894 -0.6905
  890MPD2     C13095   4.068   3.267  14.818 -0.4215 -0.6193  0.0967
  890MPD2    C113096   4.142   3.344  14.900 -0.2216  0.0638  0.0916
  890MPD2    C213097   4.247   3.284  14.964 -0.2237  0.5105 -0.0796
  890MPD2    C313098   4.264   3.151  14.970  0.3840  0.0405  0.0111
  890MPD2    C413099   4.179   3.070  14.895 -0.4662 -0.1819 -0.7461
  890MPD2    C513100   4.082   3.128  14.814 -0.0450 -0.5830  0.6728
  890MPD2     H13101   4.319   3.349  15.012  0.6635  1.2369 -2.4022
  890MPD2    H113102   4.189   2.962  14.896 -3.0825 -0.4260  0.5865
  890MPD2    H213103   3.990   3.301  14.751 -0.4282  0.3003  0.5741
  890MPD2    H313104   4.029   3.066  14.742  0.6100 -0.3617  0.0038
  890MPD2     N13105   4.364   3.101  15.064 -0.3489  0.2612 -0.7700
  890MPD2    H513106   4.438   3.167  15.089 -0.8464  0.5255  0.0157
  890MPD2    N113107   4.113   3.480  14.913 -0.0649  0.2316 -0.5253
  890MPD2    H713108   4.045   3.524  14.852 -1.6735 -0.1956  0.9843
  891MPD2     C13109   2.092   1.636  16.612  0.1724  0.4264 -0.3206
  891MPD2    C113110   2.017   1.545  16.688  0.0555 -0.2807 -0.9929
  891MPD2    C213111   2.078   1.495  16.805  0.1964  0.0551 -0.1106
  891MPD2    C313112   2.202   1.535  16.844 -0.3784  0.2026  0.2704
  891MPD2    C413113   2.268   1.635  16.769  0.0272  0.0642  0.4805
  891MPD2    C513114   2.212   1.680  16.660  0.1616  0.3798  0.3049
  891MPD2     H13115   2.029   1.424  16.870 -0.5092 -0.5252 -1.2883
  891MPD2    H113116   2.369   1.666  16.795  0.4629 -0.3580 -0.6839
  891MPD2    H213117   2.061   1.667  16.513 -0.3819  1.6409  0.2372
  891MPD2    H313118   2.281   1.732  16.594 -0.1471 -0.2385 -0.5176
  891MPD2     N13119   2.254   1.484  16.966  0.6401  0.1542 -0.1321
  891MPD2    H513120   2.199   1.430  17.031  1.7189 -0.1847  0.4961
  891MPD2    N113121   1.888   1.508  16.640 -1.1112  0.0583 -0.4709
  891MPD2    H713122   1.868   1.538  16.545 -0.9606  3.5295  0.6128
  892MPD2     C13123   3.316   2.512  15.064 -0.2036  0.4706 -0.0114
  892MPD2    C113124   3.231   2.507  14.954  0.2143 -0.3374 -0.6747
  892MPD2    C213125   3.293   2.521  14.823 -0.1082  0.0493 -0.2866
  892MPD2    C313126   3.433   2.543  14.809  0.0326 -0.3416 -0.2001
  892MPD2    C413127   3.509   2.556  14.926  0.5223  0.1394 -0.1370
  892MPD2    C513128   3.443   2.552  15.044  0.0066  0.0259  0.3813
  892MPD2     H13129   3.223   2.554  14.747 -0.9390 -1.6034 -0.2486
  892MPD2    H113130   3.612   2.590  14.931  0.0365  1.4039  1.0552
  892MPD2    H213131   3.283   2.526  15.167  0.6020  0.8995  0.1891
  892MPD2    H313132   3.508   2.566  15.130 -0.3433  0.7290  0.5232
  892MPD2     N13133   3.500   2.559  14.685  0.4348  0.2184  0.4950
  892MPD2    H513134   3.599   2.581  14.682  0.8712 -1.5639  1.4682
  892MPD2    N113135   3.089   2.508  14.966  0.4443 -0.7541  0.5225
  892MPD2    H713136   3.035   2.490  14.882  2.5932 -1.1306 -0.7849
  893MPD2     C13137   4.536   1.525   2.001 -0.7890 -0.3492 -0.3663
  893MPD2    C113138   4.511   1.486   1.876  0.9158 -1.0346  0.3903
  893MPD2    C213139   4.394   1.419   1.853  0.0371 -0.4428 -0.1344
  893MPD2    C313140   4.302   1.396   1.950 -0.3137 -0.4300  0.2630
  893MPD2    C413141   4.327   1.444   2.078 -0.6047 -0.2118 -0.3833
  893MPD2    C513142   4.448   1.508   2.103  0.3288  0.1197  0.0395
  893MPD2     H13143   4.367   1.388   1.752  0.4780  1.8209 -0.9552
  893MPD2    H113144   4.248   1.433   2.150 -1.4940  0.0702 -1.3177
  893MPD2    H213145   4.626   1.578   2.026 -0.3414 -0.1000 -2.5330
  893MPD2    H313146   4.476   1.557   2.195  2.4053  0.3311 -0.7136
  893MPD2     N13147   4.185   1.318   1.924  0.1146  0.1456 -0.0352
  893MPD2    H513148   4.127   1.306   2.007 -0.1016  0.4139 -0.1484
  893MPD2    N113149   4.610   1.509   1.781  0.0358 -0.1027 -0.2203
  893MPD2    H713150   4.695   1.557   1.810  0.0123  0.0947 -0.4835
  894MPD2     C13151   2.294   3.263   1.385 -0.4500 -0.3737  0.2241
  894MPD2    C113152   2.280   3.397   1.402 -0.2433 -0.1841  0.1237
  894MPD2    C213153   2.346   3.488   1.317  0.3562  0.1688  0.0871
  894MPD2    C313154   2.432   3.439   1.221 -0.0043  0.1119  0.6007
  894MPD2    C413155   2.455   3.300   1.204  0.3158 -0.5362 -0.5263
  894MPD2    C513156   2.388   3.217   1.290  0.2858  0.0002  0.6620
  894MPD2     H13157   2.331   3.595   1.325  0.2752  0.2812 -1.4933
  894MPD2    H113158   2.508   3.246   1.127 -0.3775  0.7470 -1.9222
  894MPD2    H213159   2.249   3.182   1.440  1.6800 -1.1542  0.8249
  894MPD2    H313160   2.401   3.111   1.270 -1.3024  0.0392 -0.5786
  894MPD2     N13161   2.488   3.539   1.132  0.0364 -0.1970  0.5934
  894MPD2    H513162   2.472   3.637   1.154 -0.6373  0.1080 -1.2845
  894MPD2    N113163   2.209   3.460   1.508 -0.4443 -0.5457  0.1151
  894MPD2    H713164   2.210   3.561   1.498  0.8800 -0.6882 -1.1515
  895MPD2     C13165   2.911   1.570  13.634 -0.3628 -0.1603 -0.0516
  895MPD2    C113166   2.801   1.518  13.561  0.1394 -0.7093 -0.0365
  895MPD2    C213167   2.759   1.385  13.577  0.1359 -0.3129  0.0495
  895MPD2    C313168   2.838   1.297  13.648 -0.5652  0.6079 -0.5426
  895MPD2    C413169   2.939   1.350  13.729  0.4459 -0.1050 -0.2051
  895MPD2    C513170   2.979   1.479  13.713  0.3139 -0.1196 -0.2567
  895MPD2     H13171   2.675   1.351  13.519  1.1889 -1.8712 -0.5717
  895MPD2    H113172   3.003   1.284  13.785 -1.2557 -1.6942 -0.1238
  895MPD2    H213173   2.939   1.674  13.644 -1.9828  0.1492  1.1961
  895MPD2    H313174   3.058   1.521  13.775  0.3492 -0.7816  0.1400
  895MPD2     N13175   2.829   1.155  13.654  0.7745 -0.5216  0.3742
  895MPD2    H513176   2.889   1.112  13.724  1.0792 -1.9451 -0.7632
  895MPD2    N113177   2.707   1.606  13.493 -0.5821  0.3792  0.2061
  895MPD2    H713178   2.615   1.577  13.461 -0.6620  0.6085  0.2303
  896MPD2     C13179   3.634   0.194   1.488  0.3576 -0.3780 -0.6684
  896MPD2    C113180   3.710   0.129   1.389  0.1848  0.0825  0.6553
  896MPD2    C213181   3.637   0.079   1.279 -0.6374  0.0456 -0.4671
  896MPD2    C313182   3.501   0.084   1.275  0.7472  0.3669  0.4459
  896MPD2    C413183   3.435   0.146   1.369  0.7864 -0.1969  0.7188
  896MPD2    C513184   3.500   0.203   1.480  0.0060  0.0385  0.0945
  896MPD2     H13185   3.689   0.041   1.192 -0.6482 -0.9452 -0.0408
  896MPD2    H113186   3.327   0.148   1.364  0.6799  1.0563  3.7060
  896MPD2    H213187   3.681   0.242   1.573 -0.1077 -1.8146  0.3872
  896MPD2    H313188   3.441   0.248   1.559  2.0973  0.9974  1.0971
  896MPD2     N13189   3.443   0.046   1.148 -0.3432 -0.7826  0.6683
  896MPD2    H513190   3.512   0.028   1.075  0.2599 -1.9135  1.5281
  896MPD2    N113191   3.854   0.128   1.400 -0.1729 -0.2096  0.4478
  896MPD2    H713192   3.888   0.177   1.483  1.3017  0.0988 -0.3339
  897MPD2     C13193   1.423   1.301  10.796  0.2581 -0.1297 -0.8814
  897MPD2    C113194   1.376   1.430  10.802  0.1543  0.7257 -0.2518
  897MPD2    C213195   1.281   1.460  10.894  0.1475 -0.2604  0.3451
  897MPD2    C313196   1.236   1.365  10.981  0.0100  0.3202  0.1670
  897MPD2    C413197   1.290   1.238  10.974  0.3762  0.1177  0.2966
  897MPD2    C513198   1.386   1.212  10.886  0.2036 -0.3599 -0.3440
  897MPD2     H13199   1.254   1.564  10.908 -0.9237 -0.2566 -1.8245
  897MPD2    H113200   1.277   1.159  11.046  1.7489 -0.6690 -0.3072
  897MPD2    H213201   1.504   1.286  10.725  0.7568 -2.9599  0.2635
  897MPD2    H313202   1.420   1.110  10.880  2.1117  0.2221  0.6742
  897MPD2     N13203   1.131   1.398  11.062  0.1477 -0.2109  0.0298
  897MPD2    H513204   1.088   1.488  11.045 -0.1908 -0.1697  1.0795
  897MPD2    N113205   1.415   1.517  10.704 -0.0934  1.0452  1.0444
  897MPD2    H713206   1.451   1.484  10.615 -0.0956  2.9445  0.3463
  898MPD2     C13207   2.915   2.035  17.642 -0.5951  0.7095 -0.1736
  898MPD2    C113208   2.866   2.002  17.512 -0.4004 -0.7188  0.4613
  898MPD2    C213209   2.833   2.111  17.435  0.4860  0.4773  0.0222
  898MPD2    C313210   2.828   2.240  17.482 -0.3247 -0.0237  0.5978
  898MPD2    C413211   2.871   2.262  17.613 -0.2613 -0.3835 -0.5883
  898MPD2    C513212   2.915   2.161  17.693 -0.1573  0.0098  0.0108
  898MPD2     H13213   2.792   2.090  17.337  1.5678 -0.6258 -0.2030
  898MPD2    H113214   2.894   2.359  17.653  1.2272 -0.9224 -0.1662
  898MPD2    H213215   2.949   1.955  17.707 -0.4081  0.6379 -0.3597
  898MPD2    H313216   2.947   2.179   0.060 -1.2392  0.7352  0.2250
  898MPD2     N13217   2.789   2.341  17.394 -0.0773 -0.2269  0.1634
  898MPD2    H513218   2.770   2.315  17.298 -1.4827  0.8542  0.1449
  898MPD2    N113219   2.867   1.873  17.461  0.5544  0.2868  0.0643
  898MPD2    H713220   2.853   1.856  17.362  3.6709  0.7695 -0.4570
  899MPD2     C13221   3.364   2.555  16.659  0.3463  0.3011 -0.2896
  899MPD2    C113222   3.447   2.594  16.763  0.0998 -0.4133  0.6038
  899MPD2    C213223   3.458   2.520  16.879 -0.6736 -0.0139 -0.4914
  899MPD2    C313224   3.378   2.407  16.888  0.5306  0.1763 -0.4627
  899MPD2    C413225   3.299   2.368  16.780 -1.1459  0.3370  0.3317
  899MPD2    C513226   3.289   2.442  16.672 -0.0483  0.6034 -0.8029
  899MPD2     H13227   3.528   2.542  16.959  0.1520  0.6687 -1.4020
  899MPD2    H113228   3.247   2.273  16.773  1.6032 -1.1621  0.3347
  899MPD2    H213229   3.362   2.605  16.562 -3.0132  0.3120 -0.2121
  899MPD2    H313230   3.231   2.418  16.584  1.9148  0.0084 -1.9310
  899MPD2     N13231   3.361   2.328  17.002  0.0928 -0.0598  0.2258
  899MPD2    H513232   3.290   2.257  16.990 -0.4247  0.2047  1.7481
  899MPD2    N113233   3.525   2.712  16.732 -0.5119 -0.0603 -0.7808
  899MPD2    H713234   3.510   2.750  16.639 -1.0608  0.8654 -0.3152
  900MPD2     C13235   3.629   4.016  12.614  0.0415  0.3045  0.1261
  900MPD2    C113236   3.503   4.039  12.669 -0.5647  0.8065 -0.3210
  900MPD2    C213237   3.409   4.099  12.588  0.3150  0.0666 -0.6080
  900MPD2    C313238   3.440   4.128  12.462 -0.2129 -0.9612 -0.0766
  900MPD2    C413239   3.565   4.098  12.403 -0.6345  0.2194 -0.0949
  900MPD2    C513240   3.660   4.045  12.484  0.2291  0.5656 -0.1672
  900MPD2     H13241   3.310   4.116  12.627 -0.3037 -0.8007 -1.8377
  900MPD2    H113242   3.598   4.130  12.305  0.1688 -1.0254 -0.2464
  900MPD2    H213243   3.706   3.966  12.671  0.4002  0.4219 -0.2562
  900MPD2    H313244   3.763   4.038  12.451  0.3754 -0.1258  0.4490
  900MPD2     N13245   3.341   4.199  12.394 -0.6628  0.1389 -1.1283
  900MPD2    H513246   3.253   4.202  12.445 -0.6285 -0.5185 -1.0309
  900MPD2    N113247   3.485   3.996  12.801 -0.5747  0.1257 -0.0514
  900MPD2    H713248   3.560   3.946  12.847 -0.8041 -1.8833 -1.8840
  901MPD2     C13249   2.970   3.172  13.063 -0.1692 -0.4951 -0.7954
  901MPD2    C113250   3.108   3.154  13.057  0.3091  0.8187  0.2851
  901MPD2    C213251   3.188   3.268  13.067  0.0610  0.5292 -0.3850
  901MPD2    C313252   3.130   3.394  13.085  0.2526  0.5984  0.5949
  901MPD2    C413253   2.993   3.399  13.100  0.5623 -0.3337  0.2663
  901MPD2    C513254   2.916   3.291  13.095  0.5507 -0.7098 -0.0591
  901MPD2     H13255   3.294   3.255  13.047  0.0447  0.5799 -0.5043
  901MPD2    H113256   2.954   3.495  13.133  0.6939  0.3365 -1.5202
  901MPD2    H213257   2.902   3.089  13.046 -1.8343  0.9270 -1.0703
  901MPD2    H313258   2.812   3.303  13.122  0.7394 -2.4550  1.3592
  901MPD2     N13259   3.219   3.504  13.098  0.6763  0.4600 -0.2221
  901MPD2    H513260   3.318   3.483  13.103  0.4747  0.0887  2.2519
  901MPD2    N113261   3.164   3.027  13.018 -0.2077 -0.5637  0.0298
  901MPD2    H713262   3.098   2.957  12.985  0.1892  0.3485 -2.6985
  902MPD2     C13263   2.574   1.968  12.785 -0.2366  0.1794  0.6488
  902MPD2    C113264   2.646   2.087  12.762  0.8885 -0.4939 -0.7286
  902MPD2    C213265   2.737   2.092  12.658 -0.5072  0.2320 -0.3784
  902MPD2    C313266   2.756   1.979  12.573  0.0356 -0.6932  1.1068
  902MPD2    C413267   2.679   1.869  12.601  0.5764 -0.0726  0.0753
  902MPD2    C513268   2.603   1.857  12.711  0.2424  0.2297  0.2219
  902MPD2     H13269   2.794   2.182  12.641 -0.9625  0.5719 -0.0936
  902MPD2    H113270   2.682   1.782  12.536  0.7150  1.2042 -1.6265
  902MPD2    H213271   2.512   1.954  12.873 -0.2792 -0.1086  0.5735
  902MPD2    H313272   2.550   1.769  12.747  0.3750  0.3037  0.6015
  902MPD2     N13273   2.847   1.970  12.463  0.4711  0.5765 -0.7319
  902MPD2    H513274   2.829   1.889  12.406  0.0585  0.1917 -0.0604
  902MPD2    N113275   2.616   2.198  12.835  0.1264 -0.0539  0.2648
  902MPD2    H713276   2.675   2.278  12.815 -0.5082 -0.2088 -2.2861
  903MPD2     C13277   2.920   2.462  11.714  0.0144  0.1085  0.0973
  903MPD2    C113278   2.863   2.409  11.826  0.4309 -0.1071 -0.8940
  903MPD2    C213279   2.724   2.437  11.850 -0.0443  0.9392 -0.8047
  903MPD2    C313280   2.646   2.509  11.765  0.8516  0.2533 -0.4187
  903MPD2    C413281   2.708   2.565  11.651  0.6524  0.3006 -0.0454
  903MPD2    C513282   2.842   2.546  11.627 -0.0526  1.0321  0.3788
  903MPD2     H13283   2.675   2.404  11.941  2.3138  2.6917  1.1305
  903MPD2    H113284   2.662   2.633  11.580 -1.9343 -0.2787  1.0670
  903MPD2    H213285   3.027   2.451  11.699  0.0825  3.0172 -1.6186
  903MPD2    H313286   2.886   2.603  11.547 -0.7817 -0.7314 -1.3009
  903MPD2     N13287   2.512   2.537  11.792  0.1718 -0.0446 -0.2470
  903MPD2    H513288   2.480   2.502  11.882  1.7153  2.1686  1.1592
  903MPD2    N113289   2.944   2.329  11.909  0.5030  0.0879 -0.0177
  903MPD2    H713290   3.029   2.284  11.876 -0.2811 -1.1804 -0.3033
  904MPD2     C13291   2.382   1.077  14.026  0.2542 -0.3234  0.8612
  904MPD2    C113292   2.397   1.085  14.164 -0.1545  0.0884 -0.0194
  904MPD2    C213293   2.523   1.099  14.221  0.4761  0.1458  0.1465
  904MPD2    C313294   2.636   1.104  14.137  0.2057 -0.0321  0.0965
  904MPD2    C413295   2.622   1.118  14.001 -0.3158 -0.0890 -0.1505
  904MPD2    C513296   2.495   1.097  13.947 -0.4355  0.3561  0.4831
  904MPD2     H13297   2.535   1.105  14.329  1.0360  1.2679  0.0259
  904MPD2    H113298   2.699   1.150  13.932  1.3580 -0.0330  1.7518
  904MPD2    H213299   2.290   1.065  13.970 -0.2071  1.5371  1.2337
  904MPD2    H313300   2.474   1.112  13.842  1.6090  1.2480  0.1968
  904MPD2     N13301   2.757   1.109  14.198 -0.8994 -0.5406  0.4066
  904MPD2    H513302   2.754   1.101  14.299 -0.5746 -0.3422  0.4335
  904MPD2    N113303   2.284   1.093  14.252  0.6234  0.2537 -0.5213
  904MPD2    H713304   2.292   1.052  14.345  0.1494  2.2165  0.3998
  905MPD2     C13305   1.983   0.812  13.788  0.2691  0.1147  0.1480
  905MPD2    C113306   2.078   0.913  13.773 -0.4115  0.0703 -0.4162
  905MPD2    C213307   2.197   0.882  13.725  0.2353  0.7388  0.1474
  905MPD2    C313308   2.233   0.751  13.686  0.2180 -0.3536 -0.3897
  905MPD2    C413309   2.137   0.651  13.707 -0.7427  0.4499  0.1463
  905MPD2    C513310   2.019   0.683  13.762 -0.5321  0.3879  0.1820
  905MPD2     H13311   2.272   0.959  13.712 -1.0971  2.0114 -0.0066
  905MPD2    H113312   2.157   0.547  13.680  0.2094  0.7087 -0.1515
  905MPD2    H213313   1.884   0.828  13.827 -0.0469 -0.7941 -0.2847
  905MPD2    H313314   1.944   0.605  13.770  1.1620 -1.2504  0.3674
  905MPD2     N13315   2.358   0.718  13.631 -0.1109 -0.3001  0.3348
  905MPD2    H513316   2.378   0.620  13.618 -0.0476 -0.5674  2.4167
  905MPD2    N113317   2.049   1.041  13.819 -0.1514  0.3929 -0.1610
  905MPD2    H713318   1.964   1.046  13.874  0.8873 -0.7450  1.5787
  906MPD2     C13319   0.082   1.796  11.747  0.2017  0.2568  1.2280
  906MPD2    C113320   0.015   1.763  11.629 -1.0371  0.5655  0.5147
  906MPD2    C213321   4.680   1.641  11.627 -0.4970  0.2419 -1.1067
  906MPD2    C313322   4.682   1.557  11.735  0.9088 -0.8768 -0.5158
  906MPD2    C413323   0.017   1.591  11.844 -0.3090 -0.0319  0.3820
  906MPD2    C513324   0.089   1.704  11.850 -0.1060  0.2840 -0.3768
  906MPD2     H13325   4.622   1.616  11.539 -0.3304  1.1008 -1.4576
  906MPD2    H113326   0.020   1.516  11.923  0.7301  0.9242  1.2557
  906MPD2    H213327   0.143   1.885  11.758 -0.9505  1.1693  0.2113
  906MPD2    H313328   0.137   1.734  11.942  0.7056 -0.0479 -0.6971
  906MPD2     N13329   4.611   1.432  11.741  0.2431 -0.1642 -0.0813
  906MPD2    H513330   4.626   1.378  11.826  0.2310 -1.3382 -0.8201
  906MPD2    N113331   0.015   1.839  11.512 -0.4685 -0.3706 -0.5194
  906MPD2    H713332   4.686   1.799  11.442 -2.5745  1.7319  0.1750
  907MPD2     C13333   2.835   0.319  15.326 -0.0921 -0.1642  0.2057
  907MPD2    C113334   2.926   0.215  15.329 -0.5975  0.1304  0.1872
  907MPD2    C213335   2.985   0.190  15.450  0.0303 -0.2700 -0.0070
  907MPD2    C313336   2.962   0.273  15.562  1.2495  0.1678  0.0132
  907MPD2    C413337   2.877   0.381  15.546 -0.0259 -0.6971 -0.7134
  907MPD2    C513338   2.811   0.400  15.430  0.6871  0.6986 -0.1930
  907MPD2     H13339   3.061   0.112  15.459  1.7460  1.4514  0.4458
  907MPD2    H113340   2.848   0.450  15.625  2.1950  0.4160 -0.8663
  907MPD2    H213341   2.783   0.348  15.235 -1.5751  1.4209  1.5566
  907MPD2    H313342   2.741   0.483  15.419  0.2645  0.6059  1.8058
  907MPD2     N13343   3.043   0.252  15.675 -0.8866 -0.3801  1.0548
  907MPD2    H513344   3.115   0.182  15.661 -0.4317  0.0926  1.0270
  907MPD2    N113345   2.951   0.131  15.216 -0.3245  0.5515 -1.0675
  907MPD2    H713346   2.904   0.161  15.131 -1.8265 -0.4720 -0.5910
  908MPD2     C13347   0.979   1.346  10.056  0.3640  0.2572 -0.4178
  908MPD2    C113348   1.095   1.286  10.114 -0.6633 -0.1439  0.7828
  908MPD2    C213349   1.178   1.375  10.180 -0.2118  0.2623  0.0749
  908MPD2    C313350   1.153   1.509  10.184  0.1729  0.2109  0.2141
  908MPD2    C413351   1.047   1.562  10.113 -0.4451 -0.4414 -0.3189
  908MPD2    C513352   0.953   1.479  10.060  0.1660 -0.0187 -0.2028
  908MPD2     H13353   1.265   1.340  10.235  0.3319  1.6327  0.0893
  908MPD2    H113354   1.013   1.664  10.100 -0.3681 -0.4118 -0.2881
  908MPD2    H213355   0.908   1.291   9.996 -0.5750  1.0751 -0.0582
  908MPD2    H313356   0.862   1.515  10.012 -0.6280 -2.4043 -0.5089
  908MPD2     N13357   1.241   1.589  10.262  0.4275 -0.2633 -0.4509
  908MPD2    H513358   1.316   1.541  10.310 -0.0821 -0.6893 -0.0819
  908MPD2    N113359   1.117   1.150  10.096 -0.0778  0.2015  0.2866
  908MPD2    H713360   1.039   1.091  10.068 -0.6510  0.4328  1.4062
  909MPD2     C13361   1.437   3.839  11.890 -0.3470 -0.2764  0.1164
  909MPD2    C113362   1.456   3.970  11.864 -0.1187  0.7862  0.2060
  909MPD2    C213363   1.429   4.061  11.965  0.6089  0.7061 -0.4482
  909MPD2    C313364   1.362   4.023  12.079  0.0961 -0.3757 -0.2887
  909MPD2    C413365   1.324   3.892  12.101  0.7049  0.0562 -0.2785
  909MPD2    C513366   1.372   3.803  12.007 -0.3529 -0.1863  0.2734
  909MPD2     H13367   1.461   4.163  11.948 -0.1494  1.2087  1.1107
  909MPD2    H113368   1.269   3.851  12.185  1.7193 -2.7046 -0.9872
  909MPD2    H213369   1.483   3.759  11.832 -2.0092 -1.4381  0.3844
  909MPD2    H313370   1.341   3.700  12.022  1.1506 -0.7557 -0.5875
  909MPD2     N13371   1.356   4.120  12.183  0.3406 -0.0825 -0.2858
  909MPD2    H513372   1.356   4.219  12.161 -1.1686  0.4924  2.2499
  909MPD2    N113373   1.531   4.018  11.749  0.5973 -0.3983  0.4160
  909MPD2    H713374   1.552   4.116  11.742 -0.6062 -0.0614  1.4423
  910MPD2     C13375   2.293   0.740  16.099 -1.1479  0.1287 -0.2685
  910MPD2    C113376   2.417   0.719  16.038  0.6257  0.0405  0.5169
  910MPD2    C213377   2.445   0.784  15.923  0.3132  0.0285 -0.6239
  910MPD2    C313378   2.355   0.873  15.872 -0.9424 -0.1120 -0.4097
  910MPD2    C413379   2.234   0.888  15.932  0.0966  0.5513  0.0144
  910MPD2    C513380   2.212   0.834  16.050  0.1672  0.1140  1.4432
  910MPD2     H13381   2.544   0.784  15.879  0.7005 -0.5735  0.2403
  910MPD2    H113382   2.164   0.961  15.893  2.1506  1.3078 -2.2321
  910MPD2    H213383   2.269   0.685  16.190 -1.1412  2.2137  0.9986
  910MPD2    H313384   2.130   0.861  16.116 -0.6609 -1.8376  1.2282
  910MPD2     N13385   2.377   0.945  15.759 -0.7913 -0.6507 -0.1482
  910MPD2    H513386   2.292   0.994  15.730  0.8804  1.6458 -1.2232
  910MPD2    N113387   2.516   0.642  16.108 -0.0458 -1.3549 -0.1529
  910MPD2    H713388   2.592   0.610  16.049  0.1107  2.3915 -2.0039
  911MPD2     C13389   0.364   1.423  16.024  0.7123 -0.2804 -0.5299
  911MPD2    C113390   0.427   1.459  16.143  1.0580  0.4606 -0.6363
  911MPD2    C213391   0.450   1.593  16.176  0.2464 -1.1746  0.3598
  911MPD2    C313392   0.404   1.693  16.091 -0.1166 -0.2498 -0.1020
  911MPD2    C413393   0.341   1.657  15.972  0.1692  0.3952 -0.7349
  911MPD2    C513394   0.322   1.522  15.942  0.5400  0.1561  0.0987
  911MPD2     H13395   0.493   1.613  16.274 -1.2870 -1.3596  1.0628
  911MPD2    H113396   0.289   1.726  15.907 -0.0390  1.0277  0.1096
  911MPD2    H213397   0.346   1.321  15.995  0.0824 -0.8220  1.7065
  911MPD2    H313398   0.264   1.501  15.853  0.4501  0.9058 -0.0155
  911MPD2     N13399   0.403   1.836  16.121  0.2824 -0.0768 -0.8264
  911MPD2    H513400   0.366   1.896  16.048 -0.2362  0.5724 -0.0195
  911MPD2    N113401   0.480   1.344  16.219 -0.8145 -0.6171 -0.0541
  911MPD2    H713402   0.498   1.256  16.171 -1.0277 -1.8689  2.1509
  912MPD2     C13403   0.004   1.875  15.762  0.2651  0.0373 -0.1671
  912MPD2    C113404   0.047   1.884  15.892 -0.0487 -0.0433 -0.1653
  912MPD2    C213405   0.008   1.778  15.978  0.2206 -0.1688 -0.2560
  912MPD2    C313406   4.671   1.670  15.932  0.2180 -0.2418  0.9199
  912MPD2    C413407   4.617   1.670  15.805  0.0137 -0.0209  0.0624
  912MPD2    C513408   4.659   1.770  15.722  0.4518 -0.1665 -0.1260
  912MPD2     H13409   0.057   1.780  16.075 -0.4333 -0.7983  0.0874
  912MPD2    H113410   4.540   1.601  15.774  1.4054 -1.6235  0.1714
  912MPD2    H213411   0.009   1.956  15.689  2.5115  0.0307  0.0044
  912MPD2    H313412   4.613   1.783  15.625 -0.2931 -0.6397  0.1679
  912MPD2     N13413   4.651   1.568  16.029 -0.1946  0.0182 -0.6045
  912MPD2    H513414   4.712   1.571  16.110  0.8902 -3.2810 -1.2754
  912MPD2    N113415   0.103   2.003  15.937 -0.2716 -0.6918 -0.2697
  912MPD2    H713416   0.126   2.073  15.867 -0.3443  0.2912  0.6937
  913MPD2     C13417   0.795   2.592  10.697 -0.1573  0.3000  0.0763
  913MPD2    C113418   0.815   2.693  10.787  0.6893  1.0011 -0.3754
  913MPD2    C213419   0.788   2.827  10.749 -0.2221  0.4130  0.1789
  913MPD2    C313420   0.730   2.850  10.624 -1.2153  0.1010 -0.7504
  913MPD2    C413421   0.711   2.742  10.533  0.0384  0.6948 -0.0452
  913MPD2    C513422   0.738   2.617  10.576  0.3033  0.5205  0.3497
  913MPD2     H13423   0.798   2.903  10.826 -0.3519 -0.1801  0.7816
  913MPD2    H113424   0.661   2.744  10.437 -0.9001  0.3272  0.4364
  913MPD2    H213425   0.807   2.491  10.733 -0.1002 -0.9151 -3.3694
  913MPD2    H313426   0.728   2.538  10.502  0.2777  0.8013  0.0558
  913MPD2     N13427   0.697   2.981  10.584 -0.6508  0.6084 -0.2867
  913MPD2    H513428   0.732   3.054  10.645  0.0058  0.8971 -1.0254
  913MPD2    N113429   0.860   2.657  10.909  0.2352 -0.0848 -0.1163
  913MPD2    H713430   0.868   2.557  10.919  1.4034  0.0929  0.6435
  914MPD2     C13431   3.188   3.131  12.297 -0.2679  0.2870 -0.4490
  914MPD2    C113432   3.192   3.193  12.422  1.0860  0.5900  0.6612
  914MPD2    C213433   3.236   3.112  12.525  0.0764  0.3524  0.0728
  914MPD2    C313434   3.251   2.978  12.508  0.2792  0.0643 -0.7514
  914MPD2    C413435   3.240   2.916  12.392  0.3101 -0.0778  0.1143
  914MPD2    C513436   3.211   2.998  12.287 -0.4550 -0.0654 -0.0321
  914MPD2     H13437   3.266   3.150  12.622 -2.3923  2.0928  0.1379
  914MPD2    H113438   3.258   2.810  12.381 -2.3188 -0.5103  0.1170
  914MPD2    H213439   3.157   3.192  12.213 -1.0977  1.5495  0.7675
  914MPD2    H313440   3.198   2.955  12.189  0.1540 -0.8921  0.2493
  914MPD2     N13441   3.294   2.908  12.624 -0.6244 -0.1400  0.0278
  914MPD2    H513442   3.299   2.957  12.713 -0.0459  1.6557 -0.9900
  914MPD2    N113443   3.182   3.329  12.425 -0.6882 -0.1638  0.9082
  914MPD2    H713444   3.185   3.376  12.336  1.7332 -1.4960  0.2885
  915MPD2     C13445   1.775   2.653  15.981  0.3830 -1.1282 -0.0841
  915MPD2    C113446   1.641   2.614  15.982 -0.0949  0.0638 -0.3710
  915MPD2    C213447   1.569   2.635  16.101 -0.4215  0.1631 -0.5070
  915MPD2    C313448   1.622   2.703  16.214 -1.0792 -0.1643 -0.0185
  915MPD2    C413449   1.759   2.733  16.205 -0.1003  0.7927 -0.1247
  915MPD2    C513450   1.830   2.699  16.094 -0.2179  0.0440 -0.4696
  915MPD2     H13451   1.464   2.607  16.099 -0.3154 -0.3678  1.7167
  915MPD2    H113452   1.809   2.790  16.283  2.3239  1.1654 -1.9461
  915MPD2    H213453   1.839   2.634  15.895 -0.3561  2.2581 -1.3785
  915MPD2    H313454   1.934   2.728  16.086  0.0994 -1.5307 -2.2325
  915MPD2     N13455   1.542   2.737  16.321 -0.2784  0.0257  0.5985
  915MPD2    H513456   1.445   2.710  16.307 -0.3324 -0.2642  1.5027
  915MPD2    N113457   1.588   2.581  15.855 -0.1389  0.1730  0.5739
  915MPD2    H713458   1.660   2.576  15.783 -0.8319  2.1742 -0.2620
  916MPD2     C13459   4.032   1.173  15.794 -0.1362  0.1749  0.3883
  916MPD2    C113460   4.086   1.108  15.898  0.1035  0.2305 -0.0661
  916MPD2    C213461   4.208   1.038  15.887 -0.0370  0.1455  0.0263
  916MPD2    C313462   4.273   1.041  15.767 -0.0851  0.1162  0.1623
  916MPD2    C413463   4.217   1.103  15.659 -0.0884 -0.2062  0.7474
  916MPD2    C513464   4.099   1.168  15.672  0.2733 -0.3878  0.2110
  916MPD2     H13465   4.252   0.974  15.962 -0.1338 -1.1199 -0.9988
  916MPD2    H113466   4.270   1.109  15.565 -2.8497 -1.8499 -0.9288
  916MPD2    H213467   3.941   1.233  15.799  0.8017  1.6369  0.1267
  916MPD2    H313468   4.066   1.234  15.592 -0.2282 -0.7496  0.1170
  916MPD2     N13469   4.400   0.980  15.767 -0.5921 -0.5248 -0.2706
  916MPD2    H513470   4.418   0.922  15.849  0.2251  0.2268  0.0759
  916MPD2    N113471   4.013   1.113  16.013  0.1986  0.3087  0.6526
  916MPD2    H713472   3.958   1.198  16.020  0.9970  0.8865 -0.1905
  917MPD2     C13473   0.572   3.394  12.005 -0.3791 -0.3365  0.0895
  917MPD2    C113474   0.486   3.499  12.033  0.5497 -0.0231  0.5240
  917MPD2    C213475   0.528   3.634  12.002  0.2798 -0.5227 -0.3608
  917MPD2    C313476   0.654   3.653  11.954  0.1842  0.2252  0.1006
  917MPD2    C413477   0.732   3.550  11.942 -0.7430  0.3897 -0.5252
  917MPD2    C513478   0.698   3.424  11.967  0.3134  0.5766  0.0890
  917MPD2     H13479   0.460   3.718  12.010 -0.3986 -1.3433  2.4821
  917MPD2    H113480   0.833   3.569  11.908 -0.5885 -2.0844 -1.4864
  917MPD2    H213481   0.549   3.290  12.025 -0.4455  0.2817  3.1860
  917MPD2    H313482   0.763   3.341  11.945  0.9262  1.2030 -0.4936
  917MPD2     N13483   0.705   3.784  11.919  0.2086 -0.4827 -0.3994
  917MPD2    H513484   0.795   3.780  11.871 -0.3913 -1.4993 -1.4452
  917MPD2    N113485   0.362   3.467  12.104 -0.2009  0.0781 -0.3498
  917MPD2    H713486   0.341   3.369  12.119  2.1513 -0.3069  0.4674
  918MPD2     C13487   0.158   4.213  12.350 -0.1410  0.4531 -0.0793
  918MPD2    C113488   0.237   4.147  12.435  0.1296  0.7935 -0.3361
  918MPD2    C213489   0.215   4.019  12.469 -0.3134 -0.1308 -0.2122
  918MPD2    C313490   0.102   3.953  12.431  0.1816  0.0158 -0.5922
  918MPD2    C413491   0.007   4.026  12.356 -0.4502 -0.0472 -0.2503
  918MPD2    C513492   0.040   4.153  12.313 -0.1820  0.1973  0.5105
  918MPD2     H13493   0.285   3.970  12.536 -0.6417  0.7492  0.7818
  918MPD2    H113494   4.646   3.983  12.326  0.1958 -1.4256 -0.3510
  918MPD2    H213495   0.153   4.320  12.334 -0.2090  0.3729 -0.6105
  918MPD2    H313496   4.691   4.209  12.271  0.1487  0.8543  0.7313
  918MPD2     N13497   0.092   3.821  12.477  0.1206 -0.8761  0.9219
  918MPD2    H513498   0.176   3.793  12.526  1.5916 -0.4650 -1.3817
  918MPD2    N113499   0.352   4.204  12.499 -0.5013 -0.3580  0.4656
  918MPD2    H713500   0.373   4.151  12.583 -1.2683  2.0283  2.1302
  919MPD2     C13501   0.544   3.106  11.691 -0.0865  0.0868  0.3295
  919MPD2    C113502   0.565   2.974  11.659  0.2656  0.2213 -0.4152
  919MPD2    C213503   0.568   2.943  11.522 -0.1260  0.1977  0.2664
  919MPD2    C313504   0.560   3.041  11.430 -0.1401  0.4852 -0.3905
  919MPD2    C413505   0.549   3.174  11.468  0.1154  0.3578 -0.5230
  919MPD2    C513506   0.530   3.204  11.600 -0.3283 -0.2850  0.1812
  919MPD2     H13507   0.597   2.840  11.502 -1.8569 -0.0614 -0.8633
  919MPD2    H113508   0.534   3.254  11.396  0.7497 -1.9156 -3.2083
  919MPD2    H213509   0.546   3.138  11.794  1.7065 -0.6269  0.5334
  919MPD2    H313510   0.519   3.305  11.636 -0.8060 -0.6112  0.9429
  919MPD2     N13511   0.555   3.018  11.291 -0.3478 -0.5329  0.4441
  919MPD2    H513512   0.558   3.106  11.240 -0.1208 -1.2114 -0.7099
  919MPD2    N113513   0.577   2.867  11.753  0.1929  0.9479 -0.8864
  919MPD2    H713514   0.588   2.774  11.714  3.3461  1.3174 -0.8736
  920MPD2     C13515   0.281   3.538  10.498  0.5556  0.0971 -0.4562
  920MPD2    C113516   0.208   3.422  10.472 -0.4931 -0.4370 -0.2331
  920MPD2    C213517   0.238   3.309  10.546 -0.2745 -0.6543  0.6619
  920MPD2    C313518   0.323   3.311  10.656  0.5039 -0.2883  0.3098
  920MPD2    C413519   0.387   3.429  10.678 -0.8599 -0.2494 -0.6698
  920MPD2    C513520   0.367   3.536  10.599  0.4129  0.5777  1.1151
  920MPD2     H13521   0.182   3.219  10.522  0.4182 -0.9737  0.2517
  920MPD2    H113522   0.459   3.433  10.759 -1.4066  0.8966 -0.2314
  920MPD2    H213523   0.266   3.626  10.437 -0.3494 -0.3416 -0.8748
  920MPD2    H313524   0.428   3.623  10.618  0.5008  0.4216  1.5349
  920MPD2     N13525   0.345   3.194  10.731  0.1954  0.3813  0.1189
  920MPD2    H513526   0.294   3.114  10.695  2.0456 -0.6488 -0.2092
  920MPD2    N113527   0.120   3.395  10.363  0.1060 -0.4340 -0.5426
  920MPD2    H713528   0.089   3.300  10.347  0.4377 -0.7494  0.6919
  921MPD2     C13529   1.159   1.368  16.928  0.2032  0.0608 -0.4747
  921MPD2    C113530   1.172   1.344  16.794 -0.7036 -0.1170 -0.4919
  921MPD2    C213531   1.057   1.307  16.722 -0.8832  0.4832  0.5817
  921MPD2    C313532   0.934   1.277  16.783  0.1882 -0.0999 -0.4569
  921MPD2    C413533   0.926   1.285  16.925  0.4791 -0.0283 -0.4457
  921MPD2    C513534   1.034   1.338  16.990 -0.1115  0.0405  0.6427
  921MPD2     H13535   1.060   1.293  16.615 -0.5414 -0.1013  0.6692
  921MPD2    H113536   0.843   1.261  16.991  1.1793 -2.7234 -0.5390
  921MPD2    H213537   1.247   1.403  16.981 -0.4645  1.1336 -0.0703
  921MPD2    H313538   1.026   1.351  17.097  2.7834 -0.3577  0.9269
  921MPD2     N13539   0.827   1.226  16.712  0.3973  0.3266  0.9203
  921MPD2    H513540   0.740   1.203  16.759  0.7033 -0.6824  0.9905
  921MPD2    N113541   1.300   1.356  16.742  0.4264  0.2692 -0.3028
  921MPD2    H713542   1.381   1.378  16.798  1.7405 -2.4443 -1.1139
  922MPD2     C13543   2.274   3.965  17.028  0.5212  0.6080 -0.3386
  922MPD2    C113544   2.194   4.074  17.060  0.2142 -0.6366 -0.5053
  922MPD2    C213545   2.089   4.056  17.158 -0.5746 -0.0865  0.0007
  922MPD2    C313546   2.066   3.928  17.209 -0.3180  0.9776 -0.0291
  922MPD2    C413547   2.141   3.817  17.174 -0.2087  0.1551 -0.6733
  922MPD2    C513548   2.243   3.840  17.082  0.4990  1.3431  0.0326
  922MPD2     H13549   2.035   4.141  17.199 -1.6921 -0.6194 -0.3441
  922MPD2    H113550   2.119   3.714  17.201 -2.1025  0.0940 -2.4632
  922MPD2    H213551   2.361   3.968  16.962  0.8050 -1.8205 -0.0968
  922MPD2    H313552   2.309   3.765  17.040 -1.2952  0.3606 -1.0501
  922MPD2     N13553   1.957   3.904  17.299 -0.0740 -0.1759 -0.4238
  922MPD2    H513554   1.896   3.982  17.318 -1.5361 -1.2608 -0.6948
  922MPD2    N113555   2.227   4.207  17.029 -0.3733  0.5886 -0.3789
  922MPD2    H713556   2.165   4.275  17.073 -2.8830 -1.8019 -0.2438
  923MPD2     C13557   0.276   1.727   9.718  0.6615 -0.7532  0.0108
  923MPD2    C113558   0.181   1.824   9.726 -0.2026 -1.1328  0.2418
  923MPD2    C213559   0.163   1.892   9.848 -0.4064  0.0965 -0.0907
  923MPD2    C313560   0.245   1.880   9.959  0.3040 -0.4056  0.2394
  923MPD2    C413561   0.332   1.774   9.943  0.2769  0.0771 -0.1654
  923MPD2    C513562   0.344   1.701   9.828  0.2746  0.0478 -0.7332
  923MPD2     H13563   0.078   1.959   9.859 -1.2260 -1.6625  4.1847
  923MPD2    H113564   0.401   1.745  10.021 -1.0877 -0.7393  0.7167
  923MPD2    H213565   0.287   1.664   9.631 -1.6160  1.1341 -1.6503
  923MPD2    H313566   0.408   1.614   9.831 -0.7786 -0.6476  2.5220
  923MPD2     N13567   0.220   1.936  10.087  0.2382 -0.3834 -0.2030
  923MPD2    H513568   0.277   1.906  10.166  0.0559 -0.2854 -0.0344
  923MPD2    N113569   0.103   1.845   9.612  0.0668  0.3375 -0.2057
  923MPD2    H713570   0.112   1.770   9.546  0.2716  0.3196 -0.1555
  924MPD2     C13571   3.565   4.337  15.748  0.3305  0.5359 -0.8905
  924MPD2    C113572   3.601   4.403  15.865  1.1051 -0.2011 -0.8427
  924MPD2    C213573   3.559   4.530  15.887  0.3516  0.1836 -0.0281
  924MPD2    C313574   3.483   4.600  15.791 -0.0257  0.2966  0.2006
  924MPD2    C413575   3.467   4.541  15.675  0.7186 -0.0021 -0.0230
  924MPD2    C513576   3.511   4.413  15.651 -0.1657  0.0751 -0.2054
  924MPD2     H13577   3.595   4.570  15.982 -1.0815 -1.0108  1.0212
  924MPD2    H113578   3.417   4.599  15.598  0.9631 -0.2947 -0.4030
  924MPD2    H213579   3.605   4.237  15.736 -0.7285  0.0855 -0.6380
  924MPD2    H313580   3.505   4.368  15.553 -1.3617 -2.3886  0.9868
  924MPD2     N13581   3.432   4.731  15.805 -0.0203  0.1458 -0.0249
  924MPD2    H513582   3.394   0.037  15.720  0.3552  3.0906  1.2000
  924MPD2    N113583   3.652   4.325  15.976 -0.4365 -0.3375  0.2185
  924MPD2    H713584   3.639   4.225  15.963 -1.5129 -0.1174 -0.4113
  925MPD2     C13585   2.059   2.373  14.784 -0.4346  0.6973  0.7187
  925MPD2    C113586   2.179   2.302  14.773 -0.9351  0.4422 -0.5215
  925MPD2    C213587   2.252   2.268  14.886  0.5346  0.2592  0.2425
  925MPD2    C313588   2.198   2.304  15.010 -0.4315  0.4794 -0.2340
  925MPD2    C413589   2.094   2.397  15.014  0.1239 -0.1863  0.1394
  925MPD2    C513590   2.014   2.417  14.907 -0.5769 -0.2496  0.0359
  925MPD2     H13591   2.338   2.202  14.880  1.0527  0.9241  0.3626
  925MPD2    H113592   2.057   2.449  15.101  0.4274  2.4219 -1.2889
  925MPD2    H213593   2.010   2.404  14.692  0.1797 -0.6453 -0.0676
  925MPD2    H313594   1.933   2.487  14.920  0.9068  1.1358  1.8147
  925MPD2     N13595   2.275   2.274  15.129 -0.2842  0.5257 -0.5030
  925MPD2    H513596   2.368   2.235  15.116 -0.0539  0.6773  0.7133
  925MPD2    N113597   2.208   2.267  14.643  0.0921  0.3281  1.1319
  925MPD2    H713598   2.131   2.293  14.582  0.2627 -1.2695  0.2090
  926MPD2     C13599   0.819   0.690  13.954  0.2240  0.0026 -0.3678
  926MPD2    C113600   0.771   0.803  13.889  0.7697 -0.5204  0.5131
  926MPD2    C213601   0.847   0.849  13.789 -0.0451  0.7983 -0.3640
  926MPD2    C313602   0.961   0.787  13.736  0.3939 -0.5026 -0.7490
  926MPD2    C413603   1.005   0.676  13.800  0.5906 -0.4072 -0.3946
  926MPD2    C513604   0.940   0.635  13.913  0.8298 -0.3259 -0.1655
  926MPD2     H13605   0.819   0.945  13.747  0.4721  0.4582 -1.4582
  926MPD2    H113606   1.092   0.620  13.769 -1.7828 -2.8755 -2.6236
  926MPD2    H213607   0.765   0.643  14.036 -3.5195 -0.3844 -3.0160
  926MPD2    H313608   0.979   0.563  13.984  0.4094 -1.3780 -1.0050
  926MPD2     N13609   1.039   0.834  13.631 -0.1706 -0.0788  0.3814
  926MPD2    H513610   1.125   0.782  13.622 -0.5660 -0.5514 -0.6073
  926MPD2    N113611   0.647   0.863  13.924 -0.2169 -0.0799  0.0229
  926MPD2    H713612   0.621   0.939  13.862  0.0995  1.4614  1.7913
  927MPD2     C13613   0.944   2.814   0.364 -0.3581  0.4646 -0.0896
  927MPD2    C113614   0.830   2.871   0.301 -0.3145 -0.1607  0.2663
  927MPD2    C213615   0.840   2.932   0.182 -0.7602  0.0836 -0.2549
  927MPD2    C313616   0.967   2.951   0.125  0.6574 -0.4817 -1.7494
  927MPD2    C413617   1.080   2.895   0.181  0.0077  0.0753  0.6956
  927MPD2    C513618   1.065   2.827   0.305  0.9482  0.5389 -0.5785
  927MPD2     H13619   0.756   2.977   0.130 -0.7502 -0.1158 -0.4420
  927MPD2    H113620   1.179   2.910   0.142  0.2767  0.6462  1.5941
  927MPD2    H213621   0.942   2.757   0.456 -1.3695 -2.3158 -1.8155
  927MPD2    H313622   1.154   2.790   0.353  1.2163 -0.2286 -1.6660
  927MPD2     N13623   0.965   3.023  17.731  0.0645 -0.8401  0.1669
  927MPD2    H513624   0.877   3.061  17.699 -0.1768 -1.2666  0.3262
  927MPD2    N113625   0.705   2.851   0.363  0.8129  0.1440  0.1920
  927MPD2    H713626   0.705   2.780   0.436  1.0627  0.1829  0.2287
  928MPD2     C13627   2.795   1.086   0.451 -0.4636 -0.0215  0.4941
  928MPD2    C113628   2.871   1.152   0.545  0.8384  0.2987 -0.1362
  928MPD2    C213629   3.012   1.170   0.525  0.0162  0.1547  0.4025
  928MPD2    C313630   3.066   1.102   0.415 -0.1278  1.1269 -0.7504
  928MPD2    C413631   2.987   1.030   0.329  0.5428 -0.1703 -0.4538
  928MPD2    C513632   2.855   1.025   0.347  0.5365  0.5091  0.3108
  928MPD2     H13633   3.074   1.227   0.593  0.0143 -0.7043  1.1241
  928MPD2    H113634   3.035   0.988   0.242  0.0897 -1.1991 -0.2036
  928MPD2    H213635   2.689   1.082   0.473 -0.0681  1.5371  2.6599
  928MPD2    H313636   2.791   0.975   0.276  0.3300 -1.0681  1.5932
  928MPD2     N13637   3.202   1.113   0.375 -0.4928 -0.1520 -0.3299
  928MPD2    H513638   3.235   1.048   0.304  0.0940 -1.5359  1.1993
  928MPD2    N113639   2.815   1.218   0.661  0.2223 -0.3414 -0.7845
  928MPD2    H713640   2.881   1.271   0.717 -0.9061  0.9352 -0.6676
  929MPD2     C13641   3.897   1.681  10.024  0.4603  0.0276  0.0501
  929MPD2    C113642   3.843   1.599  10.114  0.1594 -0.4954  0.9268
  929MPD2    C213643   3.810   1.471  10.071  0.0255  0.4157 -0.2043
  929MPD2    C313644   3.839   1.427   9.944 -0.3844  0.4357  0.3088
  929MPD2    C413645   3.907   1.512   9.859  0.9730  0.3046  0.0010
  929MPD2    C513646   3.936   1.634   9.901 -0.5594 -0.0411 -0.2032
  929MPD2     H13647   3.786   1.404  10.153  0.7410  1.2563  0.6905
  929MPD2    H113648   3.941   1.482   9.760  0.6751 -2.7286  0.8169
  929MPD2    H213649   3.917   1.785  10.044  1.8869 -0.3017  0.3585
  929MPD2    H313650   3.982   1.704   9.832 -1.3739 -0.2814 -0.9884
  929MPD2     N13651   3.835   1.291   9.910  0.1158 -0.1463 -0.4061
  929MPD2    H513652   3.884   1.272   9.824  2.4375  1.5214  0.5345
  929MPD2    N113653   3.810   1.653  10.237  0.1560  0.2442  0.6700
  929MPD2    H713654   3.833   1.751  10.249 -1.1066  0.5471  0.6189
  930MPD2     C13655   0.229   3.290  14.157 -0.0398 -0.1219 -0.3119
  930MPD2    C113656   0.358   3.312  14.169 -0.3574 -0.2232  0.4204
  930MPD2    C213657   0.441   3.279  14.057 -0.0781  0.4668  0.3586
  930MPD2    C313658   0.386   3.260  13.933  0.2420 -0.0660  0.1170
  930MPD2    C413659   0.246   3.258  13.924  0.7099  0.1186 -0.5211
  930MPD2    C513660   0.170   3.271  14.038  0.0851  1.1154  0.2776
  930MPD2     H13661   0.548   3.293  14.065  0.1288 -1.3509  0.6922
  930MPD2    H113662   0.198   3.251  13.827  2.3413 -0.8205 -1.2581
  930MPD2    H213663   0.166   3.307  14.244 -0.3490  0.2828 -0.6134
  930MPD2    H313664   0.063   3.261  14.025  0.3697 -2.6767  0.7451
  930MPD2     N13665   0.457   3.262  13.812 -0.3970  0.0108 -0.3186
  930MPD2    H513666   0.396   3.257  13.731 -0.6376  0.8522 -0.1762
  930MPD2    N113667   0.408   3.342  14.299 -0.1387 -0.4494  0.0465
  930MPD2    H713668   0.332   3.348  14.367 -2.0196  3.4095 -2.3844
  931MPD2     C13669   0.735   2.576   0.860  0.3576  0.5468  0.2853
  931MPD2    C113670   0.603   2.609   0.864  0.6206 -0.3077  0.7962
  931MPD2    C213671   0.520   2.542   0.959  0.8238 -0.0484 -0.0937
  931MPD2    C313672   0.585   2.440   1.037 -0.6272  0.0827 -0.3014
  931MPD2    C413673   0.719   2.402   1.025 -0.2353  0.0762 -0.3405
  931MPD2    C513674   0.791   2.478   0.936  0.2951 -0.9631 -0.0426
  931MPD2     H13675   0.413   2.556   0.969  0.7502  1.5881 -3.1175
  931MPD2    H113676   0.772   2.329   1.085 -1.6306  0.0416  0.8487
  931MPD2    H213677   0.807   2.631   0.800 -0.7248  1.6453 -0.0265
  931MPD2    H313678   0.899   2.465   0.945  0.0908 -2.3490  0.3885
  931MPD2     N13679   0.520   2.366   1.136 -0.5814  0.0805 -0.4968
  931MPD2    H513680   0.568   2.288   1.179  0.2370  2.6305  3.2207
  931MPD2    N113681   0.557   2.705   0.774 -0.4987  0.1192 -0.2846
  931MPD2    H713682   0.629   2.746   0.717  1.0360  0.6744  2.0486
  932MPD2     C13683   2.050   2.470  10.997  0.2563  0.6191  0.5245
  932MPD2    C113684   2.187   2.450  10.989  0.0153  0.5972  0.3354
  932MPD2    C213685   2.233   2.320  11.015  0.6186 -0.1232  0.0228
  932MPD2    C313686   2.151   2.212  11.046 -0.2412  0.1956  0.5237
  932MPD2    C413687   2.015   2.237  11.024  1.0047 -0.3141  0.5848
  932MPD2    C513688   1.968   2.363  11.008 -0.0677 -0.7496 -0.2201
  932MPD2     H13689   2.340   2.307  11.024  0.7853  1.5004  0.4646
  932MPD2    H113690   1.941   2.159  11.042  0.8364  0.0942  1.6956
  932MPD2    H213691   2.009   2.567  10.973  1.0152 -0.2036 -4.1304
  932MPD2    H313692   1.861   2.382  11.007 -0.0347 -0.4605  1.1750
  932MPD2     N13693   2.183   2.091  11.108  0.1033 -0.1201 -0.5325
  932MPD2    H513694   2.107   2.026  11.129  0.6018 -0.9561 -1.3168
  932MPD2    N113695   2.284   2.552  10.960 -0.1425 -0.2920  0.0115
  932MPD2    H713696   2.378   2.518  10.939  0.1874  0.2569  0.5993
  933MPD2     C13697   2.268   1.817   0.889  0.1328 -0.1286 -0.0139
  933MPD2    C113698   2.381   1.804   0.814 -0.4861 -0.0303  1.1318
  933MPD2    C213699   2.421   1.902   0.724  0.7671 -0.2400 -1.1059
  933MPD2    C313700   2.354   2.026   0.719  0.7328 -0.6227 -0.5241
  933MPD2    C413701   2.244   2.041   0.798  0.1290  0.2559  0.0701
  933MPD2    C513702   2.196   1.938   0.886  0.4841  0.2777  0.5669
  933MPD2     H13703   2.506   1.881   0.661  0.2425 -1.2414 -1.4725
  933MPD2    H113704   2.194   2.136   0.788  0.9646  0.6367 -0.5115
  933MPD2    H213705   2.226   1.737   0.949  0.2108 -0.3733 -0.2891
  933MPD2    H313706   2.110   1.950   0.950  0.2200 -0.7726  0.4162
  933MPD2     N13707   2.406   2.119   0.630 -1.2049 -0.7791  0.4930
  933MPD2    H513708   2.498   2.108   0.590 -1.9244  0.1508 -1.4060
  933MPD2    N113709   2.453   1.688   0.822 -0.5388  0.4049 -0.0145
  933MPD2    H713710   2.526   1.665   0.756 -0.0012  0.8695  0.4147
  934MPD2     C13711   3.262   2.883   1.801 -0.1586  0.4862 -0.3458
  934MPD2    C113712   3.393   2.871   1.758 -0.4574  0.0244 -0.0217
  934MPD2    C213713   3.425   2.893   1.629 -0.0670 -0.0422  0.1489
  934MPD2    C313714   3.331   2.936   1.541  0.5386 -0.2949  0.3839
  934MPD2    C413715   3.204   2.960   1.583  0.1366  0.0701 -0.3003
  934MPD2    C513716   3.177   2.937   1.709 -0.3444 -0.1960 -0.1113
  934MPD2     H13717   3.526   2.868   1.600  0.2517  0.2035  1.0814
  934MPD2    H113718   3.128   3.005   1.520  1.1645 -0.6952 -2.1078
  934MPD2    H213719   3.225   2.874   1.902 -1.5235 -0.4223 -0.9127
  934MPD2    H313720   3.076   2.953   1.746 -0.3550  0.1777 -0.3094
  934MPD2     N13721   3.351   2.946   1.406  0.3484  0.5085  0.8669
  934MPD2    H513722   3.267   2.962   1.353  0.6368 -0.5794  0.1002
  934MPD2    N113723   3.500   2.841   1.842 -0.4212  0.1669 -0.3970
  934MPD2    H713724   3.590   2.819   1.802 -0.2485  1.4289 -0.6810
  935MPD2     C13725   4.104   2.701   0.834 -0.8033 -0.0750 -0.4393
  935MPD2    C113726   3.983   2.690   0.767  0.2695 -0.3211  0.0963
  935MPD2    C213727   3.879   2.780   0.802  0.1224 -0.3387 -0.1938
  935MPD2    C313728   3.897   2.858   0.919 -0.0709 -0.2389  0.0173
  935MPD2    C413729   4.003   2.838   0.998 -0.3958 -0.1218 -0.5746
  935MPD2    C513730   4.115   2.779   0.946  0.5831  0.6780  0.2872
  935MPD2     H13731   3.788   2.773   0.743 -0.0238  0.2366 -0.0375
  935MPD2    H113732   4.003   2.878   1.099 -0.6044  0.3425 -0.7598
  935MPD2    H213733   4.194   2.649   0.803  0.9876  2.1941  0.8939
  935MPD2    H313734   4.202   2.767   1.008  1.0771 -1.0466 -0.7343
  935MPD2     N13735   3.788   2.939   0.963 -0.5422  0.0200 -0.4577
  935MPD2    H513736   3.799   2.982   1.054  0.8876  0.2442 -0.7345
  935MPD2    N113737   3.963   2.600   0.657  0.5763 -0.5861  0.2263
  935MPD2    H713738   3.875   2.606   0.606 -0.8633  1.8063  2.9770
  936MPD2     C13739   2.756   0.605  12.495 -0.3813 -0.6311 -0.2308
  936MPD2    C113740   2.838   0.552  12.585  0.3249 -1.0198  0.2253
  936MPD2    C213741   2.974   0.572  12.567 -0.8430  0.2481 -0.2716
  936MPD2    C313742   3.022   0.634  12.454 -0.4019 -0.9185 -0.2083
  936MPD2    C413743   2.938   0.687  12.366 -0.4770 -0.3761  0.1201
  936MPD2    C513744   2.803   0.671  12.389 -0.4470  0.3828 -0.0310
  936MPD2     H13745   3.045   0.541  12.643 -0.8574  1.4313  0.2157
  936MPD2    H113746   2.974   0.736  12.277 -1.1056  1.1607  0.7260
  936MPD2    H213747   2.649   0.584  12.490 -0.6433  0.3042  1.5112
  936MPD2    H313748   2.742   0.712  12.309  1.9355 -1.2745 -2.7291
  936MPD2     N13749   3.163   0.618  12.437  0.5032 -0.0561  0.3682
  936MPD2    H513750   3.197   0.550  12.504 -0.1060 -2.1889 -1.4885
  936MPD2    N113751   2.796   0.488  12.703 -0.0774 -0.2312  0.1508
  936MPD2    H713752   2.860   0.485  12.782  1.2591 -2.0324 -1.0140
  937MPD2     C13753   0.837   2.291  11.660 -0.1660 -0.2121  0.0813
  937MPD2    C113754   0.898   2.417  11.698 -0.1896  0.3368  0.4858
  937MPD2    C213755   1.013   2.464  11.641 -0.1079  0.0549  0.2940
  937MPD2    C313756   1.067   2.397  11.531 -0.5845  0.2471 -0.5440
  937MPD2    C413757   1.019   2.280  11.489 -0.0529 -0.4251 -0.2524
  937MPD2    C513758   0.911   2.231  11.557  0.2536 -0.2742 -0.2994
  937MPD2     H13759   1.047   2.562  11.673  0.9197  0.7100 -2.8149
  937MPD2    H113760   1.075   2.220  11.418 -2.3153 -1.6478 -1.0083
  937MPD2    H213761   0.746   2.249  11.700 -1.5476  3.3252  0.6896
  937MPD2    H313762   0.874   2.137  11.519  0.3595  0.3273 -1.8819
  937MPD2     N13763   1.188   2.430  11.467 -0.1005 -0.7430 -0.0492
  937MPD2    H513764   1.215   2.385  11.380  0.9025  0.0335 -0.1388
  937MPD2    N113765   0.857   2.489  11.810 -0.1930 -0.3020  0.0214
  937MPD2    H713766   0.900   2.576  11.839  0.0016  0.3009 -2.0350
  938MPD2     C13767   3.279   3.143   0.590  0.5135 -0.0221  0.5393
  938MPD2    C113768   3.167   3.192   0.655  0.0455 -0.0562  0.1105
  938MPD2    C213769   3.093   3.103   0.725 -0.4063 -0.5927 -0.1647
  938MPD2    C313770   3.126   2.972   0.746  0.9611  0.2543  0.7252
  938MPD2    C413771   3.239   2.925   0.679 -0.1994  0.0942 -0.2516
  938MPD2    C513772   3.317   3.014   0.607  0.6749  0.4097 -0.2764
  938MPD2     H13773   3.012   3.148   0.781  0.1786  1.6163 -1.1114
  938MPD2    H113774   3.278   2.824   0.681 -0.8444 -0.2071 -2.8664
  938MPD2    H213775   3.352   3.206   0.541 -0.6756  0.7412 -0.2307
  938MPD2    H313776   3.409   2.982   0.559  1.9174  1.7467  1.2005
  938MPD2     N13777   3.047   2.887   0.825  0.4209  0.0326 -0.1043
  938MPD2    H513778   3.084   2.794   0.841  1.0951  0.0575 -1.5009
  938MPD2    N113779   3.117   3.325   0.637 -0.0239  0.1227 -0.0626
  938MPD2    H713780   3.027   3.344   0.680 -0.2687  1.7602 -1.2838
  939MPD2     C13781   0.245   0.255   0.292  0.2343  0.3904  0.7994
  939MPD2    C113782   0.187   0.164   0.373 -0.6492 -0.2796  0.5265
  939MPD2    C213783   0.149   0.041   0.319 -0.3514 -0.1450  0.4112
  939MPD2    C313784   0.168   0.010   0.186 -0.2911  0.1758 -0.1131
  939MPD2    C413785   0.219   0.107   0.097 -0.3386 -0.2708 -0.6334
  939MPD2    C513786   0.264   0.227   0.154 -0.0897 -0.6421 -0.9178
  939MPD2     H13787   0.115   4.698   0.387 -0.0846 -0.4331  0.2165
  939MPD2    H113788   0.220   0.085  17.726  2.0058  0.8476 -0.8465
  939MPD2    H213789   0.277   0.354   0.324  0.6931  0.4387  0.1870
  939MPD2    H313790   0.306   0.304   0.090  1.2260  0.0569  0.8044
  939MPD2     N13791   0.143   4.609   0.148 -0.5352 -0.2291  0.3660
  939MPD2    H513792   0.096   4.553   0.218  0.3721 -1.8980 -0.3420
  939MPD2    N113793   0.172   0.197   0.509 -0.4667 -0.4083 -0.1622
  939MPD2    H713794   0.203   0.285   0.550  0.6267  0.2360 -2.3988
  940MPD2     C13795   4.183   0.127  12.770 -0.3191  0.3965  0.4260
  940MPD2    C113796   4.100   0.072  12.866  0.4071 -0.1227 -0.0571
  940MPD2    C213797   3.979   0.028  12.822 -0.1018  0.0690  0.3373
  940MPD2    C313798   3.941   0.029  12.686  0.6468 -0.2354 -0.2781
  940MPD2    C413799   4.026   0.088  12.595  0.0304 -0.1847  0.2411
  940MPD2    C513800   4.140   0.143  12.646 -0.1452 -0.0392  0.1326
  940MPD2     H13801   3.913   4.702  12.884  0.0901  0.5107  0.9791
  940MPD2    H113802   4.012   0.092  12.488  0.1489 -2.6361  0.1395
  940MPD2    H213803   4.282   0.168  12.790 -0.2665  0.2072  0.5561
  940MPD2    H313804   4.204   0.197  12.577 -0.6269 -1.7846 -1.6642
  940MPD2     N13805   3.845   4.681  12.631 -0.6933 -0.2914  0.4429
  940MPD2    H513806   3.845   4.672  12.530 -1.7791 -0.8818  0.4964
  940MPD2    N113807   4.129   0.070  13.005 -0.3247 -0.2964  0.5025
  940MPD2    H713808   4.054   0.050  13.071 -0.1049  0.2484  0.9193
  941MPD2     C13809   3.659   0.035   9.555  0.4182 -0.2423 -0.8906
  941MPD2    C113810   3.657   4.711   9.675  0.2447  0.1859  0.1444
  941MPD2    C213811   3.593   4.591   9.687 -0.1596 -0.2279 -0.3196
  941MPD2    C313812   3.530   4.530   9.580  0.0308 -0.6191 -0.2102
  941MPD2    C413813   3.535   4.591   9.457  0.7677  0.1498  0.3544
  941MPD2    C513814   3.590   4.718   9.444 -0.0052  0.4848 -0.5675
  941MPD2     H13815   3.592   4.552   9.788  0.4973  2.2981  0.6574
  941MPD2    H113816   3.491   4.543   9.370 -1.0021 -0.9620  1.8710
  941MPD2    H213817   3.691   0.135   9.529 -0.9743  0.7283  1.1729
  941MPD2    H313818   3.584   0.029   9.346 -1.4754 -1.6797 -1.4615
  941MPD2     N13819   3.451   4.409   9.586 -0.5153 -0.8508 -0.2405
  941MPD2    H513820   3.381   4.400   9.513 -0.7413 -1.4341  0.0462
  941MPD2    N113821   3.708   0.034   9.793  0.4270  0.3356 -0.3976
  941MPD2    H713822   3.695   4.721   9.883  0.6059 -1.0649 -1.1020
  942MPD2     C13823   3.616   1.910   9.289 -0.2318 -0.4139 -0.0587
  942MPD2    C113824   3.645   1.779   9.286  0.3186 -0.0388  0.0373
  942MPD2    C213825   3.772   1.728   9.260  0.2407  0.1644  0.4769
  942MPD2    C313826   3.880   1.814   9.244  0.2730 -0.4744  1.0047
  942MPD2    C413827   3.848   1.947   9.243 -0.5024  0.5384 -0.0075
  942MPD2    C513828   3.722   1.993   9.261  0.3664  0.0636  0.0212
  942MPD2     H13829   3.783   1.620   9.261 -0.3792  0.1015  0.3823
  942MPD2    H113830   3.917   2.025   9.213 -0.9960  0.0724 -2.4134
  942MPD2    H213831   3.514   1.948   9.295  0.5667  1.3481  2.4667
  942MPD2    H313832   3.702   2.099   9.249 -2.2408 -0.6728 -2.0482
  942MPD2     N13833   4.015   1.767   9.240  0.4283  0.1918 -0.4434
  942MPD2    H513834   4.094   1.830   9.246  0.0522  0.6204 -0.0306
  942MPD2    N113835   3.534   1.690   9.310 -0.1768  0.1652  0.0590
  942MPD2    H713836   3.558   1.593   9.329  1.4729  0.5221 -0.1768
  943MPD2     C13837   1.790   4.244   9.746 -0.5801  0.1020 -0.1914
  943MPD2    C113838   1.743   4.130   9.772  1.0310 -0.4235  0.3521
  943MPD2    C213839   1.815   4.018   9.723 -0.1091 -0.0841  0.0438
  943MPD2    C313840   1.939   4.030   9.664 -0.1737  0.1603 -0.0480
  943MPD2    C413841   1.985   4.155   9.638  0.5606 -0.5536  0.1555
  943MPD2    C513842   1.907   4.258   9.682  0.2906 -0.2341  0.3356
  943MPD2     H13843   1.773   3.920   9.741 -2.8995  0.9318 -0.8417
  943MPD2    H113844   2.082   4.175   9.594  0.8517 -0.2864  0.9190
  943MPD2    H213845   1.741   4.334   9.783 -1.4768 -0.1201 -0.8449
  943MPD2    H313846   1.956   4.354   9.669 -0.5735  0.0313 -0.9770
  943MPD2     N13847   2.020   3.920   9.638 -0.6359 -0.1159  0.1375
  943MPD2    H513848   2.113   3.939   9.601 -0.3120  1.2143  1.6445
  943MPD2    N113849   1.622   4.109   9.849 -0.1802  0.2987 -0.3429
  943MPD2    H713850   1.582   4.191   9.892  0.3335  1.0288 -1.2402
  944MPD2     C13851   0.874   3.319  11.454  0.1381 -0.3019  0.6718
  944MPD2    C113852   0.991   3.364  11.402 -0.0671  0.0115 -0.3221
  944MPD2    C213853   1.050   3.488  11.442 -0.2773  0.5224 -0.3419
  944MPD2    C313854   0.993   3.559  11.546  0.0251  0.3180 -0.0285
  944MPD2    C413855   0.869   3.515  11.590  0.0715 -0.5647 -0.5296
  944MPD2    C513856   0.809   3.402  11.542  0.1778 -0.8262 -0.0775
  944MPD2     H13857   1.142   3.518  11.393  0.9028 -1.9235  0.3274
  944MPD2    H113858   0.816   3.568  11.669  2.4555  0.7291  0.2058
  944MPD2    H213859   0.831   3.223  11.427 -0.5182  0.5487 -1.3230
  944MPD2    H313860   0.719   3.370  11.593 -0.3521 -0.6081 -0.8970
  944MPD2     N13861   1.060   3.681  11.587  0.2302 -0.4877 -0.2539
  944MPD2    H513862   1.144   3.698  11.533  0.9638 -0.4261  0.9062
  944MPD2    N113863   1.061   3.275  11.312  0.2750  0.0560  0.5555
  944MPD2    H713864   1.014   3.186  11.293 -0.2381  0.2737  0.8078
    1TMC1    C113865   0.257   4.711  14.844  0.2703  0.2460 -0.3726
    1TMC1    C213866   0.204   0.097  14.875  0.2888 -0.7833  0.3944
    1TMC1    C313867   0.268   0.170  14.973  0.6188  0.1728 -0.1721
    1TMC1    C413868   0.366   4.656  14.912  0.3718 -0.6595 -0.2961
    1TMC1    C513869   0.417   4.729  15.018 -0.4026 -0.0866  0.3261
    1TMC1    C613870   0.377   0.122  15.043  0.3195  0.0126 -0.3178
    1TMC1     C13871   0.210   4.639  14.723  0.6298 -0.6058 -0.0760
    1TMC1     O13872   0.260   4.529  14.717 -0.4091  0.1479  0.1141
    1TMC1     H13873   0.109   0.134  14.838 -0.2318 -0.7646  1.7359
    1TMC1    H113874   0.414   4.561  14.888 -0.2928 -0.5393 -2.1286
    1TMC1    H213875   0.442   0.194  15.092 -0.6079  1.0718 -0.6519
    1TMC1    C713876   0.535   4.676  15.084 -0.3905 -0.4349  0.2773
    1TMC1    C813877   0.243   0.315  15.002 -0.3608 -0.1478 -0.6190
    1TMC1    O113878   0.590   4.570  15.051 -0.4753 -0.5465 -0.0374
    1TMC1    O213879   0.258   0.358  15.116  0.4574  0.8664  0.9356
    1TMC1    O313880   0.567   0.024  15.194  0.2197 -0.1782  0.6329
    1TMC1    H313881   0.493   0.079  15.228 -0.5616 -0.6950 -0.2360
    1TMC1    O513882   0.162   0.360  14.905 -0.4439  0.2026  0.2486
    1TMC1    H513883   0.177   0.315  14.819 -1.5554 -1.9633  1.1893
    2MPD2     C13884   4.676   4.556  14.311  0.4375 -0.0143 -0.3800
    2MPD2    C113885   4.661   4.689  14.337  0.4817 -0.8416  0.1203
    2MPD2    C213886   4.732   0.003  14.445  0.7357 -0.1504  0.0464
    2MPD2    C313887   0.077   4.655  14.520  0.4190  0.1596 -0.3873
    2MPD2    C413888   0.072   4.517  14.498 -0.6445 -0.1904  0.1177
    2MPD2    C513889   0.008   4.466  14.391  0.1051 -0.1282 -0.2095
    2MPD2     H13890   4.730   0.109  14.465  1.4885 -0.0621 -0.3503
    2MPD2    H113891   0.123   4.434  14.546  0.2385 -0.5185 -1.3808
    2MPD2    H213892   4.640   4.511  14.219 -1.0760 -0.2596  0.3380
    2MPD2    H313893   0.002   4.363  14.357  2.1901 -0.9296  1.8177
    2MPD2     N13894   0.140   4.715  14.634 -0.7442 -0.5968  0.4156
    2MPD2    H513895   0.128   0.079  14.657  2.4849 -0.1592  0.1372
    2MPD2    N113896   4.603   0.045  14.238 -0.1266 -0.8508 -0.0961
    2MPD2    H713897   4.580   0.010  14.146 -0.2149  0.2343 -0.4906
    3TMC2    C113898   4.537   0.258  14.153  0.7168  0.4416 -0.3404
    3TMC2    C213899   4.547   0.207  14.026  0.0985  0.3185 -0.0828
    3TMC2    C313900   4.483   0.273  13.926 -0.0121 -0.2336 -0.2806
    3TMC2    C413901   4.480   0.382  14.172  0.0726  0.3582  0.1596
    3TMC2    C513902   4.443   0.459  14.065 -0.1721 -0.3310  0.6158
    3TMC2    C613903   4.439   0.401  13.938 -0.5440 -0.0773 -0.3031
    3TMC2     C13904   4.589   0.183  14.266 -0.6070  0.5419 -0.1250
    3TMC2     O13905   4.604   0.250  14.369  0.0558 -0.6333  0.0709
    3TMC2     H13906   4.621   0.130  14.005  0.6511  0.7172  0.4145
    3TMC2    H113907   4.486   0.434  14.266 -0.7647 -1.8736  1.4367
    3TMC2    H213908   4.400   0.445  13.847 -1.0670 -0.0513 -0.0634
    3TMC2    C713909   4.365   0.578  14.099  0.9792 -0.1707  0.4235
    3TMC2    C813910   4.480   0.217  13.793  0.8017 -0.1685 -0.0726
    3TMC2    O113911   4.351   0.604  14.215  0.1619  0.2103 -0.1964
    3TMC2    O213912   4.461   0.276  13.689  0.1589 -0.4243  0.0517
    3TMC2    O513913   4.482   0.083  13.799 -0.0786 -0.6535  0.0901
    3TMC2    H513914   4.499   0.050  13.890  1.1947 -0.3030 -0.0141
    4TMC2    C113915   3.907   0.943  13.311 -0.3604  0.8057  0.1144
    4TMC2    C213916   3.837   1.061  13.333  0.3208  0.0961  0.1417
    4TMC2    C313917   3.884   1.137  13.435 -0.1386 -0.4126 -0.3529
    4TMC2    C413918   4.015   0.899  13.384  0.5243 -0.7018  0.3303
    4TMC2    C513919   4.051   0.979  13.489 -0.2116 -0.8710 -0.2951
    4TMC2    C613920   3.987   1.094  13.515  0.0836 -0.0250 -0.5034
    4TMC2     C13921   3.900   0.881  13.187 -0.0364 -0.2968 -0.1815
    4TMC2     O13922   4.001   0.817  13.152 -0.2892 -0.1859 -0.4202
    4TMC2     H13923   3.763   1.104  13.267  0.1848 -1.2831 -0.5942
    4TMC2    H113924   4.043   0.795  13.371 -2.3421 -1.3954 -0.3715
    4TMC2    H213925   4.033   1.156  13.591  1.6734 -0.3184 -1.2386
    4TMC2    C713926   4.118   0.908  13.598 -0.6284  0.0619 -0.2504
    4TMC2    C813927   3.819   1.259  13.473  0.4149 -0.7799  0.7963
    4TMC2    O113928   4.206   0.829  13.572  0.4034  0.4603 -0.0935
    4TMC2    O213929   3.799   1.292  13.589  0.1839  0.4363 -0.0601
    4TMC2    O513930   3.814   1.341  13.371 -0.1707 -0.0362 -0.1376
    4TMC2    H513931   3.827   1.307  13.279  1.9829 -2.5349  1.0842
    5MPD2     C13932   3.621   0.751  12.775 -0.6615  0.3101  0.1512
    5MPD2    C113933   3.553   0.849  12.847  1.1099 -0.1311  0.3639
    5MPD2    C213934   3.607   0.886  12.969 -0.3226 -1.4294 -0.3781
    5MPD2    C313935   3.731   0.847  13.013  0.6228 -0.2551 -0.4736
    5MPD2    C413936   3.808   0.762  12.931  0.3411 -0.3447 -0.3094
    5MPD2    C513937   3.745   0.707  12.814  0.5546 -0.1413  0.2684
    5MPD2     H13938   3.551   0.947  13.040 -0.4508 -3.8364  1.6113
    5MPD2    H113939   3.910   0.732  12.955  0.2591 -1.4251 -1.2952
    5MPD2    H213940   3.570   0.704  12.692 -1.3115  0.3472  0.5267
    5MPD2    H313941   3.803   0.627  12.769 -0.6718 -0.6578 -0.3785
    5MPD2     N13942   3.773   0.893  13.134 -0.6110 -0.8254  0.1931
    5MPD2    H513943   3.693   0.936  13.181  0.1249 -0.4813  1.1221
    5MPD2    N113944   3.421   0.892  12.803  0.7154  0.2829  0.2929
    5MPD2    H713945   3.362   0.928  12.877  1.5611  0.8021  0.7182
    6MPD1     C13946   2.822   2.395  13.486  0.2212 -0.6444  0.3161
    6MPD1    C113947   2.925   2.376  13.402  0.8512 -0.0573  0.0086
    6MPD1    C213948   2.920   2.294  13.294  0.5082  0.1031  0.2033
    6MPD1    C313949   2.802   2.242  13.251  0.3166 -0.1495 -0.1719
    6MPD1    C413950   2.698   2.253  13.339  0.4125 -0.0419 -0.3205
    6MPD1    C513951   2.706   2.329  13.451 -0.1302 -0.5586 -0.3183
    6MPD1     H13952   3.013   2.268  13.245  0.4332 -1.3885  0.8396
    6MPD1    H113953   2.604   2.200  13.329  0.6245 -0.7085  1.1929
    6MPD1    H213954   2.820   2.455  13.576  0.6494  1.0884 -0.8377
    6MPD1    H313955   2.631   2.353  13.524  1.3849 -0.5246  1.2371
    6MPD1     N13956   2.798   2.145  13.147  0.8579  0.6198 -0.5868
    6MPD1    H513957   2.720   2.079  13.151 -0.8822  2.5994 -1.7714
    6MPD1    N113958   3.045   2.444  13.428  0.0538 -0.6014 -0.7451
    6MPD1    H613959   3.047   2.536  13.471 -1.2403 -2.3511  3.0700
    6MPD1    H713960   3.101   2.438  13.343  0.4718  0.7727 -0.5644
    7MPD2     C13961   2.805   1.340  13.115  0.0536  0.3543 -0.1875
    7MPD2    C113962   2.816   1.398  12.991  0.8074  0.0424  0.7916
    7MPD2    C213963   2.840   1.317  12.882 -0.0926  0.4428  0.1151
    7MPD2    C313964   2.851   1.174  12.908 -0.1833  0.0597 -0.1440
    7MPD2    C413965   2.825   1.125  13.035 -0.2910 -0.4319 -0.0943
    7MPD2    C513966   2.814   1.208  13.141 -0.4956  0.0208 -0.1460
    7MPD2     H13967   2.855   1.358  12.782 -3.0226 -2.7134 -1.5907
    7MPD2    H113968   2.847   1.023  13.065  0.4466 -0.9530 -2.3715
    7MPD2    H213969   2.790   1.394  13.208  0.9205  0.2108  0.0314
    7MPD2    H313970   2.827   1.174  13.243  2.3288 -0.9850 -0.8330
    7MPD2     N13971   2.890   1.091  12.807 -0.0152 -0.0000  0.1296
    7MPD2    H513972   2.904   1.141  12.720  0.6035 -1.1185 -0.4083
    7MPD2    N113973   2.807   1.542  12.958  0.4083  0.0688  0.5915
    7MPD2    H713974   2.820   1.576  12.863 -1.0517 -1.7888 -0.2759
    8TMC3    C113975   3.032   0.957  12.698  0.7410 -0.4899  0.2825
    8TMC3    C213976   3.153   0.908  12.731  0.3204  0.1167 -0.7373
    8TMC3    C313977   3.250   0.963  12.658 -0.1163 -0.1155  0.3551
    8TMC3    C413978   3.004   1.040  12.585  0.5769  0.2618 -0.5758
    8TMC3    C513979   3.108   1.084  12.513 -0.6148  0.6319  0.6023
    8TMC3    C613980   3.230   1.045  12.551 -0.0837 -0.3450  0.6227
    8TMC3     C13981   2.947   0.968  12.813  0.3773 -0.4285  0.0055
    8TMC3     O13982   2.955   0.895  12.912 -0.0841 -0.2641 -0.6196
    8TMC3     H13983   3.163   0.838  12.813 -2.3854 -0.9908 -1.3680
    8TMC3    H113984   2.904   1.060  12.549  0.5822  0.1560 -0.6495
    8TMC3    H213985   3.314   1.089  12.499 -1.4873  1.2427 -0.3006
    8TMC3    C713986   3.082   1.223  12.497  0.0116  0.4441  0.5444
    8TMC3    C813987   3.382   0.906  12.670  0.0385 -0.8144 -0.6612
    8TMC3    O113988   2.971   1.252  12.540  0.6610  0.4557 -0.5842
    8TMC3    O213989   3.451   0.910  12.567  0.3208 -0.1750  0.1956
    9TMC3    C113990   2.898   2.002  12.989  0.2759  0.1858 -0.2555
    9TMC3    C213991   2.972   1.990  12.870 -0.1026  0.5788 -0.3128
    9TMC3    C313992   2.990   1.863  12.819  0.5894 -0.2287  0.5247
    9TMC3    C413993   2.836   1.894  13.043  0.2594  0.0996 -0.1260
    9TMC3    C513994   2.850   1.772  12.980  0.4933  0.0632  0.1134
    9TMC3    C613995   2.935   1.755  12.874  0.2981 -0.1236  1.2625
    9TMC3     C13996   2.896   2.130  13.056  0.8302  0.0867 -0.4872
    9TMC3     O13997   2.965   2.223  13.013  0.4404 -0.4458  0.2427
    9TMC3     H13998   3.010   2.080  12.823 -1.8667  0.6243 -1.6241
    9TMC3    H113999   2.792   1.888  13.142 -0.9283 -2.0473 -0.7873
    9TMC3    H214000   2.971   1.654  12.855 -2.0830 -0.7849  0.2169
    9TMC3    C714001   2.791   1.647  13.047  0.1317  0.4375  0.1580
    9TMC3    C814002   3.067   1.845  12.695 -0.2524 -0.1084 -0.2001
    9TMC3    O114003   2.766   1.645  13.166 -0.4945 -0.0517 -0.7494
    9TMC3    O214004   3.166   1.916  12.679  0.0732  0.3882 -0.1879
   10MPD2     C14005   3.305   1.503  12.404  0.2202  0.1988 -0.0450
   10MPD2    C114006   3.208   1.438  12.474  0.0662  0.3785 -0.3765
   10MPD2    C214007   3.118   1.516  12.545  0.0234  0.1910  0.5249
   10MPD2    C314008   3.131   1.651  12.551 -0.2648  0.9771  0.1943
   10MPD2    C414009   3.242   1.711  12.488 -0.0171 -0.6562 -0.1375
   10MPD2    C514010   3.318   1.636  12.408  0.2742 -0.4396  0.1858
   10MPD2     H14011   3.036   1.473  12.601  0.4972 -3.2449 -1.4107
   10MPD2    H114012   3.273   1.811  12.513 -0.2680 -0.8573  0.9784
   10MPD2    H214013   3.381   1.445  12.353  0.4614  0.6469 -0.1920
   10MPD2    H314014   3.408   1.676  12.362  0.0104 -0.7225 -0.5708
   10MPD2     N14015   3.053   1.717  12.646 -0.0085  0.4532  0.6049
   10MPD2    H514016   2.973   1.664  12.677 -0.5056 -0.0350 -1.5306
   10MPD2    N114017   3.187   1.298  12.443  0.3120 -0.5816 -0.3700
   10MPD2    H714018   3.261   1.246  12.397  1.8412  0.2909  1.1419
   11MPD2     C14019   4.144   0.773  14.096  0.5327  0.2567  0.0419
   11MPD2    C114020   4.210   0.732  13.985 -0.0139  0.2726 -0.0185
   11MPD2    C214021   4.175   0.771  13.860 -0.4457 -0.1694 -0.2978
   11MPD2    C314022   4.086   0.874  13.842  0.1278  1.0061 -0.4667
   11MPD2    C414023   4.017   0.916  13.951  0.3750  0.4588 -0.6217
   11MPD2    C514024   4.038   0.859  14.074 -0.1428  0.4628 -0.1970
   11MPD2     H14025   4.232   0.741  13.773 -0.1768 -0.5158  0.0055
   11MPD2    H114026   3.941   0.992  13.945  1.2140  1.2454 -1.3115
   11MPD2    H214027   4.151   0.734  14.197 -3.8507  0.6636  0.5190
   11MPD2    H314028   3.980   0.889  14.161 -0.3749 -1.4587  0.3228
   11MPD2     N14029   4.063   0.942  13.718 -0.1408  0.1023 -0.1725
   11MPD2    H514030   3.997   1.019  13.720  1.4450  1.4524  0.5629
   11MPD2    N114031   4.318   0.639  13.985 -0.1567 -0.4434 -0.2330
   11MPD2    H714032   4.363   0.625  13.895 -0.2740  2.4412 -0.7315
    1MPD1     C14033   1.152   1.258  17.638 -0.2120  0.3471 -0.6238
    1MPD1    C114034   1.228   1.354  17.701  0.3878 -0.4348  0.4939
    1MPD1    C214035   1.328   1.401  17.625  0.2525  0.6624 -0.3068
    1MPD1    C314036   1.334   1.393  17.487 -0.3201  0.0077 -0.6726
    1MPD1    C414037   1.234   1.322  17.428  0.1985  0.0158  0.2226
    1MPD1    C514038   1.146   1.246  17.502 -0.3958  0.4692 -0.1125
    1MPD1     H14039   1.393   1.469  17.680  0.4061 -0.1651  0.5324
    1MPD1    H114040   1.228   1.313  17.320 -1.3884  0.9569  0.2306
    1MPD1    H214041   1.086   1.192  17.694  0.6532  0.9299  1.0947
    1MPD1    H314042   1.070   1.183  17.458 -0.4543  0.2389  0.3172
    1MPD1     N14043   1.425   1.463  17.406 -0.5281  0.0187 -0.0384
    1MPD1    H514044   1.415   1.451  17.306  1.9459  2.0688 -0.5108
    1MPD1    N114045   1.224   1.372   0.103 -0.1461 -0.1861  0.7429
    1MPD1    H614046   1.265   1.457   0.141  0.7459 -0.5090  0.5140
    1MPD1    H714047   1.133   1.357   0.145  0.1595 -0.8776  1.1687
    2MPD1     C14048   2.164   2.042  17.661  0.0414 -0.0732  0.4155
    2MPD1    C114049   2.191   1.913  17.612 -1.3568  0.0811  0.1706
    2MPD1    C214050   2.095   1.862  17.534  0.2941  1.0951 -0.6857
    2MPD1    C314051   1.985   1.933  17.492  0.4225 -0.2119  0.5602
    2MPD1    C414052   1.971   2.067  17.531  0.4661 -0.7124 -0.0227
    2MPD1    C514053   2.064   2.121  17.620  0.1890  0.3948  0.4557
    2MPD1     H14054   2.105   1.761  17.495  1.1252 -0.1060  2.5835
    2MPD1    H114055   1.894   2.134  17.493 -2.5141 -3.4839  1.0985
    2MPD1    H214056   2.231   2.078   0.004  0.0599 -0.3279  0.5168
    2MPD1    H314057   2.054   2.218  17.667 -0.6152  0.7420 -0.4342
    2MPD1     N14058   1.898   1.866  17.405  0.3418  0.4092  0.2475
    2MPD1    H514059   1.911   1.767  17.390  0.4758  0.3718  0.6009
    2MPD1    N114060   2.287   1.834  17.679  0.2841  0.2103 -0.6953
    2MPD1    H614061   2.361   1.890  17.721 -0.0471 -0.1478  0.3536
    2MPD1    H714062   2.325   1.759  17.621  0.6244 -1.1108  1.2605
    3TMC3    C114063   1.701   1.828  17.279  1.0076  0.0251 -0.3464
    3TMC3    C214064   1.639   1.835  17.153  0.1482  0.2189  0.1810
    3TMC3    C314065   1.546   1.738  17.116  0.4693 -0.2745  0.0670
    3TMC3    C414066   1.671   1.728  17.364  0.0290  0.3776 -0.3485
    3TMC3    C514067   1.566   1.640  17.334 -0.3163  0.1109 -0.2743
    3TMC3    C614068   1.502   1.644  17.210 -1.0968  0.0372 -0.0262
    3TMC3     C14069   1.797   1.926  17.331 -0.5145 -0.2485  0.8756
    3TMC3     O14070   1.799   2.040  17.295  0.0654  0.1031  0.4283
    3TMC3     H14071   1.658   1.915  17.082 -0.0722  0.3354  0.2519
    3TMC3    H114072   1.723   1.716  17.458  0.9156 -0.0389 -0.8920
    3TMC3    H214073   1.428   1.573  17.176 -1.9447  0.5040  0.8616
    3TMC3    C714074   1.519   1.556  17.446  0.0422  0.3761 -0.1611
    3TMC3    C814075   1.491   1.733  16.980 -0.7142 -0.2859 -0.0216
    3TMC3    O114076   1.544   1.594  17.560  0.2689 -0.3926 -0.3562
    3TMC3    O214077   1.376   1.690  16.966 -0.6276  0.3176  0.0342
    4MPD1     C14078   1.584   1.704  16.476  0.6968 -0.1724 -0.5979
    4MPD1    C114079   1.701   1.745  16.541  0.4555  0.2126  0.3168
    4MPD1    C214080   1.698   1.758  16.671 -0.3816 -0.0560  0.3806
    4MPD1    C314081   1.583   1.733  16.746  0.0538  0.7595  0.0700
    4MPD1    C414082   1.463   1.694  16.685  0.5262  0.3375  0.6857
    4MPD1    C514083   1.467   1.689  16.548 -0.0846  0.1063  0.0376
    4MPD1     H14084   1.789   1.782  16.725 -1.3257  1.4341  1.2921
    4MPD1    H114085   1.369   1.675  16.735 -0.0464  1.3076 -0.0202
    4MPD1    H214086   1.575   1.689  16.369 -1.2857  1.7108 -0.6817
    4MPD1    H314087   1.382   1.653  16.492 -1.0803  2.4406  0.0365
    4MPD1     N14088   1.586   1.763  16.886 -0.7713 -1.2013 -0.4418
    4MPD1    H514089   1.680   1.784  16.918 -1.3666 -0.1790  0.6261
    4MPD1    N114090   1.819   1.753  16.475  0.1549  0.0094  0.0744
    4MPD1    H614091   1.812   1.789  16.380 -0.6755  2.2013  0.9663
    4MPD1    H714092   1.896   1.807  16.514 -1.7375  0.6994  2.8133
    1TCq1    O114093   3.559   0.986  11.683  0.1844  0.1858  0.2104
    1TCq1    C114094   3.519   1.050  11.568  0.1769  0.3314  0.1387
    1TCq1    O214095   3.577   1.142  11.513  0.6674 -0.0369  0.5257
    1TCq1    C214096   3.375   1.029  11.558 -0.0230 -0.1246 -0.3363
    1TCq1    C314097   3.321   0.905  11.590 -0.3410  0.0291  0.6399
    1TCq1    C414098   3.195   0.887  11.553  0.0149  0.1099 -0.0177
    1TCq1    C514099   3.105   0.994  11.549 -0.2637  0.2969  0.8118
    1TCq1    C614100   3.165   1.117  11.523  0.5478 -0.0097 -0.2998
    1TCq1    C714101   3.302   1.133  11.506 -0.2075 -0.4288  0.3872
    1TCq1    C814102   3.068   1.224  11.476 -0.3517  0.1947 -0.1258
    1TCq1    O414103   2.952   1.192  11.472 -0.7586  0.2679 -0.0422
    1TCq1    C914104   3.128   0.773  11.606 -0.2337 -0.7311 -0.3533
    1TCq1    O514105   3.015   0.747  11.561 -0.0566 -0.7945 -0.0542
    1TCq1    O614106   3.208   0.700  11.667 -0.3375 -0.3328 -0.4324
    1TCq1    H114107   3.480   0.957  11.733  0.2220  1.8719  1.2718
    1TCq1    H214108   3.387   0.821  11.609 -0.1846 -0.0428 -0.2363
    1TCq1    H314109   2.998   0.978  11.544 -0.0895 -0.9155  0.8223
    1TCq1    H414110   3.346   1.230  11.486 -0.5152 -0.4647 -0.4525
    2MPD1     C14111   2.975   1.680  11.267  0.5065  0.0120  0.1419
    2MPD1    C114112   3.113   1.667  11.283  0.1717 -0.5889 -0.5664
    2MPD1    C214113   3.163   1.552  11.333  0.5853 -0.2642 -0.0034
    2MPD1    C314114   3.076   1.442  11.361  0.1018 -0.4792  0.0985
    2MPD1    C414115   2.937   1.453  11.331  0.4982  0.2054  0.1198
    2MPD1    C514116   2.891   1.577  11.286 -0.4413  0.3630  0.2209
    2MPD1     H14117   3.267   1.546  11.363  0.2015  2.7346  1.9949
    2MPD1    H114118   2.865   1.372  11.334  0.1357  0.5211 -0.1946
    2MPD1    H214119   2.925   1.773  11.241  1.0001 -0.0350 -0.9921
    2MPD1    H314120   2.783   1.586  11.281 -0.2685  2.3318  0.2447
    2MPD1     N14121   3.128   1.334  11.428  0.2252 -0.2148  0.2169
    2MPD1    H514122   3.228   1.337  11.441  0.1083  2.1700  0.5670
    2MPD1    N114123   3.196   1.780  11.284 -0.0797  0.0439  0.4365
    2MPD1    H614124   3.291   1.754  11.259  0.0838 -0.5238  1.6615
    2MPD1    H714125   3.162   1.853  11.222  2.8371  1.6168  0.7345
    1TMC1    C114126   2.769   3.110   1.376 -0.1058  0.0072 -0.2355
    1TMC1    C214127   2.886   3.062   1.323 -0.5975  0.8442  0.0486
    1TMC1    C314128   2.899   2.924   1.329  0.5845 -0.0660  0.6097
    1TMC1    C414129   2.666   3.026   1.413 -0.7470 -1.1893  0.0787
    1TMC1    C514130   2.685   2.893   1.404 -0.2745  0.0320 -0.5000
    1TMC1    C614131   2.795   2.836   1.356  0.6907 -0.5737  0.0101
    1TMC1     C14132   2.760   3.246   1.417 -0.2300  0.3682 -0.0303
    1TMC1     O14133   2.696   3.280   1.517 -0.0073 -0.5513 -0.2050
    1TMC1     H14134   2.980   3.114   1.307 -0.2077  0.2723  0.4736
    1TMC1    H114135   2.576   3.069   1.455  1.0638  1.1361  1.6006
    1TMC1    H214136   2.809   2.729   1.345  0.2936 -0.6589  0.3392
    1TMC1    C714137   2.575   2.817   1.441 -0.5254 -0.0626 -0.8846
    1TMC1    C814138   3.025   2.870   1.290 -0.5245 -0.4395  0.1140
    1TMC1    O114139   2.456   2.865   1.457  0.4248 -0.1395  0.7867
    1TMC1    O214140   3.124   2.931   1.248 -0.1171 -0.0487 -0.4206
    1TMC1    O314141   2.632   2.715   1.511  0.0636 -0.1662  0.0441
    1TMC1    H314142   2.729   2.724   1.514 -0.0135  0.3234  0.8407
    1TMC1    O514143   3.028   2.748   1.353  0.2966 -0.4072  0.4024
    1TMC1    H514144   2.986   2.751   1.442 -1.6378 -2.5695 -0.4435
    2MPD1     C14145   2.990   3.712   1.415  0.1078 -0.8692 -0.3039
    2MPD1    C114146   3.010   3.654   1.292  0.5869  0.0006 -0.1087
    2MPD1    C214147   2.966   3.523   1.269  0.1329 -0.8935  0.2132
    2MPD1    C314148   2.889   3.452   1.360 -0.0061  0.5631  0.0265
    2MPD1    C414149   2.868   3.512   1.479 -0.1968  1.0511  1.1444
    2MPD1    C514150   2.916   3.636   1.505 -0.4844 -0.0689 -0.2262
    2MPD1     H14151   2.978   3.474   1.174 -2.5088 -0.5796 -0.2918
    2MPD1    H114152   2.817   3.471   1.565  0.2184 -0.2701  0.7543
    2MPD1    H214153   3.027   3.804   1.460  1.1934 -1.5758  0.2539
    2MPD1    H314154   2.908   3.666   1.609  2.1896 -0.1473  0.0015
    2MPD1     N14155   2.843   3.324   1.336 -0.7817 -0.0376 -0.6561
    2MPD1    H514156   2.868   3.282   1.247 -1.5890 -2.3533  0.1902
    2MPD1    N114157   3.096   3.715   1.195  0.3670  0.3711  0.0726
    2MPD1    H614158   3.085   3.816   1.188 -2.1334  0.1160  0.3901
    2MPD1    H714159   3.103   3.678   1.101  2.4076 -0.7653  0.6648
    1MPD1     C14160   0.353   1.732  12.182  0.9340  0.0378 -0.6489
    1MPD1    C114161   0.408   1.805  12.078  0.2879  0.5379 -0.1325
    1MPD1    C214162   0.348   1.917  12.023  0.7045  0.0496 -0.2004
    1MPD1    C314163   0.220   1.952  12.073  0.0868  0.1596 -0.3431
    1MPD1    C414164   0.157   1.869  12.165  0.0053  0.0227 -0.3956
    1MPD1    C514165   0.220   1.760  12.211  0.2699  0.6050  0.5496
    1MPD1     H14166   0.392   1.971  11.940 -1.2294  2.2945  0.2124
    1MPD1    H114167   0.051   1.876  12.187  0.3870 -0.3707  1.5279
    1MPD1    H214168   0.407   1.649  12.228 -0.8999 -1.3219 -0.9135
    1MPD1    H314169   0.169   1.693  12.280  0.7580  0.7394  1.0397
    1MPD1     N14170   0.151   2.052  12.008 -0.1300  0.5316 -0.5651
    1MPD1    H514171   0.211   2.106  11.946  0.6032 -1.2559 -1.3928
    1MPD1    N114172   0.549   1.781  12.057  0.6292 -0.2294 -0.7628
    1MPD1    H614173   0.559   1.680  12.049 -0.0530 -0.3057 -0.6774
    1MPD1    H714174   0.587   1.814  11.968 -0.8541 -1.7614 -1.9712
    2MPD1     C14175   3.748   2.467  11.712  0.3453  0.2586 -0.6145
    2MPD1    C114176   3.689   2.417  11.598  0.6350  0.5478 -1.0271
    2MPD1    C214177   3.777   2.354  11.505 -0.6476  0.0690 -0.6043
    2MPD1    C314178   3.909   2.332  11.535 -0.3977 -0.5521  0.6722
    2MPD1    C414179   3.962   2.376  11.655  0.3194 -0.4437  0.9614
    2MPD1    C514180   3.880   2.447  11.737 -0.6988  0.2909 -0.2558
    2MPD1     H14181   3.731   2.326  11.411  1.1016 -0.5463 -1.2695
    2MPD1    H114182   4.064   2.346  11.678 -0.2009 -1.3030  2.1500
    2MPD1    H214183   3.685   2.514  11.786  1.6901 -1.2401  1.4862
    2MPD1    H314184   3.914   2.466  11.838  0.2012  0.2821 -0.5574
    2MPD1     N14185   3.993   2.265  11.445  0.1079 -1.1875 -0.0019
    2MPD1    H514186   4.083   2.238  11.484  0.3456 -0.5586 -0.1191
    2MPD1    N114187   3.550   2.426  11.572 -0.2987 -0.4019  0.0389
    2MPD1    H614188   3.493   2.481  11.636 -0.0729  2.7697 -2.4877
    2MPD1    H714189   3.519   2.421  11.475  2.1010 -0.1294 -0.7324
    3MPD1     C14190   3.830   1.609  10.667  0.1413 -0.3708 -0.3396
    3MPD1    C114191   3.804   1.587  10.800 -0.5952 -0.4695  0.5998
    3MPD1    C214192   3.861   1.683  10.883  0.2653 -1.4186 -0.0462
    3MPD1    C314193   3.949   1.781  10.844 -1.3441  0.3382 -0.2903
    3MPD1    C414194   3.969   1.802  10.712  1.3505  0.2569 -0.8359
    3MPD1    C514195   3.906   1.711  10.628  0.2262  0.1798 -0.1433
    3MPD1     H14196   3.846   1.670  10.989 -0.4200  2.0924  0.2636
    3MPD1    H114197   4.029   1.879  10.666  0.0299  0.5145 -2.1344
    3MPD1    H214198   3.773   1.544  10.602  0.6493 -1.2096  0.0491
    3MPD1    H314199   3.903   1.716  10.519 -0.7707 -0.0516 -0.1344
    3MPD1     N14200   4.011   1.854  10.947 -0.2875 -0.5617  0.2916
    3MPD1    H514201   3.980   1.834  11.041  1.6226 -1.4896  0.7279
    3MPD1    N114202   3.711   1.487  10.834 -0.4988 -0.2559  0.1678
    3MPD1    H614203   3.689   1.470  10.932 -1.8823 -0.0089 -0.1062
    3MPD1    H714204   3.722   1.404  10.776 -0.4852  0.2818 -0.5960
    4MPD2     C14205   4.301   2.509  11.551  0.1539  0.3130  1.0116
    4MPD2    C114206   4.420   2.533  11.600 -0.1908  0.5241 -0.1730
    4MPD2    C214207   4.501   2.625  11.537 -0.2810 -0.3087  0.7798
    4MPD2    C314208   4.482   2.666  11.406 -0.4060  0.2855  0.4190
    4MPD2    C414209   4.353   2.635  11.355  0.7978  0.3051  0.7218
    4MPD2    C514210   4.260   2.561  11.425 -0.4930 -0.1305 -0.6219
    4MPD2     H14211   4.594   2.645  11.590 -0.6779  1.4822  0.7907
    4MPD2    H114212   4.313   2.669  11.261  2.3779  1.3644  0.4300
    4MPD2    H214213   4.225   2.451  11.603  0.9547 -3.3249 -1.8621
    4MPD2    H314214   4.158   2.559  11.390 -1.7703 -0.9477  3.2389
    4MPD2     N14215   4.578   2.742  11.346 -0.4606 -0.2119 -0.1953
    4MPD2    H514216   4.666   2.759  11.392  0.3751  0.9588 -2.2290
    4MPD2    N114217   4.476   2.470  11.720  0.2648  0.2199 -0.0747
    4MPD2    H714218   4.562   2.510  11.755 -0.4232  0.4163  1.4030
    5TMC3    C114219   4.526   2.341  11.905 -0.3347  0.7242  0.1047
    5TMC3    C214220   4.580   2.219  11.906 -0.0717  0.1744  0.1214
    5TMC3    C314221   4.719   2.205  11.930  0.5247  0.0942  0.2743
    5TMC3    C414222   4.603   2.451  11.937  0.1875  0.5724 -0.1689
    5TMC3    C514223   0.002   2.438  11.958  0.5596 -0.4090  0.2707
    5TMC3    C614224   0.064   2.315  11.959  0.6989  0.3535 -0.6518
    5TMC3     C14225   4.425   2.369  11.799  0.9867 -0.4693 -0.3890
    5TMC3     O14226   4.323   2.296  11.789  0.5042  0.5946 -0.0533
    5TMC3     H14227   4.509   2.139  11.890 -1.6134  1.9380 -1.8703
    5TMC3    H114228   4.555   2.549  11.945  0.3141  0.4613  2.1509
    5TMC3    H214229   0.163   2.301  12.002 -0.1200 -1.3740  0.6320
    5TMC3    C714230   0.071   2.519  11.861 -0.4848 -0.1726 -0.1933
    5TMC3    C814231   0.021   2.075  11.999  1.0154  0.4365  0.3434
    5TMC3    O114232   4.730   2.580  11.786 -0.1274  0.0625 -0.5648
    5TMC3    O214233   4.659   2.001  12.029  0.4257  0.5484  0.0917
    6TMC3    C114234   4.057   2.143  11.249 -0.0459  1.0221 -0.2950
    6TMC3    C214235   4.025   2.059  11.145 -0.2610  0.0723 -0.0949
    6TMC3    C314236   4.126   2.023  11.059  0.3413  0.0415  0.2491
    6TMC3    C414237   4.186   2.197  11.266  0.3834 -0.1191  0.5508
    6TMC3    C514238   4.275   2.156  11.175  1.0703 -0.1021  0.0244
    6TMC3    C614239   4.250   2.075  11.066  0.4116  0.5463  0.0430
    6TMC3     C14240   3.953   2.201  11.327  0.7004  0.2246  0.0687
    6TMC3     O14241   3.840   2.189  11.277  0.2532  0.1836  0.5043
    6TMC3     H14242   3.925   2.031  11.112  0.0395 -2.1737  0.9132
    6TMC3    H114243   4.207   2.279  11.334  0.4497 -0.5273  1.0216
    6TMC3    H214244   4.316   2.072  10.980 -0.3260  0.7491 -0.5348
    6TMC3    C714245   4.396   2.226  11.174 -0.4250 -0.0327  0.5099
    6TMC3    C814246   4.099   1.959  10.932 -0.7181 -0.0372 -1.2156
    6TMC3    O114247   4.467   2.229  11.074  0.1636  0.5841  0.0073
    6TMC3    O214248   4.139   2.021  10.833  0.1022 -0.3739 -0.3205
    7MPD2     C14249   0.476   2.624  11.573  0.2195 -0.0321  0.6365
    7MPD2    C114250   0.349   2.678  11.566 -0.8640 -0.3396 -0.2405
    7MPD2    C214251   0.267   2.643  11.665 -0.5165 -0.9589  0.5487
    7MPD2    C314252   0.295   2.554  11.769  0.4394  0.5529  0.4206
    7MPD2    C414253   0.424   2.510  11.780  0.8761 -0.5916 -0.2735
    7MPD2    C514254   0.512   2.541  11.676 -0.1680  0.7492  0.5241
    7MPD2     H14255   0.172   2.694  11.675  0.9647  2.1359 -1.0941
    7MPD2    H114256   0.467   2.438  11.849 -1.8729 -1.0052  1.0066
    7MPD2    H214257   0.550   2.638  11.495 -0.9559 -4.9406 -1.3409
    7MPD2    H314258   0.610   2.497  11.661 -1.2064 -1.1367 -0.7618
    7MPD2     N14259   0.205   2.506  11.862  0.1877  0.2561  0.0635
    7MPD2    H514260   0.250   2.468  11.945  0.6486  0.6309 -0.0155
    7MPD2    N114261   0.318   2.746  11.446  0.0027 -0.3413 -0.8919
    7MPD2    H714262   0.388   2.763  11.375  2.0683  0.6547  1.3519
    8TMC3    C114263   0.168   2.832  11.280  0.1013  0.4549 -0.0846
    8TMC3    C214264   0.204   2.726  11.202 -0.0640  0.2413  0.0439
    8TMC3    C314265   0.125   2.695  11.094  0.2067 -0.6158 -0.0932
    8TMC3    C414266   0.048   2.894  11.263  0.4772 -0.4016 -0.0586
    8TMC3    C514267   4.693   2.847  11.164  0.0990  0.9243 -0.3394
    8TMC3    C614268   0.002   2.761  11.069  0.0612 -0.0250 -0.7799
    8TMC3     C14269   0.196   2.803  11.422 -0.2575  0.2950 -0.4844
    8TMC3     O14270   0.099   2.812  11.491 -0.4660  0.2722 -0.2558
    8TMC3     H14271   0.297   2.671  11.213  0.1812  0.5415 -0.5393
    8TMC3    H114272   0.017   2.977  11.326 -0.3953 -0.3892 -0.4975
    8TMC3    H214273   4.675   2.737  10.983 -1.3291  0.0994  0.1576
    8TMC3    C714274   4.569   2.799  11.218  0.1818  0.2676 -0.4589
    8TMC3    C814275   0.093   2.554  11.101  0.2720  0.1799  0.7559
    8TMC3    O114276   4.480   2.774  11.134  0.1017 -0.0632  0.1103
    8TMC3    O214277   0.013   2.512  11.023 -0.2346  0.4300  0.1397
    9MPD2     C14278   0.078   2.396  11.436 -0.3670  0.0972 -0.9630
    9MPD2    C114279   0.036   2.418  11.306  0.3334 -0.4926  0.4618
    9MPD2    C214280   4.651   2.359  11.264  0.8002 -0.1144  0.3010
    9MPD2    C314281   4.574   2.278  11.347  1.0421 -0.2276  0.0420
    9MPD2    C414282   4.610   2.276  11.478 -0.3387  0.0720  0.4765
    9MPD2    C514283   4.732   2.319  11.525 -0.1105 -0.8457  0.1226
    9MPD2     H14284   4.604   2.397  11.174 -0.8335 -0.3011  1.0827
    9MPD2    H114285   4.561   2.210  11.549  3.1376 -1.1933  1.7364
    9MPD2    H214286   0.165   2.439  11.485 -1.0251  0.5509 -0.1780
    9MPD2    H314287   0.033   2.296  11.625 -0.4368  0.1898  0.4690
    9MPD2     N14288   4.448   2.237  11.308  0.0527 -0.2669 -0.2895
    9MPD2    H514289   4.391   2.196  11.381  2.0868  0.0443  1.4827
    9MPD2    N114290   0.119   2.501  11.226  0.1816  0.1902 -0.1972
    9MPD2    H714291   0.186   2.549  11.284  1.1070  0.4762 -1.5219
    1MPD1     C14292   3.949   4.274  16.967  0.0104  0.5392  0.4413
    1MPD1    C114293   3.919   4.145  16.919  0.1390  0.0031  1.1979
    1MPD1    C214294   3.878   4.043  17.004 -0.6396  0.0443  0.3631
    1MPD1    C314295   3.866   4.061  17.140 -0.1237  0.0912  0.3750
    1MPD1    C414296   3.889   4.188  17.189  0.3357 -0.1607 -0.0094
    1MPD1    C514297   3.919   4.290  17.103 -0.2223 -0.3057  0.6981
    1MPD1     H14298   3.855   3.949  16.954  0.0190 -0.9732  1.9974
    1MPD1    H114299   3.863   4.209  17.292  0.5363  1.5787 -0.3005
    1MPD1    H214300   3.980   4.362  16.911 -0.5015 -1.3298 -2.7609
    1MPD1    H314301   3.923   4.390  17.143 -2.0510  1.3607 -3.2356
    1MPD1     N14302   3.838   3.965  17.241 -0.0339  0.2538  0.1003
    1MPD1    H514303   3.822   3.998  17.335  0.6746 -3.1879  1.4269
    1MPD1    N114304   3.940   4.116  16.782 -0.0296  0.3563 -0.0902
    1MPD1    H614305   3.926   4.020  16.753 -1.0904  0.6985 -0.6897
    1MPD1    H714306   3.886   4.182  16.727 -0.7379  0.7968  1.1235
    2TMC2    C114307   3.731   3.531  17.410  0.8494  0.0590 -0.4722
    2TMC2    C214308   3.737   3.577  17.538  0.0926 -0.6616 -0.2527
    2TMC2    C314309   3.760   3.712  17.559  0.6751  0.6935 -1.2859
    2TMC2    C414310   3.767   3.611  17.308 -1.1745 -0.1915 -0.1088
    2TMC2    C514311   3.791   3.749  17.330 -0.2633 -0.0217  0.1487
    2TMC2    C614312   3.804   3.794  17.458 -0.0756 -0.0732 -0.9354
    2TMC2     C14313   3.715   3.389  17.404 -0.1213  0.0143 -0.0593
    2TMC2     O14314   3.738   3.318  17.496  0.1412 -0.0376 -0.3879
    2TMC2     H14315   3.693   3.522  17.620  1.9297 -2.2689 -0.3469
    2TMC2    H114316   3.785   3.579  17.206  0.1536 -1.5317  0.5572
    2TMC2    H214317   3.839   3.895  17.473  1.3356 -0.5542 -1.0415
    2TMC2    C714318   3.830   3.827  17.216  0.2600 -0.0009  0.4258
    2TMC2    C814319   3.767   3.757  17.694  0.0117 -0.4956  0.5651
    2TMC2    O114320   3.845   3.765  17.116  0.1316 -0.0095  0.0007
    2TMC2    O214321   3.788   3.680   0.052 -0.4767  0.2605  0.3351
    2TMC2    O514322   3.798   3.889  17.700  0.1659 -0.4395 -0.5338
    2TMC2    H514323   3.784   3.932  17.614  2.1903 -2.8056 -2.0743
    3MPD1     C14324   3.550   2.948  17.174 -0.1354 -0.7767 -0.3669
    3MPD1    C114325   3.484   3.056  17.124  0.0250  0.0412  0.5340
    3MPD1    C214326   3.513   3.188  17.165  0.2898 -0.7579 -0.3693
    3MPD1    C314327   3.602   3.209  17.263 -0.1336 -0.0427 -0.0554
    3MPD1    C414328   3.670   3.103  17.314 -0.2715 -0.3677 -0.4944
    3MPD1    C514329   3.646   2.971  17.271  0.2888  0.0159  0.5015
    3MPD1     H14330   3.462   3.277  17.129  0.6691 -0.7426 -0.8723
    3MPD1    H114331   3.743   3.116  17.393 -0.7310 -1.8211  0.1473
    3MPD1    H214332   3.533   2.846  17.143 -0.7209 -1.6895  2.9475
    3MPD1    H314333   3.707   2.893  17.315 -1.2746 -1.5055 -0.0278
    3MPD1     N14334   3.639   3.344  17.296  0.0537  0.3158  0.5135
    3MPD1    H514335   3.601   3.415  17.235 -1.3497  0.6062  1.7174
    3MPD1    N114336   3.413   3.024  17.006 -0.0067  0.1426  0.0580
    3MPD1    H614337   3.353   3.102  16.976 -0.3743 -0.2539 -0.2448
    3MPD1    H714338   3.361   2.937  17.011  1.3464 -0.5552  1.6126
    1TMC1    C114339   2.667   4.553  13.047  0.1728 -0.6248  0.9401
    1TMC1    C214340   2.776   4.557  12.972  0.1100 -0.2238  0.2525
    1TMC1    C314341   2.764   4.548  12.837 -0.1711 -0.2924  0.9260
    1TMC1    C414342   2.540   4.529  12.997  0.1583  0.1371  0.2459
    1TMC1    C514343   2.532   4.512  12.862 -0.4451  0.0966  0.9405
    1TMC1    C614344   2.642   4.526  12.779  0.4450  0.5577 -0.0322
    1TMC1     C14345   2.686   4.588  13.188 -0.5379  0.5907 -0.4055
    1TMC1     O14346   2.603   4.661  13.239 -0.2077 -0.5265  0.3564
    1TMC1     H14347   2.876   4.582  13.007 -0.9882  2.8502  1.2285
    1TMC1    H114348   2.450   4.538  13.057 -0.6491 -0.1995 -0.9077
    1TMC1    H214349   2.634   4.510  12.672 -1.1253  0.7799  0.0417
    1TMC1    C714350   2.402   4.470  12.810 -0.0828 -0.4614  0.4892
    1TMC1    C814351   2.875   4.600  12.758 -0.4101  0.7065  0.3650
    1TMC1    O114352   2.383   4.455  12.689 -0.3087 -0.5971 -0.9499
    1TMC1    O214353   2.988   4.577  12.792 -0.0491 -0.1747  0.4722
    1TMC1    O314354   2.356   4.380  12.897 -0.2325  0.0373  0.5965
    1TMC1    H314355   2.393   4.364  12.986 -0.4212  3.0618  1.2263
    1TMC1    O514356   2.830   4.613  12.630 -0.0231  0.6065 -0.0660
    1TMC1    H514357   2.748   4.666  12.623 -0.5091 -0.2046 -0.6863
    2MPD2     C14358   2.795   4.597  13.477 -0.2488 -0.6988 -0.1859
    2MPD2    C114359   2.849   4.525  13.374  0.6938  0.4086 -0.1077
    2MPD2    C214360   2.959   4.441  13.399 -0.2616 -0.6435 -0.1773
    2MPD2    C314361   3.012   4.446  13.530  0.1986 -0.3716  0.3876
    2MPD2    C414362   2.956   4.517  13.629 -0.5894  0.1689  0.1645
    2MPD2    C514363   2.848   4.595  13.609 -0.2196 -0.2661 -0.3003
    2MPD2     H14364   3.018   4.406  13.315  1.3801  1.8421 -0.0294
    2MPD2    H114365   2.994   4.508  13.730  1.4610 -0.0490 -0.6207
    2MPD2    H214366   2.729   4.678  13.448  2.2480  1.0014 -1.1600
    2MPD2    H314367   2.801   4.658  13.684  0.1866  0.4314 -0.6344
    2MPD2     N14368   3.127   4.376  13.558 -0.3425 -0.0999  0.2569
    2MPD2    H514369   3.148   4.391  13.656  1.6777 -2.1368  0.1384
    2MPD2    N114370   2.799   4.525  13.240 -0.1141  0.6867  0.1839
    2MPD2    H714371   2.855   4.467  13.179  2.2463 -0.0510  3.0452
    3TCq1    O114372   3.748   4.206  13.435  0.3128  0.0379 -0.2784
    3TCq1    C114373   3.649   4.118  13.416 -0.5012 -0.1013 -0.0846
    3TCq1    O214374   3.621   4.068  13.310  0.1448 -0.2417  0.2863
    3TCq1    C214375   3.534   4.154  13.505  0.6235 -0.2590 -0.1017
    3TCq1    C314376   3.559   4.159  13.639  0.2934 -0.6494 -0.2053
    3TCq1    C414377   3.467   4.215  13.718  0.4155 -0.4411  0.3030
    3TCq1    C514378   3.352   4.258  13.667 -0.5558 -0.7315  0.6438
    3TCq1    C614379   3.331   4.260  13.527  0.1111  0.2130 -0.5784
    3TCq1    C714380   3.423   4.206  13.441  0.4208  0.4768  0.0971
    3TCq1    C814381   3.196   4.294  13.475  0.3218  0.2541 -0.3029
    3TCq1    O414382   3.160   4.239  13.369  0.1688  0.5098 -0.0878
    3TCq1    C914383   3.490   4.215  13.855 -0.1979 -0.0749  0.4433
    3TCq1    O514384   3.413   4.275  13.935 -0.5077  0.4157  0.1299
    3TCq1    O614385   3.606   4.189  13.893  0.0048 -0.0205  0.2261
    3TCq1    H114386   3.732   4.261  13.515  0.3088 -1.0108  0.4379
    3TCq1    H214387   3.643   4.110  13.687  0.1911 -0.4017  0.2303
    3TCq1    H314388   3.282   4.311  13.731  1.7737  0.4817  2.2157
    3TCq1    H414389   3.408   4.207  13.334  1.4164 -0.5851 -0.0506
    1MPD2     C14390   2.268   0.900  14.608 -0.7346  0.6999  0.4316
    1MPD2    C114391   2.137   0.880  14.657  0.0590  0.7858 -0.0782
    1MPD2    C214392   2.100   0.749  14.698 -0.0856 -0.0980 -0.6169
    1MPD2    C314393   2.197   0.658  14.716 -0.3782 -0.4164  0.0482
    1MPD2    C414394   2.328   0.679  14.678 -0.2008 -0.0951  0.2581
    1MPD2    C514395   2.360   0.798  14.614 -0.6330 -0.2713  0.6261
    1MPD2     H14396   2.001   0.728  14.736 -0.0948  1.8212  0.4014
    1MPD2    H114397   2.402   0.601  14.693 -0.2741 -0.4895 -1.4206
    1MPD2    H214398   2.300   0.997  14.570 -0.1058  0.6295  0.7772
    1MPD2    H314399   2.466   0.804  14.592 -1.2468  1.1000 -1.8906
    1MPD2     N14400   2.156   0.548  14.798  0.2311  0.1478 -0.4666
    1MPD2    H514401   2.057   0.549  14.822  0.5627 -1.2478  0.9650
    1MPD2    N114402   2.034   0.980  14.646 -0.2987 -0.2047  0.4630
    1MPD2    H714403   2.060   1.063  14.595  0.0857 -0.0020  0.9881
    2TMC3    C114404   1.809   1.063  14.676 -0.4245  0.8231  0.5039
    2TMC3    C214405   1.692   1.036  14.744  0.3333  0.9011  0.1946
    2TMC3    C314406   1.576   1.046  14.681 -0.2313  0.2696 -0.0755
    2TMC3    C414407   1.809   1.105  14.548  0.1412 -0.4319  0.6074
    2TMC3    C514408   1.689   1.112  14.488  0.2519  0.1511 -0.1895
    2TMC3    C614409   1.573   1.086  14.549 -0.6553 -0.7907 -0.0830
    2TMC3     C14410   1.911   0.970  14.717 -0.2212 -0.5005 -0.7154
    2TMC3     O14411   1.871   0.889  14.801  0.3216  0.5401 -0.1529
    2TMC3     H14412   1.695   1.018  14.851 -0.4466  3.2811  0.6287
    2TMC3    H114413   1.896   1.120  14.485 -0.4315  2.7732  0.5665
    2TMC3    H214414   1.474   1.095  14.507  0.8272 -1.5159 -3.6834
    2TMC3    C714415   1.680   1.172  14.354  0.4878 -0.0106 -0.7813
    2TMC3    C814416   1.494   0.925  14.709 -0.1409  0.0024 -0.1136
    2TMC3    O114417   1.596   1.128  14.277  0.6506 -0.0308  0.1299
    2TMC3    O214418   1.395   0.899  14.648 -0.7807 -0.2905 -0.1398
    3TCq1    O114419   2.512   1.773  13.782  0.5349 -0.2682  0.4046
    3TCq1    C114420   2.517   1.871  13.876  0.6797  0.3541  0.3132
    3TCq1    O214421   2.600   1.956  13.891  0.5905 -0.2565 -0.5272
    3TCq1    C214422   2.435   1.822  13.991  0.9905  0.9826 -0.1813
    3TCq1    C314423   2.486   1.816  14.114  0.2005  0.6515 -0.7638
    3TCq1    C414424   2.400   1.776  14.215 -0.0276  0.5734 -0.1547
    3TCq1    C514425   2.269   1.746  14.192 -0.5183 -0.7178 -0.6344
    3TCq1    C614426   2.228   1.749  14.067 -1.9225 -0.1137 -0.3112
    3TCq1    C714427   2.311   1.774  13.962 -0.7715 -0.7770  0.4458
    3TCq1    C814428   2.105   1.677  14.029  0.7249 -0.2390 -0.7753
    3TCq1    O414429   2.083   1.665  13.910  0.0282  0.2452  0.2544
    3TCq1    C914430   2.442   1.792  14.348  0.3627 -0.9571 -0.7271
    3TCq1    O514431   2.545   1.866  14.373 -0.3467 -0.7177 -0.1584
    3TCq1    O614432   2.384   1.719  14.432 -0.1754  0.3116 -0.4106
    3TCq1    H114433   2.444   1.703  13.800  1.1281 -1.4320 -1.8327
    3TCq1    H214434   2.584   1.852  14.144 -0.3259  1.3274  0.1757
    3TCq1    H314435   2.200   1.727  14.273 -1.9573  0.0070 -1.7008
    3TCq1    H414436   2.269   1.769  13.862  1.2790  0.2536 -0.4650
    4MPD2     C14437   1.869   1.477  13.999  0.4383 -0.4908 -0.0895
    4MPD2    C114438   1.946   1.500  14.121  0.1750 -0.6316 -0.2636
    4MPD2    C214439   1.916   1.420  14.229 -0.2340 -0.7731  0.0041
    4MPD2    C314440   1.812   1.333  14.223  0.0300 -0.2465 -0.5796
    4MPD2    C414441   1.738   1.315  14.109  0.3789 -0.2015  0.2634
    4MPD2    C514442   1.772   1.381  13.995 -0.2120 -0.2480 -0.4437
    4MPD2     H14443   1.979   1.428  14.317 -1.2181  1.4378  0.4942
    4MPD2    H114444   1.652   1.250  14.107  0.1547  0.1224 -1.0993
    4MPD2    H214445   1.889   1.533  13.908 -1.5715  1.3701  0.6343
    4MPD2    H314446   1.710   1.359  13.910  0.2822 -0.1186 -0.8406
    4MPD2     N14447   1.778   1.266  14.337  0.6118  0.2061 -0.1401
    4MPD2    H514448   1.832   1.290  14.419 -0.5970 -0.6960  0.9259
    4MPD2    N114449   2.048   1.602  14.133  0.2605  0.2417 -0.0979
    4MPD2    H714450   2.090   1.606  14.225  3.8153 -1.6745 -1.6232
    5TMC2    C114451   1.938   0.353  15.004 -1.0560 -0.4103  1.2400
    5TMC2    C214452   1.953   0.377  15.137  0.0186 -0.2225 -0.4528
    5TMC2    C314453   2.084   0.407  15.175 -1.2632 -0.1451 -0.0823
    5TMC2    C414454   2.040   0.342  14.915 -0.5121  0.2614  0.2845
    5TMC2    C514455   2.167   0.375  14.956 -0.1522  0.9095 -0.3987
    5TMC2    C614456   2.190   0.411  15.084 -0.1094 -0.2866 -0.3466
    5TMC2     C14457   1.842   0.445  14.944 -0.0247  0.0288  0.2223
    5TMC2     O14458   1.900   0.532  14.885 -0.4446  0.0776  0.7273
    5TMC2     H14459   1.873   0.384  15.210  1.0095  0.2357  0.5842
    5TMC2    H114460   2.024   0.317  14.811  0.5482  1.5956 -0.2006
    5TMC2    H214461   2.291   0.426  15.120  0.4127 -0.6313 -1.6867
    5TMC2    C714462   2.240   0.459  14.858  0.4344  0.2278 -0.3677
    5TMC2    C814463   2.121   0.430  15.312  0.1145 -0.5825 -0.5432
    5TMC2    O114464   2.362   0.471  14.872 -0.2325 -0.6675  0.6645
    5TMC2    O214465   2.223   0.489  15.338  0.0633 -0.1773  0.1288
    5TMC2    O514466   2.049   0.349  15.398 -0.1728 -0.1993 -0.0756
    5TMC2    H514467   1.973   0.306  15.353 -0.2669 -0.1662  0.0521
    6MPD2     C14468   1.393   0.684  14.865  0.7105  0.7814  0.2828
    6MPD2    C114469   1.525   0.717  14.833 -0.2429 -0.5196 -0.2568
    6MPD2    C214470   1.627   0.637  14.875 -0.1913 -0.5616  0.1860
    6MPD2    C314471   1.603   0.513  14.940  0.0584 -0.2849  0.3408
    6MPD2    C414472   1.470   0.487  14.966  0.2978  0.1455  0.1257
    6MPD2    C514473   1.367   0.572  14.939  0.0722 -0.1715 -0.1401
    6MPD2     H14474   1.727   0.666  14.845 -1.3031  1.6493 -1.3875
    6MPD2    H114475   1.434   0.392  15.002 -0.0332  0.1811 -0.1035
    6MPD2    H214476   1.314   0.755  14.844 -1.8481 -1.8731  1.0801
    6MPD2    H314477   1.265   0.541  14.959  0.6387 -1.8306  0.2469
    6MPD2     N14478   1.711   0.427  14.978 -0.4697 -0.0349  0.3260
    6MPD2    H514479   1.691   0.339  15.025 -0.9976 -0.7494 -1.2388
    6MPD2    N114480   1.574   0.834  14.773  0.0878  0.0309 -0.7118
    6MPD2    H714481   1.673   0.850  14.786  0.7245 -1.7550 -3.2914
  945NH3     N114482   3.592   0.750  14.402  1.0904  0.3703 -0.8434
  945NH3     H214483   3.549   0.677  14.346  1.3959 -0.3234 -0.1718
  945NH3     H314484   3.544   0.833  14.367 -1.5488 -1.0834 -0.6542
  945NH3     H414485   3.552   0.728  14.492  0.3350  0.8143 -1.0739
  946SOD     NA14486   0.030   0.794  13.176 -0.3853  0.0351  0.4011
  947SOD     NA14487   1.852   1.697  13.335 -0.0207 -0.6337  0.4475
  948SOD     NA14488   4.092   0.393  15.468 -0.1083  0.1273  0.2570
  949SOD     NA14489   3.341   0.686   9.485  0.2574  0.0253 -0.1849
  950SOD     NA14490   3.840   0.096  10.618 -0.3660 -0.0214 -0.3442
  951SOD     NA14491   0.057   3.929   5.506  0.1155  0.1344  0.0462
  952SOD     NA14492   4.191   1.033  16.830  0.4460  0.7917 -0.2356
  953SOD     NA14493   2.569   3.296  16.156  0.0976  0.2789 -0.4158
  954SOL     OW14494   3.489   0.442  17.621 -0.2314  0.5486  0.3154
  954SOL    HW114495   3.396   0.451  17.601 -0.1141  2.3319  0.5198
  954SOL    HW214496   3.506   0.362  17.571  0.4584 -0.3367  2.0093
  955SOL     OW14497   3.006   4.163   3.017  0.3235 -0.3149  0.5815
  955SOL    HW114498   3.092   4.197   3.041  0.0615  0.6344  0.1589
  955SOL    HW214499   2.989   4.098   3.086 -1.1215 -1.7848 -1.1503
  956SOL     OW14500   4.372   4.704  15.618  0.6622  0.2506  0.5312
  956SOL    HW114501   4.336   4.618  15.642 -0.4734  1.1548  2.1243
  956SOL    HW214502   4.449   4.703  15.674  0.3747 -0.4042  0.9292
  957SOL     OW14503   0.084   3.692  15.513  0.3833 -0.0340  0.2554
  957SOL    HW114504   0.072   3.662  15.423  0.1524  0.6079  0.0723
  957SOL    HW214505   0.004   3.746  15.518 -0.2868 -1.2682  2.7665
  958SOL     OW14506   1.705   1.975   6.776  0.1502 -0.2267 -0.0975
  958SOL    HW114507   1.700   1.896   6.831 -1.4940 -3.1025 -4.4189
  958SOL    HW214508   1.799   1.995   6.785 -0.4784  1.8122  1.9638
  959SOL     OW14509   0.343   2.886  13.351 -0.1729 -0.6755 -0.2207
  959SOL    HW114510   0.415   2.842  13.307 -0.0691  0.6399 -1.3547
  959SOL    HW214511   0.381   2.944  13.417 -0.9165  0.0468 -0.4295
  960SOL     OW14512   3.422   2.197   5.154  0.4708  0.1442 -0.3692
  960SOL    HW114513   3.471   2.273   5.188 -0.3624  0.3427  0.3988
  960SOL    HW214514   3.496   2.137   5.161 -0.1233 -0.2863  2.3690
  961SOL     OW14515   1.825   0.879   6.500  0.7125 -0.2514 -0.1274
  961SOL    HW114516   1.919   0.862   6.499  1.0407  1.7533 -3.9014
  961SOL    HW214517   1.815   0.852   6.591 -1.2026 -0.9785 -0.5642
  962SOL     OW14518   3.719   0.665   6.138 -0.8357  0.4756 -0.0934
  962SOL    HW114519   3.684   0.736   6.191 -1.2540  0.7399 -0.7206
  962SOL    HW214520   3.714   0.714   6.056 -0.4602 -0.3530 -0.6069
  963SOL     OW14521   2.613   1.554  17.691 -0.3380 -0.5316 -0.7611
  963SOL    HW114522   2.682   1.578   0.017 -2.7008 -2.2638  2.5411
  963SOL    HW214523   2.594   1.467  17.724  0.6414 -0.2705  0.4940
  964SOL     OW14524   0.024   0.428   8.469 -0.6251  0.3178 -0.8331
  964SOL    HW114525   0.119   0.422   8.475 -0.9416 -0.8845  2.9986
  964SOL    HW214526   0.005   0.339   8.498 -0.8818  0.9531  0.9680
  965SOL     OW14527   3.336   4.075   4.924  0.3994 -0.1328 -0.2316
  965SOL    HW114528   3.374   4.049   5.008 -1.2997 -1.6906  0.0403
  965SOL    HW214529   3.241   4.080   4.939  0.2153  2.5058 -2.2643
  966SOL     OW14530   0.495   1.423   3.010 -0.0555  0.0782  0.1890
  966SOL    HW114531   0.559   1.415   3.081  1.7075  1.7636 -1.1768
  966SOL    HW214532   0.551   1.407   2.934  0.2925  0.0533  0.4510
  967SOL     OW14533   3.066   0.376   2.332  0.0807 -0.1822  0.3174
  967SOL    HW114534   2.993   0.393   2.392  0.9699  3.6451  0.2969
  967SOL    HW214535   3.136   0.341   2.387 -0.3143 -0.2751  0.7643
  968SOL     OW14536   0.474   2.380  11.033 -0.1339  0.6000  0.0538
  968SOL    HW114537   0.421   2.338  10.965 -0.6523  2.3268 -0.6157
  968SOL    HW214538   0.472   2.464  10.987  4.0679  0.3657 -0.5725
  969SOL     OW14539   4.660   2.219  17.411  0.0448 -0.5162 -0.0872
  969SOL    HW114540   4.577   2.259  17.386 -0.1413 -1.4423 -0.9750
  969SOL    HW214541   4.724   2.268  17.360 -1.4996  1.2145 -0.3647
  970SOL     OW14542   2.095   2.154   3.632 -0.7113  0.3081 -0.4997
  970SOL    HW114543   2.113   2.243   3.663 -0.4529  0.0865 -0.0107
  970SOL    HW214544   2.058   2.172   3.546  0.0196 -0.0868 -0.8974
  971SOL     OW14545   3.278   4.583   6.384  0.5865 -0.4985  0.2856
  971SOL    HW114546   3.267   4.499   6.339  0.4301  0.3912 -1.3434
  971SOL    HW214547   3.201   4.631   6.354  0.8911  0.0279  0.3578
  972SOL     OW14548   4.295   0.201   6.531  0.2404  1.1863 -0.1971
  972SOL    HW114549   4.341   0.238   6.455  0.1765  1.2536 -0.2025
  972SOL    HW214550   4.342   0.118   6.539 -0.2223  0.8851 -0.6146
  973SOL     OW14551   1.811   3.715   4.464 -0.1868  0.4742  0.2999
  973SOL    HW114552   1.892   3.762   4.483 -0.4287  1.9759 -2.4647
  973SOL    HW214553   1.847   3.636   4.425 -1.6952  0.5267 -1.1747
  974SOL     OW14554   2.908   3.412   4.724  0.6497 -0.4172 -0.3640
  974SOL    HW114555   2.966   3.425   4.799  1.6996 -1.9142 -0.9118
  974SOL    HW214556   2.831   3.375   4.768  1.4380  0.0812  1.4196
  975SOL     OW14557   3.948   1.430   4.758 -0.1741  0.1326  0.1102
  975SOL    HW114558   3.923   1.470   4.841 -0.5674  0.2808 -0.0813
  975SOL    HW214559   4.040   1.456   4.752 -0.5162  1.0244 -1.2703
  976SOL     OW14560   0.536   3.142   4.976 -0.0945  0.0798  0.0464
  976SOL    HW114561   0.603   3.211   4.973 -1.0832  1.1334  2.2296
  976SOL    HW214562   0.486   3.150   4.895 -1.3531  1.7408  1.0057
  977SOL     OW14563   3.950   1.081   0.094 -0.2062 -0.4171 -0.1194
  977SOL    HW114564   3.857   1.070   0.112  0.1986 -2.7721  0.4422
  977SOL    HW214565   3.969   1.167   0.131  0.6506 -1.1795  1.2037
  978SOL     OW14566   3.415   0.940  12.166 -0.0456  0.2272  0.4384
  978SOL    HW114567   3.496   0.891  12.153 -0.3967 -0.6464  1.5516
  978SOL    HW214568   3.360   0.877  12.213  0.5633  0.2055  1.1166
  979SOL     OW14569   3.179   0.642   8.603  0.6051  0.0399 -0.4310
  979SOL    HW114570   3.137   0.677   8.525  0.1421 -0.8653 -0.5891
  979SOL    HW214571   3.177   0.550   8.576  0.8041 -0.3749  0.9616
  980SOL     OW14572   3.734   2.770   8.849  0.0151 -0.4087  0.2816
  980SOL    HW114573   3.775   2.685   8.839 -0.5131 -0.3528 -2.2808
  980SOL    HW214574   3.646   2.739   8.829  0.6422 -1.6935 -0.4439
  981SOL     OW14575   3.482   3.153   0.329  0.0102  0.1173 -0.4001
  981SOL    HW114576   3.389   3.140   0.345 -0.3128  1.1362 -1.4320
  981SOL    HW214577   3.476   3.142   0.234 -0.5618  0.6154 -0.4153
  982SOL     OW14578   2.305   1.076   7.133 -0.2180 -0.3720 -0.2968
  982SOL    HW114579   2.371   1.109   7.072  0.2715 -0.6407  0.0909
  982SOL    HW214580   2.298   1.154   7.187 -0.3721 -0.4255 -0.2375
  983SOL     OW14581   2.401   2.906   9.342  0.0219 -0.3714  0.5454
  983SOL    HW114582   2.425   2.856   9.264  0.5021 -1.9278  1.7072
  983SOL    HW214583   2.389   2.841   9.411  0.6373 -2.0385 -0.9337
  984SOL     OW14584   2.347   2.074   5.524  0.1600  0.2564  0.6890
  984SOL    HW114585   2.368   2.013   5.453 -1.1174 -0.0187  0.5401
  984SOL    HW214586   2.273   2.121   5.488  1.9892  2.2866 -0.3843
  985SOL     OW14587   0.643   3.383   1.083  0.2925 -0.2246  0.5352
  985SOL    HW114588   0.678   3.316   1.141  2.1356  1.3753  1.2604
  985SOL    HW214589   0.570   3.423   1.130 -0.6092 -0.1219 -0.9498
  986SOL     OW14590   2.586   2.810  12.737 -0.2684 -0.4807  0.1839
  986SOL    HW114591   2.678   2.833  12.725 -0.4529 -1.1460 -2.4048
  986SOL    HW214592   2.577   2.751  12.663  1.5806 -1.0670  0.4280
  987SOL     OW14593   2.323   2.514   5.418 -0.5087 -0.1285  0.0934
  987SOL    HW114594   2.289   2.601   5.400  0.4523 -0.0896 -1.5064
  987SOL    HW214595   2.301   2.472   5.334  3.3337 -1.1468 -0.3968
  988SOL     OW14596   1.347   1.214   2.739  0.0363 -0.2580  0.3449
  988SOL    HW114597   1.337   1.137   2.795  0.8173 -2.4323 -2.4797
  988SOL    HW214598   1.372   1.276   2.807 -1.2163  1.3524 -0.6769
  989SOL     OW14599   1.584   3.619   6.005 -0.6269  0.6557 -0.3111
  989SOL    HW114600   1.507   3.662   6.043 -0.3334  0.9068 -0.0025
  989SOL    HW214601   1.597   3.542   6.059  1.3125  0.4903 -1.0044
  990SOL     OW14602   2.399   2.104   4.177 -0.0268 -0.6785  0.3022
  990SOL    HW114603   2.410   2.011   4.158  0.4036 -0.0375 -2.6472
  990SOL    HW214604   2.347   2.137   4.104 -2.3015 -0.1367  2.1683
  991SOL     OW14605   3.740   4.702  15.477  0.4621  0.3762 -0.7833
  991SOL    HW114606   3.752   0.017  15.396  0.6371  2.6402  0.6278
  991SOL    HW214607   3.680   4.633  15.449  0.8518 -0.8590  1.4127
  992SOL     OW14608   0.656   4.023   3.525 -0.1041 -0.0022  1.0214
  992SOL    HW114609   0.741   3.986   3.547 -0.8627 -2.6368 -0.4234
  992SOL    HW214610   0.679   4.109   3.488 -2.1534 -0.6396 -1.7656
  993SOL     OW14611   0.568   0.560   2.988  0.3996 -0.3308  0.3011
  993SOL    HW114612   0.545   0.596   2.902  0.9910 -1.3760 -0.2937
  993SOL    HW214613   0.483   0.535   3.023  0.2694  0.0540  0.2586
  994SOL     OW14614   1.126   0.621   2.570  0.1139 -0.4986 -0.0310
  994SOL    HW114615   1.221   0.616   2.563  0.2011  1.2984 -0.1814
  994SOL    HW214616   1.105   0.699   2.518 -2.2486 -0.4719  0.9201
  995SOL     OW14617   0.477   1.766   6.424  0.2768 -0.7175 -0.0284
  995SOL    HW114618   0.561   1.774   6.469 -0.0800  2.3542  0.0795
  995SOL    HW214619   0.487   1.673   6.402  0.4074 -0.8005  0.3843
  996SOL     OW14620   4.516   3.387   3.144 -0.1709  0.5250  0.2937
  996SOL    HW114621   4.429   3.396   3.183 -0.3724 -0.5587  0.0936
  996SOL    HW214622   4.567   3.419   3.219  0.6697 -0.0084 -0.0456
  997SOL     OW14623   3.629   3.249   7.147  0.3286 -0.2245  0.1637
  997SOL    HW114624   3.573   3.303   7.203 -0.4358 -0.1109 -0.7060
  997SOL    HW214625   3.595   3.266   7.059 -0.7347  1.4177  0.8954
  998SOL     OW14626   2.488   4.349   4.595  0.2233 -1.1393 -0.6880
  998SOL    HW114627   2.500   4.268   4.544 -0.6952 -2.4111  1.1459
  998SOL    HW214628   2.398   4.374   4.576  0.5490  0.3846 -0.2018
  999SOL     OW14629   4.246   1.806   4.736  0.4703  0.4749 -0.4044
  999SOL    HW114630   4.166   1.830   4.783  0.0869 -2.2113  0.3389
  999SOL    HW214631   4.246   1.710   4.731 -1.1315  0.4450  0.0880
 1000SOL     OW14632   2.333   0.121   6.462  0.0592 -0.2189  0.2492
 1000SOL    HW114633   2.321   0.179   6.538  2.2483  0.4995  0.0500
 1000SOL    HW214634   2.261   0.156   6.410 -0.7938 -0.0826  1.5162
 1001SOL     OW14635   1.082   4.673   8.399 -0.2598  0.3122 -0.1786
 1001SOL    HW114636   1.140   4.679   8.323  0.4123  3.1925  0.5456
 1001SOL    HW214637   1.135   4.607   8.442  1.1338  2.3124  1.2081
 1002SOL     OW14638   1.799   4.079   8.857  0.1369  0.6159  0.2290
 1002SOL    HW114639   1.772   4.087   8.765 -0.0181  0.2774  0.2440
 1002SOL    HW214640   1.733   4.128   8.906  0.0506  0.1486  0.5806
 1003SOL     OW14641   1.223   4.507   7.004 -0.1253 -0.4228 -0.4366
 1003SOL    HW114642   1.315   4.495   7.027 -0.3627 -1.1855  0.1111
 1003SOL    HW214643   1.228   4.443   6.932  0.2012 -0.3916 -0.4414
 1004SOL     OW14644   2.232   3.355   4.220  0.2909  0.1042  0.1020
 1004SOL    HW114645   2.157   3.304   4.188 -0.4655  0.0144  1.9934
 1004SOL    HW214646   2.239   3.312   4.305  1.9663  1.4881  0.6579
 1005SOL     OW14647   4.504   0.185   5.327  0.2251 -0.1136 -0.1313
 1005SOL    HW114648   4.458   0.144   5.254  0.5439 -1.0532  0.1967
 1005SOL    HW214649   4.510   0.116   5.393 -2.9988  0.8759  1.2393
 1006SOL     OW14650   1.691   1.541   2.701  0.1360 -0.2461  0.1527
 1006SOL    HW114651   1.755   1.601   2.738  0.7933 -1.2563  0.6225
 1006SOL    HW214652   1.612   1.589   2.727  1.7765  0.5763  3.5047
 1007SOL     OW14653   2.159   3.125   8.668 -0.5367  0.2122 -0.3120
 1007SOL    HW114654   2.113   3.169   8.596 -1.8242  1.9027  1.5098
 1007SOL    HW214655   2.169   3.036   8.635 -1.2597  0.5574 -1.4672
 1008SOL     OW14656   0.782   2.331   3.014 -0.6600 -0.1357  0.0097
 1008SOL    HW114657   0.857   2.385   2.990  0.4185 -0.8433  1.7915
 1008SOL    HW214658   0.746   2.383   3.085 -0.2066 -2.7419  2.1610
 1009SOL     OW14659   0.987   3.925  10.415 -0.8895 -0.4403 -0.6825
 1009SOL    HW114660   1.006   3.909  10.508  2.3406  0.9624 -1.1037
 1009SOL    HW214661   1.056   3.880  10.367 -0.8622 -0.5397 -0.5516
 1010SOL     OW14662   1.435   2.958   0.003 -0.4512 -0.1618 -0.3321
 1010SOL    HW114663   1.344   2.955  17.711 -0.3240 -0.8570 -0.6976
 1010SOL    HW214664   1.478   2.940  17.654 -0.0269  0.7515 -0.3093
 1011SOL     OW14665   2.493   3.535   3.629  0.5441 -0.0532  0.2101
 1011SOL    HW114666   2.530   3.549   3.542 -2.7741  0.8650 -1.0489
 1011SOL    HW214667   2.430   3.467   3.604  0.3113  0.5308 -0.7670
 1012SOL     OW14668   4.419   4.151   4.132 -0.0226 -0.3495 -0.1211
 1012SOL    HW114669   4.345   4.211   4.138  0.2770 -0.2529  2.5249
 1012SOL    HW214670   4.409   4.123   4.041  0.4313 -2.6918  0.5357
 1013SOL     OW14671   1.279   0.853   4.123 -0.6458  0.6262 -0.4435
 1013SOL    HW114672   1.262   0.777   4.068 -0.7326  0.7533 -0.5898
 1013SOL    HW214673   1.310   0.809   4.203  0.4322  0.4732 -0.9340
 1014SOL     OW14674   1.548   0.819   9.563 -0.2602  0.0983  0.3015
 1014SOL    HW114675   1.602   0.894   9.588  2.5079 -1.4552 -1.0187
 1014SOL    HW214676   1.514   0.845   9.477 -1.6434 -0.8264  0.5551
 1015SOL     OW14677   4.629   0.829   5.753 -0.3029  0.0762  0.0124
 1015SOL    HW114678   4.663   0.906   5.800  0.0719 -1.0324  1.5438
 1015SOL    HW214679   4.698   0.823   5.687  0.3543  0.6312  0.6454
 1016SOL     OW14680   2.481   4.495   1.720 -0.2690 -0.7999 -0.4873
 1016SOL    HW114681   2.406   4.457   1.766  0.3016 -1.7170 -0.3239
 1016SOL    HW214682   2.471   4.456   1.633 -1.4457  1.4119 -1.3399
 1017SOL     OW14683   2.395   2.425  12.045 -0.2794 -0.4456 -0.2801
 1017SOL    HW114684   2.349   2.342  12.059 -0.4104 -0.8016 -2.8486
 1017SOL    HW214685   2.333   2.493  12.072  0.1037 -0.3668  0.3967
 1018SOL     OW14686   3.151   1.833   4.079 -0.5378 -0.9317  0.0280
 1018SOL    HW114687   3.065   1.874   4.089  0.4834  1.0332  0.7160
 1018SOL    HW214688   3.159   1.807   4.170  3.3198  2.8549  0.7246
 1019SOL     OW14689   2.010   2.712  16.738 -0.0090 -0.1253  0.2099
 1019SOL    HW114690   2.014   2.799  16.696  3.3601 -0.7657 -0.7790
 1019SOL    HW214691   2.014   2.664  16.655 -0.6731  0.4855 -0.1826
 1020SOL     OW14692   4.138   2.308  10.897  0.0068 -1.2235  0.2805
 1020SOL    HW114693   4.219   2.291  10.945  1.1418  0.1370 -1.1136
 1020SOL    HW214694   4.175   2.347  10.817 -1.1781  3.6350  2.1132
 1021SOL     OW14695   3.314   0.588   8.320  0.1284  0.5891  0.5734
 1021SOL    HW114696   3.404   0.584   8.354  0.4044 -0.6236 -0.3394
 1021SOL    HW214697   3.301   0.681   8.341 -1.3670  1.2123 -3.1779
 1022SOL     OW14698   3.875   3.483  11.606 -0.5855 -0.2629 -0.2768
 1022SOL    HW114699   3.935   3.425  11.653 -1.1714  0.5746  1.4959
 1022SOL    HW214700   3.941   3.544  11.572 -1.1830  1.0424  0.8945
 1023SOL     OW14701   2.699   0.947   5.334 -0.1371 -0.1551  0.1312
 1023SOL    HW114702   2.696   1.018   5.270 -2.0203 -0.1167  0.2511
 1023SOL    HW214703   2.608   0.918   5.327  0.0465 -0.6636 -0.1012
 1024SOL     OW14704   4.724   2.516   6.880  0.2567 -0.1579  0.5510
 1024SOL    HW114705   4.644   2.482   6.838  0.9391 -0.4306 -0.5088
 1024SOL    HW214706   4.691   2.595   6.923  0.9993 -0.3804  1.5134
 1025SOL     OW14707   1.607   3.877   5.911  0.0402  0.4436 -0.1148
 1025SOL    HW114708   1.700   3.882   5.891 -0.2694  2.1572 -1.1600
 1025SOL    HW214709   1.594   3.784   5.891 -0.9151  0.5777 -0.1324
 1026SOL     OW14710   4.715   0.492   2.960 -0.1840 -0.1727  0.1448
 1026SOL    HW114711   4.675   0.489   3.047 -0.5332 -0.0396 -0.0141
 1026SOL    HW214712   4.707   0.583   2.934  1.6966  0.2224  0.9235
 1027SOL     OW14713   4.622   2.207  16.990 -0.0366 -0.5134  0.2091
 1027SOL    HW114714   4.586   2.291  16.961  1.0981  0.8614  2.7677
 1027SOL    HW214715   4.717   2.214  16.985 -0.0694 -0.9490 -1.1556
 1028SOL     OW14716   2.924   3.220   6.301 -0.0669  0.5370  0.3771
 1028SOL    HW114717   2.884   3.300   6.266  0.9209  1.1362  0.6222
 1028SOL    HW214718   3.004   3.199   6.253  0.0614 -0.8045  1.1972
 1029SOL     OW14719   1.346   2.341   5.445 -0.2337 -0.5524 -0.1983
 1029SOL    HW114720   1.375   2.271   5.386 -2.0100 -1.0887 -0.4655
 1029SOL    HW214721   1.365   2.301   5.530  0.6142 -2.0051 -1.0809
 1030SOL     OW14722   3.626   2.133   4.396 -0.1266  0.2239 -0.0228
 1030SOL    HW114723   3.602   2.164   4.308 -1.1771 -2.1010 -0.5590
 1030SOL    HW214724   3.691   2.068   4.367  3.1816  3.2509  0.5988
 1031SOL     OW14725   3.234   0.423   7.258  0.3677  0.1511 -0.1513
 1031SOL    HW114726   3.264   0.456   7.343  2.3220  0.5776 -1.0260
 1031SOL    HW214727   3.316   0.435   7.211 -0.0218  1.9763 -0.3638
 1032SOL     OW14728   2.031   2.347   3.399 -0.4101  0.4253 -0.4119
 1032SOL    HW114729   1.945   2.342   3.440 -0.9725  2.3879 -1.3415
 1032SOL    HW214730   2.028   2.432   3.355 -0.3343  0.9178  0.5394
 1033SOL     OW14731   3.126   3.036   5.221 -0.1932  0.9303 -0.2059
 1033SOL    HW114732   3.052   2.989   5.183  0.4636  1.6640 -2.4217
 1033SOL    HW214733   3.183   3.027   5.144 -1.4494  0.4737 -1.0787
 1034SOL     OW14734   4.123   2.329   4.500 -0.1036  0.0653  0.4879
 1034SOL    HW114735   4.092   2.326   4.410 -1.5939 -1.5806  1.0677
 1034SOL    HW214736   4.042   2.299   4.541  1.1835  0.2049  3.1469
 1035SOL     OW14737   2.535   0.250  14.894 -0.8932 -0.2479  0.7390
 1035SOL    HW114738   2.566   0.223  14.808  1.4805  0.3678  1.4116
 1035SOL    HW214739   2.475   0.316  14.859  2.3304  1.2409 -1.9086
 1036SOL     OW14740   0.522   2.731   8.912  0.0668  0.5422 -0.2315
 1036SOL    HW114741   0.593   2.687   8.865  1.2831  0.6508  1.4997
 1036SOL    HW214742   0.471   2.653   8.935 -2.2110  2.2425  0.5087
 1037SOL     OW14743   0.373   0.559  12.773 -0.5711 -0.0143 -0.1859
 1037SOL    HW114744   0.459   0.600  12.782 -0.3268 -1.1111  2.4687
 1037SOL    HW214745   0.390   0.491  12.708  1.3500  0.6168 -0.3459
 1038SOL     OW14746   2.488   4.552   1.288 -0.5697 -0.2168  0.3656
 1038SOL    HW114747   2.427   4.613   1.247  1.3675  1.2195 -0.4040
 1038SOL    HW214748   2.428   4.484   1.318 -1.7725  0.8797  0.4423
 1039SOL     OW14749   0.968   4.527   4.982 -0.2144 -0.2159 -0.2217
 1039SOL    HW114750   1.052   4.532   5.029 -0.7408 -0.1006  0.7044
 1039SOL    HW214751   0.905   4.572   5.037  0.4299  0.6534 -0.1962
 1040SOL     OW14752   4.576   4.528   6.439 -0.1202 -0.1944  0.3782
 1040SOL    HW114753   4.553   4.435   6.439 -1.1957  0.0681 -0.0469
 1040SOL    HW214754   4.544   4.552   6.526  1.9423  0.4687  0.9382
 1041SOL     OW14755   0.945   0.148  12.471  0.3106 -0.3125 -0.5641
 1041SOL    HW114756   0.893   0.220  12.436 -1.8345 -2.1722 -1.2317
 1041SOL    HW214757   1.026   0.199  12.472 -0.8002  1.4447 -0.2593
 1042SOL     OW14758   2.744   3.981   5.410  0.5820 -0.0641  0.7963
 1042SOL    HW114759   2.837   3.972   5.391 -0.1040 -0.9579 -2.2406
 1042SOL    HW214760   2.736   3.922   5.484  0.6994 -0.5842  0.3909
 1043SOL     OW14761   2.027   3.662  11.339 -0.2523 -0.1162 -0.3256
 1043SOL    HW114762   2.051   3.667  11.432  0.2725  0.7279 -0.5076
 1043SOL    HW214763   2.115   3.646  11.305 -0.8421 -2.4901 -0.6876
 1044SOL     OW14764   3.349   2.295   7.164  0.0746 -0.1320 -0.0948
 1044SOL    HW114765   3.414   2.226   7.177 -1.4262 -1.3294  1.1035
 1044SOL    HW214766   3.289   2.249   7.106 -0.4064 -3.0826  2.7030
 1045SOL     OW14767   3.654   1.081  16.339 -0.2237 -0.3803 -0.3732
 1045SOL    HW114768   3.655   1.041  16.252  0.4319 -1.3208  0.0677
 1045SOL    HW214769   3.634   1.168  16.305 -1.4247 -0.0990  1.0288
 1046SOL     OW14770   0.994   4.039  13.263  0.0479 -0.0536  0.1991
 1046SOL    HW114771   0.915   4.091  13.248  0.7155  0.6084 -0.9801
 1046SOL    HW214772   0.958   3.958  13.297 -1.5763 -0.0018 -1.3950
 1047SOL     OW14773   1.314   4.089   4.235 -0.7644 -0.1078  0.2263
 1047SOL    HW114774   1.240   4.034   4.210 -0.5129  0.2014 -1.1563
 1047SOL    HW214775   1.335   4.060   4.324  0.8759  0.5686  0.0681
 1048SOL     OW14776   3.177   4.584  17.310  0.6768  0.3238  0.4578
 1048SOL    HW114777   3.236   4.551  17.377 -0.7889 -1.5483  0.8246
 1048SOL    HW214778   3.180   4.517  17.241  0.0792 -0.0088  0.7582
 1049SOL     OW14779   1.738   2.724   1.076 -0.0635  0.0790  0.3014
 1049SOL    HW114780   1.779   2.808   1.052 -0.6273  0.5746  1.1096
 1049SOL    HW214781   1.703   2.694   0.992 -1.4724 -0.1510  0.9808
 1050SOL     OW14782   3.156   4.423  14.435  0.0106  0.3061 -0.0735
 1050SOL    HW114783   3.144   4.463  14.521 -0.2839 -0.8332  0.4267
 1050SOL    HW214784   3.068   4.400  14.402  0.0132  2.3524 -1.4497
 1051SOL     OW14785   2.973   0.798   9.004 -0.2856  0.0962  0.4037
 1051SOL    HW114786   2.963   0.889   9.035 -1.8646  0.4225 -1.0615
 1051SOL    HW214787   2.967   0.807   8.909  0.1934 -1.6949  0.2120
 1052SOL     OW14788   0.460   1.627  15.206 -0.3251  0.4604 -0.0393
 1052SOL    HW114789   0.512   1.550  15.184  0.2730  1.7273 -3.0109
 1052SOL    HW214790   0.382   1.581  15.239  1.3495 -3.0937 -1.0186
 1053SOL     OW14791   0.243   1.478   3.503 -0.0150  0.6562  0.4862
 1053SOL    HW114792   0.268   1.386   3.502 -0.7556  0.4379  2.7364
 1053SOL    HW214793   0.163   1.462   3.453  0.1474 -0.6226  0.6564
 1054SOL     OW14794   2.847   1.821   1.755  0.3349  0.2648 -0.7448
 1054SOL    HW114795   2.807   1.883   1.695 -1.8296 -1.2602 -0.8704
 1054SOL    HW214796   2.842   1.876   1.834  0.7336 -0.7195 -0.0408
 1055SOL     OW14797   2.197   1.819   4.713  0.0872 -0.6742  0.6370
 1055SOL    HW114798   2.180   1.866   4.631  0.7432 -1.1394  0.2378
 1055SOL    HW214799   2.259   1.878   4.756  0.8812 -1.1234  0.1082
 1056SOL     OW14800   1.494   4.191   0.534 -0.0621 -0.0215  0.2423
 1056SOL    HW114801   1.451   4.258   0.587  0.9435 -1.5619  2.9855
 1056SOL    HW214802   1.579   4.236   0.531 -0.7074  0.9623 -3.0798
 1057SOL     OW14803   4.187   3.698   2.332  0.3433  0.1512 -0.4586
 1057SOL    HW114804   4.126   3.768   2.308  1.0326  0.7849 -0.3559
 1057SOL    HW214805   4.268   3.744   2.309  0.1229  3.1234  4.5157
 1058SOL     OW14806   3.455   0.801  15.971  0.0688  0.5185  0.4157
 1058SOL    HW114807   3.443   0.891  15.943  0.2235  0.3074 -0.3427
 1058SOL    HW214808   3.472   0.752  15.890  0.7994 -3.1352  2.7627
 1059SOL     OW14809   1.263   0.537   6.335  0.1160  0.1090  0.0684
 1059SOL    HW114810   1.336   0.495   6.290 -2.0757 -4.3410  0.6420
 1059SOL    HW214811   1.274   0.626   6.302 -0.1182  0.1468  0.0920
 1060SOL     OW14812   3.920   4.213   1.168  0.0621 -0.1355  0.1335
 1060SOL    HW114813   3.947   4.228   1.078 -1.9510  2.9711  0.0444
 1060SOL    HW214814   3.984   4.276   1.200  1.4126 -0.1490 -2.5913
 1061SOL     OW14815   3.309   2.411   6.052 -0.0135 -0.0126  0.3061
 1061SOL    HW114816   3.214   2.407   6.048  0.1013 -1.7046 -0.7012
 1061SOL    HW214817   3.317   2.446   6.141 -0.0486  1.6369 -0.3383
 1062SOL     OW14818   1.100   2.637  13.642 -0.6468 -0.1769 -0.3256
 1062SOL    HW114819   1.040   2.711  13.649  0.1626  0.3516  1.0725
 1062SOL    HW214820   1.172   2.668  13.696  0.3741 -1.4327 -0.9527
 1063SOL     OW14821   0.998   0.113   8.861 -0.6230 -0.2189  0.4057
 1063SOL    HW114822   1.023   0.044   8.922 -1.0930 -0.7620 -0.0083
 1063SOL    HW214823   0.993   0.063   8.780  2.8271 -1.1266  0.7764
 1064SOL     OW14824   3.003   2.564   4.282  0.4862  0.1641  0.9940
 1064SOL    HW114825   2.961   2.495   4.333  0.1983  1.2533  2.2361
 1064SOL    HW214826   3.037   2.515   4.208 -1.9308 -1.0851  0.7058
 1065SOL     OW14827   0.149   2.088  15.395 -0.0840  0.1077  0.2329
 1065SOL    HW114828   0.062   2.073  15.358 -0.0783 -0.4258  0.4375
 1065SOL    HW214829   0.204   2.121  15.325  1.0176 -0.3620  0.8843
 1066SOL     OW14830   1.180   2.837   8.532  0.3659 -0.0059  0.8160
 1066SOL    HW114831   1.144   2.846   8.620 -0.5430 -1.6797  0.6237
 1066SOL    HW214832   1.266   2.804   8.559  1.1183 -0.4652 -2.1448
 1067SOL     OW14833   2.680   4.285   8.428  0.1186 -0.4065 -0.2361
 1067SOL    HW114834   2.645   4.197   8.411  0.3088 -0.5308  0.0157
 1067SOL    HW214835   2.696   4.329   8.345 -1.0898  0.7867  0.1721
 1068SOL     OW14836   3.467   4.342   5.097  0.0883  0.2286 -1.0081
 1068SOL    HW114837   3.547   4.392   5.083  0.7176 -0.1862  1.0935
 1068SOL    HW214838   3.503   4.253   5.093  1.5696  0.8919 -2.2511
 1069SOL     OW14839   0.136   3.837   6.769 -0.0544 -0.0518  0.1541
 1069SOL    HW114840   0.171   3.884   6.693  2.6963 -0.2339  1.3072
 1069SOL    HW214841   0.143   3.753   6.724 -0.1622 -0.3918  0.7736
 1070SOL     OW14842   0.461   4.495   8.981 -0.2075  0.1349  0.4526
 1070SOL    HW114843   0.412   4.559   8.930 -1.1288  0.5478  1.8790
 1070SOL    HW214844   0.401   4.420   8.972  0.5574 -0.0323 -3.4332
 1071SOL     OW14845   3.574   4.473   4.528 -0.3703 -0.0393 -0.6076
 1071SOL    HW114846   3.490   4.477   4.574 -0.6326 -0.5209 -1.0448
 1071SOL    HW214847   3.617   4.404   4.578  0.0110  1.1696  0.7379
 1072SOL     OW14848   2.981   2.262   5.387  0.2177 -0.3236 -0.2387
 1072SOL    HW114849   2.965   2.260   5.292 -0.2395 -3.1222 -0.1144
 1072SOL    HW214850   3.065   2.216   5.394  0.3781  0.0496  0.2212
 1073SOL     OW14851   4.235   3.724  15.737  0.2632 -0.3352  0.1699
 1073SOL    HW114852   4.319   3.734  15.780  0.8297 -0.8791 -0.8062
 1073SOL    HW214853   4.185   3.699  15.816  0.2320 -1.5447 -0.2230
 1074SOL     OW14854   1.535   4.609   5.923 -0.3753 -0.4906  0.3042
 1074SOL    HW114855   1.581   4.539   5.875  0.0099 -0.9156  1.2972
 1074SOL    HW214856   1.451   4.611   5.877 -1.0502 -3.3551  1.4196
 1075SOL     OW14857   1.663   2.147  12.422  0.7136  0.1242  0.2294
 1075SOL    HW114858   1.661   2.237  12.452  0.1059 -0.9840  3.5267
 1075SOL    HW214859   1.680   2.154  12.328 -0.7292 -0.8064 -0.1044
 1076SOL     OW14860   0.254   1.512   6.214 -0.2065 -0.2759 -0.3156
 1076SOL    HW114861   0.307   1.483   6.288  0.4603 -1.1412 -1.1276
 1076SOL    HW214862   0.203   1.587   6.246  0.2141  0.0094 -0.3034
 1077SOL     OW14863   1.552   2.642   3.721  0.5775 -0.0532 -0.0632
 1077SOL    HW114864   1.606   2.650   3.642 -1.0255  1.1977 -1.0358
 1077SOL    HW214865   1.526   2.734   3.727 -0.0725 -0.1491 -1.3481
 1078SOL     OW14866   2.247   2.803   7.611  0.1353 -0.5727  0.6316
 1078SOL    HW114867   2.230   2.709   7.606 -3.8302  0.1648 -0.0435
 1078SOL    HW214868   2.245   2.825   7.518  0.8429 -2.1237  0.2457
 1079SOL     OW14869   1.083   2.628   4.893  0.1344  0.4015  0.0761
 1079SOL    HW114870   1.000   2.621   4.941 -0.3711  0.1434 -0.8331
 1079SOL    HW214871   1.060   2.687   4.821  1.8025  0.5624 -0.3109
 1080SOL     OW14872   2.449   2.446   3.931  0.5560  0.0284  0.0064
 1080SOL    HW114873   2.387   2.487   3.992 -1.8019 -1.8651 -1.1274
 1080SOL    HW214874   2.387   2.406   3.870  1.8019 -0.3731 -0.9989
 1081SOL     OW14875   4.686   3.646  11.682 -0.0860 -0.2619 -0.0301
 1081SOL    HW114876   4.594   3.673  11.688 -0.4849 -1.5668 -0.1704
 1081SOL    HW214877   4.692   3.663  11.588  2.5718  1.8280  0.5183
 1082SOL     OW14878   4.306   4.079   5.827 -0.0804  0.0063 -0.6113
 1082SOL    HW114879   4.283   4.079   5.920  1.8065 -1.3658 -0.1320
 1082SOL    HW214880   4.262   3.997   5.804 -0.2079  0.7290 -2.9350
 1083SOL     OW14881   3.953   4.064   8.307 -0.1974 -0.0306  0.3159
 1083SOL    HW114882   3.888   4.092   8.372  2.1018  2.2192  1.6913
 1083SOL    HW214883   3.983   3.985   8.351 -0.9713  0.8057  2.3456
 1084SOL     OW14884   0.748   1.094   8.773 -0.3691 -0.4009 -0.4230
 1084SOL    HW114885   0.716   1.085   8.683  0.6424  4.3656 -1.2556
 1084SOL    HW214886   0.821   1.156   8.768 -0.4921 -0.2264 -0.0358
 1085SOL     OW14887   3.747   4.415  13.877 -0.8114 -0.4482 -0.1702
 1085SOL    HW114888   3.721   4.426  13.968  0.1612 -0.9667  0.1677
 1085SOL    HW214889   3.718   4.324  13.876 -1.8904 -0.1092  1.0704
 1086SOL     OW14890   2.409   1.853   2.063 -0.1618 -0.6261 -0.2461
 1086SOL    HW114891   2.445   1.764   2.067 -1.0544 -0.8548  2.4191
 1086SOL    HW214892   2.316   1.841   2.085 -0.5196 -1.0120 -1.9505
 1087SOL     OW14893   0.545   0.761  12.914  0.0768  0.3637 -0.5016
 1087SOL    HW114894   0.609   0.699  12.949  0.9274  0.9313 -1.0357
 1087SOL    HW214895   0.471   0.750  12.973  2.0948 -2.4061  1.5137
 1088SOL     OW14896   4.723   0.058   4.625  0.1753 -0.2563  0.3389
 1088SOL    HW114897   4.645   0.022   4.582 -1.6461  1.5744  2.1011
 1088SOL    HW214898   4.719   0.014   4.710 -1.1735 -1.0987 -0.1617
 1089SOL     OW14899   0.359   1.766   4.186  0.4815 -0.0275 -0.0144
 1089SOL    HW114900   0.316   1.851   4.181  1.5569  0.6202  1.7207
 1089SOL    HW214901   0.336   1.732   4.100 -0.8273  1.2998 -0.1915
 1090SOL     OW14902   0.328   2.843   3.821  0.1664 -0.0047  0.4353
 1090SOL    HW114903   0.412   2.839   3.866 -0.2848 -0.5289  1.2318
 1090SOL    HW214904   0.313   2.748   3.814  1.5225 -0.1806 -0.0267
 1091SOL     OW14905   1.431   3.395   6.395 -0.0806  0.1207 -0.0498
 1091SOL    HW114906   1.423   3.486   6.421  1.8213 -0.2755  1.9035
 1091SOL    HW214907   1.490   3.353   6.458 -0.4087 -0.3683 -0.0673
 1092SOL     OW14908   3.918   3.700   8.895  0.2765  0.3317  0.6139
 1092SOL    HW114909   3.958   3.615   8.911  0.2062  0.6843  2.7065
 1092SOL    HW214910   3.976   3.749   8.953  1.0382  2.5382 -2.0527
 1093SOL     OW14911   4.454   0.255   4.699 -0.2074  0.2580  0.1950
 1093SOL    HW114912   4.420   0.256   4.610 -1.2392  0.3431  0.5957
 1093SOL    HW214913   4.506   0.175   4.689 -4.0019 -2.2121  0.2415
 1094SOL     OW14914   1.280   0.789   6.233  0.3063  0.6135 -0.2033
 1094SOL    HW114915   1.214   0.853   6.207  1.9566  3.3137  2.1733
 1094SOL    HW214916   1.349   0.807   6.169  1.5114 -3.1689  0.0482
 1095SOL     OW14917   0.849   1.716   4.231 -0.4220 -0.2779 -0.0721
 1095SOL    HW114918   0.779   1.671   4.183 -0.4914  0.6843 -0.8820
 1095SOL    HW214919   0.896   1.761   4.161 -0.6905 -2.5885 -1.7471
 1096SOL     OW14920   1.357   4.641   7.540 -0.2405 -0.1147  0.5006
 1096SOL    HW114921   1.397   4.573   7.594 -1.3058 -1.2846 -0.1607
 1096SOL    HW214922   1.306   4.590   7.477  2.4038 -0.6103 -1.2269
 1097SOL     OW14923   1.925   2.749  11.132  0.0584 -0.0526 -0.3319
 1097SOL    HW114924   2.011   2.762  11.093 -0.8367 -1.6620 -2.8451
 1097SOL    HW214925   1.935   2.665  11.177 -2.1750 -0.2493 -0.2055
 1098SOL     OW14926   3.204   2.817   8.923  0.6205  0.2558  0.8793
 1098SOL    HW114927   3.171   2.902   8.951 -0.7622 -0.4845  1.5394
 1098SOL    HW214928   3.277   2.842   8.867  0.3331  2.1284  1.3624
 1099SOL     OW14929   0.318   1.560   6.679 -0.4228  0.1475 -0.4382
 1099SOL    HW114930   0.366   1.530   6.602 -0.3529 -2.0108  0.4572
 1099SOL    HW214931   0.378   1.622   6.719 -1.4390  0.6122  0.3611
 1100SOL     OW14932   4.520   4.645   4.297  0.0668 -0.3661 -0.6478
 1100SOL    HW114933   4.454   4.607   4.240 -1.0407 -0.0526  0.4398
 1100SOL    HW214934   4.546   4.714   4.236  0.7695  0.3869  0.5054
 1101SOL     OW14935   4.173   2.210   6.581 -0.9227 -0.1248  0.3532
 1101SOL    HW114936   4.252   2.181   6.534 -0.8222  0.5411  0.1172
 1101SOL    HW214937   4.197   2.208   6.673 -0.0089 -1.4832  0.0892
 1102SOL     OW14938   1.338   2.974   3.563 -0.3405  0.0415  0.0111
 1102SOL    HW114939   1.270   3.031   3.597 -0.8705  0.2749 -1.4323
 1102SOL    HW214940   1.288   2.908   3.515  3.3708 -1.5779 -1.6145
 1103SOL     OW14941   3.720   1.071   7.965  0.0497  0.5060  0.8160
 1103SOL    HW114942   3.672   1.058   7.883  0.4975 -0.8849  0.7698
 1103SOL    HW214943   3.800   1.022   7.948  0.2084 -0.4467  4.1716
 1104SOL     OW14944   1.968   0.680   8.267  0.0761  0.1845 -0.7296
 1104SOL    HW114945   1.884   0.638   8.249  0.7147 -0.8281 -1.3923
 1104SOL    HW214946   2.019   0.607   8.302 -0.3892  0.6210  0.8773
 1105SOL     OW14947   0.035   1.283  11.007  0.0301 -0.0977  0.0167
 1105SOL    HW114948   4.674   1.284  11.016  0.0947 -0.7736  0.7306
 1105SOL    HW214949   0.069   1.288  11.096 -0.2191  1.0402  0.0524
 1106SOL     OW14950   3.236   0.856  14.049 -0.0669 -0.0759  0.4027
 1106SOL    HW114951   3.270   0.916  13.983  0.1655 -0.0542  0.5452
 1106SOL    HW214952   3.156   0.832  14.001  1.2583  1.9563 -2.8601
 1107SOL     OW14953   4.364   3.572   8.079 -0.2243 -0.1488  0.1328
 1107SOL    HW114954   4.396   3.487   8.048 -0.5994 -1.4503  3.2601
 1107SOL    HW214955   4.439   3.585   8.137  0.4462 -0.5884 -0.6431
 1108SOL     OW14956   0.239   2.974   9.233  0.5677 -0.3559 -0.3305
 1108SOL    HW114957   0.263   2.973   9.140  2.4457  2.1102  0.1374
 1108SOL    HW214958   0.150   3.005   9.214  1.5436  1.6790 -1.5557
 1109SOL     OW14959   3.604   2.628   7.314 -0.5345  0.0893  0.6096
 1109SOL    HW114960   3.533   2.615   7.376  0.4808  0.3659  1.8348
 1109SOL    HW214961   3.666   2.576   7.365 -1.0692 -0.4548  0.7010
 1110SOL     OW14962   2.227   0.933   2.658 -0.7946 -0.7022  0.1496
 1110SOL    HW114963   2.156   0.879   2.694 -0.0440  0.2261  3.0271
 1110SOL    HW214964   2.186   1.020   2.658 -1.2204 -0.9063  1.3957
 1111SOL     OW14965   1.164   2.806  10.859  0.1790  0.5816 -0.3354
 1111SOL    HW114966   1.105   2.777  10.790  1.1031 -1.8769 -0.0882
 1111SOL    HW214967   1.232   2.837  10.800  1.2532  0.0265  0.6052
 1112SOL     OW14968   1.346   3.290   7.320  0.0185  0.3227 -0.4726
 1112SOL    HW114969   1.267   3.328   7.282 -1.6359 -2.6574 -0.0379
 1112SOL    HW214970   1.315   3.214   7.370 -2.2426  1.2361 -0.5043
 1113SOL     OW14971   2.521   2.631   7.409  0.0099 -0.1576 -0.2652
 1113SOL    HW114972   2.616   2.626   7.413 -0.0012 -0.0974  0.0373
 1113SOL    HW214973   2.499   2.562   7.472  0.1184  1.3744  1.4543
 1114SOL     OW14974   0.720   4.521   8.204 -0.7932 -0.9845 -0.1485
 1114SOL    HW114975   0.664   4.546   8.130  1.8281  1.6251 -1.2639
 1114SOL    HW214976   0.643   4.501   8.258 -0.8426  0.7255  0.4006
 1115SOL     OW14977   1.845   2.255   8.957  0.3452  0.0302 -0.1065
 1115SOL    HW114978   1.810   2.202   9.028  2.4100  0.4748  1.2550
 1115SOL    HW214979   1.868   2.183   8.898  1.3912  0.2377  0.0465
 1116SOL     OW14980   0.146   2.414   0.787 -1.1560 -0.1585 -0.4334
 1116SOL    HW114981   0.205   2.353   0.831  1.4767  0.5216 -3.0018
 1116SOL    HW214982   0.207   2.476   0.747 -0.0239  0.0100  1.5865
 1117SOL     OW14983   2.041   1.466   8.190 -0.5647 -0.0191  0.3115
 1117SOL    HW114984   2.077   1.554   8.203  0.3753 -0.7832  2.8279
 1117SOL    HW214985   1.953   1.494   8.215 -0.0272  1.2540  0.7608
 1118SOL     OW14986   0.351   2.062  12.835  0.1096  0.2362  0.1989
 1118SOL    HW114987   0.447   2.065  12.833  0.1398  0.4897  1.9511
 1118SOL    HW214988   0.341   2.111  12.753 -2.3256  0.4465  0.6379
 1119SOL     OW14989   3.613   2.914   9.223 -0.3741 -0.4996 -0.4182
 1119SOL    HW114990   3.648   2.828   9.199  0.1468 -0.6769  0.9576
 1119SOL    HW214991   3.639   2.906   9.315  1.7389  1.6346 -0.7997
 1120SOL     OW14992   1.312   1.555   6.674  0.2811  0.1581  0.1696
 1120SOL    HW114993   1.252   1.504   6.729 -0.3526 -0.3783 -1.0221
 1120SOL    HW214994   1.321   1.627   6.737  0.8256  0.3922 -0.1814
 1121SOL     OW14995   4.468   3.572  15.282 -0.4101 -0.3688 -0.6127
 1121SOL    HW114996   4.431   3.639  15.340 -0.3030  1.3439 -2.4953
 1121SOL    HW214997   4.402   3.505  15.300 -2.2556  1.7691  0.5974
 1122SOL     OW14998   3.285   0.672   3.441  0.0464 -0.3415  0.4570
 1122SOL    HW114999   3.271   0.742   3.377 -1.8636  2.3434  3.7725
 1122SOL    HW215000   3.227   0.602   3.412  0.8723  0.0428 -2.0427
 1123SOL     OW15001   3.539   2.745   2.699 -0.2983 -0.2365  0.2703
 1123SOL    HW115002   3.499   2.832   2.699 -1.4739 -0.7729 -1.2107
 1123SOL    HW215003   3.542   2.717   2.608 -0.7710  0.0543  0.1647
 1124SOL     OW15004   0.792   1.944   3.874 -0.5627  0.1092 -0.6635
 1124SOL    HW115005   0.873   1.934   3.923 -0.7286  1.1433 -0.1825
 1124SOL    HW215006   0.823   1.945   3.784  0.3215  0.4252 -0.3547
 1125SOL     OW15007   3.117   0.844   1.854  0.5351  0.6799  0.1347
 1125SOL    HW115008   3.100   0.930   1.815  0.0274  0.4164 -0.2166
 1125SOL    HW215009   3.143   0.871   1.942 -1.7507  3.0714  0.0948
 1126SOL     OW15010   0.673   2.247   4.545  0.2712 -0.1499 -0.5393
 1126SOL    HW115011   0.660   2.158   4.577 -1.5710  1.0568  2.1218
 1126SOL    HW215012   0.582   2.275   4.532  0.6393  0.9512 -0.7946
 1127SOL     OW15013   2.903   3.569   5.915  0.3615  0.4342 -0.1926
 1127SOL    HW115014   2.808   3.563   5.906  0.2492  0.2951  1.0574
 1127SOL    HW215015   2.917   3.485   5.870  1.3544 -0.1248  1.1476
 1128SOL     OW15016   2.287   2.120  12.002  0.3271  0.5657 -0.9110
 1128SOL    HW115017   2.362   2.087  12.053  0.0926  2.6641  0.7992
 1128SOL    HW215018   2.238   2.172  12.066  0.6779 -0.7091  0.3795
 1129SOL     OW15019   2.458   3.612   0.318  0.3281  0.4116  0.2877
 1129SOL    HW115020   2.480   3.611   0.412  0.4012 -0.9910  0.2489
 1129SOL    HW215021   2.466   3.521   0.292 -0.7842  0.3290  0.2570
 1130SOL     OW15022   2.961   3.480  12.809  0.2822 -0.1188  0.3418
 1130SOL    HW115023   3.022   3.451  12.742  0.1636  0.3189  0.0468
 1130SOL    HW215024   2.982   3.422  12.882 -0.4735 -0.5873  0.1857
 1131SOL     OW15025   0.603   0.623   1.661  0.0508  0.1426  0.5800
 1131SOL    HW115026   0.698   0.628   1.652 -0.0633 -0.5941 -1.0515
 1131SOL    HW215027   0.593   0.563   1.735  2.1956 -0.8930  0.0084
 1132SOL     OW15028   3.744   2.913   8.427  0.5533  0.2499  0.1404
 1132SOL    HW115029   3.763   2.896   8.335 -2.4148 -0.7844 -0.2925
 1132SOL    HW215030   3.799   2.847   8.469 -0.6251  0.1442  1.5433
 1133SOL     OW15031   4.588   0.716   3.852 -0.6881  0.4595  0.4478
 1133SOL    HW115032   4.634   0.735   3.770 -1.4270  0.1271 -0.0433
 1133SOL    HW215033   4.604   0.791   3.910  0.3793 -0.2369  1.0500
 1134SOL     OW15034   3.797   2.409  16.695 -0.1815  0.2291  0.1936
 1134SOL    HW115035   3.804   2.502  16.717  0.8092 -0.2805  2.0317
 1134SOL    HW215036   3.782   2.371  16.781 -0.6100 -0.0436  0.0016
 1135SOL     OW15037   3.786   4.232   7.000  0.5332 -0.0489  0.1820
 1135SOL    HW115038   3.728   4.294   6.955 -2.4282 -2.3497  0.8027
 1135SOL    HW215039   3.822   4.179   6.928  1.1463 -0.2790  0.6563
 1136SOL     OW15040   0.692   1.777  15.118 -0.3957  0.0469  0.3890
 1136SOL    HW115041   0.616   1.750  15.170 -0.4435 -2.5858 -1.0345
 1136SOL    HW215042   0.748   1.804  15.192  0.1212  0.8499 -0.3016
 1137SOL     OW15043   1.132   1.005   8.636 -0.4614  0.2288 -0.0084
 1137SOL    HW115044   1.107   0.991   8.544  1.4921  2.2075 -0.8519
 1137SOL    HW215045   1.158   0.917   8.660 -1.6643  0.0248  0.5319
 1138SOL     OW15046   1.223   3.064   7.991 -0.4772 -0.1477  0.1938
 1138SOL    HW115047   1.225   3.027   7.903 -1.3321  0.3657 -0.0422
 1138SOL    HW215048   1.150   3.023   8.036  0.2033 -1.1189  0.4120
 1139SOL     OW15049   2.610   1.044   8.546  0.6058 -0.1082  0.5533
 1139SOL    HW115050   2.540   1.002   8.595  0.7891 -1.9131 -0.7514
 1139SOL    HW215051   2.595   1.135   8.574 -0.5886 -0.1069 -0.0936
 1140SOL     OW15052   0.154   0.784   5.885  0.0908  0.1858  0.5117
 1140SOL    HW115053   0.249   0.791   5.871 -0.0626  2.0853  0.4660
 1140SOL    HW215054   0.160   0.702   5.935  0.2675 -0.0183  0.1570
 1141SOL     OW15055   0.778   1.943   7.986  0.5914 -0.2576  0.1452
 1141SOL    HW115056   0.791   2.034   7.959 -0.5208 -0.5392 -1.3084
 1141SOL    HW215057   0.861   1.903   8.013  0.2511 -0.7668  0.4323
 1142SOL     OW15058   1.058   1.676   2.007 -0.1041 -0.6266 -0.4174
 1142SOL    HW115059   1.012   1.604   2.050 -0.3247 -0.1841  0.0832
 1142SOL    HW215060   1.128   1.625   1.966  0.6303 -0.9744  1.2695
 1143SOL     OW15061   4.338   3.783   6.118 -0.1825  0.0167  0.9514
 1143SOL    HW115062   4.421   3.772   6.072  0.2884  4.9071  0.6278
 1143SOL    HW215063   4.365   3.815   6.204  0.1311  1.5226  0.2860
 1144SOL     OW15064   3.479   3.479   5.245 -0.0749 -0.1697  0.6827
 1144SOL    HW115065   3.395   3.495   5.287 -0.8654 -1.0780 -0.5561
 1144SOL    HW215066   3.529   3.425   5.306 -3.3554 -1.3297  2.3166
 1145SOL     OW15067   0.711   2.859   5.449  0.2705 -0.2733 -0.2313
 1145SOL    HW115068   0.625   2.836   5.486  0.2358  0.0694 -0.1002
 1145SOL    HW215069   0.716   2.952   5.469  1.5916 -0.4717  0.2957
 1146SOL     OW15070   1.553   4.132   5.796  0.0449 -0.1573 -0.1034
 1146SOL    HW115071   1.557   4.039   5.817 -2.7364 -0.5133 -1.0709
 1146SOL    HW215072   1.551   4.175   5.882 -1.1771  1.2447 -0.8332
 1147SOL     OW15073   3.607   0.440  13.556 -0.1557 -0.2137 -0.0299
 1147SOL    HW115074   3.532   0.493  13.530 -0.5020 -0.1091  1.1806
 1147SOL    HW215075   3.654   0.436  13.473  1.3373  1.4961  0.7457
 1148SOL     OW15076   3.681   0.259  10.649  0.5394  0.3437 -0.4976
 1148SOL    HW115077   3.591   0.243  10.623  0.9539  0.4890 -2.0535
 1148SOL    HW215078   3.669   0.300  10.734 -0.5428 -1.3453  0.1525
 1149SOL     OW15079   4.503   4.516   0.752 -0.4750 -0.1320  0.1210
 1149SOL    HW115080   4.512   4.452   0.823  1.4919  2.3178  2.0982
 1149SOL    HW215081   4.416   4.496   0.717 -0.5915  0.3375  0.1395
 1150SOL     OW15082   0.848   3.124   7.329 -0.3513  0.1687 -0.2140
 1150SOL    HW115083   0.862   3.116   7.235 -0.3967  0.7655 -0.2694
 1150SOL    HW215084   0.755   3.146   7.330 -0.9555 -2.3509 -1.2942
 1151SOL     OW15085   4.017   2.148   8.919 -0.1038  0.0255 -0.5899
 1151SOL    HW115086   4.079   2.076   8.903 -0.1077  0.2085 -1.4500
 1151SOL    HW215087   3.939   2.114   8.875 -0.3920 -1.0870  0.8096
 1152SOL     OW15088   1.597   1.571   4.947 -0.1241  0.2092  0.2273
 1152SOL    HW115089   1.669   1.586   5.009  0.0298  0.8479 -0.1152
 1152SOL    HW215090   1.630   1.595   4.861  0.0779 -1.8945 -0.2998
 1153SOL     OW15091   3.688   0.920   9.300 -0.1351 -0.3032  0.2684
 1153SOL    HW115092   3.721   0.847   9.353  0.1865 -1.8636 -2.0879
 1153SOL    HW215093   3.730   0.899   9.216  1.5147  2.3880  0.3933
 1154SOL     OW15094   2.585   4.172   3.423 -0.1850 -0.1663  0.8119
 1154SOL    HW115095   2.590   4.085   3.384  0.9258 -0.8187  2.4619
 1154SOL    HW215096   2.611   4.152   3.513  4.5090 -0.2521 -0.5879
 1155SOL     OW15097   2.979   3.526  16.461 -0.0019  0.6889 -0.2407
 1155SOL    HW115098   2.983   3.494  16.551 -0.5474  1.3574  0.0204
 1155SOL    HW215099   3.049   3.472  16.426  0.3587 -0.2408  1.9033
 1156SOL     OW15100   3.983   0.940   8.530  0.4607 -0.2986 -0.3929
 1156SOL    HW115101   3.971   0.851   8.499  2.7085 -0.0876 -1.8852
 1156SOL    HW215102   4.066   0.928   8.577  1.0742  2.4903 -0.7085
 1157SOL     OW15103   2.134   2.061   9.402  0.8223  0.2076  0.2459
 1157SOL    HW115104   2.122   2.151   9.371 -0.2769  0.2192  0.7430
 1157SOL    HW215105   2.183   2.019   9.331 -1.1990 -0.2412 -0.8854
 1158SOL     OW15106   2.438   3.575   8.597  0.3627 -0.3734  0.2963
 1158SOL    HW115107   2.421   3.487   8.562 -0.4145 -0.5145  1.0109
 1158SOL    HW215108   2.362   3.590   8.654 -1.2180  0.5339 -2.0543
 1159SOL     OW15109   2.166   2.602   2.002 -0.4715  0.2620 -0.2922
 1159SOL    HW115110   2.144   2.536   1.937 -0.4310  1.8608 -1.9524
 1159SOL    HW215111   2.178   2.557   2.085 -0.1276 -0.7026 -0.8747
 1160SOL     OW15112   1.645   1.961   9.760  0.0416  0.3815  0.2185
 1160SOL    HW115113   1.690   1.878   9.772  2.6254  1.8767  0.9224
 1160SOL    HW215114   1.686   1.997   9.681 -1.3650 -2.8880 -2.0187
 1161SOL     OW15115   2.447   4.424   6.870  0.1274  0.1365  0.0340
 1161SOL    HW115116   2.374   4.406   6.929  2.0281 -1.8831  1.7726
 1161SOL    HW215117   2.465   4.514   6.896  1.7173  0.6306 -2.8188
 1162SOL     OW15118   0.321   2.545   7.453 -0.0624  0.0783 -0.4602
 1162SOL    HW115119   0.377   2.468   7.444 -1.8717 -1.0753 -1.8585
 1162SOL    HW215120   0.280   2.556   7.367 -0.5292  0.3505 -0.2014
 1163SOL     OW15121   2.555   2.571   5.231  0.1950 -0.0719 -0.8771
 1163SOL    HW115122   2.580   2.546   5.320  1.9517  1.7716 -0.8425
 1163SOL    HW215123   2.522   2.661   5.233  0.1385 -0.1342  1.0240
 1164SOL     OW15124   0.322   4.023   0.521 -0.3705 -0.1558 -0.1440
 1164SOL    HW115125   0.409   3.983   0.523 -0.4745 -0.2914  1.5219
 1164SOL    HW215126   0.298   4.010   0.613 -1.7004 -0.9211 -0.5993
 1165SOL     OW15127   1.423   3.170   6.701  0.6236  0.2492 -0.1345
 1165SOL    HW115128   1.492   3.201   6.642  1.1620 -0.8363 -0.0797
 1165SOL    HW215129   1.468   3.170   6.785 -0.9106 -0.8137  0.6741
 1166SOL     OW15130   2.648   0.075   9.286 -0.0133 -0.2375 -0.5682
 1166SOL    HW115131   2.670   0.139   9.217  0.0064  1.3244  0.8872
 1166SOL    HW215132   2.731   0.036   9.313  0.9880  2.3583  0.1961
 1167SOL     OW15133   1.054   1.900   7.773 -0.2558  0.1311 -0.1465
 1167SOL    HW115134   1.149   1.890   7.763  0.0021  1.2455  1.2168
 1167SOL    HW215135   1.053   1.893   7.868  2.5029  0.2380 -0.1151
 1168SOL     OW15136   0.086   2.104   4.786  0.1169 -0.3010 -0.2739
 1168SOL    HW115137   0.012   2.062   4.743  1.1637 -1.6855 -0.7507
 1168SOL    HW215138   0.084   2.055   4.868 -1.4913  0.4981  0.1629
 1169SOL     OW15139   1.614   0.394  11.183  0.2605 -0.1884  0.4817
 1169SOL    HW115140   1.654   0.453  11.247 -1.3333 -1.1625  2.3525
 1169SOL    HW215141   1.548   0.453  11.146 -0.4518 -0.3915  1.4250
 1170SOL     OW15142   2.703   0.763   6.678 -0.1148 -0.1155 -0.2442
 1170SOL    HW115143   2.722   0.831   6.743  1.6017 -0.5200 -0.3153
 1170SOL    HW215144   2.682   0.689   6.736 -1.8329 -1.6256 -2.7919
 1171SOL     OW15145   2.152   2.187   4.627  0.2289  0.1570 -0.8255
 1171SOL    HW115146   2.216   2.250   4.661  1.6253 -1.2668 -0.8305
 1171SOL    HW215147   2.191   2.173   4.541 -1.2803 -1.5735 -1.2270
 1172SOL     OW15148   3.031   2.431   6.095  0.0926  0.2080 -0.4030
 1172SOL    HW115149   3.029   2.497   6.165 -0.4091 -1.1242  0.8413
 1172SOL    HW215150   2.938   2.444   6.074  0.4870  1.4061 -1.4251
 1173SOL     OW15151   3.639   1.973   2.297 -0.4832 -0.6225  0.0798
 1173SOL    HW115152   3.686   2.057   2.307  0.4421 -0.9399 -1.6959
 1173SOL    HW215153   3.661   1.937   2.383 -1.6478  2.1253  1.5296
 1174SOL     OW15154   1.965   3.997   2.074 -0.1984 -0.0882 -0.3952
 1174SOL    HW115155   2.017   4.018   2.152  1.0573 -0.6134 -1.0933
 1174SOL    HW215156   1.953   4.085   2.039 -4.6791 -1.5928 -2.6504
 1175SOL     OW15157   2.221   1.404   3.379 -0.3263  0.4223 -0.3212
 1175SOL    HW115158   2.193   1.343   3.311  2.9907 -1.4693 -0.0203
 1175SOL    HW215159   2.175   1.378   3.459 -0.0074 -1.0491 -0.6060
 1176SOL     OW15160   1.446   0.807   2.413 -0.2597  0.5648 -0.0672
 1176SOL    HW115161   1.470   0.893   2.448  2.3734 -0.2091 -0.0002
 1176SOL    HW215162   1.449   0.831   2.320  0.1447 -0.5644 -0.3421
 1177SOL     OW15163   3.143   3.842  17.636 -0.2464  0.2325 -0.4758
 1177SOL    HW115164   3.176   3.770  17.582  3.0011  0.4092  1.2671
 1177SOL    HW215165   3.227   3.876  17.666 -1.0292  1.5497  0.2056
 1178SOL     OW15166   0.242   0.891   5.073  0.7442 -0.1547  0.7855
 1178SOL    HW115167   0.293   0.822   5.116 -2.6487 -2.1448  1.6201
 1178SOL    HW215168   0.222   0.954   5.143  1.6066  2.8005 -1.6406
 1179SOL     OW15169   2.561   2.657   5.793  0.4252 -0.0796  0.8039
 1179SOL    HW115170   2.627   2.726   5.788 -0.2686  0.5755  0.6117
 1179SOL    HW215171   2.583   2.614   5.876  1.8568 -1.9973 -0.5715
 1180SOL     OW15172   4.514   3.186   4.939 -0.5329 -0.8671  0.6573
 1180SOL    HW115173   4.535   3.093   4.946 -2.9271 -1.4471  0.0645
 1180SOL    HW215174   4.513   3.213   5.031  2.8905  2.6683 -0.3249
 1181SOL     OW15175   4.469   3.947   2.764 -0.1129  0.4100 -0.1672
 1181SOL    HW115176   4.478   4.033   2.805  0.6966  0.3424 -0.2040
 1181SOL    HW215177   4.407   3.906   2.824  2.6047 -1.0653  1.6312
 1182SOL     OW15178   1.985   1.266   8.984 -0.3857 -0.0623  0.2158
 1182SOL    HW115179   1.981   1.261   9.079  1.7882 -2.0381  0.1890
 1182SOL    HW215180   1.953   1.353   8.962 -0.0983 -0.3631 -1.4317
 1183SOL     OW15181   1.507   2.833  16.878 -0.1186  0.0410  0.9031
 1183SOL    HW115182   1.565   2.882  16.819 -0.9840 -0.7318 -0.5742
 1183SOL    HW215183   1.562   2.762  16.910 -0.6099 -1.8875 -2.5399
 1184SOL     OW15184   2.298   2.315   1.804 -0.2943  0.5268  0.0571
 1184SOL    HW115185   2.342   2.231   1.818 -1.9050 -0.1322  1.1810
 1184SOL    HW215186   2.237   2.309   1.877 -1.3360 -1.3747 -0.9536
 1185SOL     OW15187   2.584   3.689   1.493 -0.2338 -0.4076  0.8781
 1185SOL    HW115188   2.620   3.654   1.574  0.1551 -0.8641  0.5117
 1185SOL    HW215189   2.491   3.666   1.496  0.0551 -2.0649 -3.3271
 1186SOL     OW15190   3.282   2.038  12.078  0.1096  0.4146 -0.3770
 1186SOL    HW115191   3.288   2.115  12.022  0.3859  1.5563  1.2305
 1186SOL    HW215192   3.304   2.081  12.161  0.9787 -0.1987 -0.2815
 1187SOL     OW15193   2.720   3.422  16.339 -0.1351 -0.0703  0.1237
 1187SOL    HW115194   2.683   3.388  16.420 -0.4754 -0.2906 -0.1259
 1187SOL    HW215195   2.806   3.451  16.371 -0.5297  0.9012  0.2966
 1188SOL     OW15196   0.376   0.531   8.208 -0.0338  0.5231 -0.5913
 1188SOL    HW115197   0.342   0.448   8.172 -1.5257  0.4219  1.0673
 1188SOL    HW215198   0.351   0.537   8.300  0.9004  1.6336 -0.4111
 1189SOL     OW15199   0.103   2.576   5.202 -0.5040 -0.8300  0.1314
 1189SOL    HW115200   0.060   2.491   5.195  0.2136 -1.3752  2.0228
 1189SOL    HW215201   0.132   2.573   5.294  0.3322 -0.4324 -0.1153
 1190SOL     OW15202   4.115   2.427   9.198  0.2357 -0.2854 -0.1732
 1190SOL    HW115203   4.184   2.492   9.208 -0.1149 -0.1872  1.7228
 1190SOL    HW215204   4.157   2.356   9.150 -0.8709 -0.2043 -1.2516
 1191SOL     OW15205   0.221   0.461   3.800 -0.2045 -0.2104 -0.4634
 1191SOL    HW115206   0.158   0.393   3.776 -0.4709  0.1956 -0.9123
 1191SOL    HW215207   0.164   0.516   3.854  1.2488  1.2661 -0.4389
 1192SOL     OW15208   2.604   0.635   4.415  0.3649 -0.6199  0.0787
 1192SOL    HW115209   2.516   0.605   4.435 -0.1154 -1.0341 -2.6249
 1192SOL    HW215210   2.648   0.550   4.420 -0.2688 -1.0591 -1.7476
 1193SOL     OW15211   0.982   2.692   2.854  0.3646 -0.6907 -0.4709
 1193SOL    HW115212   0.994   2.599   2.875 -0.0020 -1.1488 -2.2825
 1193SOL    HW215213   0.995   2.701   2.760  2.4167  0.9641 -0.0317
 1194SOL     OW15214   4.365   0.712  15.377 -0.3818 -0.2017  0.6108
 1194SOL    HW115215   4.390   0.802  15.357  0.8728 -1.1803 -2.3319
 1194SOL    HW215216   4.321   0.697  15.293 -1.9234  0.6865  1.2760
 1195SOL     OW15217   1.412   3.855   2.810 -0.5371 -0.6022 -0.7180
 1195SOL    HW115218   1.488   3.803   2.785  0.2601  0.1472  0.1225
 1195SOL    HW215219   1.402   3.819   2.898 -2.3329  0.8212 -0.3323
 1196SOL     OW15220   0.416   4.330  16.184 -0.1421  0.8085  0.1550
 1196SOL    HW115221   0.502   4.341  16.225  0.4219  0.3222 -0.9045
 1196SOL    HW215222   0.369   4.310  16.264  0.1916 -1.9804 -0.3659
 1197SOL     OW15223   4.084   2.858  13.738  1.0967  0.4307 -0.3546
 1197SOL    HW115224   4.029   2.827  13.666  1.3240 -2.3528  0.6731
 1197SOL    HW215225   4.018   2.904  13.790  1.8625 -0.5029  1.4151
 1198SOL     OW15226   0.910   1.266   7.971 -0.0221  0.1727 -0.1162
 1198SOL    HW115227   0.955   1.272   8.055  0.4670 -2.3133 -0.1912
 1198SOL    HW215228   0.972   1.207   7.928  0.3649  0.3915  0.1399
 1199SOL     OW15229   1.158   3.047   9.607  0.7673 -0.0832  0.3474
 1199SOL    HW115230   1.081   3.054   9.551  2.0374 -0.7086 -1.4611
 1199SOL    HW215231   1.131   3.071   9.696 -0.7842 -3.3387  0.7756
 1200SOL     OW15232   4.442   0.123   2.030  0.3581 -0.7452  0.3126
 1200SOL    HW115233   4.502   0.052   2.005  0.4638 -0.9576  1.1955
 1200SOL    HW215234   4.489   0.175   2.094  2.2557 -0.4887 -1.2722
 1201SOL     OW15235   0.426   3.010   1.771  0.2752  0.5976  0.1062
 1201SOL    HW115236   0.439   2.975   1.859 -0.1742 -1.6285 -0.7223
 1201SOL    HW215237   0.451   3.102   1.781  1.1872  0.3694 -0.0412
 1202SOL     OW15238   0.229   2.887   6.687  0.5778  0.5386 -0.1301
 1202SOL    HW115239   0.181   2.858   6.610  0.5015  0.6051 -0.1081
 1202SOL    HW215240   0.199   2.978   6.694  1.7074  0.8150  1.1730
 1203SOL     OW15241   4.679   3.580  15.850  0.6082  0.2504  0.6476
 1203SOL    HW115242   4.712   3.626  15.773  1.2229  1.4506  1.6449
 1203SOL    HW215243   0.017   3.609  15.905 -1.3322  2.4019  2.0330
 1204SOL     OW15244   2.652   1.277   4.652 -0.3699 -0.2494  0.2194
 1204SOL    HW115245   2.590   1.212   4.684 -1.3066  0.3157 -0.4527
 1204SOL    HW215246   2.697   1.218   4.592 -2.9653 -0.5492 -1.4164
 1205SOL     OW15247   2.477   1.054   5.848  0.4409 -0.0298  0.4444
 1205SOL    HW115248   2.423   1.095   5.916 -0.1125  0.5055 -0.3060
 1205SOL    HW215249   2.447   0.963   5.856  1.4557 -0.6616 -2.9294
 1206SOL     OW15250   3.088   4.461   0.496 -0.4538  0.2284  0.1566
 1206SOL    HW115251   3.114   4.375   0.462  0.1755  1.0701 -1.5123
 1206SOL    HW215252   3.066   4.498   0.410  2.0414 -1.0752 -1.0455
 1207SOL     OW15253   4.095   0.840   5.720 -0.5251 -0.5271 -0.7289
 1207SOL    HW115254   4.071   0.760   5.767 -1.0187  0.6115  0.9655
 1207SOL    HW215255   4.066   0.907   5.783  3.2271 -2.3138  2.9370
 1208SOL     OW15256   1.530   4.348  13.482 -0.0486 -0.2307 -0.4200
 1208SOL    HW115257   1.571   4.265  13.506 -1.4568 -1.3403 -1.8207
 1208SOL    HW215258   1.470   4.311  13.417  0.1956 -1.8415  0.2745
 1209SOL     OW15259   1.558   1.861   8.526 -0.0993  0.5656  0.2558
 1209SOL    HW115260   1.492   1.926   8.550  0.7445  1.0362  1.3243
 1209SOL    HW215261   1.555   1.814   8.610  0.5850  1.5928  0.8501
 1210SOL     OW15262   0.322   2.562  16.359 -0.4390 -0.6417  0.3528
 1210SOL    HW115263   0.370   2.496  16.409 -0.3180 -1.6014 -1.0372
 1210SOL    HW215264   0.298   2.505  16.286  3.5620 -4.6150  2.1113
 1211SOL     OW15265   0.154   0.716   9.374 -0.0922  0.2172  0.2195
 1211SOL    HW115266   0.208   0.794   9.384  0.2181  0.2672 -1.7119
 1211SOL    HW215267   0.156   0.713   9.278 -3.9457 -0.4649  0.1494
 1212SOL     OW15268   1.052   4.386   9.382  0.0779 -0.3039 -0.3039
 1212SOL    HW115269   0.984   4.341   9.432  0.1080  0.2026  0.1935
 1212SOL    HW215270   1.124   4.325   9.398 -0.0723 -1.2491 -3.2058
 1213SOL     OW15271   0.535   4.448   9.248 -0.4009 -0.6878 -0.0761
 1213SOL    HW115272   0.554   4.509   9.178  0.5884 -2.3900 -1.2911
 1213SOL    HW215273   0.608   4.462   9.308  0.6315  0.6213 -1.6492
 1214SOL     OW15274   2.060   2.034   0.540  0.5556  0.1252  0.5308
 1214SOL    HW115275   1.969   2.040   0.568  0.0008  1.7120 -1.6667
 1214SOL    HW215276   2.097   2.118   0.570  1.6006 -0.5927  1.2695
 1215SOL     OW15277   1.124   1.440   7.700  0.4424 -0.4832  0.7383
 1215SOL    HW115278   1.064   1.514   7.711 -0.3877 -1.4752  2.9489
 1215SOL    HW215279   1.099   1.406   7.614 -0.6360  2.8116 -0.2564
 1216SOL     OW15280   4.020   4.565   4.195 -0.1362 -0.7949  0.2694
 1216SOL    HW115281   3.953   4.498   4.209  0.0635 -0.9608  0.4411
 1216SOL    HW215282   4.060   4.580   4.281  0.0808  0.3575 -0.0379
 1217SOL     OW15283   3.632   1.088  14.973  0.0981 -0.1068  0.0424
 1217SOL    HW115284   3.699   1.110  15.038 -0.9384 -0.5772  1.2638
 1217SOL    HW215285   3.619   1.171  14.926 -0.5212  0.9682  2.1167
 1218SOL     OW15286   3.018   4.369   6.230  0.1637  0.0238  0.3186
 1218SOL    HW115287   2.986   4.381   6.141  0.3364  0.7409  0.3548
 1218SOL    HW215288   3.106   4.336   6.213  0.7243  1.8522 -0.3305
 1219SOL     OW15289   4.378   0.241   4.152 -0.2421 -0.1419 -0.2009
 1219SOL    HW115290   4.372   0.264   4.059 -2.4907 -1.2704 -0.3287
 1219SOL    HW215291   4.385   0.148   4.134  3.1161 -0.3753  2.5060
 1220SOL     OW15292   4.374   1.972  13.225 -0.2513  0.2428 -0.5168
 1220SOL    HW115293   4.427   1.893  13.213 -1.2813 -0.2926 -1.5567
 1220SOL    HW215294   4.389   1.992  13.318  0.8597  0.0579 -0.6636
 1221SOL     OW15295   3.705   2.562   5.180 -0.0617 -0.1441 -0.5484
 1221SOL    HW115296   3.795   2.594   5.187 -0.2435  0.4644 -0.9918
 1221SOL    HW215297   3.690   2.566   5.085  0.9190 -0.2903 -0.7143
 1222SOL     OW15298   0.820   3.402  13.111  0.3504  0.2153  0.0138
 1222SOL    HW115299   0.897   3.387  13.057  0.0337  0.1791 -0.4279
 1222SOL    HW215300   0.863   3.405  13.197 -0.3060 -2.6249  0.4447
 1223SOL     OW15301   3.966   1.260  12.472 -0.0430  0.4324 -0.0156
 1223SOL    HW115302   3.994   1.351  12.472 -1.1472  0.7751 -1.3497
 1223SOL    HW215303   4.050   1.226  12.502 -0.7266 -1.7186 -0.4915
 1224SOL     OW15304   1.617   0.882   5.279 -0.4110 -0.3400 -0.3604
 1224SOL    HW115305   1.701   0.873   5.325 -1.0138 -0.6251  0.6964
 1224SOL    HW215306   1.613   0.976   5.262 -2.0015 -0.0902  1.3680
 1225SOL     OW15307   2.797   3.325  15.048 -0.6219 -0.7098 -0.2049
 1225SOL    HW115308   2.779   3.370  15.131 -0.1887  0.6513 -0.8541
 1225SOL    HW215309   2.892   3.325  15.052 -0.5672  0.9281 -1.7709
 1226SOL     OW15310   1.423   0.836   3.210 -0.6999 -0.6281  0.0765
 1226SOL    HW115311   1.432   0.928   3.188 -1.0594 -1.1241 -2.0958
 1226SOL    HW215312   1.414   0.790   3.127 -4.6704  0.1273  0.0977
 1227SOL     OW15313   3.816   2.928  15.327 -0.3692  0.2830  0.1757
 1227SOL    HW115314   3.837   3.014  15.364  1.3972 -0.3030  0.5359
 1227SOL    HW215315   3.903   2.893  15.307 -0.2880  2.4313 -3.3127
 1228SOL     OW15316   0.729   3.982  16.297 -0.0519 -0.2221 -0.5486
 1228SOL    HW115317   0.643   3.944  16.280  0.2180 -1.5961  1.1882
 1228SOL    HW215318   0.720   4.043  16.370  0.0940  0.3744 -1.0310
 1229SOL     OW15319   1.082   1.316   4.057  0.0880  0.4837  0.6995
 1229SOL    HW115320   1.080   1.242   4.117  0.4807 -1.1783 -1.3403
 1229SOL    HW215321   1.069   1.276   3.971 -0.0073  1.3951  0.2929
 1230SOL     OW15322   3.425   3.418   6.292 -0.1294  0.0668 -0.0716
 1230SOL    HW115323   3.447   3.483   6.225  0.9662  0.4654  0.6818
 1230SOL    HW215324   3.469   3.456   6.367 -0.4576  0.0940  0.1077
 1231SOL     OW15325   1.246   2.604   2.731  0.1207 -0.2154 -0.1835
 1231SOL    HW115326   1.176   2.637   2.675  1.0302  0.0826 -1.1543
 1231SOL    HW215327   1.277   2.686   2.771 -2.4113 -0.9886  3.3997
 1232SOL     OW15328   1.367   3.301   9.002 -0.3023  0.9494  0.1783
 1232SOL    HW115329   1.320   3.255   9.072  1.9443 -0.3110  0.8889
 1232SOL    HW215330   1.293   3.352   8.972 -0.5413  1.0045  0.8528
 1233SOL     OW15331   1.517   0.752  16.738  0.3520  0.4246  0.1146
 1233SOL    HW115332   1.506   0.780  16.829 -3.8486  2.1061 -0.8912
 1233SOL    HW215333   1.430   0.771  16.702  0.7825 -1.3642 -1.8797
 1234SOL     OW15334   2.728   2.093  11.887 -0.2134 -0.0750 -0.4414
 1234SOL    HW115335   2.715   2.114  11.795  3.0720  0.0169 -0.8882
 1234SOL    HW215336   2.653   2.132  11.931  0.8552  2.4494 -0.8973
 1235SOL     OW15337   1.709   2.048  10.965  0.3963 -0.0946 -0.1725
 1235SOL    HW115338   1.744   1.965  10.999  0.6433 -0.1934 -0.6602
 1235SOL    HW215339   1.690   2.007  10.880  1.5342 -1.3077  0.1599
 1236SOL     OW15340   2.307   2.248   8.165  0.5320 -0.1493 -0.3929
 1236SOL    HW115341   2.378   2.211   8.113  0.5436 -1.3473  0.4731
 1236SOL    HW215342   2.343   2.261   8.253 -0.5238 -1.8956  0.3088
 1237SOL     OW15343   2.276   0.054  10.331  0.5819 -0.6520 -0.0664
 1237SOL    HW115344   2.277   0.025  10.422 -1.8578 -1.9953 -0.4645
 1237SOL    HW215345   2.229   4.712  10.297  1.4497 -1.6117  0.9018
 1238SOL     OW15346   0.242   1.286   7.938 -0.0794  0.5587 -0.1162
 1238SOL    HW115347   0.331   1.251   7.932 -0.6518 -0.7143 -1.4967
 1238SOL    HW215348   0.260   1.378   7.957 -1.7911  0.3373  2.4307
 1239SOL     OW15349   0.593   1.144   4.955  0.4548  0.3171 -0.7292
 1239SOL    HW115350   0.569   1.107   5.039  0.2871  1.0556 -0.4493
 1239SOL    HW215351   0.647   1.071   4.926 -0.0559 -1.0714  1.8690
 1240SOL     OW15352   0.777   1.179  10.537 -0.1704 -0.0104  0.6156
 1240SOL    HW115353   0.682   1.170  10.540  0.1399 -3.4285  0.1226
 1240SOL    HW215354   0.805   1.149  10.624  1.5364  0.2603  0.1575
 1241SOL     OW15355   1.087   3.809   2.315 -0.3689 -0.2614  0.2939
 1241SOL    HW115356   1.051   3.742   2.256 -0.9231  1.1572 -0.9723
 1241SOL    HW215357   1.022   3.837   2.380 -0.8101 -2.2034  0.6830
 1242SOL     OW15358   0.881   4.033   1.791 -0.1948 -0.0942 -0.4334
 1242SOL    HW115359   0.936   4.108   1.769  0.2825  0.4042  2.3531
 1242SOL    HW215360   0.915   3.968   1.730  1.0471  0.5385 -0.4264
 1243SOL     OW15361   0.652   0.303   4.135 -0.4123  0.1327  0.5308
 1243SOL    HW115362   0.727   0.278   4.080 -0.2793  0.8737  0.3807
 1243SOL    HW215363   0.587   0.278   4.069 -1.5399  0.5781  1.4837
 1244SOL     OW15364   3.799   3.709  12.095  0.1723  0.2317 -0.1842
 1244SOL    HW115365   3.707   3.725  12.113  0.9490  2.3675  1.9373
 1244SOL    HW215366   3.793   3.675  12.006  2.4325  0.4101 -0.4020
 1245SOL     OW15367   2.012   1.094   4.752 -0.7019 -0.3398 -0.1623
 1245SOL    HW115368   2.026   1.111   4.659  1.4520 -1.0881  0.0353
 1245SOL    HW215369   1.918   1.091   4.735 -0.3433 -0.7531 -2.1466
 1246SOL     OW15370   0.655   3.852   3.963 -0.1282  0.1494  0.0122
 1246SOL    HW115371   0.648   3.926   3.903 -2.0960 -1.0081 -1.1844
 1246SOL    HW215372   0.565   3.844   3.995 -0.0100 -0.7678  0.1127
 1247SOL     OW15373   1.589   3.105   3.270  0.4855 -0.1160  0.2900
 1247SOL    HW115374   1.535   3.094   3.191  0.7291  2.0994 -0.1600
 1247SOL    HW215375   1.570   3.014   3.296 -1.8013  0.2280 -0.1326
 1248SOL     OW15376   2.884   3.503   4.253  0.4679  0.2848 -0.2118
 1248SOL    HW115377   2.903   3.541   4.167 -3.7715  0.9806 -0.8097
 1248SOL    HW215378   2.797   3.536   4.274  0.4639 -1.3082  2.2375
 1249SOL     OW15379   0.957   2.488   2.066  0.5703 -0.0647  0.3906
 1249SOL    HW115380   0.999   2.570   2.090 -0.2128  0.5021 -0.1856
 1249SOL    HW215381   0.929   2.468   2.156 -1.2438  0.9983  0.0589
 1250SOL     OW15382   2.954   3.247   4.193 -0.0610  0.5044 -0.2253
 1250SOL    HW115383   2.906   3.315   4.239 -2.6049 -0.3500 -1.6350
 1250SOL    HW215384   3.038   3.242   4.241  1.0276  1.6499 -2.0261
 1251SOL     OW15385   4.273   2.432   3.528 -0.9750  0.3784  0.7691
 1251SOL    HW115386   4.222   2.364   3.572  0.3959 -0.5825  0.8600
 1251SOL    HW215387   4.201   2.475   3.482 -1.0739 -1.1901 -0.5198
 1252SOL     OW15388   0.887   3.918   8.924 -0.1667 -0.1101  0.4457
 1252SOL    HW115389   0.804   3.916   8.972 -1.7954  0.1606 -2.3094
 1252SOL    HW215390   0.942   3.865   8.981  0.8932 -0.2189 -0.6940
 1253SOL     OW15391   0.476   4.012  13.105  0.2449 -0.5981 -0.1762
 1253SOL    HW115392   0.489   4.066  13.028 -1.7252  2.3899  1.5818
 1253SOL    HW215393   0.459   3.928  13.063 -2.5326  1.0636 -2.3525
 1254SOL     OW15394   0.323   2.802  16.484  0.0145  1.3374 -0.8145
 1254SOL    HW115395   0.349   2.736  16.549 -2.3989 -0.4337 -1.6487
 1254SOL    HW215396   0.314   2.732  16.420  1.3326  0.2896  0.1361
 1255SOL     OW15397   2.065   4.104   8.916 -0.5773 -0.3102 -0.5141
 1255SOL    HW115398   1.978   4.091   8.878 -0.1569  0.3521 -1.7110
 1255SOL    HW215399   2.051   4.124   9.009  0.2462  0.9107 -0.6511
 1256SOL     OW15400   3.984   3.903   2.323 -0.2299  0.5975  0.6105
 1256SOL    HW115401   4.001   3.995   2.345  1.0334  0.3175  0.7712
 1256SOL    HW215402   3.925   3.921   2.249 -0.1562  0.4706  0.5216
 1257SOL     OW15403   0.320   0.117  17.290 -0.7152  0.3761 -0.3797
 1257SOL    HW115404   0.351   0.208  17.282  0.9980 -0.2323 -0.7097
 1257SOL    HW215405   0.331   0.100  17.384 -1.8227  3.2578  0.2843
 1258SOL     OW15406   0.268   4.320   1.303 -0.1561  0.3948  0.0569
 1258SOL    HW115407   0.273   4.257   1.231 -2.0306  2.1590 -1.5968
 1258SOL    HW215408   0.312   4.275   1.375  2.5780  2.0430 -0.5574
 1259SOL     OW15409   1.409   4.483   3.054  0.1886 -0.3792  0.0616
 1259SOL    HW115410   1.406   4.407   2.996  0.8032 -1.0400  0.8922
 1259SOL    HW215411   1.413   4.455   3.146 -0.8025  1.0444  0.5476
 1260SOL     OW15412   4.239   1.696  10.374 -0.3373 -0.2763 -0.0330
 1260SOL    HW115413   4.328   1.727  10.356 -0.0580 -0.0486  1.7843
 1260SOL    HW215414   4.185   1.765  10.336 -0.0452 -0.5257 -0.9079
 1261SOL     OW15415   1.531   2.705  11.974  0.7483  0.3550 -0.1706
 1261SOL    HW115416   1.459   2.726  11.915 -0.6646  0.0990  1.4718
 1261SOL    HW215417   1.507   2.622  12.015  0.3786  1.3079  1.5236
 1262SOL     OW15418   2.147   2.922   8.898  0.9170  0.3380  0.3990
 1262SOL    HW115419   2.137   2.916   8.993  0.1490 -0.1785  0.2924
 1262SOL    HW215420   2.203   2.998   8.887  0.9000  0.1918 -0.6598
 1263SOL     OW15421   3.380   2.081  13.750 -0.1735 -0.8891 -0.6555
 1263SOL    HW115422   3.419   2.028  13.681  0.4153 -0.7418 -0.4332
 1263SOL    HW215423   3.287   2.057  13.745 -0.3131 -0.4871  0.0015
 1264SOL     OW15424   4.691   1.392   5.514 -0.1770 -0.2122  0.0396
 1264SOL    HW115425   0.008   1.472   5.505  0.6037 -0.9263 -1.9269
 1264SOL    HW215426   4.606   1.434   5.502  0.5266  1.6240  1.5948
 1265SOL     OW15427   0.285   3.949  10.173  0.4718  0.3322 -0.1133
 1265SOL    HW115428   0.261   3.951  10.266  1.8423  0.5928  0.2367
 1265SOL    HW215429   0.337   3.868  10.177  0.2554  0.1466 -1.0351
 1266SOL     OW15430   1.656   2.691   6.158 -0.5449  0.1622 -0.2825
 1266SOL    HW115431   1.735   2.637   6.162 -2.1190 -2.0645  0.9108
 1266SOL    HW215432   1.668   2.725   6.070  2.1950 -1.5118 -0.5830
 1267SOL     OW15433   2.115   4.682  15.386  0.1909  0.1665  0.5430
 1267SOL    HW115434   2.125   4.718  15.298  1.7384 -0.5455  0.4269
 1267SOL    HW215435   2.022   4.664  15.375 -0.3506  2.6069  1.1896
 1268SOL     OW15436   1.213   2.786   3.392 -0.0588 -0.2584  0.6292
 1268SOL    HW115437   1.148   2.792   3.462 -0.4019  2.0580  0.1115
 1268SOL    HW215438   1.237   2.694   3.399  0.4584 -0.2593 -1.1867
 1269SOL     OW15439   1.395   3.992   3.497 -0.0063  0.3035  0.3376
 1269SOL    HW115440   1.473   3.956   3.454 -0.6930  0.2023 -0.8191
 1269SOL    HW215441   1.352   3.908   3.516 -0.0740  0.4159  0.6725
 1270SOL     OW15442   1.691   0.411   3.121 -0.4460  0.0869 -0.1511
 1270SOL    HW115443   1.715   0.388   3.210 -2.4650 -1.6541 -0.0720
 1270SOL    HW215444   1.775   0.403   3.075 -1.3477 -0.0139 -1.7570
 1271SOL     OW15445   4.154   2.156   5.849 -0.1847 -0.5157 -0.0750
 1271SOL    HW115446   4.068   2.197   5.860  0.0098  0.1793 -1.1763
 1271SOL    HW215447   4.207   2.229   5.882 -1.8216  0.1336  1.1276
 1272SOL     OW15448   4.279   1.893  12.285 -0.1753  0.0868  0.1685
 1272SOL    HW115449   4.262   1.874  12.193  0.3473 -0.7218  0.2343
 1272SOL    HW215450   4.347   1.960  12.276  0.6805 -0.6496  1.1043
 1273SOL     OW15451   1.012   0.117   6.477  0.5194  0.4737 -0.0856
 1273SOL    HW115452   0.932   0.169   6.474  1.2496  1.5010 -1.7579
 1273SOL    HW215453   1.053   0.161   6.402  3.7906  2.0794  2.6924
 1274SOL     OW15454   2.452   3.041   4.728  0.3918  0.1451  0.0034
 1274SOL    HW115455   2.531   3.037   4.674 -0.4159 -0.2210 -1.1625
 1274SOL    HW215456   2.402   2.997   4.659  0.6113  0.2576 -0.2293
 1275SOL     OW15457   1.355   0.097   5.337 -0.1217 -0.4621  0.5554
 1275SOL    HW115458   1.376   0.146   5.417 -1.5147  2.6653 -0.9899
 1275SOL    HW215459   1.371   0.008   5.369  0.1238 -0.5771  0.1044
 1276SOL     OW15460   2.702   3.513   1.858 -0.0083  0.1712 -0.3319
 1276SOL    HW115461   2.643   3.472   1.795  1.1425 -0.4853 -0.9794
 1276SOL    HW215462   2.656   3.597   1.850 -0.5431 -0.0930 -0.0831
 1277SOL     OW15463   4.262   4.011   1.451 -0.2029  0.6071 -0.7463
 1277SOL    HW115464   4.177   3.984   1.417  0.9024 -0.3454 -2.7727
 1277SOL    HW215465   4.322   3.943   1.419 -1.9377 -1.3457  0.1861
 1278SOL     OW15466   0.797   3.517  15.633 -0.1298  0.1563  0.1449
 1278SOL    HW115467   0.724   3.468  15.596 -1.0418  1.0620  0.7552
 1278SOL    HW215468   0.839   3.546  15.552  0.9520  1.3294  1.1199
 1279SOL     OW15469   0.029   3.769  14.699  0.0726  0.0027  0.4586
 1279SOL    HW115470   0.082   3.690  14.705  2.0728  1.4612  1.9225
 1279SOL    HW215471   4.725   3.779  14.786 -0.4529 -0.9849  0.3454
 1280SOL     OW15472   2.949   2.538   7.710 -0.3125 -0.7350 -0.3246
 1280SOL    HW115473   3.027   2.593   7.700 -0.8212 -0.4364 -2.5690
 1280SOL    HW215474   2.871   2.592   7.728 -1.8658 -2.8276 -0.8063
 1281SOL     OW15475   3.909   4.279   4.203 -0.7510 -0.1066 -0.3075
 1281SOL    HW115476   3.973   4.219   4.242 -3.1303 -2.0567  0.5243
 1281SOL    HW215477   3.829   4.231   4.224  1.0082 -3.5294 -1.5258
 1282SOL     OW15478   2.825   0.957   8.400  0.3820 -0.4039  0.0375
 1282SOL    HW115479   2.752   0.990   8.452 -0.1771 -1.5478 -0.0095
 1282SOL    HW215480   2.818   1.010   8.321 -0.5041  1.7551  1.5805
 1283SOL     OW15481   0.126   4.603   4.113 -0.3089  0.7981 -0.4055
 1283SOL    HW115482   0.133   4.647   4.197 -1.4795 -1.8152  1.0818
 1283SOL    HW215483   0.061   4.660   4.070  0.5317  2.7791  0.9805
 1284SOL     OW15484   3.757   1.182  12.726  0.4776 -0.0072 -0.3063
 1284SOL    HW115485   3.724   1.109  12.674  0.9793  0.8194 -1.7849
 1284SOL    HW215486   3.845   1.143  12.730  0.4032 -0.3886 -2.7986
 1285SOL     OW15487   3.470   1.195   2.854  0.2246  0.0544  0.0703
 1285SOL    HW115488   3.462   1.100   2.857 -0.4815  0.0353 -2.0565
 1285SOL    HW215489   3.456   1.229   2.942 -0.4381 -2.6273  0.9871
 1286SOL     OW15490   0.136   3.437   1.917  0.0891  0.3083  0.7383
 1286SOL    HW115491   0.076   3.467   1.848  1.5738  2.3128  0.3161
 1286SOL    HW215492   0.148   3.347   1.889  0.6008  0.2688  1.0971
 1287SOL     OW15493   1.251   0.640   2.028 -0.1141 -0.3161 -0.0578
 1287SOL    HW115494   1.290   0.723   2.000  1.5187 -0.5442  1.5442
 1287SOL    HW215495   1.270   0.628   2.121 -0.1780 -0.0844 -0.0151
 1288SOL     OW15496   2.592   3.276   7.857 -0.0961  0.3312 -0.2604
 1288SOL    HW115497   2.683   3.273   7.828 -0.1457 -1.8050 -0.1481
 1288SOL    HW215498   2.549   3.279   7.772  0.6758 -3.3094 -0.7682
 1289SOL     OW15499   4.685   2.889   4.968 -0.1878  0.1087 -0.0198
 1289SOL    HW115500   0.026   2.831   4.976  0.8304  1.5462  0.7798
 1289SOL    HW215501   4.712   2.929   4.885 -1.5289  0.1292 -0.4468
 1290SOL     OW15502   1.517   1.152   9.054 -0.7608  0.0910 -0.6764
 1290SOL    HW115503   1.545   1.062   9.035  2.2868  0.5291  1.8492
 1290SOL    HW215504   1.595   1.206   9.040 -0.3253  0.1361  1.9278
 1291SOL     OW15505   3.766   4.151   5.732  0.0748  0.2154 -0.6338
 1291SOL    HW115506   3.746   4.240   5.761  0.4295 -0.7291  2.5329
 1291SOL    HW215507   3.683   4.108   5.714 -0.0701 -0.2537  1.1884
 1292SOL     OW15508   3.302   4.614   3.917 -0.1074 -0.3150 -0.2993
 1292SOL    HW115509   3.356   4.613   3.838 -1.6890  0.5341 -1.4107
 1292SOL    HW215510   3.318   4.523   3.941 -1.6844 -1.2714 -2.7979
 1293SOL     OW15511   3.843   4.539  15.236  0.1031  0.4089  0.0252
 1293SOL    HW115512   3.768   4.580  15.279 -0.3656  0.5911 -0.9646
 1293SOL    HW215513   3.810   4.451  15.220  0.3962  0.5901 -1.5490
 1294SOL     OW15514   2.494   3.356   0.234  0.2511 -0.4376  0.7141
 1294SOL    HW115515   2.514   3.322   0.146  1.3035  0.9210  0.4297
 1294SOL    HW215516   2.404   3.323   0.243  0.1733  0.0868  1.7927
 1295SOL     OW15517   2.115   2.125   2.541 -0.6894 -0.1377 -0.4601
 1295SOL    HW115518   2.083   2.052   2.489 -1.2965 -0.3717  0.2367
 1295SOL    HW215519   2.070   2.194   2.492 -0.8896  0.8978  1.1952
 1296SOL     OW15520   3.848   4.234   3.432 -0.3279 -0.2016  0.2799
 1296SOL    HW115521   3.758   4.261   3.448 -0.1971  0.0735  0.5515
 1296SOL    HW215522   3.831   4.142   3.412 -1.5520  0.4503 -1.6878
 1297SOL     OW15523   4.219   1.482  11.814  0.0616 -0.2400 -0.2817
 1297SOL    HW115524   4.178   1.404  11.849  0.2334  0.4266  1.4123
 1297SOL    HW215525   4.168   1.504  11.736 -1.6873  0.6181  1.1063
 1298SOL     OW15526   2.931   2.050  13.486  0.9686  0.2986  0.7231
 1298SOL    HW115527   2.891   1.963  13.481 -2.8063  1.9894  0.8738
 1298SOL    HW215528   2.868   2.114  13.521 -0.8703 -0.3623 -1.3412
 1299SOL     OW15529   2.128   4.098   4.015  0.2440 -0.1988 -0.5144
 1299SOL    HW115530   2.035   4.115   3.999 -0.1810 -1.9755  0.0610
 1299SOL    HW215531   2.125   4.121   4.108  1.6978 -0.2984 -0.4363
 1300SOL     OW15532   1.850   4.307   8.017 -0.0293 -0.4171  0.3666
 1300SOL    HW115533   1.816   4.220   8.039  1.8088 -0.7941  1.7392
 1300SOL    HW215534   1.810   4.350   8.092  2.1742 -1.0337  1.9043
 1301SOL     OW15535   1.776   0.931  15.163 -0.8062 -0.4197 -0.5498
 1301SOL    HW115536   1.690   0.899  15.191 -0.1734 -0.1770  1.6717
 1301SOL    HW215537   1.822   0.854  15.130  0.7191 -0.7292  2.2970
 1302SOL     OW15538   0.679   3.209   0.563 -0.5587  0.0358 -0.4844
 1302SOL    HW115539   0.618   3.249   0.626 -1.1655 -0.4952 -0.7317
 1302SOL    HW215540   0.665   3.274   0.495  0.3611 -0.6747 -1.3558
 1303SOL     OW15541   4.328   2.914   4.710 -0.3459  0.2135  0.2776
 1303SOL    HW115542   4.392   2.879   4.648  0.1013  2.3695 -0.4849
 1303SOL    HW215543   4.374   2.980   4.762  1.9011  0.2986 -1.8168
 1304SOL     OW15544   1.617   2.483   5.578 -0.3143 -0.3511 -0.2131
 1304SOL    HW115545   1.606   2.462   5.485  0.1401 -0.9360 -0.1338
 1304SOL    HW215546   1.590   2.397   5.609 -0.7438 -0.4449 -0.8489
 1305SOL     OW15547   2.029   1.087   0.184  0.5390 -0.4962 -0.6184
 1305SOL    HW115548   2.047   1.181   0.191  1.9206 -0.6360 -2.2428
 1305SOL    HW215549   1.996   1.080   0.095 -0.2884 -1.1370 -0.2673
 1306SOL     OW15550   1.013   3.914  11.317 -0.2811 -0.3211  0.5172
 1306SOL    HW115551   1.021   3.955  11.231  0.0983 -0.1074  0.6550
 1306SOL    HW215552   0.937   3.953  11.359 -0.6037  0.5553 -0.9131
 1307SOL     OW15553   0.904   1.720   3.626 -0.1088 -0.2355  0.0310
 1307SOL    HW115554   0.897   1.697   3.533 -0.1990  0.3867 -0.1176
 1307SOL    HW215555   0.979   1.778   3.633  0.5921 -1.1559  0.0530
 1308SOL     OW15556   0.962   0.724   6.314 -0.3920  0.0564 -0.5362
 1308SOL    HW115557   1.029   0.763   6.258  2.3815 -1.8088  1.4908
 1308SOL    HW215558   0.902   0.798   6.325 -0.6061 -0.3395  1.0324
 1309SOL     OW15559   2.086   1.025   5.654  0.4461  0.2660  0.3713
 1309SOL    HW115560   2.010   1.040   5.710 -0.7801  0.2931 -1.2651
 1309SOL    HW215561   2.124   0.939   5.674  0.0299  0.4125  1.7383
 1310SOL     OW15562   3.989   3.560   6.828 -0.1975  1.1526 -0.0853
 1310SOL    HW115563   3.989   3.567   6.924  1.3580  1.3724 -0.1095
 1310SOL    HW215564   4.038   3.478   6.826  1.3615  2.0799  0.3866
 1311SOL     OW15565   4.113   2.953   5.124 -0.0421  0.3808  0.1872
 1311SOL    HW115566   4.097   2.882   5.063 -0.7670  0.9263 -0.2645
 1311SOL    HW215567   4.196   2.983   5.087  0.9442  0.5566  2.5177
 1312SOL     OW15568   4.194   3.394  10.707  1.0559  0.7361  0.5925
 1312SOL    HW115569   4.228   3.477  10.674 -1.0351  1.7793  1.0803
 1312SOL    HW215570   4.116   3.379  10.654  0.9737  2.3265  0.2496
 1313SOL     OW15571   0.811   3.988   4.967  0.0723  0.3766 -0.4239
 1313SOL    HW115572   0.793   3.970   5.060 -1.1430 -1.1915 -0.9525
 1313SOL    HW215573   0.895   4.032   4.977 -0.2221  0.7164  0.5900
 1314SOL     OW15574   3.427   3.929  15.371 -0.0624 -0.1239 -0.1840
 1314SOL    HW115575   3.467   3.986  15.305 -0.5373 -2.1216 -2.1463
 1314SOL    HW215576   3.346   3.976  15.391 -2.1617 -3.4744 -1.0485
 1315SOL     OW15577   3.194   4.125   0.036  0.0984 -0.0683  0.2006
 1315SOL    HW115578   3.221   4.033   0.039 -1.2424 -0.4645 -0.0827
 1315SOL    HW215579   3.104   4.128   0.066  0.2408  1.8976  0.4024
 1316SOL     OW15580   4.486   4.075   3.108 -0.0131 -0.0072 -0.2798
 1316SOL    HW115581   4.553   4.123   3.058  0.4795 -1.6019 -1.1432
 1316SOL    HW215582   4.406   4.104   3.064 -2.0816 -4.0730  0.8634
 1317SOL     OW15583   3.688   1.327   5.021  0.0682  0.6016  0.5381
 1317SOL    HW115584   3.598   1.302   4.999 -0.0226 -1.1994  3.0471
 1317SOL    HW215585   3.680   1.406   5.075  1.7403 -0.3641  2.1949
 1318SOL     OW15586   3.282   3.153   2.036  0.2549  0.1476 -0.0901
 1318SOL    HW115587   3.291   3.063   2.006 -0.3286 -0.9262  2.9760
 1318SOL    HW215588   3.239   3.204   1.967  0.2211  2.8364  1.9071
 1319SOL     OW15589   1.355   3.732   6.148  0.1463 -0.7380 -0.7458
 1319SOL    HW115590   1.276   3.732   6.093  0.5879  0.9275 -1.3783
 1319SOL    HW215591   1.310   3.725   6.232 -1.7453 -1.7570 -1.8435
 1320SOL     OW15592   2.043   3.748   1.540  0.0703  0.6008  0.1870
 1320SOL    HW115593   1.971   3.703   1.497  0.5010  0.2402 -0.1640
 1320SOL    HW215594   2.043   3.831   1.492  0.2184  0.5007  0.0088
 1321SOL     OW15595   3.287   1.743  11.642  0.5354 -0.4259 -0.8709
 1321SOL    HW115596   3.300   1.754  11.736  1.4891  1.4416 -1.2360
 1321SOL    HW215597   3.207   1.794  11.629 -2.0789 -3.4390  3.1200
 1322SOL     OW15598   1.904   3.006   3.360 -0.4382  0.3587 -0.6388
 1322SOL    HW115599   1.885   2.919   3.323 -1.0149 -0.0315  0.5759
 1322SOL    HW215600   1.845   3.003   3.435  0.7999 -3.3351  0.2066
 1323SOL     OW15601   0.860   1.162   5.406 -0.0878  0.6023  0.0562
 1323SOL    HW115602   0.954   1.150   5.424  0.0827 -0.5235 -1.5789
 1323SOL    HW215603   0.869   1.241   5.352 -0.9969 -0.8558 -2.2103
 1324SOL     OW15604   0.106   0.642   9.103  0.6666 -0.0198  0.3208
 1324SOL    HW115605   0.135   0.604   9.020  1.6588  1.2340  0.0855
 1324SOL    HW215606   0.046   0.711   9.073  0.1113 -0.2725  0.8702
 1325SOL     OW15607   4.624   0.554   6.405  0.4053 -0.0321 -0.3811
 1325SOL    HW115608   4.610   0.606   6.484 -1.1069 -1.6490  0.4284
 1325SOL    HW215609   4.642   0.617   6.336 -0.1549  0.0266 -0.4778
 1326SOL     OW15610   2.219   3.170  16.505 -0.1696  0.3796 -0.3646
 1326SOL    HW115611   2.195   3.142  16.593  0.6312  1.6397  0.2544
 1326SOL    HW215612   2.179   3.256  16.487  0.4320  0.7908  0.2655
 1327SOL     OW15613   2.090   2.663   3.068  0.3074  0.2320  0.6983
 1327SOL    HW115614   2.133   2.584   3.034 -0.1375  0.1321  0.3533
 1327SOL    HW215615   2.131   2.676   3.153  0.6153 -3.2977  1.1136
 1328SOL     OW15616   2.801   0.031  11.675  0.1826 -0.7036  0.5052
 1328SOL    HW115617   2.873   0.029  11.738 -0.5663  0.2996  1.3885
 1328SOL    HW215618   2.801   0.118  11.635 -1.5412  0.9503  4.1561
 1329SOL     OW15619   3.779   2.074  12.375 -0.3227  0.5435  0.3173
 1329SOL    HW115620   3.755   2.028  12.294 -1.6575  2.0289 -0.1311
 1329SOL    HW215621   3.863   2.030  12.386  0.3803  2.0775  1.1015
 1330SOL     OW15622   2.682   0.203  11.478  0.1408 -0.1219  0.2199
 1330SOL    HW115623   2.729   0.284  11.496  0.5729 -0.3228 -0.0003
 1330SOL    HW215624   2.674   0.186  11.384 -1.0474  3.0703 -0.2754
 1331SOL     OW15625   4.730   1.158   7.145  0.2862 -0.1058 -1.0306
 1331SOL    HW115626   0.045   1.108   7.079 -1.6512 -3.5349  0.1066
 1331SOL    HW215627   4.652   1.104   7.134 -1.2973  1.8628  0.6318
 1332SOL     OW15628   3.469   0.366   6.582  0.2347  0.5170 -0.1506
 1332SOL    HW115629   3.478   0.439   6.644 -1.5050  0.4053  0.2126
 1332SOL    HW215630   3.434   0.297   6.638 -1.0977  0.0486 -1.5985
 1333SOL     OW15631   4.167   0.425  14.864 -0.0229  0.0634  0.2804
 1333SOL    HW115632   4.224   0.498  14.887  0.7772  0.2509 -2.3083
 1333SOL    HW215633   4.225   0.357  14.897 -0.1578 -1.1854 -2.0242
 1334SOL     OW15634   3.751   3.441   0.219 -0.5747  0.1525 -0.2152
 1334SOL    HW115635   3.826   3.448   0.160  0.4940 -0.3441  1.0890
 1334SOL    HW215636   3.709   3.526   0.207 -0.1349  0.4060  0.0447
 1335SOL     OW15637   1.935   4.607   1.769  0.0293  0.3874 -0.3628
 1335SOL    HW115638   2.027   4.608   1.744 -0.0200  0.9966 -0.5100
 1335SOL    HW215639   1.930   4.677   1.834  3.0076  1.2859 -1.1291
 1336SOL     OW15640   4.525   0.534   4.483  0.5092 -0.4378 -0.4057
 1336SOL    HW115641   4.467   0.610   4.485  1.3269  0.1292  2.2893
 1336SOL    HW215642   4.526   0.519   4.577  3.5367  2.1706 -0.0055
 1337SOL     OW15643   2.502   0.255   9.410 -0.5527 -0.2295  0.1646
 1337SOL    HW115644   2.490   0.298   9.326 -2.0910  0.7126  0.8583
 1337SOL    HW215645   2.568   0.193   9.381  0.0168  0.6920 -0.4867
 1338SOL     OW15646   2.809   2.718  13.748 -0.0533 -0.1546 -0.3146
 1338SOL    HW115647   2.841   2.634  13.782 -0.1194 -1.2059 -2.8934
 1338SOL    HW215648   2.716   2.720  13.727 -0.1223 -1.9205 -0.1315
 1339SOL     OW15649   4.245   3.115  12.258 -0.1340 -0.4305  0.5628
 1339SOL    HW115650   4.284   3.195  12.292  0.3414 -0.6056  0.4355
 1339SOL    HW215651   4.315   3.051  12.270 -0.6718 -1.2066 -0.4008
 1340SOL     OW15652   3.575   1.872  13.302  0.0907 -0.1525 -0.0113
 1340SOL    HW115653   3.647   1.885  13.240  2.2925  1.7056  2.9311
 1340SOL    HW215654   3.546   1.788  13.266 -1.6757  0.2432  0.4947
 1341SOL     OW15655   3.491   1.512   7.375  0.6133  0.3868  0.1289
 1341SOL    HW115656   3.567   1.508   7.317  0.3919  1.7265 -0.2601
 1341SOL    HW215657   3.484   1.608   7.371 -1.4092  0.2479  0.2580
 1342SOL     OW15658   4.622   3.331  15.975  0.1080 -0.0971 -0.8128
 1342SOL    HW115659   4.642   3.424  15.959 -2.0672  0.8794  2.2744
 1342SOL    HW215660   4.711   3.301  15.994 -0.5664 -0.9238  0.9873
 1343SOL     OW15661   0.852   1.025   9.938 -0.7917  0.3318  0.3720
 1343SOL    HW115662   0.908   1.039   9.862 -1.1689  0.8746  0.1919
 1343SOL    HW215663   0.771   1.074   9.926 -0.0960  1.6166  0.9047
 1344SOL     OW15664   1.935   4.531   7.384  0.0651 -0.3046  0.3962
 1344SOL    HW115665   1.901   4.617   7.409 -0.2501 -0.3644  0.1729
 1344SOL    HW215666   2.029   4.547   7.385  0.0202 -0.1403  1.7164
 1345SOL     OW15667   2.042   4.064  11.163 -0.4358 -0.3275 -0.1543
 1345SOL    HW115668   2.054   4.033  11.252  0.8917 -0.2613 -0.3084
 1345SOL    HW215669   2.022   3.986  11.111  0.2331 -1.6450  1.5522
 1346SOL     OW15670   2.634   3.672   4.872 -0.3177 -0.0562  0.0534
 1346SOL    HW115671   2.593   3.756   4.852  0.3915 -0.0319 -1.3498
 1346SOL    HW215672   2.562   3.608   4.874 -0.4685  0.1140  0.1052
 1347SOL     OW15673   0.488   1.889   2.288  0.0962 -0.1627  0.0290
 1347SOL    HW115674   0.540   1.811   2.308 -0.7418 -0.3293  1.4886
 1347SOL    HW215675   0.457   1.875   2.198 -1.3131  1.6943  0.2201
 1348SOL     OW15676   1.029   0.296   1.069  0.3067 -0.4341  0.1116
 1348SOL    HW115677   0.944   0.274   1.107 -0.4462 -1.7052 -2.3036
 1348SOL    HW215678   1.034   0.231   0.999  0.7695 -1.5372  1.1829
 1349SOL     OW15679   3.443   3.162  12.801 -0.0853  0.1478 -0.0172
 1349SOL    HW115680   3.410   3.230  12.860  1.4794  0.3799  0.5980
 1349SOL    HW215681   3.517   3.147  12.859 -1.2638  0.8154  1.6496
 1350SOL     OW15682   0.353   0.660   4.713 -0.2337  0.5575 -0.2546
 1350SOL    HW115683   0.419   0.596   4.740 -0.7616 -0.2252 -0.8256
 1350SOL    HW215684   0.283   0.625   4.767 -0.1980 -1.5074 -1.5728
 1351SOL     OW15685   1.103   3.087   6.373 -0.2875  0.0244  1.0733
 1351SOL    HW115686   1.136   3.065   6.460 -0.3496 -3.3410  0.2431
 1351SOL    HW215687   1.039   3.018   6.355 -1.9538  2.1868 -1.3648
 1352SOL     OW15688   1.468   0.284   3.477  0.4661  0.6901  0.0386
 1352SOL    HW115689   1.374   0.265   3.472  0.8209 -0.7982 -0.9148
 1352SOL    HW215690   1.468   0.372   3.515  1.0970 -0.3269  2.3977
 1353SOL     OW15691   2.472   0.101   0.440  0.1743  0.3288  0.0770
 1353SOL    HW115692   2.517   0.024   0.474 -0.2825  0.2738  0.5681
 1353SOL    HW215693   2.542   0.166   0.444  1.2098 -0.6717 -2.2012
 1354SOL     OW15694   2.332   2.248   1.027 -0.0603  0.2552 -0.2893
 1354SOL    HW115695   2.247   2.288   1.043  0.3813  0.8412  0.5924
 1354SOL    HW215696   2.349   2.281   0.938 -1.4155 -1.9026 -1.3228
 1355SOL     OW15697   0.885   2.973   4.351  0.4724  0.5609 -0.4220
 1355SOL    HW115698   0.879   2.987   4.445 -1.9147  1.4860 -0.7013
 1355SOL    HW215699   0.928   2.888   4.362 -0.1490  0.4166  0.9085
 1356SOL     OW15700   2.287   0.564   9.375  0.2482 -0.3460  0.0489
 1356SOL    HW115701   2.208   0.514   9.352 -1.8397  2.9899 -0.0121
 1356SOL    HW215702   2.257   0.632   9.435 -0.1872  1.5434 -2.3240
 1357SOL     OW15703   2.125   1.791   6.566 -0.1140  0.6992 -0.5253
 1357SOL    HW115704   2.087   1.765   6.650  1.6112 -1.0611 -0.2994
 1357SOL    HW215705   2.137   1.707   6.520  1.1443  0.8329 -0.4417
 1358SOL     OW15706   0.733   3.187   1.229 -0.1112  0.3299 -0.3675
 1358SOL    HW115707   0.673   3.152   1.295  0.1870  1.8038  0.6973
 1358SOL    HW215708   0.804   3.124   1.237 -1.8827 -1.5099  0.7568
 1359SOL     OW15709   2.259   0.279   0.486  0.5288 -0.1465  0.3806
 1359SOL    HW115710   2.331   0.218   0.467 -0.5977 -1.0112 -1.0697
 1359SOL    HW215711   2.236   0.319   0.402 -2.5519  0.4418  1.5065
 1360SOL     OW15712   2.946   0.356  10.034 -0.1121  0.2324 -0.6143
 1360SOL    HW115713   2.903   0.441  10.040  1.8659  1.2412 -0.7924
 1360SOL    HW215714   2.873   0.297  10.056  0.3616  0.6065  2.0520
 1361SOL     OW15715   1.732   3.498   8.806 -0.1417 -0.2153 -0.0614
 1361SOL    HW115716   1.827   3.496   8.796  0.0742  0.5767  1.8184
 1361SOL    HW215717   1.719   3.412   8.846  0.3892 -0.0995  0.3669
 1362SOL     OW15718   4.569   1.851   4.628 -0.0396  0.6843  0.2332
 1362SOL    HW115719   4.598   1.789   4.561 -3.6331  1.0367 -1.6736
 1362SOL    HW215720   4.567   1.929   4.571  1.2746 -0.4083 -1.3185
 1363SOL     OW15721   2.991   0.469  14.865  0.0806 -0.2132 -0.1218
 1363SOL    HW115722   2.946   0.470  14.949 -0.4119  1.9390 -0.4195
 1363SOL    HW215723   2.911   0.467  14.814 -0.1251  6.1086 -0.0574
 1364SOL     OW15724   4.637   1.486   2.445  0.2588  0.0730 -0.2807
 1364SOL    HW115725   4.608   1.411   2.392 -1.5030  0.2799  0.3794
 1364SOL    HW215726   4.730   1.469   2.461 -0.3538 -2.5236  0.6130
 1365SOL     OW15727   3.588   1.524   3.696 -0.5395 -0.0249 -0.1072
 1365SOL    HW115728   3.536   1.481   3.764 -1.3039 -1.0443 -1.3482
 1365SOL    HW215729   3.524   1.589   3.667  0.9506  1.2427 -0.5219
 1366SOL     OW15730   2.587   3.187   8.593 -0.2213 -0.4466 -0.0780
 1366SOL    HW115731   2.499   3.215   8.566 -0.0384  0.6349  0.4502
 1366SOL    HW215732   2.581   3.091   8.594  2.1975 -0.5864  0.5743
 1367SOL     OW15733   3.745   1.079  14.670  0.8212  0.3816  0.3994
 1367SOL    HW115734   3.704   1.106  14.752  1.6211  0.4902  0.7592
 1367SOL    HW215735   3.694   1.009  14.628  1.0601  0.1867  0.4319
 1368SOL     OW15736   1.428   2.433   2.008  0.0970 -0.1093  0.4690
 1368SOL    HW115737   1.445   2.357   1.952  3.0698  1.5607 -0.9252
 1368SOL    HW215738   1.359   2.415   2.071 -0.1495 -2.6372 -0.5127
 1369SOL     OW15739   1.041   1.881   8.070 -0.0226 -0.2282  0.0204
 1369SOL    HW115740   1.052   1.790   8.100 -1.2837 -0.4024 -0.0742
 1369SOL    HW215741   1.079   1.935   8.139  3.4389  0.8921 -2.7212
 1370SOL     OW15742   1.794   2.547   5.875  0.2198 -0.2034  0.0922
 1370SOL    HW115743   1.739   2.469   5.887 -1.4906  0.7793 -1.4142
 1370SOL    HW215744   1.874   2.526   5.923 -0.3629  0.0352  1.1730
 1371SOL     OW15745   1.064   0.422   7.135  0.1166 -0.1163 -0.5285
 1371SOL    HW115746   1.014   0.362   7.189 -0.1415 -0.6959 -1.4192
 1371SOL    HW215747   1.119   0.363   7.083  0.3730 -0.0384 -0.3456
 1372SOL     OW15748   3.354   2.007   2.354 -0.1621 -0.4323 -0.0607
 1372SOL    HW115749   3.327   2.099   2.346 -3.0776 -1.2414  0.5634
 1372SOL    HW215750   3.439   2.001   2.311  0.8143  0.8416  1.6752
 1373SOL     OW15751   1.978   3.401   8.778  0.6995  0.2979  0.0109
 1373SOL    HW115752   2.027   3.392   8.696 -2.1368 -0.4528 -1.5814
 1373SOL    HW215753   2.029   3.346   8.837  0.0068  0.0226  0.3498
 1374SOL     OW15754   2.511   4.203   0.979 -0.2084 -0.3212  0.2898
 1374SOL    HW115755   2.459   4.123   0.972  0.0310 -0.5515  1.2119
 1374SOL    HW215756   2.548   4.185   1.065  2.3805 -1.2727 -1.0322
 1375SOL     OW15757   3.483   1.632   2.784  0.1102  0.2492 -0.6038
 1375SOL    HW115758   3.440   1.716   2.768  1.0350  0.8947  0.3273
 1375SOL    HW215759   3.448   1.607   2.870  0.6981  0.2601 -0.3601
 1376SOL     OW15760   1.082   3.969   4.179 -0.7098 -0.6193 -0.0596
 1376SOL    HW115761   1.026   3.912   4.127 -1.1047 -0.4396  0.1723
 1376SOL    HW215762   1.025   4.046   4.190 -0.4286 -0.3753 -0.3122
 1377SOL     OW15763   3.596   4.678  14.108 -0.0847 -0.6001 -0.2184
 1377SOL    HW115764   3.639   4.692  14.023 -2.3530 -1.1469 -1.4730
 1377SOL    HW215765   3.560   4.591  14.092  0.1243 -0.4956 -1.2843
 1378SOL     OW15766   2.548   3.649  11.191  0.2735 -0.0528  0.4887
 1378SOL    HW115767   2.614   3.598  11.144 -0.8157 -0.5103 -0.5267
 1378SOL    HW215768   2.591   3.675  11.273 -2.4961 -1.7881  2.5050
 1379SOL     OW15769   2.706   0.703   7.017 -0.4235 -0.0292  0.2936
 1379SOL    HW115770   2.715   0.735   7.106 -1.1650  2.2408 -0.4292
 1379SOL    HW215771   2.727   0.611   7.030  3.1077  0.3040 -3.0488
 1380SOL     OW15772   0.727   2.322   5.551 -0.1719  0.1087  0.6828
 1380SOL    HW115773   0.760   2.233   5.559  0.5208  0.4303  1.4050
 1380SOL    HW215774   0.792   2.368   5.604 -0.3703  0.2939  0.7686
 1381SOL     OW15775   0.308   4.435   2.059  0.0896 -0.3563  0.2111
 1381SOL    HW115776   0.342   4.441   2.149 -1.5971  1.3712  0.7319
 1381SOL    HW215777   0.326   4.342   2.044  0.5239 -0.5552  1.9752
 1382SOL     OW15778   4.477   0.770  10.752 -0.0284  0.0190  0.3969
 1382SOL    HW115779   4.513   0.681  10.752 -3.1101 -1.2044  1.0766
 1382SOL    HW215780   4.409   0.758  10.817  0.6805 -1.8616  0.7682
 1383SOL     OW15781   2.977   2.846  12.913 -0.3125  1.2928  0.0611
 1383SOL    HW115782   2.905   2.826  12.973 -1.0659 -0.5822 -1.4948
 1383SOL    HW215783   2.936   2.827  12.829  0.4694 -0.0443 -0.0063
 1384SOL     OW15784   4.034   3.570   3.514  0.0199  0.0298 -0.2305
 1384SOL    HW115785   3.983   3.637   3.468  0.9718  1.6914  1.1139
 1384SOL    HW215786   4.006   3.492   3.466 -1.8514 -0.0213  0.9277
 1385SOL     OW15787   1.974   0.535   2.291 -0.3510  0.1668  0.2007
 1385SOL    HW115788   1.895   0.589   2.291 -0.3347  0.1744  1.3635
 1385SOL    HW215789   1.987   0.506   2.381 -2.3477 -0.7003  0.2017
 1386SOL     OW15790   0.492   4.541   8.051  0.2277 -0.8300 -0.7674
 1386SOL    HW115791   0.456   4.613   7.999 -0.0224  1.3142  2.3869
 1386SOL    HW215792   0.415   4.485   8.057  0.9779 -1.4448  2.9621
 1387SOL     OW15793   3.697   3.503   8.177  0.6273  0.0720  0.2864
 1387SOL    HW115794   3.684   3.410   8.197  0.9839 -0.2425 -0.9755
 1387SOL    HW215795   3.701   3.546   8.263 -0.7085 -0.0090  0.3878
 1388SOL     OW15796   0.253   4.038   8.952 -0.2161 -0.9267 -0.3139
 1388SOL    HW115797   0.188   3.993   9.006 -1.6463  0.8576 -0.5041
 1388SOL    HW215798   0.235   3.997   8.867 -0.5539 -1.8799  0.2238
 1389SOL     OW15799   3.052   0.562  11.381 -0.4034  0.1092  0.8734
 1389SOL    HW115800   3.055   0.625  11.453 -2.0996  0.8360  0.2992
 1389SOL    HW215801   3.140   0.559  11.342  0.2667 -0.9004  2.4932
 1390SOL     OW15802   1.252   0.839   6.694 -0.3970 -0.4209 -0.1621
 1390SOL    HW115803   1.171   0.852   6.743 -1.4491 -0.2287 -1.9489
 1390SOL    HW215804   1.262   0.744   6.680  0.5175  0.0571 -2.7259
 1391SOL     OW15805   4.176   0.514   3.854  0.1510 -0.1199  0.3397
 1391SOL    HW115806   4.180   0.553   3.767 -0.4435  0.1483  0.4328
 1391SOL    HW215807   4.252   0.562   3.887  1.1435 -0.7574 -1.0049
 1392SOL     OW15808   1.107   3.120   9.886 -0.4780 -0.3336 -0.4699
 1392SOL    HW115809   1.041   3.183   9.915 -0.2740 -0.4203  0.1699
 1392SOL    HW215810   1.092   3.048   9.948  0.2126 -0.0684 -0.0024
 1393SOL     OW15811   0.996   3.303   3.818  0.0960 -0.3178 -0.2018
 1393SOL    HW115812   0.944   3.369   3.864 -0.3207  0.2367 -1.4611
 1393SOL    HW215813   1.079   3.312   3.865  0.6362 -0.7707 -1.0839
 1394SOL     OW15814   0.049   3.438   8.645 -0.1917  0.6829 -0.3066
 1394SOL    HW115815   4.719   3.408   8.581  1.0693 -1.0775 -0.7555
 1394SOL    HW215816   0.126   3.400   8.602 -0.6427 -0.2650 -0.2754
 1395SOL     OW15817   2.934   2.699  16.223  0.5641 -0.9775 -0.5027
 1395SOL    HW115818   2.853   2.736  16.256  0.5851 -0.2466 -1.2864
 1395SOL    HW215819   2.965   2.776  16.176 -1.9550  0.7212  0.6928
 1396SOL     OW15820   3.059   0.361   0.918 -0.2004  0.2012 -0.2019
 1396SOL    HW115821   3.128   0.368   0.984 -0.1881  0.2057 -0.2152
 1396SOL    HW215822   2.999   0.298   0.958 -2.6248  0.2275 -3.7474
 1397SOL     OW15823   3.416   3.759   2.985 -0.4616 -0.0810  0.3176
 1397SOL    HW115824   3.458   3.839   2.953 -0.7490  0.2316  0.7259
 1397SOL    HW215825   3.382   3.729   2.901 -1.7032 -1.0484  1.1660
 1398SOL     OW15826   1.873   4.622   4.110 -0.1701 -0.0330 -0.0920
 1398SOL    HW115827   1.871   4.607   4.015 -0.9883  0.4908 -0.1579
 1398SOL    HW215828   1.923   4.546   4.140  0.1429 -0.2872 -1.2288
 1399SOL     OW15829   3.850   1.981   5.354  0.0874 -0.5471 -0.2770
 1399SOL    HW115830   3.784   1.912   5.364 -0.3549  0.3469  3.0710
 1399SOL    HW215831   3.926   1.930   5.327  0.4542 -0.0174 -0.2401
 1400SOL     OW15832   2.237   0.803   1.616  0.3191 -0.5207 -0.2649
 1400SOL    HW115833   2.261   0.753   1.538 -0.2437  0.6126 -1.1679
 1400SOL    HW215834   2.315   0.858   1.615  0.7458 -1.0845  1.7545
 1401SOL     OW15835   0.807   1.971   6.207  0.1517  0.5787 -0.6899
 1401SOL    HW115836   0.883   1.922   6.238 -0.8327 -1.6356 -1.7132
 1401SOL    HW215837   0.758   1.902   6.161  1.6138  0.9394 -2.7535
 1402SOL     OW15838   4.634   1.268   4.896 -0.8142 -0.0413  0.3603
 1402SOL    HW115839   4.638   1.209   4.972 -1.4320  1.9676  1.9418
 1402SOL    HW215840   4.682   1.214   4.833  0.0776  2.3131 -0.9683
 1403SOL     OW15841   0.712   3.895   7.426  0.6438 -0.5523 -0.4751
 1403SOL    HW115842   0.715   3.806   7.461 -0.0456 -0.9126 -1.3286
 1403SOL    HW215843   0.806   3.912   7.433  0.6568  0.1427 -2.6217
 1404SOL     OW15844   1.749   1.724   9.871 -0.5068 -0.2799 -0.4377
 1404SOL    HW115845   1.749   1.677   9.954  0.2803  0.7635  0.1580
 1404SOL    HW215846   1.841   1.719   9.846 -0.1055  1.4755  0.6801
 1405SOL     OW15847   0.893   2.940   8.716 -0.0973 -0.0053  0.2861
 1405SOL    HW115848   0.968   2.916   8.771  2.2950  0.3379 -2.8540
 1405SOL    HW215849   0.855   3.012   8.767  0.3448 -1.2074  2.3098
 1406SOL     OW15850   1.182   3.428   6.280  0.9050 -0.4283 -0.3005
 1406SOL    HW115851   1.265   3.456   6.319 -0.3032  1.7807  0.7150
 1406SOL    HW215852   1.222   3.385   6.205 -1.4072 -1.2640 -1.0757
 1407SOL     OW15853   4.560   4.058   2.274  0.7521  0.0148 -0.1189
 1407SOL    HW115854   4.468   4.063   2.297  0.8668  0.7904  0.1760
 1407SOL    HW215855   4.592   3.998   2.342 -0.9044  0.4037  0.9881
 1408SOL     OW15856   2.594   1.610  14.569  0.2886  0.1090  0.1088
 1408SOL    HW115857   2.573   1.521  14.600  1.1043  0.0477  0.4975
 1408SOL    HW215858   2.515   1.641  14.526 -2.1429 -1.5807  3.3685
 1409SOL     OW15859   3.810   4.058   0.907  1.2849 -0.3277 -0.0933
 1409SOL    HW115860   3.870   4.119   0.863 -0.3811  2.2501  1.2392
 1409SOL    HW215861   3.849   4.025   0.987  0.1909  0.9501  0.9760
 1410SOL     OW15862   4.622   4.658   5.186  0.3172 -0.2832 -0.1291
 1410SOL    HW115863   4.708   4.629   5.214  0.4669  0.3536  0.0748
 1410SOL    HW215864   4.649   4.720   5.118 -2.2153  1.6983  0.6410
 1411SOL     OW15865   3.970   2.130   3.723  0.0710  0.3196 -0.1945
 1411SOL    HW115866   4.049   2.096   3.681 -1.4733  0.4046 -3.1768
 1411SOL    HW215867   3.970   2.092   3.811  4.7035  0.2837 -0.2167
 1412SOL     OW15868   2.270   4.323   0.976 -0.8501 -0.2732  0.7889
 1412SOL    HW115869   2.252   4.233   1.001 -1.3805 -1.1951 -3.0334
 1412SOL    HW215870   2.365   4.310   0.969 -0.5431  2.8082 -0.7612
 1413SOL     OW15871   1.180   1.743   9.697  0.3236  0.1287 -0.2287
 1413SOL    HW115872   1.194   1.738   9.792 -0.6525 -2.8738 -0.2349
 1413SOL    HW215873   1.265   1.726   9.657 -1.2498 -0.0539 -3.5219
 1414SOL     OW15874   4.176   3.348   5.013 -0.0957 -0.8008 -0.0900
 1414SOL    HW115875   4.247   3.370   5.074 -0.9474  1.1510  0.2106
 1414SOL    HW215876   4.181   3.421   4.951  1.8646  0.1081  1.1408
 1415SOL     OW15877   1.005   1.475   2.675 -0.0428 -0.0351 -0.6866
 1415SOL    HW115878   0.922   1.512   2.643  1.1392  2.1627 -1.1741
 1415SOL    HW215879   1.050   1.553   2.707  2.0762 -1.8956  0.8201
 1416SOL     OW15880   0.840   4.469   1.100 -0.1700  0.0941 -0.0088
 1416SOL    HW115881   0.916   4.423   1.063  1.4972  2.4546  0.4835
 1416SOL    HW215882   0.877   4.546   1.145  0.3010  0.5291 -1.1417
 1417SOL     OW15883   2.151   1.598   1.184  0.3426 -0.3448 -0.7245
 1417SOL    HW115884   2.160   1.508   1.215 -1.0372  0.1220  1.0237
 1417SOL    HW215885   2.218   1.610   1.116 -1.0190  1.2661 -1.7732
 1418SOL     OW15886   1.980   0.117   6.417 -0.8401  0.5658  0.1036
 1418SOL    HW115887   1.958   0.066   6.339 -0.7932  0.4474  0.1667
 1418SOL    HW215888   1.899   0.098   6.465 -2.2578 -2.3587 -3.4150
 1419SOL     OW15889   0.309   2.846   0.057  0.0334 -0.0957  0.3997
 1419SOL    HW115890   0.333   2.938   0.061  0.6267 -0.2226 -0.5348
 1419SOL    HW215891   0.393   2.810   0.084 -0.0922  0.7906  2.0066
 1420SOL     OW15892   2.804   2.318   7.633 -0.4123  0.0958 -0.2227
 1420SOL    HW115893   2.760   2.281   7.710  2.5285 -2.6613  0.1400
 1420SOL    HW215894   2.865   2.384   7.663 -1.6031 -0.1125  2.6441
 1421SOL     OW15895   2.653   2.812   3.714  0.0909  0.3927  0.8554
 1421SOL    HW115896   2.613   2.885   3.761 -1.4006  0.2198 -0.1427
 1421SOL    HW215897   2.732   2.847   3.674 -1.2824  1.7211 -0.7292
 1422SOL     OW15898   2.696   3.206  12.809  0.2625 -0.2322 -0.3306
 1422SOL    HW115899   2.777   3.178  12.766  0.5569  0.8504 -0.4922
 1422SOL    HW215900   2.679   3.141  12.877  0.6293 -1.1299 -1.1011
 1423SOL     OW15901   0.372   2.605  16.651  0.0665  0.7993 -0.2145
 1423SOL    HW115902   0.298   2.546  16.652  1.3060 -0.7730 -1.4443
 1423SOL    HW215903   0.438   2.536  16.641 -0.8642 -0.1164  0.0401
 1424SOL     OW15904   3.813   3.605   5.464 -0.4616 -1.1874  0.4571
 1424SOL    HW115905   3.768   3.628   5.383 -0.1745  0.5077  0.7900
 1424SOL    HW215906   3.729   3.594   5.509  0.0460 -1.2680  1.3851
 1425SOL     OW15907   0.564   0.134   0.041 -0.0267 -0.2204 -0.4724
 1425SOL    HW115908   0.555   0.065   0.107  0.9043  0.9668  0.8904
 1425SOL    HW215909   0.598   0.212   0.086 -2.4120 -0.2670  1.3877
 1426SOL     OW15910   0.420   4.324   6.514  0.2788 -0.8097  0.0838
 1426SOL    HW115911   0.418   4.404   6.461  0.7391 -0.7645  0.1359
 1426SOL    HW215912   0.505   4.324   6.559  0.0576  0.0967  0.4990
 1427SOL     OW15913   3.579   1.100   7.739 -0.0062 -0.1138 -0.2952
 1427SOL    HW115914   3.532   1.169   7.693 -1.1373 -1.3457 -0.9887
 1427SOL    HW215915   3.513   1.033   7.753 -1.6535  1.5441 -0.1117
 1428SOL     OW15916   0.413   2.310   4.431  0.5146  0.2036  0.7683
 1428SOL    HW115917   0.346   2.329   4.365  0.6831 -1.3985  0.1504
 1428SOL    HW215918   0.432   2.219   4.411 -2.3754 -0.5172  1.2099
 1429SOL     OW15919   0.692   3.203   4.712  0.4349  0.0350 -0.4282
 1429SOL    HW115920   0.702   3.292   4.744 -2.3812 -0.4358  1.7653
 1429SOL    HW215921   0.627   3.213   4.642  1.9250  0.9305 -1.6850
 1430SOL     OW15922   0.005   4.028   3.757 -0.6550  0.1888  0.5399
 1430SOL    HW115923   0.071   3.997   3.819  0.3191  1.4637  0.1534
 1430SOL    HW215924   0.056   4.104   3.726 -1.0128  0.3095  0.2432
 1431SOL     OW15925   3.718   0.652   2.217 -0.1667  0.6062  0.0008
 1431SOL    HW115926   3.726   0.648   2.312  0.4056 -0.5533 -0.1002
 1431SOL    HW215927   3.647   0.711   2.193 -0.2062  0.6621  0.2569
 1432SOL     OW15928   3.896   3.650  16.888 -0.2441  0.3718 -0.0645
 1432SOL    HW115929   3.852   3.698  16.958  1.7715 -0.3975  1.7433
 1432SOL    HW215930   3.978   3.628  16.934 -0.7542 -2.5738 -0.5503
 1433SOL     OW15931   1.942   1.697  15.685  0.5315 -0.7958  0.2189
 1433SOL    HW115932   1.949   1.743  15.769 -2.2758 -1.1624  0.6575
 1433SOL    HW215933   2.003   1.742  15.628  0.2961  0.0419  0.6281
 1434SOL     OW15934   4.329   0.991  16.403  0.0324 -0.1095  0.5011
 1434SOL    HW115935   4.245   0.949  16.383  0.2473  0.0528 -0.7060
 1434SOL    HW215936   4.387   0.970  16.331 -0.4444 -0.1566  0.1311
 1435SOL     OW15937   3.266   3.218   4.838  0.2176  0.2123 -0.3884
 1435SOL    HW115938   3.210   3.282   4.882  0.7895  0.9525 -0.7289
 1435SOL    HW215939   3.341   3.220   4.898  2.1806 -0.5957 -2.8237
 1436SOL     OW15940   2.722   2.558   4.570  0.6762  0.1803  0.5264
 1436SOL    HW115941   2.777   2.480   4.582 -0.4386 -0.9839 -1.9571
 1436SOL    HW215942   2.775   2.628   4.610  1.6231  0.5297 -1.3322
 1437SOL     OW15943   2.743   3.452   3.813  0.5030  0.7533 -0.2869
 1437SOL    HW115944   2.805   3.504   3.863  0.2797  1.9467 -1.2519
 1437SOL    HW215945   2.784   3.366   3.823 -0.1866  0.4416 -0.1363
 1438SOL     OW15946   3.465   4.192   1.045 -0.3606 -0.1487 -0.9757
 1438SOL    HW115947   3.503   4.163   1.128  0.0052 -1.7132 -1.6968
 1438SOL    HW215948   3.532   4.161   0.984 -0.4928  0.3629 -1.3837
 1439SOL     OW15949   2.426   2.408  17.684  0.0690  0.3726  0.2552
 1439SOL    HW115950   2.331   2.418  17.695  0.2335  1.1338  0.9773
 1439SOL    HW215951   2.439   2.317  17.659 -0.0251  0.4659 -0.1217
 1440SOL     OW15952   2.895   4.416   8.540 -0.4591  0.7093  0.9167
 1440SOL    HW115953   2.814   4.379   8.506 -0.4821 -0.6298  2.4805
 1440SOL    HW215954   2.917   4.480   8.472  0.8358 -1.3433 -0.6101
 1441SOL     OW15955   4.488   3.552   6.779 -0.4990  0.0543 -0.5754
 1441SOL    HW115956   4.471   3.523   6.690 -0.4928  0.3941 -0.6866
 1441SOL    HW215957   4.429   3.626   6.794 -2.5693 -1.3780 -1.7594
 1442SOL     OW15958   2.001   1.356  15.368 -0.2032  0.2729 -0.3940
 1442SOL    HW115959   1.942   1.282  15.375 -2.3281  2.1544  1.6900
 1442SOL    HW215960   1.943   1.426  15.337 -0.9482  0.3373  1.1535
 1443SOL     OW15961   3.173   0.197  10.037 -0.3569  0.2206  0.1186
 1443SOL    HW115962   3.098   0.255  10.041  0.4286  1.2491 -0.1140
 1443SOL    HW215963   3.164   0.152   9.953 -3.0371  0.8610  0.0736
 1444SOL     OW15964   3.250   3.083  16.584 -0.2932 -0.7162 -0.1191
 1444SOL    HW115965   3.184   3.153  16.580  2.2768  1.6770 -0.3293
 1444SOL    HW215966   3.291   3.087  16.497 -1.6420 -1.1081 -0.7820
 1445SOL     OW15967   0.639   2.462   2.712 -0.1457 -0.0642  0.0209
 1445SOL    HW115968   0.590   2.390   2.673  1.7596 -0.5622 -1.4259
 1445SOL    HW215969   0.730   2.434   2.711 -0.2589 -0.3249 -2.3432
 1446SOL     OW15970   1.171   0.258   0.320  0.0522  0.7385 -0.4825
 1446SOL    HW115971   1.176   0.353   0.324 -0.0145  0.6608  1.4363
 1446SOL    HW215972   1.085   0.237   0.285  0.0140  0.6814 -0.3567
 1447SOL     OW15973   3.985   4.268   1.490  0.1626  0.5314  0.3752
 1447SOL    HW115974   3.894   4.294   1.507 -0.1359 -0.7968  0.8553
 1447SOL    HW215975   3.988   4.298   1.399 -1.9688  2.2201  0.8495
 1448SOL     OW15976   3.354   2.486   6.324  0.2966 -0.0685  0.5096
 1448SOL    HW115977   3.333   2.467   6.415  0.0107  0.1268  0.4824
 1448SOL    HW215978   3.448   2.468   6.325 -0.1044 -2.1448  1.0068
 1449SOL     OW15979   0.440   1.317  17.206  0.2516  0.8427 -0.2068
 1449SOL    HW115980   0.449   1.374  17.129 -0.7961  0.2753 -0.7555
 1449SOL    HW215981   0.517   1.349  17.252 -1.0676  1.2073  1.7472
 1450SOL     OW15982   0.473   0.984  12.406 -1.1015  0.0417 -0.4255
 1450SOL    HW115983   0.467   0.926  12.330 -0.7940  2.1496 -2.0563
 1450SOL    HW215984   0.404   1.047  12.389  0.6828  1.8996 -0.7154
 1451SOL     OW15985   1.419   1.652  11.088 -0.2727 -0.4157 -0.0330
 1451SOL    HW115986   1.417   1.670  10.994 -1.1490  0.8855  0.2411
 1451SOL    HW215987   1.483   1.581  11.098 -0.0962 -0.4248 -1.2312
 1452SOL     OW15988   0.424   3.057   2.703  0.4222  0.2488 -0.3274
 1452SOL    HW115989   0.474   3.107   2.639 -0.3373 -0.4269 -1.4503
 1452SOL    HW215990   0.435   3.104   2.786  2.0565 -0.1467 -0.3261
 1453SOL     OW15991   1.835   2.411  16.849 -0.0020 -0.6485  0.3610
 1453SOL    HW115992   1.925   2.432  16.822 -0.3725 -0.6700 -0.9098
 1453SOL    HW215993   1.824   2.471  16.922 -0.7206  1.0569 -1.1323
 1454SOL     OW15994   2.617   3.442  10.914  0.6037 -0.3393  0.0141
 1454SOL    HW115995   2.659   3.415  10.833  2.4462 -0.8890  1.1387
 1454SOL    HW215996   2.615   3.535  10.895 -0.0580 -0.5586 -1.0013
 1455SOL     OW15997   4.606   2.863   4.605 -0.0440 -0.3226 -0.8886
 1455SOL    HW115998   4.692   2.831   4.632  0.6267  1.0117 -1.4094
 1455SOL    HW215999   4.625   2.956   4.617 -1.2100 -0.2429  0.2894
 1456SOL     OW16000   0.154   1.130   2.881 -1.0031 -0.2800 -0.5041
 1456SOL    HW116001   0.114   1.205   2.838  2.5465  1.2759 -1.1025
 1456SOL    HW216002   0.219   1.171   2.938  1.8365 -3.1341 -1.6315
 1457SOL     OW16003   3.973   2.152   7.135  0.0918 -0.1360  0.5172
 1457SOL    HW116004   4.003   2.239   7.162  1.1009 -0.1860 -0.4050
 1457SOL    HW216005   3.970   2.102   7.217  0.4714  0.5377  0.9420
 1458SOL     OW16006   4.254   4.251   5.418  0.1211 -0.1128  0.5178
 1458SOL    HW116007   4.260   4.342   5.391  0.8870 -0.3945 -0.2665
 1458SOL    HW216008   4.182   4.216   5.365  0.0891 -0.6675  0.9357
 1459SOL     OW16009   1.736   1.271   6.412 -0.5130  0.1274  0.5041
 1459SOL    HW116010   1.734   1.347   6.471 -0.6332 -0.1486  0.8557
 1459SOL    HW216011   1.670   1.214   6.452 -0.3123 -0.6575 -0.2910
 1460SOL     OW16012   2.454   0.178  11.642  0.2649  0.2078  0.5045
 1460SOL    HW116013   2.481   0.086  11.649  2.4205  0.8984  1.2210
 1460SOL    HW216014   2.527   0.217  11.594  0.2636  0.7137  0.9111
 1461SOL     OW16015   0.530   3.626   0.943 -0.5437  0.7078 -0.8835
 1461SOL    HW116016   0.503   3.537   0.966 -0.1833  1.0699  0.9863
 1461SOL    HW216017   0.459   3.674   0.987  0.6748  2.0798 -0.3971
 1462SOL     OW16018   1.030   0.535   8.734  0.0008 -0.2836  0.5539
 1462SOL    HW116019   1.084   0.457   8.745 -0.0442 -0.4142 -0.1977
 1462SOL    HW216020   0.955   0.492   8.693 -1.0694  2.7141 -0.6449
 1463SOL     OW16021   1.711   0.182   3.852 -0.0212  0.1931  0.7419
 1463SOL    HW116022   1.765   0.108   3.879 -0.2234 -0.4641 -0.6897
 1463SOL    HW216023   1.764   0.207   3.777  0.4627 -1.4937  0.5227
 1464SOL     OW16024   2.113   3.542   4.600 -0.2068 -0.2837 -0.5054
 1464SOL    HW116025   2.162   3.622   4.582  1.3656 -1.0721  0.2672
 1464SOL    HW216026   2.178   3.472   4.601  0.4473  0.3221 -0.4884
 1465SOL     OW16027   2.576   0.425  15.133 -0.0226 -0.2024  0.4020
 1465SOL    HW116028   2.535   0.375  15.062 -1.3042  2.6302 -0.8788
 1465SOL    HW216029   2.547   0.383  15.214  0.7769  1.4992  1.5565
 1466SOL     OW16030   4.598   2.516   1.599 -0.2683 -0.5095  0.2951
 1466SOL    HW116031   4.635   2.530   1.687  1.7076  0.2249 -0.6425
 1466SOL    HW216032   4.632   2.433   1.565  1.5106  0.8677 -1.3044
 1467SOL     OW16033   4.031   1.110   5.872 -0.2603  0.1102 -0.2852
 1467SOL    HW116034   3.976   1.091   5.948 -1.7227  2.9283 -0.6638
 1467SOL    HW216035   4.112   1.125   5.921  0.1374  0.3931 -1.0382
 1468SOL     OW16036   1.723   3.004   6.957 -0.0204 -0.3829  0.5975
 1468SOL    HW116037   1.645   2.962   6.920  0.8723  0.8661 -2.7382
 1468SOL    HW216038   1.712   3.004   7.052  0.8368 -0.1395  0.7004
 1469SOL     OW16039   4.524   1.714  12.914 -0.6580 -0.2823  0.2785
 1469SOL    HW116040   4.488   1.628  12.935  0.5564 -0.6183  0.9722
 1469SOL    HW216041   4.581   1.735  12.988 -2.1882  2.3367  0.7242
 1470SOL     OW16042   0.611   1.371   5.398  0.2017 -0.3272  0.3434
 1470SOL    HW116043   0.623   1.323   5.480  0.8047 -1.3760 -0.3605
 1470SOL    HW216044   0.687   1.429   5.398 -1.4203  1.8152  0.4212
 1471SOL     OW16045   1.235   4.342   6.815 -0.7213  1.0418 -0.3271
 1471SOL    HW116046   1.231   4.263   6.867  1.3777 -0.4382 -2.3894
 1471SOL    HW216047   1.191   4.318   6.734 -0.5210  0.9345 -0.4043
 1472SOL     OW16048   1.666   2.915   9.631  0.2071  0.1076  0.3097
 1472SOL    HW116049   1.735   2.897   9.694  1.3752 -0.1223 -1.0570
 1472SOL    HW216050   1.683   2.842   9.571 -1.7255 -0.2853  0.2178
 1473SOL     OW16051   1.134   0.417   1.880 -0.1980  0.6846  0.3845
 1473SOL    HW116052   1.128   0.504   1.920 -0.2477  0.6610  0.4277
 1473SOL    HW216053   1.109   0.366   1.956 -1.0087  0.6709  0.1039
 1474SOL     OW16054   3.689   2.654   1.662  0.0745  0.0125 -0.1339
 1474SOL    HW116055   3.613   2.602   1.638 -0.1829 -0.1899  1.1639
 1474SOL    HW216056   3.754   2.625   1.597 -1.1829 -0.9764 -0.9311
 1475SOL     OW16057   1.024   2.012   2.773  0.1573  0.2950  0.3251
 1475SOL    HW116058   0.992   2.039   2.859 -0.8508  0.1681 -0.0030
 1475SOL    HW216059   1.021   1.916   2.772  1.3320  0.2554  1.3684
 1476SOL     OW16060   0.631   2.859   6.268  0.2465  0.3292 -0.5231
 1476SOL    HW116061   0.554   2.915   6.280  0.2415  0.4916 -1.2887
 1476SOL    HW216062   0.600   2.777   6.307 -1.9910  0.3910 -2.1704
 1477SOL     OW16063   1.894   2.571   3.878  0.0762 -0.5272 -0.0954
 1477SOL    HW116064   1.982   2.592   3.908  0.2966 -0.6023 -0.6988
 1477SOL    HW216065   1.863   2.658   3.852  3.4712  0.5625 -0.5232
 1478SOL     OW16066   2.764   1.890   2.079 -0.2320  0.6755 -0.1140
 1478SOL    HW116067   2.747   1.976   2.043 -1.0121  1.3673  1.9107
 1478SOL    HW216068   2.857   1.882   2.056 -0.5738 -0.0780 -1.1891
 1479SOL     OW16069   1.688   1.704   6.863 -0.1637 -0.0600 -0.0519
 1479SOL    HW116070   1.754   1.644   6.898  0.6617  0.7962 -0.1572
 1479SOL    HW216071   1.606   1.692   6.912  0.2508  1.1453  0.9317
 1480SOL     OW16072   2.060   2.033   1.727 -0.2419  0.3082  0.3851
 1480SOL    HW116073   2.049   2.036   1.822  1.6740  3.4442  0.4888
 1480SOL    HW216074   2.016   2.117   1.713 -0.6573  0.5507  3.0785
 1481SOL     OW16075   0.299   0.050   1.612  0.2401 -0.3489 -0.0063
 1481SOL    HW116076   0.298   4.711   1.673 -0.0791 -1.7014 -1.6359
 1481SOL    HW216077   0.311   0.006   1.528  1.1929  0.0137 -0.0595
 1482SOL     OW16078   2.771   1.700   4.512  0.5244 -0.6228 -0.1702
 1482SOL    HW116079   2.720   1.764   4.463  0.1206 -1.4246 -0.7941
 1482SOL    HW216080   2.698   1.652   4.551  0.8402 -1.6179 -0.7968
 1483SOL     OW16081   2.237   4.655   9.566  0.6241  0.3924 -0.2143
 1483SOL    HW116082   2.265   4.628   9.479  2.2881  0.7231  0.2152
 1483SOL    HW216083   2.315   4.705   9.590  1.6415 -0.8646 -0.9360
 1484SOL     OW16084   4.565   3.753  15.561  0.9883 -0.0384  0.0503
 1484SOL    HW116085   4.512   3.720  15.633 -2.6104  3.2416 -1.0848
 1484SOL    HW216086   4.501   3.815  15.527  0.8496 -0.3339 -0.2247
 1485SOL     OW16087   1.901   2.304   2.555  0.4127 -0.2934 -0.2594
 1485SOL    HW116088   1.865   2.379   2.506 -0.9858 -1.6520 -1.3139
 1485SOL    HW216089   1.821   2.252   2.564  0.0074  0.7908  2.3786
 1486SOL     OW16090   1.986   2.784   8.747 -0.0755 -0.0004 -0.5976
 1486SOL    HW116091   2.041   2.832   8.809  1.2762  0.4991 -2.2153
 1486SOL    HW216092   1.909   2.768   8.802  0.9473 -1.8963  0.2506
 1487SOL     OW16093   3.572   1.989  15.588 -0.4486 -0.2242  0.1903
 1487SOL    HW116094   3.479   1.967  15.576 -0.9617  1.8700  0.2974
 1487SOL    HW216095   3.606   1.929  15.522 -0.3929  0.1075 -0.0794
 1488SOL     OW16096   2.976   0.628   4.792  0.2131  0.2142 -0.0225
 1488SOL    HW116097   3.040   0.615   4.862  1.8458 -0.0581 -1.5744
 1488SOL    HW216098   3.026   0.693   4.743  1.8011 -2.7414 -2.2774
 1489SOL     OW16099   2.008   3.205   4.950 -0.2663  0.7012  0.0581
 1489SOL    HW116100   1.977   3.116   4.932 -0.1857 -0.1657  4.2180
 1489SOL    HW216101   2.088   3.216   4.898 -1.1857  0.1980 -1.4435
 1490SOL     OW16102   3.739   1.823   7.936 -0.0240 -0.2308 -0.1170
 1490SOL    HW116103   3.771   1.886   8.001 -2.0954 -0.8366  1.4868
 1490SOL    HW216104   3.736   1.751   7.998  0.3911  0.2085  0.4142
 1491SOL     OW16105   3.780   3.635  11.824 -0.3926 -0.0402 -0.4158
 1491SOL    HW116106   3.836   3.599  11.756 -1.8286 -1.7484 -0.6936
 1491SOL    HW216107   3.751   3.717  11.782  0.2264  1.2438  1.6982
 1492SOL     OW16108   0.627   1.498   3.251 -0.2642  0.2363  0.2237
 1492SOL    HW116109   0.700   1.560   3.254 -0.2866  0.2751 -0.0380
 1492SOL    HW216110   0.561   1.544   3.302 -1.4160 -0.8557 -0.2891
 1493SOL     OW16111   3.952   4.251   3.949 -0.1293 -0.3596  0.1024
 1493SOL    HW116112   3.939   4.281   4.039 -0.1298 -1.3072  0.4185
 1493SOL    HW216113   3.907   4.325   3.909  2.1291  1.7968  1.5841
 1494SOL     OW16114   0.307   0.747   3.073 -0.3389  0.0048 -0.0328
 1494SOL    HW116115   0.303   0.655   3.049 -2.5501  0.0835  0.0152
 1494SOL    HW216116   0.381   0.749   3.134 -1.9056 -1.6834  1.9402
 1495SOL     OW16117   4.226   1.240   4.727 -0.2376 -0.2264 -0.1256
 1495SOL    HW116118   4.320   1.240   4.710  0.3495 -1.5388  2.9410
 1495SOL    HW216119   4.228   1.234   4.823  0.2481 -0.9255 -0.1755
 1496SOL     OW16120   2.435   3.911   8.833 -0.0903  0.4713  0.5109
 1496SOL    HW116121   2.359   3.859   8.808  1.8231 -0.9754 -2.3455
 1496SOL    HW216122   2.490   3.853   8.886  1.1733 -0.0869 -1.4121
 1497SOL     OW16123   2.597   4.656   2.409  0.1088 -0.2794  0.2561
 1497SOL    HW116124   2.547   4.591   2.458 -2.6913  2.1989  0.7445
 1497SOL    HW216125   2.524   4.716   2.394 -0.6930 -1.1276  0.7790
 1498SOL     OW16126   0.372   1.399   2.681  0.0478 -0.2630 -0.5690
 1498SOL    HW116127   0.374   1.472   2.743 -2.7385 -0.4178 -0.2886
 1498SOL    HW216128   0.294   1.419   2.628 -0.2841 -3.7943 -1.4190
 1499SOL     OW16129   0.586   4.052  10.134  0.6026 -0.2424  0.1409
 1499SOL    HW116130   0.625   4.049  10.222  2.2764  0.8506 -0.5497
 1499SOL    HW216131   0.491   4.046  10.142  0.4911 -2.2374 -2.6627
 1500SOL     OW16132   3.298   0.877   3.267 -0.3699 -0.2187  0.6350
 1500SOL    HW116133   3.231   0.907   3.204 -0.8447  0.5510  1.5042
 1500SOL    HW216134   3.308   0.956   3.320 -0.7700  1.3320 -1.5678
 1501SOL     OW16135   0.221   1.425  13.158  0.0015  0.0584  0.2203
 1501SOL    HW116136   0.138   1.389  13.128  1.0634 -1.4287 -0.9230
 1501SOL    HW216137   0.226   1.380  13.243  0.9871  0.5034  0.3990
 1502SOL     OW16138   2.963   3.716  10.057 -0.1061 -0.8393  0.6289
 1502SOL    HW116139   3.023   3.791  10.055 -0.4868 -0.5006  1.8569
 1502SOL    HW216140   2.889   3.750  10.007  1.8310  0.5605 -1.3240
 1503SOL     OW16141   0.486   2.798   5.575  0.1047  0.5324  0.0973
 1503SOL    HW116142   0.459   2.815   5.664 -0.3493 -0.1227  0.0873
 1503SOL    HW216143   0.480   2.703   5.565  1.7097 -0.0806  4.8855
 1504SOL     OW16144   3.360   2.361   2.885  0.4352 -0.2355  0.1281
 1504SOL    HW116145   3.389   2.452   2.874  0.1301  0.3999  4.7329
 1504SOL    HW216146   3.276   2.372   2.930 -0.2764  2.2267 -1.7452
 1505SOL     OW16147   4.152   3.117   5.372  0.4367 -0.0561  0.0922
 1505SOL    HW116148   4.185   3.090   5.286 -0.0739 -1.1555  0.2320
 1505SOL    HW216149   4.090   3.184   5.342 -1.1536 -1.8006 -0.5599
 1506SOL     OW16150   1.622   2.314   5.903 -0.1929 -0.3841 -0.0758
 1506SOL    HW116151   1.671   2.279   5.829 -0.8132 -1.2708 -0.0641
 1506SOL    HW216152   1.596   2.234   5.948 -1.3114 -0.8600 -1.5798
 1507SOL     OW16153   2.613   4.667   7.395  0.6387 -0.1258 -0.8560
 1507SOL    HW116154   2.622   0.026   7.377  0.5500 -0.1930 -1.2502
 1507SOL    HW216155   2.585   4.666   7.487  0.4333 -0.0234 -0.9180
 1508SOL     OW16156   2.140   0.908   3.228 -0.0667  0.1653 -0.3620
 1508SOL    HW116157   2.077   0.912   3.156 -0.9773  1.4360  0.5000
 1508SOL    HW216158   2.222   0.912   3.178 -0.5504 -1.3029 -1.2447
 1509SOL     OW16159   2.304   1.392   8.952  0.1014  0.3745  0.2940
 1509SOL    HW116160   2.253   1.331   9.005  1.0549 -0.1505  0.6023
 1509SOL    HW216161   2.387   1.345   8.963  0.8559  1.1055 -2.2740
 1510SOL     OW16162   2.850   3.601  11.061 -0.0709 -0.2238 -0.4665
 1510SOL    HW116163   2.860   3.507  11.075  1.8345 -0.0667 -0.6774
 1510SOL    HW216164   2.838   3.616  10.967  1.7390 -1.1979 -0.8518
 1511SOL     OW16165   3.646   3.558  16.495 -0.4496  0.7757  0.3275
 1511SOL    HW116166   3.604   3.545  16.409 -0.3926 -0.3499  0.4734
 1511SOL    HW216167   3.596   3.513  16.563 -1.5615  1.4629 -0.0252
 1512SOL     OW16168   4.108   2.640   2.857 -0.3725 -0.0415 -0.3704
 1512SOL    HW116169   4.102   2.560   2.908  3.0228 -0.9502 -1.4425
 1512SOL    HW216170   4.021   2.632   2.816 -0.3933 -2.7865  0.2529
 1513SOL     OW16171   1.258   0.527  12.271  0.0591  0.0661 -0.0787
 1513SOL    HW116172   1.218   0.579  12.201 -0.4560  0.2011  0.3183
 1513SOL    HW216173   1.290   0.600  12.325 -1.6846  0.6591  0.1370
 1514SOL     OW16174   0.525   3.692   1.301  0.4690  0.1447  0.2408
 1514SOL    HW116175   0.497   3.750   1.372 -1.0536  0.9381 -0.9968
 1514SOL    HW216176   0.587   3.745   1.250  0.6675 -1.8421 -1.5746
 1515SOL     OW16177   2.471   2.899   8.808  0.3315  0.7860 -0.5648
 1515SOL    HW116178   2.502   2.912   8.718  1.0279  0.7299 -0.3253
 1515SOL    HW216179   2.493   2.809   8.830  1.2534  1.4184  1.1112
 1516SOL     OW16180   0.614   1.009   3.257  0.4385 -0.0399  0.9808
 1516SOL    HW116181   0.596   1.103   3.252 -0.0372 -0.2105 -0.5625
 1516SOL    HW216182   0.647   0.997   3.168  2.0895  1.0391  1.4616
 1517SOL     OW16183   4.527   2.378   6.753  0.0990 -0.2818  0.2446
 1517SOL    HW116184   4.561   2.317   6.687 -2.4937 -0.0808 -1.2929
 1517SOL    HW216185   4.465   2.325   6.804 -2.0485 -0.6492 -2.7549
 1518SOL     OW16186   2.425   3.083  12.871 -0.0311  0.0284  0.0630
 1518SOL    HW116187   2.484   3.013  12.843 -1.5455 -0.5306 -1.7577
 1518SOL    HW216188   2.403   3.124  12.788  0.3565  1.8569  0.8803
 1519SOL     OW16189   3.386   2.865   4.083  0.1825  0.1454  0.0147
 1519SOL    HW116190   3.425   2.793   4.033  0.1060  0.0939  0.0280
 1519SOL    HW216191   3.391   2.832   4.172  0.1100 -1.1989 -0.4773
 1520SOL     OW16192   4.459   4.329   9.425  0.3946 -0.1520  0.0518
 1520SOL    HW116193   4.405   4.250   9.413  0.8947 -0.9078  2.7258
 1520SOL    HW216194   4.512   4.323   9.346 -1.5246  0.9449 -1.3290
 1521SOL     OW16195   0.224   0.766   5.509 -0.2489  0.3283 -0.0012
 1521SOL    HW116196   0.187   0.841   5.556  1.0960  0.4745  0.8459
 1521SOL    HW216197   0.164   0.761   5.435  1.4262 -0.0217 -1.3277
 1522SOL     OW16198   2.796   0.843   4.374 -0.2599 -0.0673  0.1662
 1522SOL    HW116199   2.726   0.781   4.394  0.0983 -0.0774  1.3708
 1522SOL    HW216200   2.763   0.887   4.295 -0.0142  1.3084  0.8230
 1523SOL     OW16201   1.212   1.355   5.487 -0.0318 -0.1297 -0.0575
 1523SOL    HW116202   1.223   1.406   5.567  0.3538 -1.0564  0.4737
 1523SOL    HW216203   1.282   1.393   5.432  0.4656 -0.1111  0.5924
 1524SOL     OW16204   1.175   0.341  12.453  0.3574  0.3144 -0.2134
 1524SOL    HW116205   1.188   0.407  12.384  0.0707  1.0936  0.4741
 1524SOL    HW216206   1.267   0.318  12.461  0.2684 -0.2924 -0.9582
 1525SOL     OW16207   1.168   1.133   3.443  0.3334  0.0786  0.1901
 1525SOL    HW116208   1.121   1.131   3.359 -0.5330 -0.5573  0.6968
 1525SOL    HW216209   1.223   1.210   3.427 -1.5735  1.6981  1.3947
 1526SOL     OW16210   1.796   1.472  13.327  0.6865  0.3926  0.2084
 1526SOL    HW116211   1.712   1.427  13.326 -0.9575  3.4317  1.8387
 1526SOL    HW216212   1.854   1.395  13.322  0.6224  0.3049  0.8434
 1527SOL     OW16213   1.445   0.015  15.035 -0.1983 -0.2135 -0.4888
 1527SOL    HW116214   1.350   0.004  15.034 -0.0881 -1.1363 -1.8904
 1527SOL    HW216215   1.456   0.088  14.975  2.6958  1.4483  2.0292
 1528SOL     OW16216   1.293   3.711   2.540 -0.0399  0.3658 -0.0817
 1528SOL    HW116217   1.350   3.787   2.541 -0.0157  0.3309  1.1911
 1528SOL    HW216218   1.217   3.744   2.492 -0.2939  1.2894  0.9559
 1529SOL     OW16219   1.856   0.803   4.489  0.1334  0.3210 -0.5439
 1529SOL    HW116220   1.766   0.779   4.468  0.7387 -2.6782  0.2178
 1529SOL    HW216221   1.899   0.718   4.479 -0.8743 -0.3810  1.2705
 1530SOL     OW16222   2.386   0.123  10.747  0.1039 -0.1160  0.5996
 1530SOL    HW116223   2.455   0.176  10.788  1.9841 -2.5429  0.6182
 1530SOL    HW216224   2.375   0.052  10.811 -1.1173  0.2537  0.7910
 1531SOL     OW16225   1.448   0.344   7.245  0.1586  0.5317  0.2700
 1531SOL    HW116226   1.409   0.424   7.209  1.6667  1.5810  0.9803
 1531SOL    HW216227   1.380   0.278   7.231  0.8597 -0.2067  0.3624
 1532SOL     OW16228   3.524   2.236   8.501  0.0800  0.2023 -0.2033
 1532SOL    HW116229   3.496   2.148   8.525 -2.5677  0.9166 -0.5949
 1532SOL    HW216230   3.511   2.280   8.585  0.7779 -2.1969  1.1520
 1533SOL     OW16231   3.800   3.912  10.077  0.2889 -0.0711  0.2950
 1533SOL    HW116232   3.874   3.935  10.134 -1.3168  0.1569  2.2972
 1533SOL    HW216233   3.744   3.985  10.104  0.6924  0.7375 -1.0701
 1534SOL     OW16234   3.985   0.664   7.342  0.5423 -0.1158 -0.2346
 1534SOL    HW116235   3.993   0.583   7.392  1.2362 -0.8360 -1.5210
 1534SOL    HW216236   4.071   0.706   7.343  1.2197 -1.5344  0.3290
 1535SOL     OW16237   2.565   2.532   2.123  0.0215  0.2133 -0.3322
 1535SOL    HW116238   2.628   2.580   2.069  0.9741 -1.2080 -0.4844
 1535SOL    HW216239   2.625   2.493   2.187 -0.5636 -0.9954 -0.5286
 1536SOL     OW16240   3.638   3.300   1.462 -0.8467 -0.4171  0.2670
 1536SOL    HW116241   3.660   3.391   1.477  1.1490 -0.4923 -2.1590
 1536SOL    HW216242   3.609   3.311   1.371 -1.6550  2.1421  0.8330
 1537SOL     OW16243   1.829   1.510   8.979  0.0178  0.6508  0.1086
 1537SOL    HW116244   1.743   1.537   8.949  0.3111  0.7461 -0.6476
 1537SOL    HW216245   1.876   1.582   8.938  0.1592 -0.9550 -2.5419
 1538SOL     OW16246   3.341   4.323   4.006 -0.1747  0.2591 -0.0419
 1538SOL    HW116247   3.315   4.231   4.010 -0.6986  0.1963 -5.0516
 1538SOL    HW216248   3.396   4.327   3.928  0.1011  1.5810  0.2299
 1539SOL     OW16249   1.981   4.257   5.993 -0.3063  0.0386  0.3079
 1539SOL    HW116250   2.031   4.258   6.075  0.3846  0.4569 -0.1115
 1539SOL    HW216251   1.917   4.190   6.015 -0.9921 -0.1200 -2.1390
 1540SOL     OW16252   3.914   4.149  11.052 -0.0751  0.7053 -0.3796
 1540SOL    HW116253   3.970   4.118  11.124 -0.2378 -0.2122 -0.6519
 1540SOL    HW216254   3.986   4.189  11.002  0.0444  0.0388 -0.7473
 1541SOL     OW16255   4.175   3.349   7.824 -0.1092 -0.1585  0.0250
 1541SOL    HW116256   4.161   3.438   7.854 -1.1383  0.1392 -1.3528
 1541SOL    HW216257   4.222   3.359   7.741  0.0645 -0.1385  0.1263
 1542SOL     OW16258   2.023   3.100   0.142 -0.1550 -0.0080 -0.4471
 1542SOL    HW116259   2.083   3.035   0.180  0.1644  0.7380  0.3452
 1542SOL    HW216260   2.041   3.089   0.049 -0.1389  3.0202 -0.8099
 1543SOL     OW16261   0.850   2.706   8.556  0.0650  0.2453  0.2374
 1543SOL    HW116262   0.760   2.689   8.528  0.1496  1.4242 -0.7514
 1543SOL    HW216263   0.835   2.768   8.628 -0.8309  0.7911 -0.4278
 1544SOL     OW16264   1.114   1.076   2.595  0.3981  0.4153  0.3726
 1544SOL    HW116265   1.207   1.098   2.594 -0.1687  2.8331  0.4125
 1544SOL    HW216266   1.078   1.125   2.669 -1.6152  0.1036 -0.4014
 1545SOL     OW16267   4.408   0.866  13.362  0.7022  0.2994  0.0307
 1545SOL    HW116268   4.453   0.785  13.384  1.3260  0.8499  0.7889
 1545SOL    HW216269   4.323   0.854  13.406  0.9755  1.8269  1.0035
 1546SOL     OW16270   0.785   4.542  11.606  0.7406 -0.2834 -0.8688
 1546SOL    HW116271   0.749   4.629  11.621 -1.0512 -1.0291 -0.8589
 1546SOL    HW216272   0.714   4.479  11.607  1.1986 -0.7934 -0.1441
 1547SOL     OW16273   4.203   0.388   5.099  0.4281 -0.6276 -0.0531
 1547SOL    HW116274   4.201   0.479   5.129  0.5584  0.0197 -2.0341
 1547SOL    HW216275   4.250   0.389   5.016 -0.9270  0.0255 -0.8126
 1548SOL     OW16276   1.371   2.864   2.110 -0.1308 -0.3950 -0.1616
 1548SOL    HW116277   1.359   2.878   2.204 -1.5440  1.5174 -0.6388
 1548SOL    HW216278   1.417   2.944   2.086 -2.0228  0.9307  0.6718
 1549SOL     OW16279   4.079   4.099   0.710  0.5033 -0.0482  0.0752
 1549SOL    HW116280   4.073   4.099   0.615 -0.2432  1.0513  0.1365
 1549SOL    HW216281   4.110   4.010   0.730 -0.3001  0.3364  3.0988
 1550SOL     OW16282   0.358   4.563   6.423  0.0465  0.2335 -0.4598
 1550SOL    HW116283   0.264   4.550   6.410  0.1717 -1.5971  0.3751
 1550SOL    HW216284   0.356   4.655   6.448  1.8455  0.6134 -1.7640
 1551SOL     OW16285   3.830   2.523   3.015  0.0450  0.1049  0.1956
 1551SOL    HW116286   3.763   2.456   3.000  0.7363 -0.7598  1.0344
 1551SOL    HW216287   3.907   2.467   3.005  1.6313  2.5491 -1.4415
 1552SOL     OW16288   1.383   2.684  10.356  0.0801 -0.1013  0.2458
 1552SOL    HW116289   1.354   2.621  10.290 -0.2162 -1.7245  1.9496
 1552SOL    HW216290   1.460   2.721  10.311  0.0974 -1.0443 -0.4998
 1553SOL     OW16291   1.657   0.097   9.320 -0.0047  0.2776 -0.4221
 1553SOL    HW116292   1.642   0.191   9.311 -2.9912 -0.2336 -0.6927
 1553SOL    HW216293   1.752   0.095   9.307 -0.0244  0.6813 -0.6576
 1554SOL     OW16294   0.966   3.834   4.658 -0.5260  0.1929 -0.1054
 1554SOL    HW116295   1.013   3.827   4.575  2.0279  2.1182  1.1781
 1554SOL    HW216296   0.942   3.926   4.652  0.4648  0.3585 -1.6334
 1555SOL     OW16297   0.842   4.338   8.950 -0.3878  0.0809  0.5887
 1555SOL    HW116298   0.780   4.304   9.014  0.0928 -0.5172  0.7378
 1555SOL    HW216299   0.821   4.431   8.956  1.6968  0.5806  0.3371
 1556SOL     OW16300   1.797   2.521   2.881  0.3178  0.5001  0.2658
 1556SOL    HW116301   1.872   2.491   2.830  0.4447  1.3907 -0.0593
 1556SOL    HW216302   1.732   2.525   2.810 -2.3683 -1.2904  2.6015
 1557SOL     OW16303   4.041   3.448   0.137  0.1426  0.1156  0.5065
 1557SOL    HW116304   4.135   3.437   0.150 -0.2267 -2.5259  0.9901
 1557SOL    HW216305   4.027   3.414   0.049  2.1963 -1.3009  0.7359
 1558SOL     OW16306   0.973   1.383   3.261 -0.4504 -0.0033 -0.4982
 1558SOL    HW116307   1.015   1.410   3.343 -3.4018  1.4480  0.5307
 1558SOL    HW216308   0.931   1.300   3.283 -0.8202  0.0569 -0.9777
 1559SOL     OW16309   4.322   1.230  14.176 -0.1449  0.2904  0.5987
 1559SOL    HW116310   4.321   1.138  14.153 -1.3127  0.3419  0.4821
 1559SOL    HW216311   4.404   1.267  14.141  0.1781 -0.7914  0.2277
 1560SOL     OW16312   0.880   2.393   6.834  0.1118 -0.2008  0.6440
 1560SOL    HW116313   0.826   2.471   6.822 -0.8500 -0.7678  1.2243
 1560SOL    HW216314   0.924   2.387   6.749 -1.5517 -0.0607 -0.2388
 1561SOL     OW16315   3.076   1.507   7.439  0.4863  0.2106 -0.5128
 1561SOL    HW116316   3.057   1.538   7.528  1.2266  1.0989 -0.6650
 1561SOL    HW216317   3.045   1.578   7.382 -0.0138  0.3775 -0.0479
 1562SOL     OW16318   3.386   3.920   6.533  0.1753 -0.0137  0.2747
 1562SOL    HW116319   3.367   3.954   6.620  0.2803  2.2105 -0.5645
 1562SOL    HW216320   3.308   3.867   6.515  0.9998 -1.2523  0.3776
 1563SOL     OW16321   1.638   2.293   7.878 -0.0255 -0.0190 -0.1940
 1563SOL    HW116322   1.595   2.307   7.793 -1.1311 -0.2565  0.3201
 1563SOL    HW216323   1.715   2.348   7.866  1.5369 -2.0410  0.7924
 1564SOL     OW16324   2.058   3.845   5.962 -0.3213  0.2701  0.4051
 1564SOL    HW116325   2.035   3.834   6.054  1.2332 -0.8660  0.6477
 1564SOL    HW216326   2.100   3.763   5.938  0.1215  0.6937 -0.2536
 1565SOL     OW16327   1.650   4.474   3.652  0.5174  0.5279 -0.1240
 1565SOL    HW116328   1.604   4.479   3.736 -0.9025 -1.6075 -0.7634
 1565SOL    HW216329   1.591   4.526   3.597  0.2077 -1.8076 -2.0210
 1566SOL     OW16330   1.473   2.057   6.865  0.1010 -0.2143 -0.0210
 1566SOL    HW116331   1.553   2.009   6.845 -0.3820 -1.0768  0.1228
 1566SOL    HW216332   1.486   2.132   6.808  0.3502  1.3162  2.0637
 1567SOL     OW16333   3.712   2.261   4.689 -0.6220  0.3170  0.4151
 1567SOL    HW116334   3.661   2.225   4.616 -0.7802  1.7884 -0.1998
 1567SOL    HW216335   3.794   2.291   4.652 -1.4862 -1.0276 -2.6302
 1568SOL     OW16336   2.990   0.321   7.310 -0.1922  0.2221 -0.1423
 1568SOL    HW116337   3.072   0.370   7.300  0.9030 -1.5893 -0.0518
 1568SOL    HW216338   3.021   0.288   7.395  1.0126 -0.3492 -0.7930
 1569SOL     OW16339   2.743   4.150  10.709 -0.3582  0.3597  0.3332
 1569SOL    HW116340   2.741   4.243  10.732 -0.3697  0.0181  1.7629
 1569SOL    HW216341   2.749   4.159  10.614 -0.3537  0.7021  0.3666
 1570SOL     OW16342   0.684   1.479   6.563 -0.0709  0.3587  0.2465
 1570SOL    HW116343   0.735   1.558   6.580  2.0358 -0.8712 -0.3088
 1570SOL    HW216344   0.709   1.417   6.632  0.0230 -1.6937 -1.6415
 1571SOL     OW16345   4.514   0.761  11.593 -0.1970 -0.1287  0.3797
 1571SOL    HW116346   4.559   0.676  11.591 -0.7675 -0.3893 -0.9965
 1571SOL    HW216347   4.592   0.813  11.574 -0.3755  0.3955  1.0818
 1572SOL     OW16348   1.770   0.774   7.231 -0.1809 -0.1635  0.4029
 1572SOL    HW116349   1.790   0.853   7.180  2.0943 -1.5726 -0.8473
 1572SOL    HW216350   1.786   0.712   7.161 -0.3530 -0.4535  0.6226
 1573SOL     OW16351   3.508   4.703   0.496  0.1155  0.2068 -0.9138
 1573SOL    HW116352   3.488   4.624   0.447  1.4966 -1.2265  0.8220
 1573SOL    HW216353   3.570   0.013   0.438  0.1232  1.8277  0.3255
 1574SOL     OW16354   4.253   3.829   3.344 -0.9107  0.4789 -0.5496
 1574SOL    HW116355   4.250   3.778   3.424 -0.1773 -0.1869 -0.9472
 1574SOL    HW216356   4.344   3.856   3.331 -0.5112 -1.3982 -1.6972
 1575SOL     OW16357   3.820   3.132   9.162 -0.6234 -0.0361  0.0669
 1575SOL    HW116358   3.751   3.072   9.134  1.1457 -1.2933 -1.5492
 1575SOL    HW216359   3.782   3.178   9.237  0.0402 -1.8080  1.4806
 1576SOL     OW16360   2.500   1.907  12.095  0.0335  0.0532 -0.2566
 1576SOL    HW116361   2.593   1.887  12.108 -0.2430  0.2457  1.9906
 1576SOL    HW216362   2.478   1.938  12.183 -0.7821 -0.4888 -0.2763
 1577SOL     OW16363   0.412   0.270  11.707  0.6603 -0.1949 -0.0371
 1577SOL    HW116364   0.385   0.216  11.633 -1.6138  0.9209 -0.0051
 1577SOL    HW216365   0.347   0.254  11.775  0.8993  1.5875  0.6016
 1578SOL     OW16366   2.663   3.302   2.453  0.1076 -0.5129 -0.3896
 1578SOL    HW116367   2.746   3.280   2.410  0.8805  0.0032  0.8368
 1578SOL    HW216368   2.615   3.222   2.431  1.5570 -1.8701  1.3861
 1579SOL     OW16369   0.508   0.826   5.638  0.0259 -0.6612  0.1450
 1579SOL    HW116370   0.422   0.818   5.596  0.5953  1.2278 -1.3724
 1579SOL    HW216371   0.549   0.891   5.581 -0.3192 -0.6261 -0.0608
 1580SOL     OW16372   4.209   3.795  17.680  0.7705 -0.3716 -0.2997
 1580SOL    HW116373   4.288   3.848  17.683  0.2691  0.3549  0.0872
 1580SOL    HW216374   4.156   3.844  17.617 -0.4331 -3.0988 -1.4396
 1581SOL     OW16375   4.163   0.024   6.810 -0.2747 -0.5517 -0.3630
 1581SOL    HW116376   4.214   4.725   6.884 -0.6350 -1.2476 -0.4258
 1581SOL    HW216377   4.134   4.679   6.766  1.9001 -0.6211 -1.6577
 1582SOL     OW16378   1.718   3.240   2.236  0.4807 -0.5500 -0.5685
 1582SOL    HW116379   1.714   3.252   2.330  2.0390 -0.8211 -0.4768
 1582SOL    HW216380   1.804   3.202   2.218  0.3465 -2.1948  2.3247
 1583SOL     OW16381   3.700   0.205   4.592 -0.2058  0.1408  0.1257
 1583SOL    HW116382   3.786   0.193   4.554 -0.6951  1.0616 -1.2639
 1583SOL    HW216383   3.719   0.268   4.662 -0.2936 -4.0776  3.9948
 1584SOL     OW16384   1.884   0.101   2.894 -0.2160  0.1771 -0.3855
 1584SOL    HW116385   1.789   0.113   2.904 -0.2274 -1.2052  1.2478
 1584SOL    HW216386   1.873   0.030   2.830  1.4351  0.8232 -1.3834
 1585SOL     OW16387   4.171   0.124  12.287 -0.1337 -0.1644  0.2040
 1585SOL    HW116388   4.212   0.202  12.324 -0.8152 -0.0481  0.7122
 1585SOL    HW216389   4.231   0.052  12.309  0.5601  0.6843  1.0451
 1586SOL     OW16390   0.423   0.125   9.066  0.1827  0.2568 -0.7748
 1586SOL    HW116391   0.390   0.197   9.120  0.9190 -0.8703  1.1708
 1586SOL    HW216392   0.512   0.114   9.100 -1.3960  0.4777  3.3679
 1587SOL     OW16393   3.150   2.779   4.580 -0.9950 -0.4476 -0.4400
 1587SOL    HW116394   3.203   2.799   4.503 -0.4080 -1.1945 -0.2314
 1587SOL    HW216395   3.175   2.851   4.638  1.6207 -0.0053 -2.1325
 1588SOL     OW16396   3.028   0.019   4.190 -0.0941 -0.1890  0.2627
 1588SOL    HW116397   3.002   0.054   4.105  0.0516 -2.8546 -0.9017
 1588SOL    HW216398   3.121   0.014   4.168 -0.2804  3.0220 -1.2722
 1589SOL     OW16399   3.118   3.107   8.272  0.0457  0.6440 -0.2045
 1589SOL    HW116400   3.172   3.029   8.260 -1.1443 -0.6894  3.1761
 1589SOL    HW216401   3.058   3.094   8.199 -0.0119  0.2445 -0.0817
 1590SOL     OW16402   2.476   3.321   3.834  0.6459  0.2218 -0.4978
 1590SOL    HW116403   2.417   3.369   3.892  0.8133 -0.8599  0.5580
 1590SOL    HW216404   2.538   3.392   3.818  1.3657 -0.2250  0.2980
 1591SOL     OW16405   1.661   1.721  10.310 -0.1115  0.6562 -0.0972
 1591SOL    HW116406   1.631   1.654  10.372  0.1997  1.5606  1.0273
 1591SOL    HW216407   1.678   1.791  10.373 -2.1080  0.1890  0.9746
 1592SOL     OW16408   1.373   3.740   3.059  0.3470 -0.5812 -0.3562
 1592SOL    HW116409   1.400   3.650   3.081  0.1474 -0.0153  2.2521
 1592SOL    HW216410   1.369   3.784   3.144  2.3536 -2.1474  0.5861
 1593SOL     OW16411   3.940   1.919   3.375  0.4787  0.5444  0.1867
 1593SOL    HW116412   4.027   1.951   3.350 -0.5827  1.8428 -1.8417
 1593SOL    HW216413   3.875   1.977   3.336 -1.3589 -0.5116  1.7504
 1594SOL     OW16414   1.945   3.653  16.142 -0.3752  0.5294  0.1929
 1594SOL    HW116415   1.916   3.688  16.058 -1.5645  2.8064  1.5618
 1594SOL    HW216416   2.010   3.722  16.156 -1.3463  1.9606 -2.5193
 1595SOL     OW16417   0.600   3.607   7.448 -0.0999  0.1404  0.3300
 1595SOL    HW116418   0.602   3.541   7.518  4.4836  0.5715  0.5831
 1595SOL    HW216419   0.542   3.566   7.384  0.9564 -2.0401  0.7362
 1596SOL     OW16420   2.394   2.434   4.326 -0.4844  0.4363 -0.3698
 1596SOL    HW116421   2.469   2.383   4.358  0.8842  1.7697 -1.4844
 1596SOL    HW216422   2.324   2.407   4.386  0.8180  1.8826  1.8159
 1597SOL     OW16423   1.030   4.440   5.895  0.6786  0.6886 -0.0670
 1597SOL    HW116424   0.956   4.412   5.949  0.4565  1.7938  0.2061
 1597SOL    HW216425   1.103   4.389   5.928  0.4996 -1.3590 -2.8624
 1598SOL     OW16426   2.406   2.855   5.627 -0.0557 -0.5244 -0.2011
 1598SOL    HW116427   2.446   2.790   5.686 -0.1195 -0.4055 -0.0269
 1598SOL    HW216428   2.396   2.924   5.692 -1.8389 -0.9215 -0.0550
 1599SOL     OW16429   0.411   4.282   3.768 -0.3204 -0.2866  0.4682
 1599SOL    HW116430   0.489   4.319   3.726 -0.2957 -0.3512  0.4582
 1599SOL    HW216431   0.379   4.355   3.822  1.0008 -0.1252  1.0233
 1600SOL     OW16432   4.383   3.474   1.052  0.3949 -0.5603  0.2941
 1600SOL    HW116433   4.312   3.534   1.072  2.9762  2.4352  0.4209
 1600SOL    HW216434   4.459   3.531   1.048 -0.8079  0.9629 -0.8691
 1601SOL     OW16435   1.735   0.602   0.138 -0.0110  0.5213 -0.3839
 1601SOL    HW116436   1.671   0.650   0.085 -0.1859  1.7033  0.8905
 1601SOL    HW216437   1.688   0.519   0.146  0.0431  0.6570  1.3447
 1602SOL     OW16438   0.123   1.993   3.674  0.1679  0.4308  0.5280
 1602SOL    HW116439   0.187   1.923   3.664 -1.6013 -0.7841 -2.5236
 1602SOL    HW216440   0.181   2.062   3.704 -0.7512  0.9366  1.1383
 1603SOL     OW16441   0.332   2.741   5.279  0.3183 -0.1947  0.0048
 1603SOL    HW116442   0.366   2.824   5.244  0.6034 -0.6824 -0.8990
 1603SOL    HW216443   0.253   2.728   5.227 -2.0292  1.4176  3.2461
 1604SOL     OW16444   4.609   2.030   4.226 -0.1839 -0.3210  0.6296
 1604SOL    HW116445   4.663   2.028   4.146  1.8731 -0.3306  2.0198
 1604SOL    HW216446   4.528   2.074   4.202 -1.4024 -2.8420  0.1492
 1605SOL     OW16447   0.508   2.887   1.539  0.0121  0.2631 -0.5428
 1605SOL    HW116448   0.581   2.834   1.571  0.7017  0.5258 -1.6860
 1605SOL    HW216449   0.474   2.914   1.624 -1.5691  0.3807 -1.2031
 1606SOL     OW16450   0.327   3.449   8.591  0.8862 -0.3248 -0.1907
 1606SOL    HW116451   0.405   3.506   8.587  0.7823 -0.1076  0.7653
 1606SOL    HW216452   0.355   3.382   8.654 -0.7156  1.3964  2.3527
 1607SOL     OW16453   1.853   2.775   2.979 -0.3452  0.0190  0.1526
 1607SOL    HW116454   1.812   2.692   2.953  0.5273 -0.1478 -0.7045
 1607SOL    HW216455   1.936   2.737   3.010  0.1258 -0.1004 -1.2476
 1608SOL     OW16456   0.253   3.971   5.411  1.0310  0.1009  0.2530
 1608SOL    HW116457   0.311   3.989   5.337 -0.0709 -1.3964 -0.9865
 1608SOL    HW216458   0.320   3.943   5.474 -0.0423 -0.7431  1.0121
 1609SOL     OW16459   0.217   3.869   4.694  0.3860  0.0868  0.5542
 1609SOL    HW116460   0.127   3.902   4.704  0.2524 -0.3547  0.7868
 1609SOL    HW216461   0.257   3.937   4.748  1.3779 -0.0547  0.0006
 1610SOL     OW16462   0.671   2.579   6.750  0.0585 -0.4176 -0.3291
 1610SOL    HW116463   0.609   2.647   6.722  0.8294  0.5597  0.3098
 1610SOL    HW216464   0.661   2.510   6.685 -0.5726 -0.1560 -0.5156
 1611SOL     OW16465   0.036   4.349   1.909  0.6399  0.5409  0.5200
 1611SOL    HW116466   0.096   4.386   1.974  0.8693  0.8150  0.1543
 1611SOL    HW216467   0.002   4.269   1.950 -0.7286  0.4704 -0.7365
 1612SOL     OW16468   2.844   2.791  11.874  0.1197  0.1367 -0.3468
 1612SOL    HW116469   2.840   2.849  11.799  3.8711  0.8764  0.0169
 1612SOL    HW216470   2.819   2.707  11.835  0.9067 -0.3557  0.2072
 1613SOL     OW16471   2.828   1.467   6.009 -0.4212 -0.0525 -0.0454
 1613SOL    HW116472   2.830   1.560   5.984 -0.9863  0.3055  1.2335
 1613SOL    HW216473   2.800   1.478   6.099 -0.5688  0.3715 -0.1427
 1614SOL     OW16474   1.695   1.194   9.366 -0.5983  0.8039 -0.6153
 1614SOL    HW116475   1.667   1.245   9.290  0.1786 -0.3798 -1.7041
 1614SOL    HW216476   1.724   1.122   9.310 -0.1206  0.9569 -0.5655
 1615SOL     OW16477   0.956   3.166   5.221 -0.2903  0.2854 -0.5173
 1615SOL    HW116478   0.989   3.191   5.307  1.8656 -2.5584 -0.5002
 1615SOL    HW216479   0.882   3.111   5.247 -0.9224  0.4520 -1.9681
 1616SOL     OW16480   0.007   2.314   5.200 -0.5708 -0.0467 -0.0501
 1616SOL    HW116481   4.658   2.301   5.246 -0.9776  3.5046  0.1833
 1616SOL    HW216482   0.060   2.243   5.237 -0.6114 -0.8822 -1.6111
 1617SOL     OW16483   3.966   2.998   3.940 -0.2461 -0.1408 -0.2215
 1617SOL    HW116484   3.952   2.925   4.001 -1.0927  0.1442 -0.0741
 1617SOL    HW216485   4.031   3.048   3.990 -1.2788  2.2670 -1.2998
 1618SOL     OW16486   3.586   3.294   0.704 -0.3359 -0.6136 -0.3263
 1618SOL    HW116487   3.572   3.346   0.624  1.4853  0.4567  0.0704
 1618SOL    HW216488   3.661   3.242   0.676  1.9795  1.4528  2.0764
 1619SOL     OW16489   1.732   0.245   8.375  0.2980 -0.0391 -0.2033
 1619SOL    HW116490   1.672   0.259   8.449  2.4571 -0.8189  1.6934
 1619SOL    HW216491   1.799   0.209   8.432  0.5555  0.8612  0.0564
 1620SOL     OW16492   1.566   1.612   8.989  0.2173  0.4198 -0.0373
 1620SOL    HW116493   1.481   1.635   9.025  0.7208  0.9252  0.8496
 1620SOL    HW216494   1.626   1.647   9.056  0.7778  0.1835 -0.4155
 1621SOL     OW16495   0.202   0.416   6.687 -0.4883 -0.2714 -0.7908
 1621SOL    HW116496   0.161   0.480   6.746 -0.0649 -0.8130  0.0889
 1621SOL    HW216497   0.204   0.465   6.605  1.5110 -0.6418 -0.9665
 1622SOL     OW16498   0.434   3.045   9.421  0.2365  0.0082 -0.6740
 1622SOL    HW116499   0.356   3.024   9.369  1.1994  0.5342 -2.3256
 1622SOL    HW216500   0.458   2.961   9.460  2.3711  0.9778  0.0656
 1623SOL     OW16501   0.763   0.555   9.321 -0.3188 -0.1255  0.3668
 1623SOL    HW116502   0.800   0.574   9.235 -0.4048 -1.1325  0.1089
 1623SOL    HW216503   0.814   0.478   9.345  0.1523 -0.0202 -0.2902
 1624SOL     OW16504   3.511   0.727  15.161 -0.4285 -0.0329  0.2524
 1624SOL    HW116505   3.598   0.687  15.169 -0.4651 -0.0009  0.8261
 1624SOL    HW216506   3.512   0.770  15.076 -3.4833 -0.0298  0.2264
 1625SOL     OW16507   4.661   3.850   8.093  0.5106 -0.3519 -0.4355
 1625SOL    HW116508   4.650   3.763   8.053 -1.9035 -0.1037 -0.3477
 1625SOL    HW216509   4.689   3.819   8.179  1.8417  0.9982 -0.3931
 1626SOL     OW16510   3.521   3.258   2.658 -0.1589  0.0753 -0.1991
 1626SOL    HW116511   3.510   3.340   2.706 -0.3331 -0.7287  1.1211
 1626SOL    HW216512   3.541   3.305   2.577 -1.3252 -0.6611 -0.9151
 1627SOL     OW16513   4.178   0.720  15.640 -0.1897  0.4555  0.3318
 1627SOL    HW116514   4.190   0.754  15.551  1.0560 -0.1959  0.2499
 1627SOL    HW216515   4.205   0.629  15.629  1.4822  0.7806  1.8116
 1628SOL     OW16516   0.213   0.497   3.356  0.2116 -0.0634 -0.3294
 1628SOL    HW116517   0.260   0.446   3.421  1.7249 -0.6227 -1.8553
 1628SOL    HW216518   0.122   0.468   3.362 -0.5430  2.2708 -0.3111
 1629SOL     OW16519   3.880   0.438   6.735  0.2641  0.0822 -0.2532
 1629SOL    HW116520   3.950   0.386   6.697  0.1669 -0.1523 -0.1092
 1629SOL    HW216521   3.934   0.510   6.768  0.5847 -0.2110 -0.1409
 1630SOL     OW16522   1.424   1.450   4.116  0.3136  0.0377 -0.2905
 1630SOL    HW116523   1.481   1.496   4.178 -1.2774  1.9853 -0.2886
 1630SOL    HW216524   1.412   1.372   4.170  0.1027  0.2936  0.0315
 1631SOL     OW16525   0.407   4.287   9.512  0.5059  0.7776  0.0266
 1631SOL    HW116526   0.496   4.252   9.506  0.3476  0.3073  0.4020
 1631SOL    HW216527   0.354   4.217   9.474 -0.8140  1.1807  1.1736
 1632SOL     OW16528   2.042   4.151  16.340  0.0390 -0.4297  0.6601
 1632SOL    HW116529   2.111   4.101  16.384 -0.0393 -0.0232  1.2463
 1632SOL    HW216530   1.968   4.092  16.328 -0.1181 -0.3423  1.1853
 1633SOL     OW16531   1.687   4.511  17.239  0.6601 -0.1631  0.0511
 1633SOL    HW116532   1.724   4.586  17.286  0.1479 -0.0579  0.2930
 1633SOL    HW216533   1.735   4.517  17.157 -1.3852  1.2874 -1.0632
 1634SOL     OW16534   1.546   2.384   3.667  0.4692 -0.1664  0.1713
 1634SOL    HW116535   1.548   2.470   3.709  3.2770 -0.6583  1.0886
 1634SOL    HW216536   1.566   2.324   3.739  2.5276  0.2567 -0.0452
 1635SOL     OW16537   1.157   3.069   7.449 -0.4281 -0.0151 -0.1670
 1635SOL    HW116538   1.086   3.124   7.413 -0.8782 -0.5956 -0.1589
 1635SOL    HW216539   1.171   3.007   7.378  0.1845  0.8147 -0.7740
 1636SOL     OW16540   2.657   0.256   1.334 -0.2138 -0.3725 -0.1633
 1636SOL    HW116541   2.688   0.179   1.381  2.3750  1.4218  1.0825
 1636SOL    HW216542   2.702   0.253   1.250 -0.8162 -3.3144 -0.3727
 1637SOL     OW16543   0.577   0.515   8.457  0.6718 -0.6032 -0.3329
 1637SOL    HW116544   0.598   0.498   8.366 -0.2463  1.5823 -0.9635
 1637SOL    HW216545   0.650   0.475   8.504  0.4529 -2.7300 -1.8218
 1638SOL     OW16546   3.527   1.822   6.939  0.1753 -0.5691  0.5554
 1638SOL    HW116547   3.448   1.775   6.966 -1.0131 -0.1685 -2.2597
 1638SOL    HW216548   3.590   1.752   6.924 -0.6085 -1.2936  0.5997
 1639SOL     OW16549   2.249   2.251   8.538 -0.3132 -0.5808 -0.4602
 1639SOL    HW116550   2.330   2.250   8.589 -0.8968 -0.2503  0.4673
 1639SOL    HW216551   2.191   2.221   8.608  0.5690  1.2556  1.0576
 1640SOL     OW16552   1.382   0.545   8.457 -0.4849  0.5534 -0.3565
 1640SOL    HW116553   1.430   0.497   8.525  1.4136  2.4684 -0.3451
 1640SOL    HW216554   1.437   0.508   8.387  1.8975 -1.3386  2.5076
 1641SOL     OW16555   0.629   3.038   8.779 -0.1359  0.5993 -0.1909
 1641SOL    HW116556   0.618   3.017   8.872 -3.0613  3.3180  0.0661
 1641SOL    HW216557   0.641   3.133   8.777  0.2307  0.5236 -1.9149
 1642SOL     OW16558   4.184   3.123   2.910 -1.0911  0.4889 -0.5876
 1642SOL    HW116559   4.226   3.099   2.993 -0.8183 -1.3179 -1.2603
 1642SOL    HW216560   4.094   3.143   2.933 -1.0941 -0.2663  0.0401
 1643SOL     OW16561   4.425   1.480   0.781 -0.0514 -0.3739 -0.6655
 1643SOL    HW116562   4.413   1.397   0.826 -0.9220  1.1940  2.0095
 1643SOL    HW216563   4.472   1.529   0.850 -1.4120 -0.3020  0.1980
 1644SOL     OW16564   1.683   1.504   8.648  0.0625 -0.7986  0.1235
 1644SOL    HW116565   1.699   1.426   8.595  0.1167 -0.5347 -0.2514
 1644SOL    HW216566   1.773   1.526   8.672  0.0835 -3.8038  2.7395
 1645SOL     OW16567   4.501   2.146   3.747  0.0175 -0.4837 -0.1560
 1645SOL    HW116568   4.591   2.178   3.751 -0.4266  0.7019  0.8059
 1645SOL    HW216569   4.510   2.063   3.702  0.9846  0.3261 -1.4598
 1646SOL     OW16570   0.959   2.138   3.022 -0.0625 -0.6589 -0.0961
 1646SOL    HW116571   0.891   2.207   3.025 -1.2350 -1.7804 -1.2449
 1646SOL    HW216572   0.943   2.095   3.106 -1.7721  0.2367  0.0459
 1647SOL     OW16573   3.454   2.411   0.485 -0.1312 -0.6499 -0.0798
 1647SOL    HW116574   3.392   2.483   0.499 -0.1528 -0.7257  0.2308
 1647SOL    HW216575   3.465   2.415   0.390 -1.6873 -0.3190 -0.2578
 1648SOL     OW16576   2.211   3.732   2.586 -0.2888 -0.3889  0.6220
 1648SOL    HW116577   2.211   3.750   2.492 -1.3875  2.1109  1.1095
 1648SOL    HW216578   2.154   3.799   2.622  2.0516  1.2758  1.2362
 1649SOL     OW16579   2.936   4.612   5.765 -0.0522 -0.4772  0.5114
 1649SOL    HW116580   2.862   4.673   5.772  1.6703  1.6474  0.2826
 1649SOL    HW216581   2.976   4.638   5.682 -1.7461  2.3555  0.5911
 1650SOL     OW16582   2.959   3.743  12.715  0.5345  0.1605 -0.0814
 1650SOL    HW116583   2.942   3.651  12.733 -0.0767  0.0078 -1.4754
 1650SOL    HW216584   2.957   3.784  12.802  0.6234  2.3154 -1.0835
 1651SOL     OW16585   2.360   2.514   2.518  0.0729  0.3950 -0.0950
 1651SOL    HW116586   2.396   2.429   2.490  0.5754  0.3345  0.7398
 1651SOL    HW216587   2.376   2.568   2.441 -0.9291  1.5889  0.5485
 1652SOL     OW16588   1.300   0.294   5.121 -0.3056  1.1348 -0.0839
 1652SOL    HW116589   1.297   0.292   5.216 -0.5823  1.9873 -0.0793
 1652SOL    HW216590   1.377   0.238   5.109 -0.8533  0.2035  0.7839
 1653SOL     OW16591   3.987   1.014   4.283 -0.0235 -0.2357  0.9049
 1653SOL    HW116592   4.068   0.965   4.265 -1.0723 -0.8977 -1.9512
 1653SOL    HW216593   3.921   0.952   4.315  0.5873 -2.3342 -1.9127
 1654SOL     OW16594   0.566   4.156  16.440 -0.5321 -0.3216 -0.0141
 1654SOL    HW116595   0.520   4.078  16.408 -1.1671  1.2221 -2.9067
 1654SOL    HW216596   0.588   4.126  16.528 -1.6191 -1.3063 -0.0706
 1655SOL     OW16597   1.140   0.227  10.412 -0.2090 -0.5345  0.2970
 1655SOL    HW116598   1.124   0.136  10.387 -2.4554  0.4956 -1.9767
 1655SOL    HW216599   1.168   0.222  10.504 -1.3003 -0.2396  0.6471
 1656SOL     OW16600   1.961   1.999   6.800  0.0799  0.2656 -0.0771
 1656SOL    HW116601   2.035   2.022   6.744 -0.7452 -0.0143 -1.2789
 1656SOL    HW216602   1.973   2.060   6.873 -0.4608 -0.5589  0.6941
 1657SOL     OW16603   1.380   0.505   2.550  0.0652  0.0289 -0.0326
 1657SOL    HW116604   1.364   0.418   2.586  0.7871 -1.0151 -2.2285
 1657SOL    HW216605   1.466   0.524   2.587 -0.3299  2.2051 -0.2198
 1658SOL     OW16606   1.941   4.224   3.809  0.0982  0.1920 -0.0523
 1658SOL    HW116607   1.890   4.243   3.730 -0.0830 -2.8110 -0.6264
 1658SOL    HW216608   1.992   4.150   3.777  0.3996 -0.4105  1.8323
 1659SOL     OW16609   1.181   0.720   8.381 -0.6176 -0.6267 -0.3081
 1659SOL    HW116610   1.125   0.659   8.332  0.8431  0.1324 -2.9387
 1659SOL    HW216611   1.266   0.677   8.372 -1.2160 -2.0235  0.6106
 1660SOL     OW16612   3.625   0.933   3.045  0.2851  0.1993  0.0618
 1660SOL    HW116613   3.611   1.027   3.060 -1.9297  0.0967 -1.2791
 1660SOL    HW216614   3.577   0.922   2.963  0.6537 -1.8909  0.1405
 1661SOL     OW16615   1.230   0.244   9.345 -0.0896 -0.3975 -0.2695
 1661SOL    HW116616   1.275   0.329   9.351  0.8637 -0.6992 -3.1891
 1661SOL    HW216617   1.181   0.250   9.427 -0.4068  0.9284 -0.5553
 1662SOL     OW16618   3.892   0.410   2.175  0.3321 -0.1615  0.0432
 1662SOL    HW116619   3.873   0.504   2.168  0.9881  0.0526  1.1641
 1662SOL    HW216620   3.819   0.388   2.233  1.7005 -2.6516  0.8281
 1663SOL     OW16621   0.619   0.730  15.322 -0.2284  0.3199  0.1558
 1663SOL    HW116622   0.591   0.668  15.389  2.5004 -0.5963  0.4532
 1663SOL    HW216623   0.706   0.693  15.304 -1.1560 -1.9402  0.3205
 1664SOL     OW16624   3.591   1.243   3.981 -0.0277  0.8283 -0.3508
 1664SOL    HW116625   3.632   1.210   4.061 -1.5230 -0.2904 -0.0537
 1664SOL    HW216626   3.589   1.334   4.010 -0.4571  1.1555 -1.3914
 1665SOL     OW16627   0.085   4.514   1.384 -0.4726  0.0822 -0.3884
 1665SOL    HW116628   0.142   4.438   1.370  0.8474  0.4500  2.8276
 1665SOL    HW216629   0.083   4.559   1.300  0.9865 -2.7587 -1.9639
 1666SOL     OW16630   0.493   0.063   2.941  0.1193  0.7146  0.3808
 1666SOL    HW116631   0.531   0.047   2.855 -1.7979  1.8475 -0.6701
 1666SOL    HW216632   0.538   0.143   2.967  2.3744  0.0655 -1.5556
 1667SOL     OW16633   0.477   2.371   6.289  0.4900  0.1149  0.2582
 1667SOL    HW116634   0.460   2.375   6.195 -0.3940 -1.8005  0.3223
 1667SOL    HW216635   0.427   2.290   6.306 -1.0319  1.2331  1.1270
 1668SOL     OW16636   3.566   4.555  15.334  0.0130  0.1035 -0.0562
 1668SOL    HW116637   3.533   4.614  15.266 -1.3223 -1.2284 -0.5380
 1668SOL    HW216638   3.517   4.477  15.309 -0.0100  0.4833 -1.2176
 1669SOL     OW16639   2.364   2.398  10.396 -0.3597 -0.0413  0.1944
 1669SOL    HW116640   2.330   2.444  10.473 -0.3961  0.3111 -0.0287
 1669SOL    HW216641   2.400   2.474  10.349 -1.9486  1.1645  0.9187
 1670SOL     OW16642   2.315   2.289   3.472 -0.6023  0.3986 -0.2272
 1670SOL    HW116643   2.220   2.288   3.469 -0.6248  0.1025  0.4911
 1670SOL    HW216644   2.332   2.228   3.545 -0.5058  1.7868  0.9175
 1671SOL     OW16645   4.123   2.155   4.264  0.0720  0.0375  0.2019
 1671SOL    HW116646   4.089   2.179   4.178 -2.0356 -3.6120  0.0047
 1671SOL    HW216647   4.217   2.148   4.248 -0.2564 -3.4929 -0.1003
 1672SOL     OW16648   0.783   0.800   7.985 -0.5171  0.4152 -0.1618
 1672SOL    HW116649   0.716   0.849   7.938 -0.0257  1.8119  0.5843
 1672SOL    HW216650   0.730   0.740   8.038 -1.8182  0.7251 -1.1011
 1673SOL     OW16651   2.562   2.293   1.173 -0.2425  0.8039 -0.2258
 1673SOL    HW116652   2.616   2.273   1.096 -1.2423  0.1616 -0.7536
 1673SOL    HW216653   2.479   2.260   1.140 -0.7539  0.2319  1.6398
 1674SOL     OW16654   4.090   3.085  10.677  0.0098  0.5336 -0.1783
 1674SOL    HW116655   4.030   3.091  10.751 -1.3257  1.4269 -1.3464
 1674SOL    HW216656   4.150   3.160  10.684 -0.3702  0.8375 -0.1898
 1675SOL     OW16657   2.998   2.189  10.628  0.0668  0.4901 -0.0892
 1675SOL    HW116658   2.917   2.217  10.671 -0.8305  0.4293 -1.7692
 1675SOL    HW216659   3.059   2.251  10.668  0.3927  0.8761 -1.1924
 1676SOL     OW16660   3.950   3.328  17.649  0.1713  0.1166  0.2119
 1676SOL    HW116661   3.988   3.331  17.561  2.0360 -0.8743  0.9648
 1676SOL    HW216662   3.858   3.322  17.626  0.5693  1.5000 -1.6643
 1677SOL     OW16663   1.847   1.515   5.361 -0.4725  0.1018  0.5606
 1677SOL    HW116664   1.771   1.527   5.418 -0.5207  1.6070  0.1731
 1677SOL    HW216665   1.913   1.552   5.420 -0.2304  1.1941 -0.4060
 1678SOL     OW16666   0.769   0.386  13.810  0.4333  0.5023 -0.4233
 1678SOL    HW116667   0.838   0.328  13.777  0.3329  1.0445 -1.5638
 1678SOL    HW216668   0.719   0.406  13.731 -0.3196 -0.2890 -0.1605
 1679SOL     OW16669   3.717   4.474   3.898 -0.2265  0.1103 -0.4826
 1679SOL    HW116670   3.787   4.468   3.834  2.2489  1.6525  2.0984
 1679SOL    HW216671   3.664   4.399   3.871  0.8591 -0.6724 -0.4176
 1680SOL     OW16672   1.260   3.490   5.341  0.2587  0.1860  0.2247
 1680SOL    HW116673   1.262   3.567   5.284 -2.6145 -1.0004 -1.4627
 1680SOL    HW216674   1.348   3.454   5.325 -0.9225 -2.1874 -0.9255
 1681SOL     OW16675   4.247   3.274  13.854 -0.0250 -0.2195  0.0500
 1681SOL    HW116676   4.177   3.323  13.812 -1.0270 -0.3445  1.5765
 1681SOL    HW216677   4.262   3.214  13.781  1.0082 -1.7662  1.5312
 1682SOL     OW16678   1.280   0.074  10.120 -0.2423 -0.5269 -0.6406
 1682SOL    HW116679   1.201   0.047  10.167  0.6008 -2.4769 -0.3284
 1682SOL    HW216680   1.289   0.165  10.147 -0.7116 -1.0466  1.3218
 1683SOL     OW16681   3.918   3.648   5.917  0.1654  0.3566 -0.2069
 1683SOL    HW116682   3.830   3.626   5.887 -0.2998  0.3576  1.1321
 1683SOL    HW216683   3.925   3.579   5.983  0.8382  0.2442 -0.3956
 1684SOL     OW16684   3.734   4.095   4.313 -0.4019  0.4161  0.0636
 1684SOL    HW116685   3.744   4.122   4.404 -0.7663 -0.6001  0.4044
 1684SOL    HW216686   3.778   4.010   4.316  0.2810  0.7497 -0.3675
 1685SOL     OW16687   0.836   4.681   5.372  0.5798  0.1006 -0.1540
 1685SOL    HW116688   0.900   4.674   5.443 -2.0110 -3.4880  1.7859
 1685SOL    HW216689   0.758   4.645   5.414  0.4712 -0.9298 -1.2364
 1686SOL     OW16690   0.326   0.700  11.411 -0.0154 -0.0115 -0.2067
 1686SOL    HW116691   0.415   0.730  11.432 -1.3816  3.5970  0.3928
 1686SOL    HW216692   0.275   0.682  11.490 -0.2546  0.7830 -0.1758
 1687SOL     OW16693   3.757   0.060  13.893 -0.0896  0.2508  0.5512
 1687SOL    HW116694   3.804   0.105  13.823 -0.1472 -0.7659 -0.1341
 1687SOL    HW216695   3.809   4.715  13.904 -1.1565 -0.5604 -0.2850
 1688SOL     OW16696   1.960   3.461   0.625  0.3617  0.2895  0.8931
 1688SOL    HW116697   1.935   3.368   0.623 -0.1934  0.4259  1.3535
 1688SOL    HW216698   2.006   3.468   0.541  1.1174  2.0957  1.4676
 1689SOL     OW16699   3.098   1.887   6.898 -0.2518  0.4561  0.2155
 1689SOL    HW116700   3.076   1.794   6.908 -1.7860  0.9057  1.0792
 1689SOL    HW216701   3.062   1.897   6.810  0.9122  1.3966 -0.1484
 1690SOL     OW16702   0.151   2.191   2.480  0.4186  0.0743 -0.1529
 1690SOL    HW116703   0.180   2.250   2.411 -2.0218  1.1742 -0.2364
 1690SOL    HW216704   0.077   2.232   2.525  3.2654  1.8785  2.8296
 1691SOL     OW16705   4.276   0.404   4.838  0.2378 -0.3362  0.5472
 1691SOL    HW116706   4.350   0.348   4.813 -0.6200 -1.5584  0.7679
 1691SOL    HW216707   4.258   0.438   4.751  1.0209 -0.4260  0.3452
 1692SOL     OW16708   4.172   3.977   7.687  0.1896  0.7755 -0.5150
 1692SOL    HW116709   4.129   4.011   7.766 -2.1225  0.5972 -1.6998
 1692SOL    HW216710   4.255   4.025   7.680  0.0184  0.7842 -2.3596
 1693SOL     OW16711   1.153   2.394   4.185 -0.0520  0.1000 -0.0141
 1693SOL    HW116712   1.081   2.416   4.125 -0.2259 -0.5855 -0.0586
 1693SOL    HW216713   1.218   2.447   4.138  0.6460 -0.8432 -0.0950
 1694SOL     OW16714   1.843   4.489   2.982  0.0131  0.5722 -0.5383
 1694SOL    HW116715   1.888   4.555   3.035 -0.2982 -1.1347  1.8836
 1694SOL    HW216716   1.877   4.411   3.026 -0.2914  1.7009  1.7064
 1695SOL     OW16717   2.661   2.135   6.853 -0.0446  0.3663 -0.1269
 1695SOL    HW116718   2.611   2.169   6.779 -0.9780  0.5028  0.5615
 1695SOL    HW216719   2.755   2.143   6.835  0.6202 -2.8014  1.9774
 1696SOL     OW16720   2.558   3.333  11.183 -0.6407  0.0855 -0.1261
 1696SOL    HW116721   2.595   3.359  11.099  1.7817  0.0265  0.9251
 1696SOL    HW216722   2.553   3.238  11.170 -1.3463 -0.2902  2.8460
 1697SOL     OW16723   1.253   3.825   6.706  0.3180 -0.0663 -0.1557
 1697SOL    HW116724   1.201   3.769   6.649  0.4788 -0.6633  0.2850
 1697SOL    HW216725   1.183   3.858   6.763 -1.1996  0.4676 -2.3499
 1698SOL     OW16726   1.794   0.146   4.135 -0.0721  0.1292  0.0501
 1698SOL    HW116727   1.827   0.179   4.219 -0.6847  0.3755  0.1972
 1698SOL    HW216728   1.809   0.051   4.137 -0.5724  0.0473  0.0187
 1699SOL     OW16729   3.258   4.637   7.863 -0.1150  0.1927  0.2525
 1699SOL    HW116730   3.171   4.623   7.900 -0.8215  2.3707 -0.5897
 1699SOL    HW216731   3.296   4.550   7.871 -0.6931 -0.0804 -0.0024
 1700SOL     OW16732   4.395   1.496  17.331  0.1373 -0.0800 -0.0137
 1700SOL    HW116733   4.401   1.523  17.422 -0.0903 -1.3507  0.3826
 1700SOL    HW216734   4.482   1.523  17.304  0.7882 -1.9878  0.1396
 1701SOL     OW16735   0.149   4.436   7.843 -0.0269  0.0901 -0.1424
 1701SOL    HW116736   0.088   4.381   7.794  1.7774 -2.3339  0.3421
 1701SOL    HW216737   0.088   4.509   7.853  1.5203  1.4960 -0.9871
 1702SOL     OW16738   0.762   3.527  10.727  0.3925  0.5943  0.2402
 1702SOL    HW116739   0.810   3.461  10.777  0.0144  0.1875  0.0555
 1702SOL    HW216740   0.742   3.589  10.797 -1.4403 -0.0030  0.2296
 1703SOL     OW16741   3.552   0.463   5.812 -0.0717  0.2618  0.2324
 1703SOL    HW116742   3.544   0.513   5.893  0.0168  0.8207 -0.1039
 1703SOL    HW216743   3.522   0.376   5.837  1.5816 -0.4528 -0.2530
 1704SOL     OW16744   0.318   2.228  14.117  0.2345 -0.2144  0.2142
 1704SOL    HW116745   0.236   2.181  14.106  0.3704 -0.4932  0.3843
 1704SOL    HW216746   0.380   2.156  14.132 -0.3003 -0.5449  0.8636
 1705SOL     OW16747   3.635   2.965   0.437  0.6351  0.6689  0.1752
 1705SOL    HW116748   3.591   3.044   0.406 -0.2297 -0.1210 -0.5748
 1705SOL    HW216749   3.694   3.007   0.501  1.3056  3.1760 -2.1114
 1706SOL     OW16750   0.324   4.076   4.163  0.3819  0.1210  0.3873
 1706SOL    HW116751   0.282   4.163   4.160  3.3286  1.4557 -2.3638
 1706SOL    HW216752   0.415   4.100   4.144  0.0239 -0.5798 -2.1637
 1707SOL     OW16753   1.369   3.378   2.200  1.2283  0.4501 -0.4957
 1707SOL    HW116754   1.365   3.355   2.293  1.7978 -0.2760 -0.6523
 1707SOL    HW216755   1.338   3.469   2.202 -0.0539  0.0185 -1.4835
 1708SOL     OW16756   1.504   3.102   7.971  0.2654 -0.2562 -0.1686
 1708SOL    HW116757   1.423   3.052   7.971  1.3549 -2.0348  1.8348
 1708SOL    HW216758   1.494   3.170   7.904 -0.1276 -0.3049 -0.1560
 1709SOL     OW16759   2.264   4.601   0.518 -0.5838 -0.0261  0.0564
 1709SOL    HW116760   2.271   4.561   0.605  0.0559  0.2461  0.1341
 1709SOL    HW216761   2.328   4.673   0.520  1.8003 -2.1651  0.3777
 1710SOL     OW16762   2.295   2.158  13.794 -0.2061  0.1881  0.7780
 1710SOL    HW116763   2.250   2.232  13.834 -0.0565  0.5831  0.2083
 1710SOL    HW216764   2.364   2.199  13.741 -1.2586 -2.1458 -2.3972
 1711SOL     OW16765   0.408   2.359   6.676 -0.3203  0.2645 -0.2896
 1711SOL    HW116766   0.327   2.310   6.692 -1.2733  2.1190  0.5560
 1711SOL    HW216767   0.456   2.322   6.750  0.4523 -1.0216 -1.4293
 1712SOL     OW16768   1.430   0.885   7.128 -0.0489 -0.5049  0.3315
 1712SOL    HW116769   1.477   0.882   7.211  1.0666 -2.2430 -0.3740
 1712SOL    HW216770   1.359   0.941   7.159 -1.4628 -2.0294 -0.1638
 1713SOL     OW16771   3.508   0.887   6.486  0.7500  0.1602  0.4756
 1713SOL    HW116772   3.441   0.842   6.435  0.1735  0.7340  0.7354
 1713SOL    HW216773   3.469   0.892   6.573  0.5617  0.8657  0.3524
 1714SOL     OW16774   4.559   3.865  13.277 -0.0148  0.0962 -0.0747
 1714SOL    HW116775   4.484   3.807  13.266  0.1091 -0.0313 -0.2484
 1714SOL    HW216776   4.578   3.887  13.186  0.5906 -0.1565 -0.0106
 1715SOL     OW16777   0.500   0.520  12.244 -0.3961 -0.3742  0.8435
 1715SOL    HW116778   0.507   0.597  12.300 -1.6286  1.4054 -1.5044
 1715SOL    HW216779   0.425   0.541  12.189  1.5059  2.1374 -0.7749
 1716SOL     OW16780   0.456   3.276  14.669  0.1039  0.2098  0.1885
 1716SOL    HW116781   0.361   3.273  14.663 -0.0744  1.4465  2.3786
 1716SOL    HW216782   0.485   3.321  14.590  0.8115  1.5908  1.2313
 1717SOL     OW16783   1.714   1.904   3.945  0.4222  0.2723 -0.4820
 1717SOL    HW116784   1.745   1.814   3.953  3.0342  1.2417  0.3017
 1717SOL    HW216785   1.781   1.927   3.881  0.6035 -0.4710 -0.5581
 1718SOL     OW16786   4.371   0.180  10.748 -0.6032  0.8493 -0.3592
 1718SOL    HW116787   4.451   0.128  10.755 -1.8020 -0.8786  0.6409
 1718SOL    HW216788   4.309   0.107  10.746 -0.3297  0.6542 -1.7673
 1719SOL     OW16789   1.725   3.303   7.976  0.9420 -0.1780  0.3464
 1719SOL    HW116790   1.710   3.339   8.064 -0.8260  0.0584 -0.0466
 1719SOL    HW216791   1.717   3.210   7.997 -0.3537 -0.4209 -1.1866
 1720SOL     OW16792   1.719   1.514   1.547 -0.5723  0.3715 -0.5702
 1720SOL    HW116793   1.741   1.423   1.564 -1.2688  0.4493  0.8222
 1720SOL    HW216794   1.789   1.541   1.488  0.7739 -0.6146  0.5808
 1721SOL     OW16795   2.796   4.307   0.640  0.1653  0.3658  0.8185
 1721SOL    HW116796   2.783   4.341   0.552  0.7078  0.8580  0.9241
 1721SOL    HW216797   2.707   4.313   0.675 -0.0410 -2.2066  0.7488
 1722SOL     OW16798   2.278   0.313   6.973 -0.1875 -0.0406  0.2042
 1722SOL    HW116799   2.369   0.315   6.943  0.0217  2.8199  1.0883
 1722SOL    HW216800   2.283   0.295   7.066  1.9585 -1.0001 -0.0971
 1723SOL     OW16801   2.938   3.138  12.638  0.1417  0.5130  0.1720
 1723SOL    HW116802   2.981   3.215  12.675 -0.1406  0.2433  1.0562
 1723SOL    HW216803   2.985   3.136  12.554  0.5779 -1.0066  0.4550
 1724SOL     OW16804   3.739   0.074   7.267 -0.0176  0.0385 -0.5403
 1724SOL    HW116805   3.802   0.024   7.318 -0.3515  0.4316  0.2670
 1724SOL    HW216806   3.750   0.162   7.303  2.3292 -0.6511  0.3871
 1725SOL     OW16807   3.804   2.752   0.401 -0.3796 -0.1046  0.0434
 1725SOL    HW116808   3.747   2.828   0.405 -0.3459 -0.1371  1.2611
 1725SOL    HW216809   3.889   2.795   0.391 -0.7001  0.4209 -0.4053
 1726SOL     OW16810   4.295   0.375  14.587 -0.4227  0.2711  0.3382
 1726SOL    HW116811   4.362   0.328  14.635  1.0489  0.3476 -1.6443
 1726SOL    HW216812   4.223   0.391  14.648 -2.2231  0.4854 -1.8445
 1727SOL     OW16813   0.247   3.181   3.364 -0.0230  0.0871 -0.9270
 1727SOL    HW116814   0.157   3.170   3.334 -0.9662 -0.5770  2.1060
 1727SOL    HW216815   0.248   3.124   3.442 -0.1046  0.3992 -0.6978
 1728SOL     OW16816   2.478   2.855   2.553 -0.1544  0.5646  0.8765
 1728SOL    HW116817   2.536   2.780   2.565  0.5975  1.1163  0.7258
 1728SOL    HW216818   2.490   2.898   2.638 -1.5519  2.1854  0.2579
 1729SOL     OW16819   3.027   0.432  14.212 -0.6020 -0.3413  0.7875
 1729SOL    HW116820   3.059   0.522  14.213  0.5909 -0.7952  2.4890
 1729SOL    HW216821   3.112   0.396  14.237 -0.5368 -1.4605 -1.0496
 1730SOL     OW16822   3.150   3.840   4.020  0.2861 -0.2403 -0.2638
 1730SOL    HW116823   3.221   3.860   4.080  0.5039 -0.7790 -0.3410
 1730SOL    HW216824   3.077   3.857   4.080  0.5850 -0.7682  0.2476
 1731SOL     OW16825   1.637   2.080  15.365  0.1135 -0.8470 -0.9959
 1731SOL    HW116826   1.628   2.002  15.420 -0.1341  0.4763  0.8434
 1731SOL    HW216827   1.714   2.126  15.397 -1.5734  2.3953 -1.5513
 1732SOL     OW16828   0.356   2.933   8.981 -0.5641  0.4165 -0.0658
 1732SOL    HW116829   0.407   2.855   8.957  1.7788  0.9258  3.2513
 1732SOL    HW216830   0.301   2.956   8.906 -0.4126  3.4122  0.7692
 1733SOL     OW16831   1.686   1.711   7.752  0.3992 -0.7030 -0.1528
 1733SOL    HW116832   1.761   1.655   7.772  0.9609  0.5590  1.2846
 1733SOL    HW216833   1.618   1.683   7.813 -0.4597 -1.6776 -1.5581
 1734SOL     OW16834   1.045   2.461   2.968  0.7986 -0.3058 -0.2303
 1734SOL    HW116835   1.094   2.395   2.919 -1.7373 -2.3410 -0.0022
 1734SOL    HW216836   1.114   2.480   3.032 -0.0452 -3.0417  1.4842
 1735SOL     OW16837   2.998   1.938   3.345 -0.3241  0.4231  0.0541
 1735SOL    HW116838   2.973   2.021   3.303  0.1056 -0.2588 -1.5304
 1735SOL    HW216839   3.074   1.962   3.399 -1.4231  1.5179  1.1033
 1736SOL     OW16840   3.835   1.265  13.103  0.5939  0.6403 -0.3338
 1736SOL    HW116841   3.760   1.300  13.055  0.0757  0.7958  0.5950
 1736SOL    HW216842   3.894   1.242  13.031 -1.4358 -1.0060 -1.4737
 1737SOL     OW16843   0.189   1.944   5.434 -0.2827 -0.3520  0.0580
 1737SOL    HW116844   0.143   1.953   5.350  2.0386  0.9707 -1.0647
 1737SOL    HW216845   0.228   2.030   5.420  1.4011 -0.5794  3.3871
 1738SOL     OW16846   0.962   3.817   3.343 -0.2804  0.1802  0.3073
 1738SOL    HW116847   0.934   3.875   3.414 -0.9361 -1.3349  1.2939
 1738SOL    HW216848   0.886   3.830   3.287  1.3033  1.5756 -1.5172
 1739SOL     OW16849   2.005   2.006   1.992  0.2476  0.1546  0.1057
 1739SOL    HW116850   1.942   2.050   2.049  2.4932  1.9564  1.2146
 1739SOL    HW216851   2.072   1.973   2.051 -0.3990 -1.0117  0.1741
 1740SOL     OW16852   3.304   3.648   3.192  0.0434 -0.5169  0.1486
 1740SOL    HW116853   3.268   3.562   3.167  0.2457 -0.9082  1.1982
 1740SOL    HW216854   3.353   3.674   3.114 -1.7647 -0.7740 -1.0801
 1741SOL     OW16855   1.517   0.303   4.869  0.1795  0.2156  0.7086
 1741SOL    HW116856   1.536   0.210   4.860  1.3271  0.5826 -0.8620
 1741SOL    HW216857   1.422   0.307   4.865 -0.0322 -3.5771  2.0581
 1742SOL     OW16858   3.268   1.023  14.890 -0.4353  0.3160 -0.0094
 1742SOL    HW116859   3.234   1.070  14.815  0.6607 -0.7295 -1.1638
 1742SOL    HW216860   3.194   0.965  14.906 -0.6716  0.8571  0.8721
 1743SOL     OW16861   1.274   4.631   3.987  0.6481  0.2311  0.0712
 1743SOL    HW116862   1.282   4.538   3.967 -0.2038  0.3428 -0.7775
 1743SOL    HW216863   1.357   4.644   4.033  0.7863  1.4140 -0.5315
 1744SOL     OW16864   2.662   0.780   2.382 -0.1607 -0.4021 -0.0916
 1744SOL    HW116865   2.567   0.784   2.388 -0.1477 -0.7708  0.3617
 1744SOL    HW216866   2.665   0.752   2.291 -1.9328  0.9468 -0.5362
 1745SOL     OW16867   1.987   1.284   5.333  0.5440  0.1128 -0.2250
 1745SOL    HW116868   1.947   1.368   5.355 -1.4189 -0.7610 -0.5066
 1745SOL    HW216869   2.007   1.304   5.241  2.5133  1.1690  0.4342
 1746SOL     OW16870   0.796   2.175   6.952 -0.3736  0.0165  0.2590
 1746SOL    HW116871   0.822   2.247   6.894  0.0916  0.4381  0.9800
 1746SOL    HW216872   0.842   2.202   7.031 -0.6135  0.6624  0.1802
 1747SOL     OW16873   0.773   3.896   4.279  0.1737  0.0714 -0.0757
 1747SOL    HW116874   0.735   3.837   4.344  1.0440 -1.8301 -1.3064
 1747SOL    HW216875   0.742   3.984   4.302 -0.0017  0.1042 -0.4309
 1748SOL     OW16876   3.645   3.220   8.544 -0.1750 -0.4862 -0.7708
 1748SOL    HW116877   3.727   3.174   8.530  1.2804  1.8395  0.2298
 1748SOL    HW216878   3.624   3.256   8.458 -2.5743  1.9014  0.7762
 1749SOL     OW16879   2.477   2.345   7.270  0.6273 -0.0644  0.7371
 1749SOL    HW116880   2.483   2.428   7.223 -3.6274 -0.8020 -1.0861
 1749SOL    HW216881   2.479   2.282   7.198  0.5333 -0.7201  1.3124
 1750SOL     OW16882   0.164   2.587   7.239 -0.0525 -0.1578 -0.2199
 1750SOL    HW116883   0.077   2.556   7.213  0.8247 -2.2594 -0.6429
 1750SOL    HW216884   0.195   2.585   7.148 -0.9585 -0.1983 -0.5304
 1751SOL     OW16885   0.588   4.360   9.857  0.3353 -0.4243 -0.0312
 1751SOL    HW116886   0.507   4.405   9.879 -0.0583 -1.6054  0.9045
 1751SOL    HW216887   0.623   4.420   9.790 -0.3406  0.0907  0.0865
 1752SOL     OW16888   4.729   0.473   1.755  0.4610 -0.4215  0.3850
 1752SOL    HW116889   0.026   0.388   1.724  0.6160 -0.1287 -0.2499
 1752SOL    HW216890   4.636   0.459   1.742  0.3880  0.2631  0.1754
 1753SOL     OW16891   2.534   4.441  16.033 -0.0781 -0.1576  0.2151
 1753SOL    HW116892   2.486   4.432  15.951 -0.5592  2.1687  0.2605
 1753SOL    HW216893   2.503   4.524  16.068 -0.6601 -0.3969  0.2619
 1754SOL     OW16894   0.045   2.073   7.259 -0.3185 -0.0005 -0.0323
 1754SOL    HW116895   4.725   2.024   7.198 -1.7470  1.0237  0.4150
 1754SOL    HW216896   0.075   2.000   7.313 -0.8607 -1.3322 -1.5434
 1755SOL     OW16897   0.022   3.556   6.203  0.4292  0.1794 -0.3607
 1755SOL    HW116898   0.037   3.508   6.121  0.0430  1.0127 -0.9200
 1755SOL    HW216899   4.682   3.507   6.237  0.2434 -0.8693 -2.2528
 1756SOL     OW16900   1.809   1.065   8.295 -0.1786  0.2268 -0.5134
 1756SOL    HW116901   1.835   1.138   8.239 -1.7591 -0.3068 -1.9458
 1756SOL    HW216902   1.875   1.003   8.264  1.4973  0.5022  2.4919
 1757SOL     OW16903   2.970   3.233   3.508  0.3633 -0.4859 -0.2782
 1757SOL    HW116904   2.884   3.273   3.517  0.6491  0.2536 -0.8218
 1757SOL    HW216905   3.026   3.276   3.573  1.3106  0.8196 -1.9720
 1758SOL     OW16906   4.386   1.861   5.126  0.0270  0.2730  0.6710
 1758SOL    HW116907   4.426   1.844   5.041  0.0984  1.4256  0.4788
 1758SOL    HW216908   4.294   1.876   5.106 -0.0409 -0.5146  0.3755
 1759SOL     OW16909   0.252   3.770   2.908 -0.8214 -0.0297 -0.1836
 1759SOL    HW116910   0.253   3.712   2.832 -2.2371 -1.6533  1.0348
 1759SOL    HW216911   0.242   3.854   2.862  1.4669 -0.1002 -0.7763
 1760SOL     OW16912   0.857   3.015   8.466 -0.0049  0.1361  0.1722
 1760SOL    HW116913   0.853   2.964   8.546  4.1443  2.0022  1.5499
 1760SOL    HW216914   0.898   3.095   8.500 -0.6203  0.8732 -0.8004
 1761SOL     OW16915   2.715   3.982  10.051 -0.2866 -0.2049  0.1031
 1761SOL    HW116916   2.731   3.915   9.986  1.7391 -1.4240  1.8763
 1761SOL    HW216917   2.753   3.950  10.133  0.0012  1.2824  0.5537
 1762SOL     OW16918   2.724   2.336   7.065 -0.0394  1.0589 -0.2918
 1762SOL    HW116919   2.693   2.260   7.115 -2.3190  1.6762 -0.7769
 1762SOL    HW216920   2.814   2.318   7.036 -0.7394 -2.8302 -0.1252
 1763SOL     OW16921   2.443   1.922   4.577 -0.4852 -0.3435  1.0556
 1763SOL    HW116922   2.498   1.946   4.652  0.9099  1.3533 -0.5023
 1763SOL    HW216923   2.498   1.923   4.498 -2.0303  2.9883  0.0199
 1764SOL     OW16924   1.972   1.854  15.899  0.6747 -0.1001  0.2303
 1764SOL    HW116925   1.914   1.928  15.881  1.7132  0.3997 -1.1409
 1764SOL    HW216926   2.012   1.874  15.984 -3.2014 -2.0447  2.4783
 1765SOL     OW16927   1.784   0.989   9.195 -0.2286 -0.4923 -0.6448
 1765SOL    HW116928   1.696   0.969   9.162 -0.2308 -0.7786 -0.4641
 1765SOL    HW216929   1.832   0.923   9.145 -0.2958 -1.9638  1.2076
 1766SOL     OW16930   1.429   4.573   5.419 -0.1228 -0.1547 -0.0842
 1766SOL    HW116931   1.439   4.478   5.428 -1.0265 -0.3881 -1.4054
 1766SOL    HW216932   1.518   4.608   5.426 -0.2163  0.0539  0.0584
 1767SOL     OW16933   2.021   0.736   7.439 -0.0459  0.3017 -0.0992
 1767SOL    HW116934   2.037   0.749   7.346  0.9189 -0.7380 -0.0636
 1767SOL    HW216935   2.095   0.780   7.481 -0.2001  1.5118 -1.0916
 1768SOL     OW16936   1.379   3.966   1.647 -0.5910 -0.2583 -0.0884
 1768SOL    HW116937   1.332   4.040   1.609  1.5846  1.1333 -0.0968
 1768SOL    HW216938   1.302   3.920   1.681  0.3998 -1.0578  1.0852
 1769SOL     OW16939   3.985   4.592   8.486  0.1723  0.1730 -0.6603
 1769SOL    HW116940   3.925   4.660   8.517 -1.0983 -1.3073  0.1706
 1769SOL    HW216941   3.944   4.572   8.402 -0.7243 -1.1698  0.0872
 1770SOL     OW16942   2.598   3.179   1.776 -0.2975  0.0888  0.0850
 1770SOL    HW116943   2.634   3.215   1.695  1.2015 -2.8118 -0.5581
 1770SOL    HW216944   2.626   3.089   1.762 -0.7224  0.0274 -0.3495
 1771SOL     OW16945   4.068   3.180   8.013 -0.0152  0.3146  0.5001
 1771SOL    HW116946   4.111   3.228   7.942 -0.6947 -0.1819 -0.2450
 1771SOL    HW216947   3.988   3.231   8.027 -1.2345 -1.7797  1.2146
 1772SOL     OW16948   4.314   3.108   3.170  0.2650  0.0010  0.0514
 1772SOL    HW116949   4.327   3.198   3.198  0.2512 -0.1296  0.4736
 1772SOL    HW216950   4.224   3.084   3.196 -0.3472  1.6154 -0.6050
 1773SOL     OW16951   4.548   4.342   2.337  0.5787  0.1978 -0.6053
 1773SOL    HW116952   4.473   4.341   2.278  0.9058  0.0549 -1.0156
 1773SOL    HW216953   4.583   4.255   2.316 -1.0438  0.1200 -2.9758
 1774SOL     OW16954   4.033   1.670   8.599  0.2797  0.0945  0.1580
 1774SOL    HW116955   3.955   1.716   8.568 -0.0192 -0.1066  0.6223
 1774SOL    HW216956   4.067   1.649   8.512  2.6209  2.2940  0.5347
 1775SOL     OW16957   3.373   3.625   3.854  0.6242  0.1431  0.3837
 1775SOL    HW116958   3.282   3.595   3.860  0.8448 -0.6118 -0.1421
 1775SOL    HW216959   3.408   3.548   3.809  0.7615  0.5534 -0.2261
 1776SOL     OW16960   0.370   2.185   7.886  0.1885  0.2464 -0.6932
 1776SOL    HW116961   0.403   2.264   7.843  1.7994 -1.0636 -1.8331
 1776SOL    HW216962   0.278   2.183   7.859  0.7350  1.6288 -2.6542
 1777SOL     OW16963   4.121   1.609   4.981  0.1155  0.3719  0.7066
 1777SOL    HW116964   4.124   1.704   4.991 -0.4667  0.5233 -0.6992
 1777SOL    HW216965   4.058   1.579   5.047  0.6921  0.0188  1.1029
 1778SOL     OW16966   3.628   0.129  12.516 -0.1037  0.5708  0.0553
 1778SOL    HW116967   3.693   0.132  12.586 -0.8841 -1.1789  0.8423
 1778SOL    HW216968   3.685   0.095  12.448  0.2583  2.5354 -0.6393
 1779SOL     OW16969   1.961   2.591   9.857 -0.2041  0.7657  0.2593
 1779SOL    HW116970   2.001   2.594   9.944  0.1129  1.9031  0.0733
 1779SOL    HW216971   2.032   2.621   9.799 -1.6319  1.2387 -1.2290
 1780SOL     OW16972   4.180   3.415   9.911 -0.3304  0.1393  0.1065
 1780SOL    HW116973   4.128   3.385   9.837  1.4943 -1.4942 -0.5251
 1780SOL    HW216974   4.131   3.384   9.987  0.3335  1.6404  1.1515
 1781SOL     OW16975   3.540   0.259  15.070 -0.6753 -0.9033  0.4231
 1781SOL    HW116976   3.453   0.296  15.084 -0.2006  0.8790 -1.3687
 1781SOL    HW216977   3.542   0.263  14.974  0.0510 -1.7879  0.4029
 1782SOL     OW16978   2.237   1.955   8.910 -0.5542  0.3070 -0.8492
 1782SOL    HW116979   2.289   1.920   8.838 -0.6777 -0.8267 -0.3824
 1782SOL    HW216980   2.286   1.922   8.985 -0.1639 -0.1462 -1.3038
 1783SOL     OW16981   3.140   3.517  16.783  0.2938  0.0146 -0.0813
 1783SOL    HW116982   3.116   3.607  16.803  2.9763  0.7611 -0.3137
 1783SOL    HW216983   3.200   3.518  16.709 -0.3215  1.0697 -0.5566
 1784SOL     OW16984   2.238   3.720  13.683  0.0369  0.4551 -0.1864
 1784SOL    HW116985   2.223   3.796  13.627 -1.8700 -0.2488 -0.6187
 1784SOL    HW216986   2.184   3.657  13.635  0.4521  0.1677 -0.2816
 1785SOL     OW16987   3.346   1.361   4.521 -0.2231 -0.1359 -0.8053
 1785SOL    HW116988   3.379   1.273   4.542 -0.7039  0.3896  2.1530
 1785SOL    HW216989   3.287   1.377   4.595  1.9432  1.2933  0.6255
 1786SOL     OW16990   1.620   1.910  11.935  0.7334 -0.0136  0.0143
 1786SOL    HW116991   1.659   1.996  11.947  2.7817 -0.8342 -0.8751
 1786SOL    HW216992   1.527   1.932  11.931  1.1349  1.7415  0.3908
 1787SOL     OW16993   2.640   1.064   6.503 -0.3654  0.4995 -0.6100
 1787SOL    HW116994   2.588   1.020   6.435 -0.1900  0.9539 -1.0380
 1787SOL    HW216995   2.728   1.037   6.474  0.2320  0.5792  1.1387
 1788SOL     OW16996   3.405   0.391   2.708  0.6541 -0.3890  0.1779
 1788SOL    HW116997   3.485   0.345   2.682  1.1302  0.0439  0.8669
 1788SOL    HW216998   3.429   0.477   2.743 -0.3500 -0.7418  1.7612
 1789SOL     OW16999   3.417   4.413  15.157  0.2362 -0.0625  0.0393
 1789SOL    HW117000   3.346   4.371  15.108 -2.2463 -0.1040  3.6282
 1789SOL    HW217001   3.445   4.489  15.106 -1.1809  0.9468  0.7660
 1790SOL     OW17002   3.346   0.875   0.640 -0.2995 -0.4468 -0.9030
 1790SOL    HW117003   3.298   0.828   0.572 -0.0183  0.3398 -1.6415
 1790SOL    HW217004   3.291   0.889   0.717  0.8763 -0.2511 -0.1028
 1791SOL     OW17005   2.496   0.387   9.176 -0.2871  0.3946  0.5924
 1791SOL    HW117006   2.474   0.447   9.104 -1.1174  0.9482  1.3005
 1791SOL    HW217007   2.561   0.333   9.132 -0.3169  2.1969 -1.6907
 1792SOL     OW17008   2.151   1.996   7.790 -0.1626  0.9689  0.6579
 1792SOL    HW117009   2.086   2.033   7.849  0.0700  1.2768  0.7207
 1792SOL    HW217010   2.181   1.916   7.835  1.5034 -0.6118 -3.2510
 1793SOL     OW17011   2.612   3.750   2.226 -0.1089 -0.1587  0.2327
 1793SOL    HW117012   2.641   3.695   2.299  0.3066 -0.2414  0.0034
 1793SOL    HW217013   2.561   3.681   2.183 -1.3831  0.8950  0.0437
 1794SOL     OW17014   0.998   3.246   8.464 -0.0443 -0.0172 -0.1552
 1794SOL    HW117015   1.090   3.225   8.476  0.5649  2.2170 -0.9215
 1794SOL    HW217016   0.996   3.340   8.479  2.7928  0.2069 -1.2579
 1795SOL     OW17017   0.596   4.417   5.945 -0.1610  1.1138  0.0599
 1795SOL    HW117018   0.666   4.384   6.001  0.2900 -1.2213 -1.8791
 1795SOL    HW217019   0.531   4.433   6.013 -1.0050 -4.5073  0.5181
 1796SOL     OW17020   0.501   4.330   8.631  0.2895 -0.1222 -0.7859
 1796SOL    HW117021   0.466   4.241   8.635 -1.2496  0.5232  0.3797
 1796SOL    HW217022   0.592   4.312   8.655  0.2544 -1.6712 -1.8209
 1797SOL     OW17023   3.512   1.953  13.542  0.5493 -0.0228 -0.0457
 1797SOL    HW117024   3.534   1.924  13.453  1.8008  1.6689 -0.2726
 1797SOL    HW217025   3.585   2.012  13.561 -0.0400  0.6705  0.0233
 1798SOL     OW17026   2.460   4.288   7.415 -0.2012  0.3095  0.4342
 1798SOL    HW117027   2.420   4.251   7.337  1.0128  2.6320 -1.2514
 1798SOL    HW217028   2.553   4.270   7.401 -0.5319 -1.8550  1.0391
 1799SOL     OW17029   0.213   0.601  11.651 -0.0618  0.0668 -0.1625
 1799SOL    HW117030   0.195   0.540  11.723 -1.9098 -0.5549 -1.1537
 1799SOL    HW217031   0.235   0.679  11.701 -0.7484  1.1807 -1.6051
 1800SOL     OW17032   4.620   4.187   2.902 -0.0481 -0.0400  0.4022
 1800SOL    HW117033   4.705   4.179   2.858 -0.0034  1.8380  0.1780
 1800SOL    HW217034   4.587   4.272   2.874  0.8568  0.5376  1.0911
 1801SOL     OW17035   1.577   3.369   7.727  0.3459  0.5273  0.2132
 1801SOL    HW117036   1.629   3.355   7.806  2.3855 -1.9223 -1.5574
 1801SOL    HW217037   1.509   3.419   7.773  0.4149 -2.0817  3.1896
 1802SOL     OW17038   1.625   1.174   1.505 -0.1851 -0.8308  0.3298
 1802SOL    HW117039   1.716   1.188   1.530 -0.5465 -1.9322  2.2913
 1802SOL    HW217040   1.563   1.199   1.574 -0.7908 -0.2921 -0.4069
 1803SOL     OW17041   1.330   0.540   5.012 -0.4354 -0.4546 -0.1434
 1803SOL    HW117042   1.284   0.459   5.034 -0.8670  0.1882  1.3497
 1803SOL    HW217043   1.390   0.552   5.086 -3.6340  0.2277  2.3392
 1804SOL     OW17044   1.696   4.265   3.314  0.6221  0.0606  0.4690
 1804SOL    HW117045   1.780   4.270   3.269  0.6457  3.3446  0.9042
 1804SOL    HW217046   1.647   4.224   3.243  2.4089 -3.2654  1.1833
 1805SOL     OW17047   2.645   0.878   1.375 -0.6338  0.2182 -0.5193
 1805SOL    HW117048   2.683   0.794   1.398 -0.0376 -0.1037 -2.6954
 1805SOL    HW217049   2.720   0.928   1.343  0.9596 -2.5310 -1.0057
 1806SOL     OW17050   3.104   3.053   8.977  0.2445 -0.5290  0.3872
 1806SOL    HW117051   3.011   3.030   8.974  0.4395 -1.1582 -0.6747
 1806SOL    HW217052   3.107   3.103   9.059 -2.7852 -1.7261  1.2275
 1807SOL     OW17053   2.748   2.244   8.497 -0.7237 -0.5650 -0.4467
 1807SOL    HW117054   2.815   2.245   8.566 -1.3327  0.6301  0.1489
 1807SOL    HW217055   2.722   2.336   8.502  0.8969 -0.0805 -1.0682
 1808SOL     OW17056   4.084   3.493   3.127 -0.1102 -0.1466  0.1278
 1808SOL    HW117057   4.158   3.554   3.114 -0.5969  1.1595  3.3923
 1808SOL    HW217058   4.081   3.467   3.035  0.0299  1.7037 -0.4011
 1809SOL     OW17059   3.655   4.139  10.142  0.4043  1.0957 -0.0820
 1809SOL    HW117060   3.651   4.235  10.136 -0.8674  1.1129  1.0605
 1809SOL    HW217061   3.628   4.123  10.232  0.5252  2.1688  0.1405
 1810SOL     OW17062   0.020   2.045   8.417  0.1307 -0.2202 -0.2879
 1810SOL    HW117063   4.722   2.051   8.507 -0.2026  1.0645 -0.4988
 1810SOL    HW217064   4.684   2.085   8.365  0.4542  1.6412  0.7115
 1811SOL     OW17065   3.212   1.075   5.370 -0.2077 -0.2264  0.3055
 1811SOL    HW117066   3.208   1.098   5.278 -3.0138 -0.7319  0.3167
 1811SOL    HW217067   3.169   1.157   5.393  0.2339 -0.1154  0.7371
 1812SOL     OW17068   2.259   2.935   3.623  0.4705  0.1167  0.1215
 1812SOL    HW117069   2.339   2.980   3.600  0.1222  0.3430 -0.6240
 1812SOL    HW217070   2.282   2.877   3.696 -0.9348  1.5101  1.6591
 1813SOL     OW17071   2.618   2.369   2.617 -0.1798 -0.1719  0.6241
 1813SOL    HW117072   2.559   2.314   2.566 -0.0891  0.4438 -0.1420
 1813SOL    HW217073   2.691   2.307   2.627  0.0100 -0.4131 -2.2925
 1814SOL     OW17074   1.756   3.667  12.935 -0.2405  0.2239 -0.5097
 1814SOL    HW117075   1.731   3.586  12.892  1.0636 -1.4943  1.9837
 1814SOL    HW217076   1.809   3.711  12.868  0.7448 -0.5522 -0.2374
 1815SOL     OW17077   4.367   4.297   6.454 -0.0072 -0.7776 -0.1918
 1815SOL    HW117078   4.313   4.373   6.432  0.8815  0.0362  0.4827
 1815SOL    HW217079   4.363   4.295   6.549 -0.9349 -1.2476 -0.2308
 1816SOL     OW17080   3.502   3.167   2.209  0.5605  0.5786  0.1908
 1816SOL    HW117081   3.584   3.137   2.168 -0.5220 -1.6576 -0.3497
 1816SOL    HW217082   3.447   3.201   2.138  0.2120 -1.5891 -0.5632
 1817SOL     OW17083   3.812   1.417  14.582  0.2111 -0.0809  0.2069
 1817SOL    HW117084   3.801   1.343  14.642  0.6165 -0.7728 -0.5712
 1817SOL    HW217085   3.734   1.402  14.529  1.2787 -0.1032 -1.3328
 1818SOL     OW17086   3.210   4.271   7.755 -0.2974 -0.3643  0.0198
 1818SOL    HW117087   3.191   4.178   7.748  0.2615 -0.2647 -3.1123
 1818SOL    HW217088   3.278   4.288   7.690 -0.1008 -1.2644 -0.0130
 1819SOL     OW17089   0.983   4.634   0.427  0.4631  0.7826 -0.3978
 1819SOL    HW117090   0.927   4.674   0.359 -0.0906  0.9286  0.1438
 1819SOL    HW217091   0.998   4.707   0.487 -0.4742  2.0291 -1.6629
 1820SOL     OW17092   4.428   2.414   7.238  0.0993 -0.7111 -0.2526
 1820SOL    HW117093   4.399   2.490   7.187  2.8504 -0.4011 -1.3234
 1820SOL    HW217094   4.415   2.443   7.328 -0.7265 -2.2427  0.1221
 1821SOL     OW17095   2.655   3.051  13.254 -0.3247 -0.4222  0.1918
 1821SOL    HW117096   2.629   3.088  13.338 -2.1355 -0.4378 -0.3478
 1821SOL    HW217097   2.741   3.012  13.264 -0.6380 -0.6867  1.8259
 1822SOL     OW17098   1.704   3.557   5.769 -0.5593 -0.2294 -0.7344
 1822SOL    HW117099   1.782   3.610   5.786  0.6689 -1.8782 -1.2060
 1822SOL    HW217100   1.643   3.564   5.842 -0.1408  1.0630 -0.5122
 1823SOL     OW17101   1.767   4.324   9.304  0.6046 -0.0518  0.9006
 1823SOL    HW117102   1.690   4.272   9.282  2.5722 -1.9515 -1.5725
 1823SOL    HW217103   1.741   4.357   9.390 -3.2708 -0.8072  0.0282
 1824SOL     OW17104   2.958   2.174  16.188 -0.4942 -0.8858  0.0832
 1824SOL    HW117105   2.966   2.265  16.217  2.5626 -0.8336 -0.8895
 1824SOL    HW217106   3.045   2.175  16.149 -0.8324  3.2570 -0.5703
 1825SOL     OW17107   1.429   3.113  12.264 -0.1851  0.1345 -0.6469
 1825SOL    HW117108   1.438   3.027  12.304 -2.7109  0.7093  1.1579
 1825SOL    HW217109   1.488   3.097  12.191 -0.5417 -0.1818 -0.8663
 1826SOL     OW17110   1.594   0.197   7.043  0.0734 -0.5616  0.0211
 1826SOL    HW117111   1.523   0.137   7.065  0.5141 -1.8909 -2.1890
 1826SOL    HW217112   1.585   0.263   7.112  2.0253 -0.2155 -0.0601
 1827SOL     OW17113   4.557   0.448   7.351 -0.6572  0.0781  0.2896
 1827SOL    HW117114   4.558   0.540   7.375  0.6803 -0.0398  0.6922
 1827SOL    HW217115   4.583   0.457   7.259  1.4034  0.2306  0.8887
 1828SOL     OW17116   3.212   0.216  14.630  0.0140 -0.0998  0.2390
 1828SOL    HW117117   3.284   0.153  14.636  0.7049  0.6806  0.1902
 1828SOL    HW217118   3.148   0.181  14.693 -2.0223  0.8881 -1.2656
 1829SOL     OW17119   3.228   0.417  17.546 -0.1633  0.1004 -0.6856
 1829SOL    HW117120   3.136   0.397  17.563  1.2495 -3.8758  2.4002
 1829SOL    HW217121   3.239   0.374  17.461 -2.1025 -2.6550  0.4616
 1830SOL     OW17122   4.186   0.769  15.174 -0.5800 -0.7051  0.0108
 1830SOL    HW117123   4.110   0.724  15.138 -0.6508 -0.2824 -0.3608
 1830SOL    HW217124   4.219   0.815  15.098 -1.2410 -2.5297 -1.3777
 1831SOL     OW17125   4.550   4.359   8.132  0.1034 -0.2082 -0.4310
 1831SOL    HW117126   4.575   4.431   8.074  1.5265 -1.3090 -1.1635
 1831SOL    HW217127   4.475   4.327   8.083 -0.7070  0.7354  0.1801
 1832SOL     OW17128   0.356   3.288   1.537 -0.4415  0.9121 -0.1870
 1832SOL    HW117129   0.381   3.378   1.557 -3.2830  1.3204  1.5961
 1832SOL    HW217130   0.347   3.315   1.446 -1.3206 -0.5493 -0.5303
 1833SOL     OW17131   3.014   3.716   2.772  0.5209  0.5710  0.1357
 1833SOL    HW117132   2.941   3.693   2.714  1.0509  0.7081 -0.5867
 1833SOL    HW217133   3.003   3.809   2.791  0.9423  0.7030 -0.2640
 1834SOL     OW17134   4.485   0.001   9.137 -0.5684  0.3695 -0.5439
 1834SOL    HW117135   4.580   0.014   9.142 -0.5715  0.2256 -0.0626
 1834SOL    HW217136   4.485   4.689   9.221  0.5092  0.8343 -0.2804
 1835SOL     OW17137   3.671   0.402   6.229 -0.4479  0.1945  0.8049
 1835SOL    HW117138   3.699   0.409   6.320  2.4292 -0.2320 -0.0360
 1835SOL    HW217139   3.721   0.471   6.186 -2.7530  2.0388  1.0913
 1836SOL     OW17140   2.785   0.197   4.989  0.0572  0.0443  0.1361
 1836SOL    HW117141   2.705   0.144   4.995 -0.7976  1.3717  0.4400
 1836SOL    HW217142   2.831   0.159   4.914  0.5463  0.4007  0.2553
 1837SOL     OW17143   0.407   3.813   3.721  0.4163 -0.7662 -0.5380
 1837SOL    HW117144   0.442   3.892   3.761 -0.0765 -1.0349  0.4239
 1837SOL    HW217145   0.396   3.754   3.796  0.0704 -0.8229 -0.6349
 1838SOL     OW17146   4.601   0.075   6.476  0.8397  0.3636 -0.1944
 1838SOL    HW117147   4.618   0.112   6.389 -1.9101  0.0305 -0.8976
 1838SOL    HW217148   4.573   4.721   6.453  1.3427  0.0800  0.2844
 1839SOL     OW17149   3.004   2.770   8.273  0.1508  0.1797  0.2191
 1839SOL    HW117150   3.040   2.764   8.362  1.5728  0.3521 -0.3560
 1839SOL    HW217151   3.081   2.776   8.217 -1.3897  0.5255 -1.8672
 1840SOL     OW17152   2.918   0.511  11.699  0.8605 -0.4441  0.0690
 1840SOL    HW117153   2.984   0.455  11.657 -0.0653 -2.2818  1.0801
 1840SOL    HW217154   2.945   0.598  11.670  0.0052 -1.4139 -3.6161
 1841SOL     OW17155   0.904   2.989   7.706  0.4533 -0.8263  0.4363
 1841SOL    HW117156   0.999   2.989   7.704  0.4443  0.0811  0.2070
 1841SOL    HW217157   0.876   2.985   7.798  2.6642 -0.3808  1.1110
 1842SOL     OW17158   0.328   1.268  10.826 -0.0785  0.3857  0.4810
 1842SOL    HW117159   0.287   1.187  10.795 -0.5506  0.9440 -0.3478
 1842SOL    HW217160   0.250   1.324  10.820  0.6047  1.2220 -0.5674
 1843SOL     OW17161   3.542   0.015   5.120  0.4098  0.1066  0.5226
 1843SOL    HW117162   3.521   0.100   5.083  0.4876 -0.0536  0.1063
 1843SOL    HW217163   3.458   4.703   5.114  0.1837  0.5562  0.2848
 1844SOL     OW17164   3.850   3.569  15.566  0.1692  0.0196 -0.9551
 1844SOL    HW117165   3.765   3.601  15.536 -0.3515 -1.2594 -0.8403
 1844SOL    HW217166   3.909   3.594  15.495  1.9133  1.9622  1.1483
 1845SOL     OW17167   1.270   3.751   0.046 -0.5172 -0.1564  0.1344
 1845SOL    HW117168   1.315   3.830   0.076 -1.1190  1.1107 -2.3179
 1845SOL    HW217169   1.183   3.761   0.085  0.2399  1.2007  1.4897
 1846SOL     OW17170   1.371   0.990   6.386  0.1771  0.4474 -0.1941
 1846SOL    HW117171   1.367   0.902   6.348  2.9397  0.2254  0.0912
 1846SOL    HW217172   1.431   0.968   6.457  0.6477 -0.4449 -0.8593
 1847SOL     OW17173   2.998   0.061   1.366 -0.4902  0.4251 -0.1002
 1847SOL    HW117174   3.035   0.148   1.349  0.8483 -0.4244 -1.6077
 1847SOL    HW217175   2.999   0.023   1.278 -0.8740 -1.8649  0.8916
 1848SOL     OW17176   3.107   0.075   2.665  0.1700  0.1338  0.3903
 1848SOL    HW117177   3.031   0.097   2.610 -0.9442 -2.8691  0.7010
 1848SOL    HW217178   3.060   0.060   2.747 -1.0313 -0.4445 -0.3929
 1849SOL     OW17179   2.913   3.196   7.262 -0.0279  0.2905  0.4909
 1849SOL    HW117180   2.979   3.127   7.260 -0.0294  0.3153 -0.4218
 1849SOL    HW217181   2.853   3.174   7.333  0.0988  0.0525  0.5239
 1850SOL     OW17182   0.589   2.110   5.933  0.0203  0.2996 -0.0329
 1850SOL    HW117183   0.521   2.165   5.971 -1.1116 -1.0037 -0.1845
 1850SOL    HW217184   0.668   2.161   5.952 -0.6299  1.4827 -0.5369
 1851SOL     OW17185   3.456   3.936  11.880  0.5605  0.5929  0.2119
 1851SOL    HW117186   3.513   4.012  11.882  0.5466  0.6264 -1.4945
 1851SOL    HW217187   3.480   3.888  11.960  1.0584 -1.5473 -1.2318
 1852SOL     OW17188   0.373   0.425   7.437 -0.0854 -0.3368  0.1675
 1852SOL    HW117189   0.458   0.402   7.400  1.1372 -0.0822  2.8317
 1852SOL    HW217190   0.316   0.392   7.368 -1.1542  0.2002  0.7891
 1853SOL     OW17191   0.692   0.900  10.395  0.2503  0.1667 -0.6223
 1853SOL    HW117192   0.652   0.968  10.449  0.0760 -0.8060  0.4849
 1853SOL    HW217193   0.727   0.836  10.457 -0.8484  0.2946  0.1347
 1854SOL     OW17194   2.119   3.683   6.627  0.7845 -0.3899 -0.2065
 1854SOL    HW117195   2.067   3.602   6.625 -0.2045  0.1531  2.9897
 1854SOL    HW217196   2.174   3.654   6.700  0.8468 -0.7158 -0.3807
 1855SOL     OW17197   2.833   2.019   7.874  0.3938 -0.0746  0.8403
 1855SOL    HW117198   2.888   2.046   7.947  2.2785 -0.7585 -0.3273
 1855SOL    HW217199   2.893   1.967   7.821 -1.5674 -2.7093  1.1736
 1856SOL     OW17200   4.663   2.694   8.211 -0.0677 -0.1388  0.2067
 1856SOL    HW117201   4.670   2.755   8.137  3.5772  1.0114  1.4794
 1856SOL    HW217202   0.001   2.714   8.270  1.1103 -0.9353 -0.9619
 1857SOL     OW17203   3.141   1.143   7.733  0.2607  0.1586 -0.1401
 1857SOL    HW117204   3.083   1.114   7.803 -2.1820  1.3522 -1.6605
 1857SOL    HW217205   3.173   1.228   7.761  0.4831 -0.5466  1.7131
 1858SOL     OW17206   1.499   4.167   3.696  0.2255 -0.0082 -0.2363
 1858SOL    HW117207   1.458   4.131   3.617  0.8774 -1.8533  0.2495
 1858SOL    HW217208   1.581   4.207   3.667  0.7988 -2.1747 -1.6406
 1859SOL     OW17209   4.095   3.237  13.618 -0.2914 -0.0801  0.0141
 1859SOL    HW117210   4.113   3.318  13.572 -0.8706  0.6990  1.1638
 1859SOL    HW217211   4.000   3.241  13.625 -0.5238 -0.1392 -3.1438
 1860SOL     OW17212   1.828   1.514  17.074  0.4826  0.0240  0.7347
 1860SOL    HW117213   1.793   1.443  17.127 -0.8802  1.3541  1.6345
 1860SOL    HW217214   1.801   1.478  16.990 -0.8404  2.6537  0.0137
 1861SOL     OW17215   1.435   4.314   2.362 -0.6531 -0.4865  0.0368
 1861SOL    HW117216   1.390   4.252   2.305  0.9276 -0.5284 -1.1464
 1861SOL    HW217217   1.452   4.383   2.298  0.0358 -1.4411 -0.7940
 1862SOL     OW17218   2.995   0.776  13.915  0.0984  0.0373  0.2368
 1862SOL    HW117219   2.906   0.758  13.946 -0.1394 -0.7577 -0.8926
 1862SOL    HW217220   3.014   0.699  13.861  2.2852  0.3236  0.5872
 1863SOL     OW17221   0.975   3.958  16.748 -0.2557  0.1696  0.6699
 1863SOL    HW117222   1.018   3.879  16.780 -1.2121 -1.3233 -1.7262
 1863SOL    HW217223   0.944   3.996  16.830 -3.3897 -4.1466  1.5366
 1864SOL     OW17224   2.549   0.643  11.546  0.4740  0.3155 -0.2612
 1864SOL    HW117225   2.594   0.723  11.572 -1.4834  1.5139 -0.5661
 1864SOL    HW217226   2.521   0.607  11.631 -3.9560 -1.5405 -2.4926
 1865SOL     OW17227   1.921   3.789   6.471 -0.1564  0.0005  0.1307
 1865SOL    HW117228   1.993   3.759   6.526  0.1825  1.5230  0.4939
 1865SOL    HW217229   1.845   3.736   6.495 -1.2146  0.3990 -2.2840
 1866SOL     OW17230   1.019   3.766   5.402 -0.0251 -0.2097  0.2140
 1866SOL    HW117231   0.999   3.702   5.471 -0.1914  0.0420  0.4002
 1866SOL    HW217232   1.020   3.698   5.335 -1.6203  1.5405 -1.5964
 1867SOL     OW17233   3.144   2.202  13.546  0.1204 -0.1032  0.1861
 1867SOL    HW117234   3.105   2.275  13.498  0.5785  0.3368  0.4883
 1867SOL    HW217235   3.108   2.125  13.502 -0.6786 -1.1468  2.6315
 1868SOL     OW17236   3.363   1.135   4.276 -0.7994 -0.3093  0.0317
 1868SOL    HW117237   3.411   1.141   4.358  1.3213  0.6038 -1.2650
 1868SOL    HW217238   3.422   1.079   4.225  0.7342  0.0072  1.4468
 1869SOL     OW17239   3.781   2.410   2.638  0.4122 -0.1124  0.0919
 1869SOL    HW117240   3.731   2.442   2.562  0.1692  0.7822  0.6245
 1869SOL    HW217241   3.865   2.389   2.599  0.1594 -2.8210  1.0007
 1870SOL     OW17242   3.122   4.224   0.379 -0.1724 -0.0051 -0.1911
 1870SOL    HW117243   3.210   4.223   0.341 -0.6395 -0.0745 -1.2527
 1870SOL    HW217244   3.129   4.139   0.423  4.0341  1.0881  1.2993
 1871SOL     OW17245   0.672   4.521   3.505  0.0347  0.5251 -0.2488
 1871SOL    HW117246   0.717   4.450   3.459 -0.3783 -0.7234  1.2721
 1871SOL    HW217247   0.738   4.584   3.477  1.9977 -0.8330  1.2837
 1872SOL     OW17248   0.211   4.039   2.716  0.7560 -0.5831 -0.1373
 1872SOL    HW117249   0.127   4.008   2.682  0.2942 -0.1057  0.5817
 1872SOL    HW217250   0.275   4.017   2.648  1.2770  1.1143 -0.1958
 1873SOL     OW17251   3.597   4.280  11.114  0.0656 -0.0979  0.1900
 1873SOL    HW117252   3.689   4.272  11.089  0.1017  0.2947  0.1976
 1873SOL    HW217253   3.568   4.189  11.103  1.2664 -0.7558  2.5829
 1874SOL     OW17254   1.022   3.323   6.512  0.0148  0.3118  0.5235
 1874SOL    HW117255   1.076   3.354   6.439 -0.7671  1.5829  0.4807
 1874SOL    HW217256   1.001   3.231   6.492  1.3289  0.3900 -1.2756
 1875SOL     OW17257   2.407   1.254  14.512 -0.2134  0.3675  0.5167
 1875SOL    HW117258   2.411   1.295  14.598 -1.3873  1.2313  0.1625
 1875SOL    HW217259   2.371   1.329  14.463 -2.2476 -1.2530 -0.4768
 1876SOL     OW17260   0.335   3.229   4.152  0.1953 -0.2011 -0.2283
 1876SOL    HW117261   0.381   3.303   4.113  0.7682 -0.5664 -0.2465
 1876SOL    HW217262   0.258   3.218   4.097 -0.8936 -1.0164  1.4578
 1877SOL     OW17263   3.981   2.535   4.137 -0.0223 -0.1068  0.1531
 1877SOL    HW117264   3.938   2.620   4.142 -0.9317 -0.5881  0.7084
 1877SOL    HW217265   4.072   2.562   4.147  0.2796 -0.8251 -0.6267
 1878SOL     OW17266   3.205   0.656   5.303  0.0488  0.0598  0.0137
 1878SOL    HW117267   3.241   0.721   5.244  1.6849 -1.2477 -0.4205
 1878SOL    HW217268   3.144   0.611   5.245 -0.1846  0.8617 -0.3542
 1879SOL     OW17269   0.287   4.602   9.197  0.2331 -0.6083  0.1269
 1879SOL    HW117270   0.322   4.687   9.172 -0.8181  0.7541  3.2481
 1879SOL    HW217271   0.350   4.541   9.159  1.4276  0.1628  0.8792
 1880SOL     OW17272   2.369   4.731   4.046 -0.5435 -0.2447 -0.3046
 1880SOL    HW117273   2.389   0.083   4.082 -1.0322 -0.2099 -0.1163
 1880SOL    HW217274   2.435   4.673   4.085  0.5663  0.5985 -0.9167
 1881SOL     OW17275   3.107   1.056   8.572 -0.5907 -0.1216 -0.5954
 1881SOL    HW117276   3.046   0.990   8.539 -1.4114  0.3045  0.0614
 1881SOL    HW217277   3.068   1.078   8.657 -1.1640 -1.6726 -0.4548
 1882SOL     OW17278   2.973   3.245   9.187  0.6486 -0.4054  0.2138
 1882SOL    HW117279   2.973   3.230   9.282  2.1584 -1.2909  0.0756
 1882SOL    HW217280   3.062   3.278   9.172  0.7615 -1.2441 -0.9468
 1883SOL     OW17281   0.464   0.698   6.739  0.0354 -0.0477 -0.4864
 1883SOL    HW117282   0.557   0.709   6.760 -0.2923  0.5104  0.5991
 1883SOL    HW217283   0.464   0.603   6.724  2.1713 -0.3705  1.4849
 1884SOL     OW17284   2.552   0.573   0.722  0.4593 -0.6710 -0.2700
 1884SOL    HW117285   2.621   0.518   0.760 -1.3261 -2.6700  0.0428
 1884SOL    HW217286   2.593   0.660   0.717  1.6194 -1.1223  1.2002
 1885SOL     OW17287   0.836   0.596   4.992  0.4773 -0.3056 -0.7546
 1885SOL    HW117288   0.798   0.553   4.915  0.3030 -1.0164 -0.2695
 1885SOL    HW217289   0.878   0.518   5.027 -1.1663 -1.2597 -0.8682
 1886SOL     OW17290   4.567   4.196   5.262 -0.3201  0.1620 -0.3325
 1886SOL    HW117291   4.518   4.279   5.266  1.7030  1.4062 -1.5613
 1886SOL    HW217292   4.493   4.142   5.234  0.6567  0.3600 -3.3065
 1887SOL     OW17293   2.171   4.501   0.773 -0.2647 -0.2998  0.0475
 1887SOL    HW117294   2.221   4.425   0.800  0.3907  1.2573  3.1795
 1887SOL    HW217295   2.122   4.518   0.853  0.8801  0.8182  0.5118
 1888SOL     OW17296   4.094   0.334   4.336 -0.2400  0.8989  0.5198
 1888SOL    HW117297   4.107   0.383   4.255 -1.7098 -0.6223 -0.6453
 1888SOL    HW217298   4.080   0.247   4.297 -2.2854  0.6301  1.8547
 1889SOL     OW17299   4.459   2.906   2.652  0.4691 -0.0044  0.0792
 1889SOL    HW117300   4.486   2.953   2.574  0.3721  0.1765  0.1551
 1889SOL    HW217301   4.402   2.980   2.673  0.8612  0.4069 -0.3119
 1890SOL     OW17302   2.456   1.310   3.575 -0.2397  0.1026  0.6448
 1890SOL    HW117303   2.425   1.361   3.500  0.3643  2.2872  1.8691
 1890SOL    HW217304   2.529   1.369   3.591  0.5823 -0.5655 -0.6766
 1891SOL     OW17305   4.183   2.257   7.452 -0.7473  0.6645  0.6692
 1891SOL    HW117306   4.209   2.247   7.544 -1.8181  0.9653  1.0017
 1891SOL    HW217307   4.197   2.350   7.438 -0.1871  1.0778  3.9168
 1892SOL     OW17308   4.497   1.359   7.412 -0.1543 -0.6666  0.2458
 1892SOL    HW117309   4.558   1.411   7.463  0.1699 -0.4696 -0.3412
 1892SOL    HW217310   4.544   1.276   7.405  3.4318  1.2920  1.1128
 1893SOL     OW17311   1.678   2.201   5.659  0.2642  0.3389  0.1569
 1893SOL    HW117312   1.615   2.132   5.680  0.9452 -0.1256  0.6755
 1893SOL    HW217313   1.721   2.156   5.586 -0.6549  0.4423 -0.4447
 1894SOL     OW17314   0.829   1.549   8.682 -0.0343  0.0030  0.0940
 1894SOL    HW117315   0.820   1.627   8.626  1.0883  1.8833  2.5130
 1894SOL    HW217316   0.829   1.596   8.766  1.5539 -1.2832  0.7952
 1895SOL     OW17317   4.330   1.612   5.800 -0.2468  0.7078  0.2463
 1895SOL    HW117318   4.325   1.678   5.731 -1.7399 -0.4928 -0.8068
 1895SOL    HW217319   4.422   1.585   5.807 -0.6002 -0.9149 -1.3123
 1896SOL     OW17320   1.858   0.266   3.652 -0.7168 -0.1804  0.2813
 1896SOL    HW117321   1.876   0.348   3.698 -3.3843  1.5348 -1.7338
 1896SOL    HW217322   1.816   0.306   3.575 -0.1190  0.1215  0.1081
 1897SOL     OW17323   1.038   1.913   7.080  0.3970  1.1747 -0.2513
 1897SOL    HW117324   1.099   1.986   7.071  1.2450  0.3940 -0.8158
 1897SOL    HW217325   1.053   1.864   6.998 -0.2401  0.7983 -0.1412
 1898SOL     OW17326   2.446   3.963   2.285  0.0077  0.2275 -0.8304
 1898SOL    HW117327   2.494   3.891   2.244  0.3436  1.0603 -1.9175
 1898SOL    HW217328   2.359   3.923   2.283  0.5948 -1.2203  3.3691
 1899SOL     OW17329   4.603   3.754  13.553 -0.1539 -0.5126 -0.2847
 1899SOL    HW117330   4.690   3.728  13.522  0.6186  1.4057  0.2802
 1899SOL    HW217331   4.592   3.825  13.490 -1.1611 -1.3539 -1.0576
 1900SOL     OW17332   1.706   1.539  10.867  0.1294  0.1819 -0.3006
 1900SOL    HW117333   1.638   1.484  10.826  0.0803 -0.7605  1.0603
 1900SOL    HW217334   1.785   1.511  10.820  0.0894 -0.6848  0.1489
 1901SOL     OW17335   0.501   2.372  16.514 -0.0367 -0.1247  0.2846
 1901SOL    HW117336   0.516   2.280  16.536  0.1917 -0.2309 -0.3057
 1901SOL    HW217337   0.522   2.378  16.420  1.0813 -3.7184  0.3211
 1902SOL     OW17338   2.183   1.512   9.731 -0.0644  0.6639 -0.0719
 1902SOL    HW117339   2.269   1.533   9.695 -1.3351  1.5104 -2.5985
 1902SOL    HW217340   2.155   1.460   9.656  0.0648 -0.0045  0.3404
 1903SOL     OW17341   3.680   4.154   1.298  0.0499 -0.1588 -0.1306
 1903SOL    HW117342   3.725   4.158   1.382  1.3088 -0.7008 -0.7867
 1903SOL    HW217343   3.746   4.187   1.237 -0.8549 -0.6238 -1.3565
 1904SOL     OW17344   0.700   1.125   2.066  0.2304  0.3608 -0.3377
 1904SOL    HW117345   0.757   1.048   2.063  1.8383  1.5268  0.4085
 1904SOL    HW217346   0.755   1.183   2.013  0.4189 -0.6174 -1.2197
 1905SOL     OW17347   0.484   0.086   5.207  0.1952 -0.2244  0.5969
 1905SOL    HW117348   0.508   0.098   5.299 -1.6666 -1.8162  1.3113
 1905SOL    HW217349   0.500   4.726   5.205 -0.0424 -0.3114  2.9892
 1906SOL     OW17350   4.402   1.018   4.842  0.0288 -0.0283  0.0067
 1906SOL    HW117351   4.428   1.093   4.789 -3.2148 -0.0628 -1.6105
 1906SOL    HW217352   4.458   0.949   4.806  1.9876  1.4562  0.1826
 1907SOL     OW17353   2.057   4.354  13.066 -0.4663 -0.1444  0.5310
 1907SOL    HW117354   2.005   4.423  13.025  1.6450 -0.8067 -3.2528
 1907SOL    HW217355   2.099   4.398  13.140  1.5598 -2.4781  0.7696
 1908SOL     OW17356   2.721   4.688   2.811 -0.4817  0.3730 -0.2410
 1908SOL    HW117357   2.666   4.667   2.887  1.0594 -1.9014  0.2634
 1908SOL    HW217358   2.663   4.734   2.750 -0.3916  0.8904  0.0646
 1909SOL     OW17359   3.086   2.135   5.933 -0.1763 -0.0415 -0.0891
 1909SOL    HW117360   3.118   2.150   5.844 -1.3550  2.3056 -0.1265
 1909SOL    HW217361   2.990   2.132   5.932 -0.1979  0.2835  0.7210
 1910SOL     OW17362   3.393   1.828   3.107 -0.7017  0.7104  0.2945
 1910SOL    HW117363   3.389   1.873   3.023  0.5518 -0.0905 -0.2011
 1910SOL    HW217364   3.376   1.740   3.073 -1.5340  0.4998  1.2683
 1911SOL     OW17365   1.679   2.530   2.102  0.4651  0.6056 -0.6367
 1911SOL    HW117366   1.646   2.568   2.183  0.1302  1.9097 -1.3811
 1911SOL    HW217367   1.598   2.502   2.059 -0.2277  2.2062 -0.4058
 1912SOL     OW17368   0.534   2.202   6.864  0.0490 -0.1634  0.3904
 1912SOL    HW117369   0.470   2.190   6.934 -0.9326  0.4456 -0.4074
 1912SOL    HW217370   0.617   2.195   6.912  0.0350 -1.6738  0.2062
 1913SOL     OW17371   4.339   0.902  16.938  0.8744  0.7087  0.1313
 1913SOL    HW117372   4.383   0.975  16.982 -0.4604  1.8105 -0.3860
 1913SOL    HW217373   4.335   0.839  17.010 -0.6978  1.5018  0.7284
 1914SOL     OW17374   2.766   1.521   3.293 -0.0371 -0.5788  0.1730
 1914SOL    HW117375   2.801   1.433   3.280 -0.4933 -0.3408 -2.5983
 1914SOL    HW217376   2.824   1.574   3.238 -1.3050  0.6521  0.0244
 1915SOL     OW17377   0.801   0.079   1.242 -0.0725 -0.2961 -0.0174
 1915SOL    HW117378   0.727   0.031   1.280 -1.3295  1.4417 -0.2492
 1915SOL    HW217379   0.752   0.151   1.203 -0.5017 -0.6692 -0.1658
 1916SOL     OW17380   0.425   0.740   9.156  0.5261  0.6296  0.2097
 1916SOL    HW117381   0.420   0.690   9.074  1.1638  1.5554 -0.3838
 1916SOL    HW217382   0.421   0.672   9.223 -0.6761 -0.2586 -0.7502
 1917SOL     OW17383   4.415   2.658  16.187  0.5646 -0.1274  0.3681
 1917SOL    HW117384   4.488   2.595  16.184  1.0355  0.3775  1.1531
 1917SOL    HW217385   4.338   2.601  16.179  0.6620 -0.3194  0.8069
 1918SOL     OW17386   2.659   3.467  12.882  0.2420 -0.1985 -0.4839
 1918SOL    HW117387   2.748   3.496  12.859  0.4208 -0.5539 -0.2410
 1918SOL    HW217388   2.671   3.377  12.852  1.4691 -0.4008  0.6208
 1919SOL     OW17389   1.079   4.300   9.081  0.1664  0.2746  0.0671
 1919SOL    HW117390   1.035   4.335   9.158 -0.1847  1.7137 -0.7990
 1919SOL    HW217391   1.000   4.266   9.040  0.1152 -1.9659  1.9983
 1920SOL     OW17392   1.335   3.523   2.714  0.6945  0.1829 -0.6754
 1920SOL    HW117393   1.342   3.598   2.655  2.4265  1.1410  0.7753
 1920SOL    HW217394   1.274   3.553   2.782 -0.1159  1.2179 -1.8640
 1921SOL     OW17395   3.061   3.509   8.219  0.1376 -0.7527  0.1895
 1921SOL    HW117396   3.104   3.477   8.298  1.7258 -1.1764 -0.8454
 1921SOL    HW217397   3.019   3.430   8.185 -2.2856  0.6428 -0.1017
 1922SOL     OW17398   4.426   1.416   8.457  0.1610  0.2802 -0.3927
 1922SOL    HW117399   4.399   1.337   8.410 -1.5589  1.6982 -1.8597
 1922SOL    HW217400   4.368   1.412   8.532 -0.7607 -1.9628 -1.2277
 1923SOL     OW17401   1.466   4.669   2.005  0.1680 -0.2003  0.5848
 1923SOL    HW117402   1.399   0.002   1.988  0.1830 -0.1125  0.8783
 1923SOL    HW217403   1.506   4.685   1.920  0.0813  0.1336  0.6074
 1924SOL     OW17404   3.915   4.117  12.142 -0.4838  0.4442 -0.3386
 1924SOL    HW117405   3.928   4.066  12.222 -3.1519  2.5416  1.3848
 1924SOL    HW217406   3.891   4.201  12.180  3.5522  2.2932 -1.8205
 1925SOL     OW17407   2.121   0.563  11.675  0.4081  0.1256 -0.3838
 1925SOL    HW117408   2.167   0.483  11.648  1.5920  1.1855 -1.4529
 1925SOL    HW217409   2.074   0.515  11.744 -0.8979 -0.7956 -1.8942
 1926SOL     OW17410   4.122   4.621   3.953 -0.5707 -0.1330  0.2891
 1926SOL    HW117411   4.143   4.546   3.897  0.2175 -0.6406  1.2672
 1926SOL    HW217412   4.082   4.580   4.030 -0.0373 -0.1268  0.5672
 1927SOL     OW17413   2.471   4.190   5.790  0.0255  0.5369  0.0251
 1927SOL    HW117414   2.388   4.154   5.823  1.3204 -1.1019  1.4623
 1927SOL    HW217415   2.519   4.229   5.863  1.2817  0.9444 -1.0285
 1928SOL     OW17416   1.280   0.712   3.656 -0.4733 -0.0843 -0.1126
 1928SOL    HW117417   1.277   0.763   3.575 -0.1020  1.8266  1.0670
 1928SOL    HW217418   1.307   0.783   3.714  0.0047 -0.6792  0.3863
 1929SOL     OW17419   3.732   1.810   8.950  0.1556 -0.5652 -0.0964
 1929SOL    HW117420   3.782   1.776   9.024 -1.1662 -2.3302  0.0125
 1929SOL    HW217421   3.673   1.738   8.925 -1.4293  0.0513  1.9269
 1930SOL     OW17422   1.107   1.274   8.532  0.1056 -0.3671 -0.2861
 1930SOL    HW117423   1.196   1.269   8.567  0.6708  0.7162 -1.5290
 1930SOL    HW217424   1.081   1.182   8.539 -0.7610 -0.1359 -0.5346
 1931SOL     OW17425   0.934   0.349   5.050  0.2448 -0.0511  0.0157
 1931SOL    HW117426   0.886   0.284   4.998  0.0215  0.0325  0.1183
 1931SOL    HW217427   0.944   0.298   5.130 -1.4179 -2.2731 -1.1734
 1932SOL     OW17428   2.143   0.827   7.201  0.8883  0.1290 -0.2291
 1932SOL    HW117429   2.181   0.914   7.214 -1.0470  0.8802  0.3686
 1932SOL    HW217430   2.187   0.791   7.124 -1.3466 -1.2886 -0.8417
 1933SOL     OW17431   0.470   0.568   2.037  0.5452  0.2219 -0.2080
 1933SOL    HW117432   0.380   0.571   2.003 -0.5325 -0.2119  2.5515
 1933SOL    HW217433   0.452   0.578   2.131  1.9372  3.0201 -0.2670
 1934SOL     OW17434   1.113   4.157   4.472 -0.0118 -0.7452  0.4045
 1934SOL    HW117435   1.098   4.122   4.384 -1.0688  0.4659  0.0961
 1934SOL    HW217436   1.039   4.126   4.525 -1.8263  0.6821 -1.2810
 1935SOL     OW17437   1.562   3.487  15.366  0.4356 -0.3326  0.2470
 1935SOL    HW117438   1.587   3.396  15.382 -0.3854 -0.2756  1.8828
 1935SOL    HW217439   1.618   3.523  15.435  0.7247 -1.0583  0.3967
 1936SOL     OW17440   4.129   0.124   7.174  0.3804 -0.5277  0.1821
 1936SOL    HW117441   4.060   0.158   7.117 -0.8165 -0.1411  1.8729
 1936SOL    HW217442   4.203   0.179   7.147  0.9570 -0.2080  2.4194
 1937SOL     OW17443   1.146   3.513   9.780  0.3616  0.4803  0.2833
 1937SOL    HW117444   1.223   3.457   9.773 -0.2741 -0.1886 -1.2761
 1937SOL    HW217445   1.180   3.602   9.786 -1.2765  1.0609  1.2190
 1938SOL     OW17446   3.274   0.515   9.657  0.4594  0.2898  0.1241
 1938SOL    HW117447   3.204   0.467   9.613  1.5067  0.6336 -1.8965
 1938SOL    HW217448   3.215   0.544   9.727  1.5332  2.3782  0.1608
 1939SOL     OW17449   1.822   0.727   5.822 -0.0757  0.2152 -0.2168
 1939SOL    HW117450   1.830   0.686   5.909  0.5551  1.1484  0.1591
 1939SOL    HW217451   1.880   0.673   5.769 -1.9199 -0.1744 -1.8071
 1940SOL     OW17452   2.884   0.310  17.507 -0.0720  0.0945  0.1895
 1940SOL    HW117453   2.800   0.267  17.488  1.0170 -1.1602 -1.8116
 1940SOL    HW217454   2.902   0.289  17.599  0.4480  1.4957  0.3990
 1941SOL     OW17455   2.528   1.604   8.789 -0.2891  0.1450  0.3590
 1941SOL    HW117456   2.462   1.560   8.841  0.7582 -1.1043  0.6265
 1941SOL    HW217457   2.468   1.626   8.717 -0.9364  2.1417  1.4890
 1942SOL     OW17458   2.714   0.474   8.323 -0.2628 -0.3412 -0.1293
 1942SOL    HW117459   2.678   0.560   8.301 -1.3777 -0.2457  2.0948
 1942SOL    HW217460   2.632   0.431   8.351 -0.2375 -0.3730 -0.1040
 1943SOL     OW17461   2.918   1.049   6.469  0.1693  0.2704  0.1742
 1943SOL    HW117462   2.954   1.053   6.381 -0.9106  1.3241 -0.2126
 1943SOL    HW217463   2.954   0.969   6.509 -0.0497  0.2480  0.3253
 1944SOL     OW17464   0.075   2.277   4.061  0.1299  0.4607 -0.0826
 1944SOL    HW117465   0.102   2.194   4.021 -1.8498 -1.2617  2.2127
 1944SOL    HW217466   0.156   2.303   4.106  0.2161 -3.1947  1.8180
 1945SOL     OW17467   0.161   2.889   6.961  0.3951 -0.3034  0.3135
 1945SOL    HW117468   0.179   2.876   6.868 -0.9424  0.9619 -0.1396
 1945SOL    HW217469   0.083   2.833   6.959  1.8263 -2.4216  5.2503
 1946SOL     OW17470   3.609   3.332   7.951  1.0316 -0.0252  0.0248
 1946SOL    HW117471   3.518   3.340   7.979  1.6968 -2.8066  2.9618
 1946SOL    HW217472   3.643   3.389   8.021  0.1924  0.9097 -0.3277
 1947SOL     OW17473   2.442   3.875  16.528 -0.0299  0.0843 -0.3157
 1947SOL    HW117474   2.506   3.879  16.457 -0.1809  0.5678 -0.4217
 1947SOL    HW217475   2.455   3.784  16.554 -0.5356 -0.1565 -0.9036
 1948SOL     OW17476   3.590   4.577  17.309  0.4215  0.2238  0.0370
 1948SOL    HW117477   3.511   4.527  17.330 -0.3442  1.4657  0.0994
 1948SOL    HW217478   3.633   4.585  17.394  1.6473  0.9781 -0.6614
 1949SOL     OW17479   1.974   1.053   8.594 -0.1290  0.5086 -0.7104
 1949SOL    HW117480   1.929   1.011   8.667  0.4925 -0.3421 -0.8047
 1949SOL    HW217481   2.016   0.977   8.553 -2.1033 -1.6475  1.3109
 1950SOL     OW17482   4.015   1.351   6.702  0.2195  0.2505 -0.4148
 1950SOL    HW117483   4.016   1.266   6.660  2.3585  0.1797 -0.2453
 1950SOL    HW217484   3.984   1.400   6.626  0.7631  1.5438  0.1749
 1951SOL     OW17485   2.864   0.847   4.975  0.6957  0.0695  0.2310
 1951SOL    HW117486   2.838   0.770   4.926  0.9609  1.5578 -2.2636
 1951SOL    HW217487   2.783   0.872   5.019  0.3217  0.1155 -0.4717
 1952SOL     OW17488   1.264   3.944   8.905  0.5637 -0.5173  0.2474
 1952SOL    HW117489   1.183   3.901   8.880  0.1157  1.0634 -1.0518
 1952SOL    HW217490   1.266   4.021   8.848  1.2050  0.4130  1.5376
 1953SOL     OW17491   2.409   0.492   8.247  0.5299  0.0218 -0.0267
 1953SOL    HW117492   2.392   0.573   8.200  0.2948 -0.6151 -1.0470
 1953SOL    HW217493   2.385   0.514   8.337  0.5375 -0.0240 -0.0135
 1954SOL     OW17494   1.768   1.287  10.593 -0.1582  0.2017  0.3201
 1954SOL    HW117495   1.813   1.209  10.561 -0.2953  1.7132 -3.5633
 1954SOL    HW217496   1.843   1.328  10.634  0.8447 -0.9639 -0.3517
 1955SOL     OW17497   0.071   2.008   3.955 -0.1746 -0.2489  0.0898
 1955SOL    HW117498   0.158   1.981   3.985 -1.1155 -1.5580  1.6555
 1955SOL    HW217499   0.096   2.015   3.863 -1.2797 -0.8786 -0.2680
 1956SOL     OW17500   1.953   4.118   8.441 -0.2664  0.0715  0.2910
 1956SOL    HW117501   2.028   4.063   8.417 -1.8709 -0.8603 -2.5305
 1956SOL    HW217502   2.005   4.180   8.493 -1.1551  0.1543  1.0920
 1957SOL     OW17503   4.692   3.568   7.979  0.4352 -0.1702  0.1140
 1957SOL    HW117504   0.004   3.529   8.053  0.0011 -0.3922  0.2631
 1957SOL    HW217505   4.729   3.517   7.906 -1.2342  1.3297 -1.7649
 1958SOL     OW17506   1.012   1.813   1.354  0.1524  0.1835 -0.4332
 1958SOL    HW117507   0.961   1.894   1.360  3.6372  2.2526  1.2077
 1958SOL    HW217508   0.938   1.759   1.326  1.4735 -2.2834  0.8715
 1959SOL     OW17509   1.163   0.187   4.914  0.1979 -0.0215 -0.0347
 1959SOL    HW117510   1.085   0.228   4.952  0.3381 -0.8175  1.1201
 1959SOL    HW217511   1.221   0.227   4.979 -0.7433  1.5261 -0.1436
 1960SOL     OW17512   1.099   2.980   5.562  0.1015 -0.0188 -0.1303
 1960SOL    HW117513   1.194   2.975   5.551  0.4847  4.4524  1.2849
 1960SOL    HW217514   1.069   2.899   5.521 -1.7298  0.6688 -0.1717
 1961SOL     OW17515   0.520   2.536   9.681  0.4268 -0.1607 -0.0378
 1961SOL    HW117516   0.598   2.488   9.653 -0.1330 -1.2717  0.3199
 1961SOL    HW217517   0.551   2.586   9.756  2.9253 -0.1326 -1.1006
 1962SOL     OW17518   0.833   2.635   4.997  0.4215 -0.5390 -0.5698
 1962SOL    HW117519   0.748   2.590   5.001 -0.3474  1.0734  1.2761
 1962SOL    HW217520   0.824   2.711   5.054 -1.5571 -1.9751  1.0266
 1963SOL     OW17521   1.506   2.312   2.781  0.3845  0.0786  0.2200
 1963SOL    HW117522   1.500   2.253   2.706 -4.1666  1.8724 -0.7895
 1963SOL    HW217523   1.512   2.401   2.748  1.7761  0.1813  0.7369
 1964SOL     OW17524   3.621   3.659  15.789  0.2999  0.3173  0.0458
 1964SOL    HW117525   3.619   3.752  15.767  1.3542  0.4918  0.6583
 1964SOL    HW217526   3.712   3.637  15.812  0.4299  0.2945 -0.4872
 1965SOL     OW17527   4.299   1.289   7.235  0.3409  0.3024  0.5930
 1965SOL    HW117528   4.376   1.323   7.280 -0.4946 -0.0428  2.2771
 1965SOL    HW217529   4.281   1.371   7.189  1.7861  1.7471  2.6108
 1966SOL     OW17530   1.250   1.077   7.631 -0.0532  0.0628 -0.7742
 1966SOL    HW117531   1.327   1.125   7.662 -0.8089  0.4752  0.4452
 1966SOL    HW217532   1.295   0.998   7.601 -0.3729 -0.7643  0.9791
 1967SOL     OW17533   4.354   4.487  14.143  0.1161 -0.3310 -0.7334
 1967SOL    HW117534   4.330   4.519  14.230  2.1116  1.0710 -0.7051
 1967SOL    HW217535   4.409   4.411  14.165 -1.4587 -0.6668  1.9542
 1968SOL     OW17536   1.984   3.145   2.303 -0.4768 -0.5513  0.2145
 1968SOL    HW117537   2.016   3.199   2.375 -1.4972 -2.3743  2.0271
 1968SOL    HW217538   2.046   3.167   2.234 -0.5255 -0.9224  0.0552
 1969SOL     OW17539   3.851   2.951   1.751  0.3558  0.4383 -0.4413
 1969SOL    HW117540   3.800   2.948   1.670 -2.0640 -0.8518  1.1674
 1969SOL    HW217541   3.914   3.021   1.730  2.3414 -1.6461 -1.4372
 1970SOL     OW17542   0.337   1.939   4.572 -0.2895  0.1273  0.2340
 1970SOL    HW117543   0.285   2.010   4.536  1.7559  1.2271 -0.5686
 1970SOL    HW217544   0.300   1.869   4.519  0.0288  0.5502 -0.5402
 1971SOL     OW17545   3.671   4.669   2.442  0.4025  0.0489  0.2205
 1971SOL    HW117546   3.670   4.644   2.534 -2.0372  1.2407  0.4971
 1971SOL    HW217547   3.665   0.029   2.454  0.7861  0.3136 -1.6199
 1972SOL     OW17548   4.480   3.135   6.183  0.7211 -0.4526  0.0627
 1972SOL    HW117549   4.509   3.073   6.250 -1.9893  0.1979  1.8495
 1972SOL    HW217550   4.395   3.099   6.158  0.3200 -1.5467  2.9923
 1973SOL     OW17551   2.078   2.474   9.415 -0.0525 -0.5399 -0.0805
 1973SOL    HW117552   2.108   2.412   9.348 -3.1248 -1.5514 -0.4852
 1973SOL    HW217553   2.072   2.414   9.490 -1.3230  1.0696  1.0816
 1974SOL     OW17554   0.233   2.158   7.024 -0.2916 -0.2107  0.2970
 1974SOL    HW117555   0.214   2.072   6.987 -1.5779  0.0553  0.3370
 1974SOL    HW217556   0.143   2.189   7.029 -0.6656 -1.4824  1.3712
 1975SOL     OW17557   4.725   2.345   7.190 -1.2247 -0.2522  0.3813
 1975SOL    HW117558   4.657   2.390   7.240 -2.2751 -1.1918 -0.1970
 1975SOL    HW217559   4.731   2.264   7.240 -0.8049 -1.0798 -1.0229
 1976SOL     OW17560   3.865   3.136  14.460 -0.3941  0.2151 -0.0236
 1976SOL    HW117561   3.958   3.153  14.445  0.1468 -4.2656 -1.8240
 1976SOL    HW217562   3.867   3.044  14.488 -2.1334  0.7132  1.6794
 1977SOL     OW17563   1.523   1.598   4.316  0.5182 -0.1251  0.1499
 1977SOL    HW117564   1.450   1.642   4.358  2.4099 -0.7585  4.1357
 1977SOL    HW217565   1.592   1.664   4.318  0.5728 -0.2527  2.0479
 1978SOL     OW17566   1.520   2.622   3.296  0.1365  0.1958  0.2125
 1978SOL    HW117567   1.526   2.560   3.223 -0.4496 -1.3592  1.4802
 1978SOL    HW217568   1.517   2.555   3.365  0.9653  0.6879  0.7321
 1979SOL     OW17569   0.141   1.862   7.431  0.2433 -0.2947  0.5111
 1979SOL    HW117570   0.121   1.795   7.496 -0.4182 -2.0176 -1.4503
 1979SOL    HW217571   0.216   1.912   7.464 -0.4698  0.7966  0.4918
 1980SOL     OW17572   2.974   0.072   2.881 -0.0229 -0.2440  0.1555
 1980SOL    HW117573   2.888   0.032   2.865  0.1265 -0.5113  0.0322
 1980SOL    HW217574   2.947   0.160   2.909  2.6525  0.3904  0.6842
 1981SOL     OW17575   0.226   3.550   2.371  0.7225  0.0119  0.1879
 1981SOL    HW117576   0.134   3.529   2.386  0.8970 -1.3620 -0.6440
 1981SOL    HW217577   0.274   3.469   2.386  2.9510  1.1225 -0.9842
 1982SOL     OW17578   1.880   0.876   5.095 -0.2047  0.0549 -0.5973
 1982SOL    HW117579   1.905   0.820   5.169 -0.6613 -1.5541 -1.6702
 1982SOL    HW217580   1.948   0.943   5.087  0.0595 -0.2272 -0.7115
 1983SOL     OW17581   3.855   2.901  16.119  0.1265  0.2709 -0.1858
 1983SOL    HW117582   3.854   2.988  16.081  0.4249 -0.6179 -2.2072
 1983SOL    HW217583   3.912   2.858  16.055  0.9538  2.8334 -1.1669
 1984SOL     OW17584   2.908   0.638   9.346 -0.0415 -0.5166  0.0865
 1984SOL    HW117585   2.825   0.616   9.387 -0.3793 -1.2905 -0.9918
 1984SOL    HW217586   2.876   0.619   9.257  1.4520  0.6673 -0.7099
 1985SOL     OW17587   2.719   0.664   2.142  0.3362 -0.4727 -0.3705
 1985SOL    HW117588   2.680   0.594   2.194 -2.3074  0.0425 -1.6504
 1985SOL    HW217589   2.692   0.634   2.055  1.6675  1.1945 -1.3572
 1986SOL     OW17590   1.000   2.996   8.239  0.1727  0.1571  0.0148
 1986SOL    HW117591   0.939   3.002   8.312 -0.1226 -0.3462 -0.1911
 1986SOL    HW217592   1.086   3.001   8.282 -0.2426  3.1267  0.4884
 1987SOL     OW17593   3.238   2.927   3.640  0.0497  0.1878 -0.1278
 1987SOL    HW117594   3.228   2.973   3.557  1.1543  0.5651 -0.0531
 1987SOL    HW217595   3.244   3.005   3.695 -0.1908  0.1443 -0.0358
 1988SOL     OW17596   0.365   4.555  15.989  0.1139  0.0410  0.0478
 1988SOL    HW117597   0.357   4.475  16.040  1.4762  0.6918  1.2821
 1988SOL    HW217598   0.431   4.610  16.030  0.2812 -1.3008  1.5359
 1989SOL     OW17599   1.676   0.024   2.174  0.2230 -0.8575  0.0331
 1989SOL    HW117600   1.599   4.724   2.129 -0.1548  0.7692 -0.5493
 1989SOL    HW217601   1.675   0.114   2.141 -1.3574 -0.7836  0.2756
 1990SOL     OW17602   0.246   1.556   5.301  0.6400 -0.1670  0.1344
 1990SOL    HW117603   0.288   1.507   5.230  1.6847 -0.6446  1.0853
 1990SOL    HW217604   0.277   1.506   5.377 -0.2109  1.3034  1.4567
 1991SOL     OW17605   0.602   1.705   8.931 -0.4008 -0.4255  0.0275
 1991SOL    HW117606   0.566   1.794   8.923 -0.1681 -0.4121 -0.8614
 1991SOL    HW217607   0.532   1.663   8.881  1.0826 -1.5612 -1.0671
 1992SOL     OW17608   3.512   2.867   5.952  0.3087  0.0678  0.0485
 1992SOL    HW117609   3.522   2.924   6.029 -0.1927  1.3256 -0.8220
 1992SOL    HW217610   3.519   2.780   5.991 -0.6925 -0.0837 -0.1078
 1993SOL     OW17611   1.724   1.414   7.634  0.2522  0.3339  0.2284
 1993SOL    HW117612   1.633   1.430   7.660 -0.2436 -0.2358 -1.1719
 1993SOL    HW217613   1.737   1.490   7.576  0.8940 -0.7732 -1.0759
 1994SOL     OW17614   3.073   3.187   2.928 -0.1732  0.2302  0.2737
 1994SOL    HW117615   2.997   3.161   2.876  0.1074 -0.4918  0.2301
 1994SOL    HW217616   3.083   3.119   2.994 -0.2749  2.5108  2.6328
 1995SOL     OW17617   2.855   4.108   4.255 -0.0824  0.2539 -0.3746
 1995SOL    HW117618   2.773   4.155   4.273  0.5142  1.6191 -1.2348
 1995SOL    HW217619   2.879   4.147   4.171  1.7729 -1.3592 -0.5748
 1996SOL     OW17620   4.052   0.102   4.185 -0.3214  0.0949  0.4290
 1996SOL    HW117621   4.084   0.012   4.183 -0.2955  0.0885  1.0590
 1996SOL    HW217622   4.088   0.128   4.100 -2.6650  0.4984 -0.4281
 1997SOL     OW17623   4.423   0.855  15.041 -0.3420 -0.4850 -0.4060
 1997SOL    HW117624   4.424   0.874  15.135  1.1329 -1.6277 -0.2041
 1997SOL    HW217625   4.449   0.940  15.005 -2.7167  0.9737  1.3140
 1998SOL     OW17626   0.927   4.632   3.835 -0.0571  0.4551 -0.2734
 1998SOL    HW117627   0.921   4.592   3.922 -1.0213 -1.0564 -1.0223
 1998SOL    HW217628   0.998   4.575   3.807 -1.6893 -1.3706 -0.7381
 1999SOL     OW17629   2.762   3.560   8.940  0.4842  0.3401 -0.0034
 1999SOL    HW117630   2.755   3.465   8.943  1.9094  0.2090 -0.8575
 1999SOL    HW217631   2.782   3.578   8.848 -0.6651  0.2626 -0.2741
 2000SOL     OW17632   0.904   3.618  16.068  0.2466  0.6085 -0.5320
 2000SOL    HW117633   0.923   3.681  16.137 -0.4709  1.7632 -1.3715
 2000SOL    HW217634   0.921   3.660  15.983  0.3172 -0.1608 -0.8962
 2001SOL     OW17635   3.876   3.972   7.293 -0.1944  0.2262  0.2660
 2001SOL    HW117636   3.906   4.061   7.275  1.1128 -0.3110 -0.2642
 2001SOL    HW217637   3.896   3.928   7.210  0.3157 -0.6546  0.8507
 2002SOL     OW17638   1.754   4.005   5.562  0.6426  0.2003 -0.6478
 2002SOL    HW117639   1.758   3.918   5.522  1.3149  0.7910 -1.8732
 2002SOL    HW217640   1.786   3.998   5.652  1.2690 -1.0911 -0.9746
 2003SOL     OW17641   3.009   2.896   5.746  0.5959 -0.2910 -0.4454
 2003SOL    HW117642   3.049   2.811   5.730 -1.6304 -1.4500  0.1117
 2003SOL    HW217643   3.080   2.941   5.791  0.3803 -2.6853  2.2485
 2004SOL     OW17644   4.199   2.090   1.951  0.0286 -0.0919  0.5218
 2004SOL    HW117645   4.168   2.140   2.026  2.5658  0.6521  1.0837
 2004SOL    HW217646   4.139   2.104   1.878  0.7032 -1.2459 -0.2456
 2005SOL     OW17647   0.508   0.563   6.407  0.0443 -0.1684 -0.3364
 2005SOL    HW117648   0.447   0.542   6.336 -1.1303  0.2717  0.5531
 2005SOL    HW217649   0.517   0.472   6.432  0.9441 -0.4664 -1.7091
 2006SOL     OW17650   2.282   0.891   8.312 -0.3378 -0.6372  0.0906
 2006SOL    HW117651   2.207   0.948   8.297  1.4588  1.5659 -0.6724
 2006SOL    HW217652   2.346   0.909   8.243 -1.8731 -0.2420 -1.2267
 2007SOL     OW17653   3.816   3.976  12.892  0.5386  0.5959 -0.2894
 2007SOL    HW117654   3.881   3.935  12.948 -0.2087  1.6715  1.3604
 2007SOL    HW217655   3.868   3.996  12.814 -1.6626  1.7982 -1.4902
 2008SOL     OW17656   3.060   1.007  13.836 -0.6790  0.0410  0.6745
 2008SOL    HW117657   3.008   1.061  13.895  0.9195 -2.4048  4.3801
 2008SOL    HW217658   3.038   0.921  13.873 -2.2089  0.6747  1.1976
 2009SOL     OW17659   1.975   0.494   8.607 -0.5775  0.0913 -0.3579
 2009SOL    HW117660   1.936   0.459   8.687 -3.2589  1.6075 -0.9875
 2009SOL    HW217661   1.894   0.535   8.575 -0.8979  0.6481  1.1537
 2010SOL     OW17662   2.944   1.730  10.630 -0.3300 -0.4054 -0.0093
 2010SOL    HW117663   3.028   1.697  10.598 -0.0411 -0.2340  0.5679
 2010SOL    HW217664   2.933   1.820  10.597  0.3847 -0.6105 -0.8180
 2011SOL     OW17665   2.949   0.775  11.137 -0.8189  0.1837  0.4673
 2011SOL    HW117666   2.924   0.766  11.229 -1.3588  1.9055  0.4991
 2011SOL    HW217667   2.877   0.830  11.105 -2.1668 -4.3300 -4.1967
 2012SOL     OW17668   0.805   3.570   7.907 -0.1116 -0.2879 -0.3558
 2012SOL    HW117669   0.758   3.544   7.986  1.7438  0.9977  1.1725
 2012SOL    HW217670   0.739   3.615   7.854  1.1472 -1.1376 -2.6450
 2013SOL     OW17671   3.341   1.897   6.385 -0.4489 -0.5293  0.1625
 2013SOL    HW117672   3.262   1.859   6.424  0.4160  0.0836  2.5368
 2013SOL    HW217673   3.383   1.818   6.351 -0.8243  0.4080 -2.4337
 2014SOL     OW17674   2.507   4.378   9.372  0.3623  0.4435 -0.2392
 2014SOL    HW117675   2.538   4.287   9.375  2.6638  1.2013 -0.7109
 2014SOL    HW217676   2.590   4.415   9.344 -0.4222  0.7164 -2.1468
 2015SOL     OW17677   1.910   3.800   8.742  0.2645  0.0061 -0.1543
 2015SOL    HW117678   1.888   3.739   8.672  0.6868  0.8565 -1.0250
 2015SOL    HW217679   1.852   3.875   8.729 -0.2502 -0.3447  0.1232
 2016SOL     OW17680   0.471   0.274   1.545  0.8886 -0.7821  0.3479
 2016SOL    HW117681   0.522   0.212   1.492  0.3646 -1.3593  0.5149
 2016SOL    HW217682   0.424   0.205   1.592 -1.6345  1.9936  1.8769
 2017SOL     OW17683   2.715   4.084   7.822  0.2140  0.6999  0.3929
 2017SOL    HW117684   2.735   4.038   7.904 -0.4298 -1.6150 -0.7524
 2017SOL    HW217685   2.621   4.104   7.827  0.0576  0.2372 -0.7915
 2018SOL     OW17686   4.699   1.451   3.958 -0.3660 -0.2474 -0.5520
 2018SOL    HW117687   4.716   1.545   3.962 -3.1570  0.2673 -0.5686
 2018SOL    HW217688   4.607   1.454   3.933 -0.2093 -1.8320 -1.3015
 2019SOL     OW17689   0.479   3.740   9.691 -0.3676  0.4051  0.0774
 2019SOL    HW117690   0.435   3.675   9.746 -1.8316 -1.1244 -2.8886
 2019SOL    HW217691   0.555   3.765   9.743  0.0587  0.0976 -0.3942
 2020SOL     OW17692   1.066   0.895  16.423  0.0963 -0.1710  0.4738
 2020SOL    HW117693   1.016   0.888  16.341  0.4590  1.0304  0.1549
 2020SOL    HW217694   1.030   0.978  16.454  0.0671 -0.4313  1.1373
 2021SOL     OW17695   0.903   4.556   9.685  0.5236  0.6252  0.5437
 2021SOL    HW117696   0.896   4.635   9.738  1.9632  0.8279  0.4423
 2021SOL    HW217697   0.924   4.487   9.748 -3.1090  1.5684  2.7556
 2022SOL     OW17698   1.572   3.266   1.146 -0.0556 -0.1701 -0.3830
 2022SOL    HW117699   1.510   3.339   1.141  0.3509  0.1623 -0.5476
 2022SOL    HW217700   1.655   3.310   1.128  1.1667 -2.0010  0.8250
 2023SOL     OW17701   2.911   0.135   8.904  0.1852 -0.5165 -0.4292
 2023SOL    HW117702   2.944   0.092   8.825  0.5897  2.1043 -1.7032
 2023SOL    HW217703   2.879   0.062   8.956  0.6922 -0.4938 -0.0926
 2024SOL     OW17704   3.254   2.117  12.530 -0.2996 -0.3058 -0.5417
 2024SOL    HW117705   3.160   2.137  12.527 -0.4807 -1.0907 -0.0129
 2024SOL    HW217706   3.248   2.048  12.595 -0.6856  0.6575  0.4462
 2025SOL     OW17707   0.825   1.743  16.000  0.7154 -0.3574  0.1532
 2025SOL    HW117708   0.843   1.813  16.063  1.5932 -1.8175  1.5345
 2025SOL    HW217709   0.903   1.752  15.945  0.2504  0.8683 -0.2971
 2026SOL     OW17710   3.255   4.064   8.012 -0.1899 -0.1403  0.1586
 2026SOL    HW117711   3.285   4.019   8.091 -0.1117 -0.3133  0.0313
 2026SOL    HW217712   3.298   4.016   7.941  0.5348  0.1571  0.4005
 2027SOL     OW17713   3.474   0.177   6.355  0.4676  0.0579  0.1000
 2027SOL    HW117714   3.493   0.095   6.400 -0.8726 -0.2667  0.0763
 2027SOL    HW217715   3.492   0.245   6.421 -1.1182 -1.6980  2.3361
 2028SOL     OW17716   1.333   4.079   0.356 -0.2350 -0.1473  0.2875
 2028SOL    HW117717   1.271   4.151   0.353  1.8284  1.6445  1.1518
 2028SOL    HW217718   1.397   4.112   0.418 -1.0646  1.5869  0.2262
 2029SOL     OW17719   2.504   2.101  10.569  0.3497 -0.5253  0.6214
 2029SOL    HW117720   2.431   2.039  10.564 -0.8290  1.1734 -2.8061
 2029SOL    HW217721   2.569   2.033  10.586  0.2545 -0.2833  1.9496
 2030SOL     OW17722   1.342   0.007   7.075 -0.1333  0.6020 -0.0784
 2030SOL    HW117723   1.414   4.680   7.088 -0.9741 -1.2255 -4.1642
 2030SOL    HW217724   1.271   4.680   7.051 -0.8459  1.5991 -0.5258
 2031SOL     OW17725   3.721   2.369   6.694 -0.0550  0.1318 -0.0114
 2031SOL    HW117726   3.660   2.383   6.767  0.8288 -0.1190  0.7814
 2031SOL    HW217727   3.748   2.280   6.715  0.0502 -0.0295 -0.8398
 2032SOL     OW17728   0.555   1.331   4.743 -0.1956  0.1225  0.4545
 2032SOL    HW117729   0.597   1.308   4.660 -1.9764  1.3267 -0.7546
 2032SOL    HW217730   0.587   1.251   4.787  0.6821 -0.8492 -1.9217
 2033SOL     OW17731   2.017   0.612   9.760  0.4882 -0.6181  0.1200
 2033SOL    HW117732   1.963   0.557   9.703  0.9477 -1.1742  0.2229
 2033SOL    HW217733   2.060   0.541   9.808 -1.2385  0.0751  2.7037
 2034SOL     OW17734   2.158   3.673   8.130 -0.6540  0.0390  0.5007
 2034SOL    HW117735   2.089   3.711   8.183 -1.3983  0.9846 -1.1341
 2034SOL    HW217736   2.159   3.731   8.054  0.2211 -2.0651 -1.0953
 2035SOL     OW17737   1.807   2.749   7.995 -0.2062 -0.4538  0.1844
 2035SOL    HW117738   1.781   2.685   7.929  0.1619  0.7536 -1.1309
 2035SOL    HW217739   1.884   2.707   8.033 -1.1642 -1.7288  0.6848
 2036SOL     OW17740   3.147   4.521   4.438 -0.2808 -0.3303  0.4861
 2036SOL    HW117741   3.202   4.485   4.368 -1.7514 -0.7570 -0.4526
 2036SOL    HW217742   3.099   4.590   4.392 -0.5939 -0.5635  0.4584
 2037SOL     OW17743   0.830   0.044   4.150  0.2661 -0.1730 -0.0918
 2037SOL    HW117744   0.741   0.034   4.117  0.6916 -2.3960 -0.5824
 2037SOL    HW217745   0.873   0.093   4.080 -0.6045  0.1917 -0.3610
 2038SOL     OW17746   4.542   4.059   8.896 -0.3368 -0.3434  0.4288
 2038SOL    HW117747   4.583   4.102   8.821  1.6549 -2.7257  0.1418
 2038SOL    HW217748   4.543   4.130   8.960  0.9047  0.2513 -0.2427
 2039SOL     OW17749   2.458   3.234  13.104  0.4087  0.2072  0.1834
 2039SOL    HW117750   2.445   3.174  13.031 -0.5425 -0.0978  0.6090
 2039SOL    HW217751   2.488   3.176  13.174 -0.1909  0.8229  0.9453
 2040SOL     OW17752   0.759   4.201   2.688  0.3554  0.4784 -0.1128
 2040SOL    HW117753   0.695   4.186   2.619  0.2311 -1.1073  0.3530
 2040SOL    HW217754   0.711   4.182   2.769  0.7701  0.3564  0.1024
 2041SOL     OW17755   1.761   4.220   3.600  0.6164  0.0256 -0.2219
 2041SOL    HW117756   1.743   4.215   3.507  0.4891  0.3152 -0.2115
 2041SOL    HW217757   1.744   4.312   3.620  0.7773 -0.3334  1.6343
 2042SOL     OW17758   2.484   2.979   4.146 -0.5106 -0.2098 -0.1972
 2042SOL    HW117759   2.565   3.010   4.187 -0.8593  0.5754 -0.0942
 2042SOL    HW217760   2.436   3.062   4.154 -0.5419 -0.2090 -0.3974
 2043SOL     OW17761   2.695   0.046  17.265  0.2544 -0.0788  0.1362
 2043SOL    HW117762   2.612   0.061  17.220  0.1390 -0.1069  0.3415
 2043SOL    HW217763   2.694   0.102  17.343 -2.7930 -1.6471  1.2057
 2044SOL     OW17764   1.874   0.874   9.867 -0.2441 -0.4141 -0.5394
 2044SOL    HW117765   1.819   0.819   9.923  1.4581  0.4365  1.9803
 2044SOL    HW217766   1.913   0.815   9.804  1.9773 -0.1499  0.5760
 2045SOL     OW17767   2.993   2.101   1.013 -0.2425  0.2262 -0.2680
 2045SOL    HW117768   3.072   2.052   1.038  0.3852  1.3062 -0.1076
 2045SOL    HW217769   3.027   2.162   0.947 -1.1180 -0.3809 -1.2857
 2046SOL     OW17770   0.170   2.629   5.986 -0.1733  0.1773  0.1886
 2046SOL    HW117771   0.233   2.700   5.970 -0.6382  0.5856  0.1811
 2046SOL    HW217772   0.131   2.636   5.899 -0.2461  1.6053  0.3316
 2047SOL     OW17773   3.017   1.143   2.693  0.7965 -0.1090 -0.2242
 2047SOL    HW117774   2.947   1.204   2.668  2.0984  1.8828  0.9843
 2047SOL    HW217775   3.096   1.176   2.650 -0.8244  0.7181 -2.5695
 2048SOL     OW17776   1.739   1.780  11.026 -0.2801  0.6324 -0.0713
 2048SOL    HW117777   1.738   1.707  10.963  1.1334 -1.1546  2.0148
 2048SOL    HW217778   1.671   1.761  11.091  1.7764 -2.9276  1.0371
 2049SOL     OW17779   1.140   0.990   8.355  0.1105 -0.3285 -0.3260
 2049SOL    HW117780   1.060   0.976   8.304  0.8795 -1.1122 -1.3225
 2049SOL    HW217781   1.162   0.898   8.371 -0.1114 -0.6691 -1.9912
 2050SOL     OW17782   3.839   4.707   3.262  0.0864 -0.5884  0.1426
 2050SOL    HW117783   3.753   4.734   3.231  0.1684  0.9119  1.1725
 2050SOL    HW217784   3.885   0.058   3.264 -0.9367 -0.0673  1.4960
 2051SOL     OW17785   3.953   1.254   9.204 -0.3828 -0.3643  0.0504
 2051SOL    HW117786   3.960   1.344   9.171  0.5522 -0.8492 -1.0854
 2051SOL    HW217787   3.897   1.268   9.280 -0.0038  1.0454  0.0794
 2052SOL     OW17788   1.444   4.268   2.655 -0.8327  0.0759 -0.4616
 2052SOL    HW117789   1.455   4.312   2.570  0.9316 -1.1037 -0.8638
 2052SOL    HW217790   1.389   4.330   2.702  1.0169  1.5734 -0.2812
 2053SOL     OW17791   1.801   1.534  15.246  0.5201 -0.2155  0.4525
 2053SOL    HW117792   1.831   1.569  15.161 -0.0539 -2.9235 -0.8457
 2053SOL    HW217793   1.856   1.590  15.301  0.9387 -0.0752 -0.1033
 2054SOL     OW17794   1.696   0.009  16.629  0.4460  0.2700 -0.4166
 2054SOL    HW117795   1.707   4.734  16.535 -2.9323  1.7635 -0.9810
 2054SOL    HW217796   1.774   4.699  16.662 -0.5584 -2.1993 -1.3509
 2055SOL     OW17797   3.364   0.709  17.188  0.2914  0.5354 -1.0679
 2055SOL    HW117798   3.423   0.648  17.233 -0.5334  0.3641 -0.2031
 2055SOL    HW217799   3.334   0.750  17.269  1.7770  0.5605 -0.5222
 2056SOL     OW17800   0.171   0.301  14.646  0.0282  0.0796 -0.1189
 2056SOL    HW117801   0.087   0.346  14.635  0.7024  1.3013 -0.2716
 2056SOL    HW217802   0.221   0.342  14.575 -0.2182 -0.1646 -0.4300
 2057SOL     OW17803   2.260   2.280   9.802 -0.3772 -0.2333  0.1616
 2057SOL    HW117804   2.256   2.361   9.852 -0.5447  0.2822 -0.6733
 2057SOL    HW217805   2.250   2.210   9.866 -0.0546  1.0681  1.6246
 2058SOL     OW17806   3.991   0.735  14.517  0.4055  0.3469  0.6013
 2058SOL    HW117807   4.083   0.712  14.524  0.0293 -0.1760  3.8347
 2058SOL    HW217808   3.958   0.659  14.564 -0.6612 -0.9764 -2.2724
 2059SOL     OW17809   3.337   2.522   7.879  0.3180 -0.0039 -0.5035
 2059SOL    HW117810   3.318   2.558   7.793  1.0194 -0.3146 -0.7867
 2059SOL    HW217811   3.304   2.433   7.879  1.0836 -0.2815 -1.3786
 2060SOL     OW17812   0.046   0.911   1.143 -0.0817 -0.5456  0.2026
 2060SOL    HW117813   0.057   0.863   1.224  2.2122  0.1415  0.2870
 2060SOL    HW217814   0.017   0.838   1.088 -0.6552 -1.7400  2.0889
 2061SOL     OW17815   4.196   0.595  14.438 -0.1140 -0.4995 -0.2764
 2061SOL    HW117816   4.219   0.506  14.466 -2.5825 -1.1444 -0.3180
 2061SOL    HW217817   4.249   0.600  14.358 -0.3649 -1.5321 -0.5065
 2062SOL     OW17818   1.731   1.013   5.523 -0.1713 -0.0299  0.2766
 2062SOL    HW117819   1.819   1.044   5.541 -0.2117 -0.9637  2.1313
 2062SOL    HW217820   1.683   1.096   5.522 -0.5978 -0.2256  3.0436
 2063SOL     OW17821   2.383   3.601   9.366  0.5493  0.1421  0.3882
 2063SOL    HW117822   2.399   3.602   9.272 -3.1779 -1.1499 -0.2682
 2063SOL    HW217823   2.332   3.521   9.377  1.4220  0.3420  5.5776
 2064SOL     OW17824   1.428   0.683  13.199 -0.3020 -0.1770  0.9519
 2064SOL    HW117825   1.392   0.747  13.138 -0.5058 -0.4112  0.8256
 2064SOL    HW217826   1.488   0.641  13.138 -0.4925  1.0063 -0.0407
 2065SOL     OW17827   1.063   0.903   1.758 -0.2369 -0.0635 -0.1360
 2065SOL    HW117828   1.104   0.827   1.717  1.1973  0.3717  0.5157
 2065SOL    HW217829   0.992   0.915   1.695 -0.1484 -0.8066 -0.3752
 2066SOL     OW17830   4.083   2.037   2.578  0.2009 -0.6850  0.3506
 2066SOL    HW117831   4.144   2.008   2.510 -0.2691 -2.1388  0.5487
 2066SOL    HW217832   4.020   1.965   2.575 -3.7902  2.8749 -1.7449
 2067SOL     OW17833   4.613   3.210   6.748  0.1938  0.4198 -0.6686
 2067SOL    HW117834   4.563   3.151   6.692  0.4576 -1.0543  0.6523
 2067SOL    HW217835   4.634   3.295   6.709 -0.6089 -0.0167 -2.0228
 2068SOL     OW17836   1.008   2.869   2.388 -0.5955 -0.8875 -0.4197
 2068SOL    HW117837   0.945   2.814   2.341 -0.1065 -0.3509 -1.7227
 2068SOL    HW217838   1.019   2.923   2.310 -0.6979 -0.9443 -0.4739
 2069SOL     OW17839   0.478   1.108   8.896 -0.0957 -0.3045  0.5296
 2069SOL    HW117840   0.421   1.069   8.962  0.8932 -0.7506  1.1203
 2069SOL    HW217841   0.506   1.025   8.856  2.3926  1.1809 -0.8066
 2070SOL     OW17842   1.513   4.116  17.143 -0.1172 -0.2080 -0.4237
 2070SOL    HW117843   1.489   4.043  17.086  4.1964 -2.1121  0.2130
 2070SOL    HW217844   1.424   4.148  17.156 -0.1598 -0.2487 -0.6065
 2071SOL     OW17845   0.685   3.710   2.100  0.1885 -0.3960  0.3468
 2071SOL    HW117846   0.649   3.697   2.188 -0.8390  0.0537 -0.0030
 2071SOL    HW217847   0.710   3.622   2.073  2.3632  0.9730 -2.1412
 2072SOL     OW17848   1.150   2.729   9.734  0.0699  0.3363 -0.0390
 2072SOL    HW117849   1.181   2.642   9.709  0.7822  0.4179  0.5554
 2072SOL    HW217850   1.226   2.785   9.720  0.7878 -0.6358 -0.0610
 2073SOL     OW17851   4.436   2.559   7.487  0.2720  0.0105  0.0105
 2073SOL    HW117852   4.365   2.621   7.469 -0.9130 -0.8553  1.7169
 2073SOL    HW217853   4.417   2.523   7.574 -4.5032  1.6436 -0.3568
 2074SOL     OW17854   0.733   2.395   3.986 -0.4488  0.1195 -0.5670
 2074SOL    HW117855   0.817   2.432   3.959 -0.9128  0.8998 -0.9414
 2074SOL    HW217856   0.676   2.440   3.923 -2.5611 -1.0833  0.4739
 2075SOL     OW17857   1.051   3.510   2.575  0.2507 -0.1971  0.3754
 2075SOL    HW117858   1.088   3.532   2.661  0.3856 -0.2104  0.3198
 2075SOL    HW217859   0.986   3.579   2.559  0.2726 -0.5367 -1.1490
 2076SOL     OW17860   2.032   3.336  13.682  0.3895  0.2393  0.3832
 2076SOL    HW117861   2.071   3.416  13.647  0.0490  0.7419  1.1682
 2076SOL    HW217862   1.996   3.293  13.604  0.0669 -0.1884  0.7664
 2077SOL     OW17863   2.179   3.936   8.472  0.1722  0.3778  0.1592
 2077SOL    HW117864   2.245   3.963   8.536 -1.3338  1.6756  1.1452
 2077SOL    HW217865   2.226   3.897   8.398 -1.3804  0.2712 -0.7589
 2078SOL     OW17866   0.933   2.706   4.671 -0.2158  0.5884  0.4801
 2078SOL    HW117867   0.920   2.706   4.576  2.3899 -1.0722  0.1437
 2078SOL    HW217868   0.885   2.625   4.688 -0.1888  0.4321 -0.1741
 2079SOL     OW17869   3.535   0.265  11.699  0.2472  0.2519 -0.5134
 2079SOL    HW117870   3.531   0.231  11.610  2.1125 -0.6471 -0.2627
 2079SOL    HW217871   3.495   0.190  11.744  0.5874  0.9624  0.9801
 2080SOL     OW17872   4.360   4.099   8.050  1.0163 -0.1527  0.1112
 2080SOL    HW117873   4.268   4.075   8.054  0.7990  0.7800  0.5586
 2080SOL    HW217874   4.381   4.108   8.143 -0.2415  0.2042  0.3546
 2081SOL     OW17875   1.885   4.061  14.247 -0.1311  0.6122  0.3064
 2081SOL    HW117876   1.918   4.115  14.319 -0.0298  0.8620  0.0732
 2081SOL    HW217877   1.971   4.027  14.222  0.0325  0.4495  1.0832
 2082SOL     OW17878   2.541   1.668   7.045 -0.1058 -0.3324  0.6038
 2082SOL    HW117879   2.582   1.751   7.070 -0.9726  0.6876 -1.3750
 2082SOL    HW217880   2.537   1.676   6.950  0.7845  0.7548  0.6601
 2083SOL     OW17881   1.976   0.509  10.226 -0.4319  0.1641  0.8134
 2083SOL    HW117882   2.058   0.553  10.204 -1.4120  1.4864 -0.1454
 2083SOL    HW217883   2.003   0.484  10.314  0.6128 -2.0140 -0.1231
 2084SOL     OW17884   2.058   0.723  11.949 -0.0448 -0.5988 -0.2190
 2084SOL    HW117885   2.148   0.726  11.916 -0.3609  0.1607 -1.0312
 2084SOL    HW217886   2.061   0.643  12.001 -3.2751 -0.2853  0.5030
 2085SOL     OW17887   0.751   4.640  11.313  0.3392 -0.1341 -0.1534
 2085SOL    HW117888   0.752   4.647  11.408 -1.7401 -1.2873 -0.0273
 2085SOL    HW217889   0.824   4.697  11.289  0.0131  0.5549  0.5062
 2086SOL     OW17890   0.951   4.281   7.844 -0.4003  0.0541  0.0717
 2086SOL    HW117891   0.915   4.195   7.867  1.3697 -0.4408  0.9819
 2086SOL    HW217892   0.930   4.327   7.925 -4.1415  0.4068 -1.1014
 2087SOL     OW17893   2.673   0.741   7.697  0.4038  0.3194 -0.2693
 2087SOL    HW117894   2.734   0.730   7.624 -0.0993  0.8086 -0.7657
 2087SOL    HW217895   2.686   0.656   7.740 -0.0658  0.9401  1.0756
 2088SOL     OW17896   3.223   2.330  10.720  0.3417  0.0601  0.4195
 2088SOL    HW117897   3.292   2.321  10.654 -1.6653 -2.5707 -1.3209
 2088SOL    HW217898   3.275   2.321  10.800  0.2985 -0.8829  0.3470
 2089SOL     OW17899   0.754   3.249   8.295  0.1487 -0.0740  0.2743
 2089SOL    HW117900   0.733   3.156   8.298 -0.2423 -0.0170 -0.9978
 2089SOL    HW217901   0.831   3.256   8.352  0.1546 -1.1711  0.4030
 2090SOL     OW17902   4.480   3.373  13.967  0.3433 -0.0253  0.5460
 2090SOL    HW117903   4.387   3.353  13.968  0.1290  1.0332  1.6114
 2090SOL    HW217904   4.482   3.469  13.959  1.4318 -0.0375  0.5790
 2091SOL     OW17905   0.503   2.678   7.642  0.3518  0.4975  0.1101
 2091SOL    HW117906   0.460   2.735   7.707 -2.5646  0.2912 -1.6270
 2091SOL    HW217907   0.438   2.662   7.574  0.4292 -1.6361  0.5594
 2092SOL     OW17908   1.959   2.104   7.935 -0.1128 -0.3996 -0.2375
 2092SOL    HW117909   1.924   2.193   7.939  2.4056  0.6226 -0.7623
 2092SOL    HW217910   1.880   2.051   7.942 -0.5699 -0.1093 -2.9689
 2093SOL     OW17911   3.312   3.650   5.670  0.4833  0.0876  0.0671
 2093SOL    HW117912   3.346   3.590   5.736  1.8650  0.6868 -0.1024
 2093SOL    HW217913   3.234   3.691   5.707  0.4618 -0.4241  0.5904
 2094SOL     OW17914   1.358   3.524   4.616 -0.7312 -0.1316  0.0434
 2094SOL    HW117915   1.336   3.565   4.532  0.3014  0.2215 -0.0536
 2094SOL    HW217916   1.451   3.503   4.614 -0.5562  0.5041  1.8942
 2095SOL     OW17917   2.138   3.853   5.620 -0.6449 -0.7833  0.4814
 2095SOL    HW117918   2.137   3.757   5.628  0.7377 -1.0820 -2.5370
 2095SOL    HW217919   2.078   3.876   5.549 -0.1748  0.1337  0.3848
 2096SOL     OW17920   2.302   1.771   9.357  0.7409 -0.0152  0.0493
 2096SOL    HW117921   2.291   1.707   9.287  3.1417 -0.1240 -0.2173
 2096SOL    HW217922   2.332   1.853   9.317  2.9344 -0.6624  0.3917
 2097SOL     OW17923   0.129   2.338  17.253  0.0065  0.0047  0.1055
 2097SOL    HW117924   0.093   2.406  17.196  1.4302  0.7216  0.0576
 2097SOL    HW217925   0.221   2.344  17.229  0.0878  1.1957  0.7016
 2098SOL     OW17926   3.214   3.487  10.550  0.0273  0.0331 -0.8719
 2098SOL    HW117927   3.264   3.431  10.609  0.3338  1.8624  0.6156
 2098SOL    HW217928   3.271   3.482  10.473 -0.0102  0.3735 -0.9238
 2099SOL     OW17929   2.712   0.295  10.407 -0.0829  0.1851  0.0601
 2099SOL    HW117930   2.655   0.340  10.345  2.2450  0.6834 -1.7448
 2099SOL    HW217931   2.679   0.209  10.381  1.6278  0.0403 -1.6925
 2100SOL     OW17932   2.782   1.206   7.275 -0.4165  0.6016 -0.2955
 2100SOL    HW117933   2.812   1.181   7.362 -0.2290  2.4182  0.1651
 2100SOL    HW217934   2.783   1.301   7.280  0.5844  0.4548  2.1097
 2101SOL     OW17935   0.263   0.152   4.753  0.4552 -0.0675 -0.7165
 2101SOL    HW117936   0.229   0.085   4.694 -1.2430  0.4646 -0.3332
 2101SOL    HW217937   0.298   0.099   4.825 -0.7335 -0.5754 -0.5066
 2102SOL     OW17938   4.595   2.630   2.412  0.4281  0.4487  0.2879
 2102SOL    HW117939   4.688   2.641   2.430  0.4540 -1.6826  1.3938
 2102SOL    HW217940   4.596   2.552   2.357 -1.5327  0.2364  0.5613
 2103SOL     OW17941   2.999   0.193   7.908 -0.0822  0.1918 -0.3267
 2103SOL    HW117942   3.086   0.231   7.900 -0.9677  2.4251  0.7092
 2103SOL    HW217943   2.956   0.269   7.949 -0.4372 -0.2843  0.1789
 2104SOL     OW17944   2.300   1.473  14.440  0.5760  0.0965 -1.0094
 2104SOL    HW117945   2.334   1.562  14.431 -0.6882  0.5800 -0.9733
 2104SOL    HW217946   2.227   1.491  14.499  1.7212 -0.5353  0.6111
 2105SOL     OW17947   0.864   4.225   3.954  0.8064 -0.3090  0.3278
 2105SOL    HW117948   0.825   4.250   3.870  0.7715 -1.1814  0.0860
 2105SOL    HW217949   0.952   4.209   3.920 -0.2345 -2.1377 -1.4530
 2106SOL     OW17950   4.640   1.618  12.170 -0.5990 -0.1255 -0.3163
 2106SOL    HW117951   4.724   1.578  12.149 -1.2236 -1.5902 -0.0042
 2106SOL    HW217952   4.576   1.565  12.123 -2.7959  0.0824  2.4300
 2107SOL     OW17953   0.110   2.551  17.469  0.1283 -0.2685  1.0587
 2107SOL    HW117954   0.053   2.557  17.545 -1.5692  0.3635 -0.2522
 2107SOL    HW217955   0.105   2.461  17.436  1.1475 -0.1057  0.4390
 2108SOL     OW17956   1.022   2.666  11.931 -0.0316 -0.6548  0.3038
 2108SOL    HW117957   1.054   2.600  11.993  1.1283 -1.0268 -0.7042
 2108SOL    HW217958   1.017   2.743  11.989  2.3845 -0.7685  0.6745
 2109SOL     OW17959   2.346   0.579   2.112 -0.0519  0.1417 -0.1493
 2109SOL    HW117960   2.405   0.513   2.150 -0.6998 -0.9449 -1.0206
 2109SOL    HW217961   2.335   0.529   2.031  1.7045  0.0528 -0.3163
 2110SOL     OW17962   2.645   4.105  16.924 -0.5320 -0.6258 -0.1898
 2110SOL    HW117963   2.716   4.168  16.930 -1.2106 -0.2316  3.8481
 2110SOL    HW217964   2.585   4.167  16.881 -0.4135 -0.9847 -0.8677
 2111SOL     OW17965   3.877   1.264   3.885 -0.1349  0.4455  0.1834
 2111SOL    HW117966   3.850   1.348   3.848  0.3194 -1.0416 -3.5164
 2111SOL    HW217967   3.796   1.231   3.924  0.5582 -2.2127 -0.6194
 2112SOL     OW17968   0.446   0.798   7.572 -0.0923 -0.0329 -0.0173
 2112SOL    HW117969   0.432   0.713   7.612  4.3214 -0.8775 -0.2636
 2112SOL    HW217970   0.494   0.765   7.496 -0.3699  1.3192 -0.7941
 2113SOL     OW17971   2.192   3.213   2.144 -0.7593 -0.5668  0.3804
 2113SOL    HW117972   2.276   3.175   2.120  1.5045  3.4251  2.0096
 2113SOL    HW217973   2.204   3.305   2.169  0.8133 -0.6024 -0.2738
 2114SOL     OW17974   2.523   3.405  11.843  0.0260  0.0324 -0.4842
 2114SOL    HW117975   2.485   3.425  11.757  2.0512 -1.1547 -1.6481
 2114SOL    HW217976   2.537   3.495  11.871 -0.5635  0.1245 -0.4877
 2115SOL     OW17977   4.579   4.146   6.288 -0.2465 -0.0429 -0.0805
 2115SOL    HW117978   4.516   4.185   6.348  0.7180  1.6049 -0.1178
 2115SOL    HW217979   4.538   4.062   6.268  0.3039 -0.0947 -1.0020
 2116SOL     OW17980   1.485   4.638  10.060 -0.5182 -0.2243  0.0875
 2116SOL    HW117981   1.541   4.639  10.137 -1.6931 -0.9352  0.9470
 2116SOL    HW217982   1.422   4.706  10.084 -0.3604 -0.4115  1.0306
 2117SOL     OW17983   2.953   1.737   1.494 -0.2593 -0.3272  0.3333
 2117SOL    HW117984   2.959   1.804   1.563 -1.6082  0.5032 -0.3658
 2117SOL    HW217985   2.947   1.662   1.553  1.5475  0.1999  1.2013
 2118SOL     OW17986   0.542   2.928   7.467  0.6110 -0.2815  0.4068
 2118SOL    HW117987   0.551   2.860   7.534  0.2022 -1.6368 -0.8988
 2118SOL    HW217988   0.625   2.904   7.425 -1.0392 -1.8626 -1.9457
 2119SOL     OW17989   1.119   0.283   2.130  0.2191  0.0533 -0.0675
 2119SOL    HW117990   1.028   0.254   2.129  0.3347 -0.3162  0.1678
 2119SOL    HW217991   1.118   0.320   2.218  0.2128  0.7337 -0.3568
 2120SOL     OW17992   4.583   2.729  16.386 -0.2017  0.0826 -0.3327
 2120SOL    HW117993   4.508   2.732  16.326  0.8008  2.7741 -1.4556
 2120SOL    HW217994   4.640   2.793  16.344 -0.0328  1.0288  1.3213
 2121SOL     OW17995   1.206   3.033   6.619 -0.5448  0.0283 -0.5664
 2121SOL    HW117996   1.274   3.083   6.665 -1.7489  1.2175 -0.0368
 2121SOL    HW217997   1.261   2.958   6.599  1.0235  1.0917 -0.2193
 2122SOL     OW17998   1.339   0.754   4.362  0.1722 -0.1809  0.1656
 2122SOL    HW117999   1.329   0.661   4.379  0.7057 -0.5480 -1.5538
 2122SOL    HW218000   1.268   0.802   4.406  1.8410  1.4039  1.1405
 2123SOL     OW18001   1.656   1.073   9.604 -0.3119 -0.0413  0.3309
 2123SOL    HW118002   1.680   1.152   9.651  1.0470 -0.5871  0.5512
 2123SOL    HW218003   1.648   1.111   9.516  1.6194  0.1829  0.2405
 2124SOL     OW18004   0.105   2.647   4.338  0.8309  1.0242 -0.7171
 2124SOL    HW118005   0.025   2.674   4.292  0.8305 -0.8125 -1.7963
 2124SOL    HW218006   0.099   2.694   4.421  1.7915 -0.2541  0.0708
 2125SOL     OW18007   0.434   1.543   8.814  0.4774  0.5096  0.0585
 2125SOL    HW118008   0.473   1.576   8.733 -0.9573  0.4592 -0.6444
 2125SOL    HW218009   0.503   1.479   8.831  1.2422  1.7968  1.9053
 2126SOL     OW18010   1.741   0.056   6.529 -0.3286 -0.8165 -0.0744
 2126SOL    HW118011   1.787   0.027   6.608  1.9083 -1.0447 -1.4506
 2126SOL    HW218012   1.721   4.706   6.490 -2.6634  0.3681 -1.4311
 2127SOL     OW18013   3.417   1.307   4.986 -0.3756  0.2399 -0.3384
 2127SOL    HW118014   3.349   1.367   5.015 -0.5297  0.4319 -1.0986
 2127SOL    HW218015   3.364   1.269   4.916  0.7730 -1.0883 -0.4889
 2128SOL     OW18016   1.416   1.063  16.742  0.2726 -0.0852  0.0342
 2128SOL    HW118017   1.366   0.998  16.692  1.0868 -1.3590  0.8600
 2128SOL    HW218018   1.352   1.115  16.791 -1.6110 -1.5716 -0.8513
 2129SOL     OW18019   4.388   3.014  11.465  0.7924 -0.1275 -0.9139
 2129SOL    HW118020   4.451   2.978  11.527 -0.5700 -2.0815 -0.6865
 2129SOL    HW218021   4.300   2.989  11.493  1.3096 -1.3216 -0.3824
 2130SOL     OW18022   0.657   2.346   9.103 -0.6133  0.1665 -0.7083
 2130SOL    HW118023   0.578   2.296   9.087 -1.2640  0.8484  0.3916
 2130SOL    HW218024   0.624   2.378   9.187 -1.2741 -0.8631 -0.5800
 2131SOL     OW18025   0.411   0.713   3.798 -0.4889 -0.1103 -0.2873
 2131SOL    HW118026   0.413   0.623   3.832  1.4799 -0.1728 -0.5464
 2131SOL    HW218027   0.343   0.759   3.848  0.4934  1.2938 -0.2488
 2132SOL     OW18028   2.466   0.628   0.254 -0.0977  0.3967  0.1197
 2132SOL    HW118029   2.546   0.591   0.292 -0.6289 -0.1674  0.6899
 2132SOL    HW218030   2.456   0.711   0.301 -2.0935 -0.1613  0.6423
 2133SOL     OW18031   0.840   0.984   7.562 -1.0805 -0.2108 -0.4015
 2133SOL    HW118032   0.893   1.057   7.531  0.9074 -1.1617  0.7918
 2133SOL    HW218033   0.906   0.916   7.548 -1.0030 -0.5489  1.6355
 2134SOL     OW18034   0.089   1.584   9.483 -0.1087 -0.6223  0.4376
 2134SOL    HW118035   0.172   1.538   9.476  2.7120  4.3463  1.7229
 2134SOL    HW218036   0.041   1.518   9.534  1.6718 -1.7053  0.7176
 2135SOL     OW18037   2.688   2.291  12.313  0.5775 -0.2214  0.3430
 2135SOL    HW118038   2.758   2.256  12.368  0.9050  1.0172  0.6917
 2135SOL    HW218039   2.739   2.304  12.233  3.0998 -4.3017  1.2486
 2136SOL     OW18040   2.561   0.542  16.740 -0.5597  0.3992 -0.0815
 2136SOL    HW118041   2.563   0.624  16.788  1.0368  0.2692  0.0952
 2136SOL    HW218042   2.651   0.544  16.707 -0.2503  0.5023  0.7685
 2137SOL     OW18043   1.500   0.378  10.187 -0.2106  0.1605 -0.0297
 2137SOL    HW118044   1.516   0.374  10.093  0.9586 -0.9045  0.2267
 2137SOL    HW218045   1.545   0.297  10.212  1.4674  1.3327  0.7559
 2138SOL     OW18046   2.736   1.186   8.048  0.4609 -0.0732 -0.6227
 2138SOL    HW118047   2.694   1.175   8.133  0.6952 -2.5850 -0.8180
 2138SOL    HW218048   2.662   1.181   7.987 -1.6228  0.7553  1.8585
 2139SOL     OW18049   1.812   2.809   7.636  0.2036  0.1707  0.0797
 2139SOL    HW118050   1.782   2.741   7.696  0.9973 -0.5298 -0.3221
 2139SOL    HW218051   1.903   2.820   7.663  0.0234 -1.0117  1.1676
 2140SOL     OW18052   0.149   3.033   2.240 -0.1689  1.1142 -0.1397
 2140SOL    HW118053   0.213   3.104   2.236 -1.5205  2.3290  0.2393
 2140SOL    HW218054   0.080   3.076   2.190 -2.0155  0.8367  2.2240
 2141SOL     OW18055   0.202   3.897  13.700 -0.5455  0.0808  0.1379
 2141SOL    HW118056   0.194   3.836  13.627 -2.8828  0.2668  0.2391
 2141SOL    HW218057   0.112   3.897  13.733 -0.1481 -1.6566  1.2094
 2142SOL     OW18058   3.642   2.482  10.714 -0.6896  0.5459 -0.3538
 2142SOL    HW118059   3.598   2.554  10.669  0.5884  0.9047 -1.0360
 2142SOL    HW218060   3.734   2.507  10.705 -0.7551  0.8255 -0.2543
 2143SOL     OW18061   0.763   2.670   5.691 -0.4524 -0.5009 -0.5151
 2143SOL    HW118062   0.801   2.648   5.606  0.7044 -0.1080 -0.0950
 2143SOL    HW218063   0.771   2.766   5.683  1.0497 -0.8225 -2.7780
 2144SOL     OW18064   1.963   4.581   9.145  0.2224  0.2931  0.7147
 2144SOL    HW118065   2.018   4.536   9.210 -0.4054  0.9420  1.6935
 2144SOL    HW218066   1.983   4.530   9.066 -2.7237  0.0001  0.1672
 2145SOL     OW18067   1.530   0.364   9.893  0.0413 -0.1656  0.0459
 2145SOL    HW118068   1.496   0.295   9.836  2.3495 -0.7715 -0.5852
 2145SOL    HW218069   1.606   0.395   9.844 -0.5077 -1.5117 -1.6452
 2146SOL     OW18070   2.216   4.652  14.676  0.1708  0.1508 -0.0190
 2146SOL    HW118071   2.143   4.597  14.649 -0.9590  0.2335  2.7831
 2146SOL    HW218072   2.194   4.733  14.631  3.4660  1.3325  0.5193
 2147SOL     OW18073   1.017   1.818   4.032  0.3133 -0.0198  0.4561
 2147SOL    HW118074   1.085   1.818   4.100  0.9280  0.0092 -0.1669
 2147SOL    HW218075   1.050   1.743   3.982  1.9815  0.4213  0.8799
 2148SOL     OW18076   4.387   0.342   3.283 -0.2604 -0.3482 -0.2775
 2148SOL    HW118077   4.379   0.370   3.374  0.6848  0.6618 -0.5056
 2148SOL    HW218078   4.455   0.405   3.257 -0.3558  0.1433  0.6464
 2149SOL     OW18079   0.541   4.695   4.594 -0.5990  0.2507 -0.4547
 2149SOL    HW118080   0.451   4.664   4.601 -0.5205  0.0437 -0.3793
 2149SOL    HW218081   0.581   4.612   4.620 -3.1763 -0.7171  0.3825
 2150SOL     OW18082   0.034   4.650   8.278 -0.2032 -0.0808 -0.3577
 2150SOL    HW118083   0.083   4.569   8.293  0.4782  0.6988  1.5783
 2150SOL    HW218084   0.081   4.704   8.340 -2.2912  1.5670 -0.2005
 2151SOL     OW18085   4.552   3.213   7.757 -0.7489  0.0433  0.4787
 2151SOL    HW118086   4.517   3.245   7.674 -2.2357 -1.5505  0.4874
 2151SOL    HW218087   4.646   3.226   7.746 -1.1317  0.2429 -2.4598
 2152SOL     OW18088   1.331   3.916   1.296 -0.3261  0.0559  0.6926
 2152SOL    HW118089   1.335   4.012   1.293  1.5368 -0.0553 -0.0286
 2152SOL    HW218090   1.374   3.905   1.381  1.4260  3.7546  0.2848
 2153SOL     OW18091   4.586   3.659   8.705  0.2136 -0.3055 -0.0273
 2153SOL    HW118092   4.504   3.611   8.696  0.0162 -0.4365  2.5221
 2153SOL    HW218093   4.652   3.590   8.705  0.3883 -0.1396 -0.5960
 2154SOL     OW18094   3.770   4.405  11.674  0.2998  0.0548  0.3477
 2154SOL    HW118095   3.821   4.360  11.742  0.9695 -0.8941 -0.7767
 2154SOL    HW218096   3.700   4.437  11.730 -0.7413 -0.3724 -0.7272
 2155SOL     OW18097   2.380   1.373   1.551  0.8383  0.1252 -0.2181
 2155SOL    HW118098   2.395   1.311   1.622  2.1517  0.2947 -0.3535
 2155SOL    HW218099   2.388   1.454   1.600 -1.9361  0.0445  0.3794
 2156SOL     OW18100   0.929   2.639   0.028  0.8569  0.0900  0.2835
 2156SOL    HW118101   0.909   2.557   0.074  0.6250 -0.5499 -0.9534
 2156SOL    HW218102   0.935   2.702   0.100  3.0108 -0.2301  0.3810
 2157SOL     OW18103   3.786   0.675   8.035 -0.3869 -0.3015  0.0294
 2157SOL    HW118104   3.828   0.759   8.018  0.0671 -0.6421 -0.5066
 2157SOL    HW218105   3.734   0.703   8.111 -0.0628  0.7299 -0.1316
 2158SOL     OW18106   3.817   3.321   4.438  0.5601 -0.3202 -0.0860
 2158SOL    HW118107   3.892   3.334   4.380  2.3741  0.9517  2.5189
 2158SOL    HW218108   3.784   3.411   4.447 -0.1330 -0.5731 -0.1141
 2159SOL     OW18109   1.132   4.490   3.700  0.2852 -0.4623  0.4961
 2159SOL    HW118110   1.181   4.572   3.688  3.1451 -2.2624 -0.1822
 2159SOL    HW218111   1.166   4.430   3.633 -0.2457  0.1075 -0.2884
 2160SOL     OW18112   3.151   0.954  17.635  0.4486  0.2827 -0.3352
 2160SOL    HW118113   3.202   1.031  17.609 -2.6893  2.9263  1.4174
 2160SOL    HW218114   3.077   0.993  17.681  0.6920  1.2747 -0.7780
 2161SOL     OW18115   0.103   4.243  10.364  0.0152  0.7262 -0.0796
 2161SOL    HW118116   0.188   4.265  10.328  1.2260 -1.9505  1.1421
 2161SOL    HW218117   0.078   4.167  10.311  0.8503  0.2964  0.1428
 2162SOL     OW18118   0.792   4.482   1.765 -0.5587  0.3675 -0.2141
 2162SOL    HW118119   0.708   4.512   1.731 -0.4765 -1.0463 -1.6461
 2162SOL    HW218120   0.841   4.564   1.762 -1.6635  1.0124 -0.5970
 2163SOL     OW18121   4.603   3.431   6.539  0.7862  0.6650 -0.1824
 2163SOL    HW118122   4.586   3.394   6.452 -1.8261  2.2975 -0.3561
 2163SOL    HW218123   4.690   3.469   6.529  0.5659  0.5298 -2.6230
 2164SOL     OW18124   2.705   0.803  14.649 -0.2635 -0.2882 -0.1110
 2164SOL    HW118125   2.691   0.892  14.682  1.4767  0.1541 -0.5772
 2164SOL    HW218126   2.646   0.761  14.711  0.8696  0.3330  1.3918
 2165SOL     OW18127   2.427   4.134  16.594 -0.6508 -0.2993 -0.1375
 2165SOL    HW118128   2.431   4.040  16.577 -3.7593 -0.6090  0.8613
 2165SOL    HW218129   2.407   4.140  16.687  0.3583 -0.8616  0.1227
 2166SOL     OW18130   3.395   1.239   6.346  0.1765  0.4374 -0.1739
 2166SOL    HW118131   3.351   1.174   6.401  0.0873  0.8078  0.1916
 2166SOL    HW218132   3.481   1.240   6.389 -0.5907  3.7520  1.2674
 2167SOL     OW18133   1.222   0.237   6.956  0.1505 -0.2164 -0.4045
 2167SOL    HW118134   1.149   0.179   6.935  2.4377 -2.8758 -1.1264
 2167SOL    HW218135   1.290   0.179   6.991  1.6306  2.0198  0.4591
 2168SOL     OW18136   4.243   0.955   6.682  0.1051  0.3418 -0.1549
 2168SOL    HW118137   4.229   1.001   6.765 -1.0416  1.1347 -0.7992
 2168SOL    HW218138   4.169   0.994   6.637  0.6163  1.0955 -0.3468
 2169SOL     OW18139   0.255   3.948  10.444 -0.7010 -0.0087  0.0764
 2169SOL    HW118140   0.344   3.917  10.463 -0.4073  1.7802  1.5918
 2169SOL    HW218141   0.195   3.888  10.487  2.0638 -1.6324  1.6713
 2170SOL     OW18142   3.544   3.101   6.429 -0.3123 -0.0493 -0.1238
 2170SOL    HW118143   3.503   3.095   6.343  2.1061  0.6143 -1.3170
 2170SOL    HW218144   3.472   3.069   6.483 -1.3160 -0.2093 -1.5563
 2171SOL     OW18145   2.541   2.179   9.114 -0.1526  0.6042 -0.4213
 2171SOL    HW118146   2.604   2.225   9.059 -0.5189 -0.6651 -1.9208
 2171SOL    HW218147   2.551   2.214   9.202  1.0142 -2.9236  0.8884
 2172SOL     OW18148   1.368   2.021   8.645 -0.4363 -0.2052 -0.4995
 2172SOL    HW118149   1.321   2.021   8.728  2.2054 -0.3476  0.9974
 2172SOL    HW218150   1.341   2.105   8.608 -2.6636  0.0696  1.7910
 2173SOL     OW18151   1.033   4.129   2.665  0.3752  0.0466 -0.2700
 2173SOL    HW118152   0.946   4.169   2.661 -0.0877 -1.0235 -0.9582
 2173SOL    HW218153   1.100   4.190   2.695  0.9284 -0.7912  0.1940
 2174SOL     OW18154   3.461   0.048  11.839  0.8688  0.0556  0.6205
 2174SOL    HW118155   3.413   4.701  11.856  0.1395  0.4107  0.2390
 2174SOL    HW218156   3.526   0.023  11.774  3.2282  0.3080  2.8931
 2175SOL     OW18157   0.220   0.643  12.409  0.8463  0.7062  0.1686
 2175SOL    HW118158   0.136   0.641  12.456  0.4326  2.8728 -0.4946
 2175SOL    HW218159   0.229   0.737  12.393  2.4981  0.5905  0.3943
 2176SOL     OW18160   1.082   2.505  12.883  0.0486  0.3711  0.0249
 2176SOL    HW118161   1.010   2.559  12.851 -0.6071 -1.1545 -1.0625
 2176SOL    HW218162   1.055   2.500  12.975  0.8328  1.7982  0.3482
 2177SOL     OW18163   3.627   2.508   6.391  0.1332  0.3925  0.3086
 2177SOL    HW118164   3.640   2.512   6.485  1.0129  4.4431  0.0125
 2177SOL    HW218165   3.681   2.579   6.357  0.5988 -0.3673 -0.5400
 2178SOL     OW18166   1.975   1.717   8.841 -0.5640  0.3424 -0.3357
 2178SOL    HW118167   2.036   1.645   8.824 -1.2669 -0.1170 -0.9206
 2178SOL    HW218168   1.956   1.740   8.750 -3.7605 -2.3008 -0.3647
 2179SOL     OW18169   1.533   4.188   6.824  0.1215  0.0962  0.6228
 2179SOL    HW118170   1.558   4.250   6.755  0.5198 -0.4543  0.2699
 2179SOL    HW218171   1.565   4.222   6.908  1.1772  2.3418 -0.7036
 2180SOL     OW18172   4.473   1.743  13.357  0.3962 -0.0326 -0.2983
 2180SOL    HW118173   4.477   1.714  13.448 -0.8332 -0.7569 -0.4789
 2180SOL    HW218174   4.535   1.686  13.312 -0.8032 -1.7928  0.2950
 2181SOL     OW18175   2.476   4.624  14.472 -0.4688 -0.3755  0.1536
 2181SOL    HW118176   2.453   4.660  14.557  1.0186  1.0638 -0.0513
 2181SOL    HW218177   2.427   4.542  14.470 -0.9180 -0.0752 -1.5238
 2182SOL     OW18178   1.557   2.799  15.064  0.0287  0.1436 -0.0215
 2182SOL    HW118179   1.562   2.892  15.041  2.7266  0.2677  1.0549
 2182SOL    HW218180   1.549   2.813  15.159 -1.1664  0.8987 -0.2303
 2183SOL     OW18181   4.699   4.729   9.552 -0.0419 -0.2540 -0.5727
 2183SOL    HW118182   0.053   0.012   9.519  0.2795  0.8943  0.8980
 2183SOL    HW218183   4.662   0.083   9.563 -1.2386 -0.6783 -1.1861
 2184SOL     OW18184   2.893   0.029   7.575 -0.6221  0.3450 -0.0310
 2184SOL    HW118185   2.985   0.013   7.598 -0.6122 -1.8107 -1.5331
 2184SOL    HW218186   2.846   4.715   7.643 -1.7550 -0.3763 -1.3261
 2185SOL     OW18187   0.114   3.739  17.648  0.5085  0.1145 -0.4312
 2185SOL    HW118188   0.172   3.806  17.613  0.0958  0.3989 -0.5628
 2185SOL    HW218189   0.063   3.792  17.710  2.0106  0.8096  0.2202
 2186SOL     OW18190   2.220   0.271  12.382  0.5075  0.5029  0.9103
 2186SOL    HW118191   2.161   0.344  12.404  1.2733  1.4552 -0.2281
 2186SOL    HW218192   2.302   0.320  12.385  2.1554 -2.1723 -0.5039
 2187SOL     OW18193   0.796   3.114   5.496  0.5764 -0.5544  0.6622
 2187SOL    HW118194   0.733   3.147   5.560  0.7232 -0.8686  0.9701
 2187SOL    HW218195   0.874   3.156   5.531  0.9004 -0.1074 -0.6092
 2188SOL     OW18196   2.222   3.391   5.186  0.1061  0.5155 -0.2705
 2188SOL    HW118197   2.302   3.426   5.225 -0.9874  1.5704  1.0203
 2188SOL    HW218198   2.216   3.438   5.103 -1.6726 -0.3643 -0.6524
 2189SOL     OW18199   2.211   2.605   9.183 -0.2300 -0.3340  0.5756
 2189SOL    HW118200   2.150   2.569   9.119  0.9099  0.2520 -0.8324
 2189SOL    HW218201   2.182   2.564   9.265  1.4151  0.3921  1.5144
 2190SOL     OW18202   1.391   3.473   5.769  0.0988  0.3039  0.1677
 2190SOL    HW118203   1.475   3.515   5.788  0.9744 -1.3154 -0.1801
 2190SOL    HW218204   1.407   3.379   5.777  1.6767  0.5657  0.1006
 2191SOL     OW18205   0.797   4.287   1.976 -0.2533 -0.0980 -0.6791
 2191SOL    HW118206   0.853   4.230   1.923 -1.3146 -1.5725 -0.2227
 2191SOL    HW218207   0.802   4.365   1.921 -0.1759 -0.1066 -0.6846
 2192SOL     OW18208   3.529   4.649   5.378  0.8133 -0.1646  0.0651
 2192SOL    HW118209   3.548   4.691   5.294 -0.6234  0.5115  0.0755
 2192SOL    HW218210   3.507   4.720   5.439  0.9390  0.2603 -0.3912
 2193SOL     OW18211   1.544   4.427  11.817 -0.0657 -0.1512  0.5240
 2193SOL    HW118212   1.500   4.485  11.755  1.4841  0.1170 -0.3259
 2193SOL    HW218213   1.622   4.415  11.763 -0.2962 -1.3781  0.4638
 2194SOL     OW18214   1.640   2.879   4.130 -0.1028 -0.2175 -0.0129
 2194SOL    HW118215   1.594   2.806   4.090  0.0269 -0.2921 -0.0243
 2194SOL    HW218216   1.721   2.835   4.155  0.0219  0.5609  0.9820
 2195SOL     OW18217   0.127   1.599   4.678 -0.1306  0.0548  0.3176
 2195SOL    HW118218   0.121   1.542   4.755 -0.6734 -0.1429  0.1303
 2195SOL    HW218219   0.221   1.600   4.658 -0.6891  0.5386 -2.2509
 2196SOL     OW18220   3.503   2.303   8.787  0.4625 -0.1785  0.0833
 2196SOL    HW118221   3.542   2.224   8.824 -0.0147  0.8079  2.7181
 2196SOL    HW218222   3.499   2.366   8.859  3.1435 -0.0798  0.1731
 2197SOL     OW18223   2.608   2.792   4.423  0.3806  0.1508  0.4221
 2197SOL    HW118224   2.616   2.715   4.480 -0.3581  1.5633  2.4304
 2197SOL    HW218225   2.694   2.791   4.380 -0.3337  0.2868 -0.9967
 2198SOL     OW18226   1.474   0.649  10.655  0.3484 -0.1408 -0.0188
 2198SOL    HW118227   1.412   0.621  10.588  1.9618 -0.8912 -1.2170
 2198SOL    HW218228   1.542   0.694  10.604  1.3936 -0.2616  1.2745
 2199SOL     OW18229   0.680   0.712  16.574  0.5511 -0.2263  0.1178
 2199SOL    HW118230   0.589   0.683  16.562  0.5650 -1.1423  2.1956
 2199SOL    HW218231   0.697   0.709  16.668  1.3650  1.3352  0.0220
 2200SOL     OW18232   3.534   2.882   6.986  0.5719  0.2714 -0.6657
 2200SOL    HW118233   3.622   2.846   6.972 -0.2833 -2.1421  0.3099
 2200SOL    HW218234   3.544   2.972   6.954 -1.4861  0.7668  0.1198
 2201SOL     OW18235   2.686   1.314   6.383 -0.7428 -0.3849  0.2315
 2201SOL    HW118236   2.609   1.301   6.440  0.6540 -0.4810  2.0834
 2201SOL    HW218237   2.749   1.254   6.422  1.0225  1.8857  0.8257
 2202SOL     OW18238   0.144   1.629   5.769  0.4123 -0.0158 -0.1160
 2202SOL    HW118239   0.103   1.598   5.688  2.0808  1.8960 -1.6959
 2202SOL    HW218240   0.218   1.678   5.733  0.0810  0.9169  0.4819
 2203SOL     OW18241   3.314   3.610   1.393 -0.3739 -0.6306  0.0266
 2203SOL    HW118242   3.312   3.519   1.365  0.0803 -0.6852  0.1785
 2203SOL    HW218243   3.242   3.649   1.342  1.7559  2.2028 -0.7903
 2204SOL     OW18244   0.883   2.884   6.356  0.4945  0.2001  0.3482
 2204SOL    HW118245   0.795   2.885   6.318  1.0103  3.7151 -0.6999
 2204SOL    HW218246   0.862   2.824   6.428  2.3436 -2.1850 -1.1325
 2205SOL     OW18247   1.354   1.379   4.610  0.5208  0.3828 -0.0967
 2205SOL    HW118248   1.319   1.332   4.687  1.3684 -0.1989 -0.0655
 2205SOL    HW218249   1.282   1.364   4.549  1.2053 -1.2046 -0.5317
 2206SOL     OW18250   3.362   4.644   6.973 -0.3439  0.6345  0.5843
 2206SOL    HW118251   3.337   4.716   7.031 -2.9393  0.2067  0.0347
 2206SOL    HW218252   3.352   4.565   7.027  1.0437  0.1252  0.0818
 2207SOL     OW18253   1.724   2.823   5.119  0.5800  0.6478 -0.4566
 2207SOL    HW118254   1.696   2.781   5.201 -0.6950  1.0543 -0.6870
 2207SOL    HW218255   1.787   2.758   5.088 -0.1136 -1.1117  1.7838
 2208SOL     OW18256   2.636   4.072   7.310 -0.3838 -0.6734  0.5639
 2208SOL    HW118257   2.676   4.064   7.397  1.9724  0.8450 -0.3749
 2208SOL    HW218258   2.718   4.063   7.262  0.7965  1.3891  2.1789
 2209SOL     OW18259   3.229   2.432   4.161  0.3022  0.2197  0.1954
 2209SOL    HW118260   3.221   2.438   4.066  0.2564 -1.1347  0.1040
 2209SOL    HW218261   3.159   2.371   4.182 -0.1098 -0.1061 -2.1682
 2210SOL     OW18262   2.395   0.675   3.209 -0.0452  0.1540 -0.8492
 2210SOL    HW118263   2.450   0.715   3.141  0.4503 -0.8678 -1.0505
 2210SOL    HW218264   2.354   0.609   3.153  0.2403 -0.0376 -0.8336
 2211SOL     OW18265   3.805   2.781   1.363 -0.3541 -0.8618 -0.0304
 2211SOL    HW118266   3.718   2.818   1.380 -0.7209 -2.9482  2.7039
 2211SOL    HW218267   3.787   2.688   1.354  1.5951 -1.1118 -1.2264
 2212SOL     OW18268   0.465   0.130  15.602  0.0392  0.4131 -0.4940
 2212SOL    HW118269   0.533   0.065  15.612 -0.1461  0.6732  2.3969
 2212SOL    HW218270   0.473   0.173  15.687  0.2386 -0.1985 -0.2086
 2213SOL     OW18271   3.510   2.434   3.401  0.4899 -0.0012  0.6276
 2213SOL    HW118272   3.598   2.423   3.438 -0.5186  1.7039  3.5508
 2213SOL    HW218273   3.458   2.399   3.473 -1.2259 -0.6048 -0.9462
 2214SOL     OW18274   1.445   3.332   2.907  0.1053 -0.8826 -0.6674
 2214SOL    HW118275   1.389   3.338   2.984 -1.8731 -0.4871 -2.1349
 2214SOL    HW218276   1.391   3.365   2.835  0.7458 -0.3110 -0.8841
 2215SOL     OW18277   1.774   0.497   8.246 -0.0606  0.9197 -0.4352
 2215SOL    HW118278   1.771   0.410   8.286  1.2946  0.2680 -1.7679
 2215SOL    HW218279   1.681   0.519   8.242 -0.3369 -0.4492 -1.5972
 2216SOL     OW18280   1.140   1.822   8.534 -0.3778 -0.0077 -0.2957
 2216SOL    HW118281   1.187   1.891   8.581 -0.7315 -0.1813  0.3208
 2216SOL    HW218282   1.208   1.757   8.521 -0.2671 -0.8355  4.4718
 2217SOL     OW18283   3.076   1.205   3.467  0.3570 -0.0836 -0.4872
 2217SOL    HW118284   3.085   1.300   3.472  0.6214 -0.1329 -0.0588
 2217SOL    HW218285   2.994   1.198   3.418  0.7485  0.9774 -1.2898
 2218SOL     OW18286   2.693   1.216  14.921 -0.0647 -0.2894 -0.0975
 2218SOL    HW118287   2.688   1.213  15.017 -0.9109 -1.6882 -0.1802
 2218SOL    HW218288   2.755   1.287  14.904 -2.6958  1.8033 -0.7667
 2219SOL     OW18289   4.211   1.865  12.015  0.1497 -0.2588  0.2806
 2219SOL    HW118290   4.287   1.827  11.972 -1.0101 -0.8799 -1.2072
 2219SOL    HW218291   4.155   1.899  11.945  0.6667  1.3038  0.6399
 2220SOL     OW18292   1.461   4.033  13.673 -0.0793  0.2389 -0.3383
 2220SOL    HW118293   1.395   4.088  13.631 -0.1652 -1.0442 -1.8879
 2220SOL    HW218294   1.437   4.017  13.764 -0.2531 -1.1068 -0.6228
 2221SOL     OW18295   2.353   1.039   6.836 -0.1964  0.1502 -0.2934
 2221SOL    HW118296   2.432   1.089   6.813  0.1686 -0.4789 -0.4215
 2221SOL    HW218297   2.310   1.043   6.750 -0.4127  0.1954 -0.1807
 2222SOL     OW18298   2.067   1.436   7.751 -0.2957  0.0215 -0.3239
 2222SOL    HW118299   2.026   1.511   7.793 -0.0886 -0.5132  0.8381
 2222SOL    HW218300   2.000   1.369   7.759  0.1379 -0.5159 -1.1590
 2223SOL     OW18301   0.177   0.934   8.830 -0.0842  0.0639 -0.0860
 2223SOL    HW118302   0.175   0.872   8.903  0.3895 -0.8131 -0.8193
 2223SOL    HW218303   0.252   0.911   8.775  1.1648  2.4009  0.6096
 2224SOL     OW18304   4.621   0.725   3.443  0.6869  0.0718  0.2830
 2224SOL    HW118305   4.694   0.758   3.391  0.3956  2.9684  1.7239
 2224SOL    HW218306   4.658   0.727   3.531  2.9769 -0.0535 -0.6834
 2225SOL     OW18307   1.999   3.582   2.212 -0.1784  0.0566  0.1943
 2225SOL    HW118308   1.922   3.529   2.231 -1.9248  2.0237 -1.3133
 2225SOL    HW218309   1.990   3.651   2.277 -0.3636  0.0846  0.1385
 2226SOL     OW18310   4.054   4.173   1.783  0.3657  0.2222 -0.1378
 2226SOL    HW118311   4.003   4.191   1.704 -0.2247  1.2230  0.4671
 2226SOL    HW218312   4.144   4.183   1.751  0.3236 -1.3523 -0.7270
 2227SOL     OW18313   1.477   4.349   4.811 -0.0742 -0.0776 -0.4366
 2227SOL    HW118314   1.538   4.290   4.856  0.5597  0.2222 -0.9121
 2227SOL    HW218315   1.431   4.392   4.883  3.4556 -1.7871  2.8160
 2228SOL     OW18316   1.137   2.404   5.889 -0.6727  0.0932 -0.2308
 2228SOL    HW118317   1.205   2.395   5.956  1.4706 -0.5193 -2.5037
 2228SOL    HW218318   1.134   2.499   5.900  0.1274 -0.1088  1.6549
 2229SOL     OW18319   1.803   2.484  11.994 -0.0369  0.0515 -0.0980
 2229SOL    HW118320   1.783   2.483  12.087 -1.0500  0.1766 -0.3062
 2229SOL    HW218321   1.844   2.397  11.988 -2.8092 -1.1761 -1.4865
 2230SOL     OW18322   3.539   1.266   8.693  0.0721 -0.9113 -0.3832
 2230SOL    HW118323   3.578   1.292   8.776  2.7599  0.0083 -1.9383
 2230SOL    HW218324   3.567   1.332   8.629 -2.1991  0.8609  0.4511
 2231SOL     OW18325   1.276   3.593   4.055  0.6270  0.2180  0.0269
 2231SOL    HW118326   1.364   3.611   4.086  1.1147 -0.0573 -1.2009
 2231SOL    HW218327   1.224   3.631   4.126  0.7993 -1.9277  1.3283
 2232SOL     OW18328   3.491   2.239   4.177  0.4662 -0.0112 -0.5005
 2232SOL    HW118329   3.423   2.272   4.117 -1.2541 -1.3901  0.6801
 2232SOL    HW218330   3.557   2.308   4.171  0.4979 -0.0560 -0.6521
 2233SOL     OW18331   2.359   2.698   4.623 -0.4086  0.4206 -0.3772
 2233SOL    HW118332   2.280   2.695   4.678 -0.0365 -1.5847  0.0261
 2233SOL    HW218333   2.420   2.629   4.647 -0.1581  1.2881  1.4901
 2234SOL     OW18334   2.261   3.172   4.415  0.0229  0.1267  0.8924
 2234SOL    HW118335   2.183   3.140   4.369  2.7272 -2.8300 -1.6754
 2234SOL    HW218336   2.307   3.088   4.420 -0.4928 -0.2220 -0.3901
 2235SOL     OW18337   4.163   0.080   2.658 -0.0890  0.3199  0.4055
 2235SOL    HW118338   4.249   0.037   2.666  0.1739  0.3795 -2.2266
 2235SOL    HW218339   4.146   0.115   2.746  0.2036 -0.7372  0.8919
 2236SOL     OW18340   4.238   0.603   8.133  0.3032  0.3026  0.4857
 2236SOL    HW118341   4.295   0.531   8.160 -0.3473  0.8375  3.3078
 2236SOL    HW218342   4.175   0.543   8.094  0.9382  0.8831 -1.4167
 2237SOL     OW18343   1.577   2.188  11.173 -0.1787 -0.0310  0.8352
 2237SOL    HW118344   1.626   2.178  11.092  0.8408  1.1626  1.2930
 2237SOL    HW218345   1.567   2.094  11.188 -0.7007 -0.0696  0.2533
 2238SOL     OW18346   1.113   3.680  11.076 -0.0105 -1.0686 -0.0637
 2238SOL    HW118347   1.173   3.606  11.092 -0.5939 -1.5444 -0.0770
 2238SOL    HW218348   1.176   3.736  11.030 -0.4949  0.3747  1.0431
 2239SOL     OW18349   4.368   3.524  16.799 -0.3769 -0.2299 -0.2552
 2239SOL    HW118350   4.304   3.474  16.749  1.3994 -1.3905 -1.3774
 2239SOL    HW218351   4.362   3.472  16.879  1.4125  2.2423  1.4577
 2240SOL     OW18352   2.040   3.980  11.410 -1.5222  0.5720 -0.0748
 2240SOL    HW118353   1.999   3.907  11.457  2.9873 -2.1071 -0.3443
 2240SOL    HW218354   2.059   4.048  11.475  0.2214 -2.1684  2.2920
 2241SOL     OW18355   4.147   2.322   2.673  0.0936 -0.2015  0.0153
 2241SOL    HW118356   4.153   2.369   2.590 -0.8088  0.3117  0.2338
 2241SOL    HW218357   4.120   2.235   2.642  0.4992 -0.2372 -0.2342
 2242SOL     OW18358   0.677   1.428   2.819  0.0424  0.4923  0.1104
 2242SOL    HW118359   0.709   1.487   2.751  2.6301 -1.0362  0.0247
 2242SOL    HW218360   0.697   1.487   2.892 -1.9978 -0.4956  1.4823
 2243SOL     OW18361   2.106   1.324   5.082  0.7334 -0.0614 -0.1570
 2243SOL    HW118362   2.103   1.372   4.998 -1.1524  1.2395  0.6684
 2243SOL    HW218363   2.166   1.379   5.134 -0.9535  0.8458  0.8067
 2244SOL     OW18364   0.170   1.293  17.211  0.3453  0.4779 -0.0605
 2244SOL    HW118365   0.119   1.280  17.291 -0.0888 -0.3724 -0.4756
 2244SOL    HW218366   0.263   1.308  17.231  0.8078 -0.9045 -1.1760
 2245SOL     OW18367   3.666   4.038   6.161  0.2905  0.0801  0.2755
 2245SOL    HW118368   3.722   4.104   6.118 -0.1917  1.3033  1.5201
 2245SOL    HW218369   3.586   4.038   6.109  0.5684 -2.0015 -0.1496
 2246SOL     OW18370   0.177   0.512   4.870 -0.2749  0.3148 -0.1066
 2246SOL    HW118371   0.121   0.525   4.946  1.8648  1.8968  1.2092
 2246SOL    HW218372   0.238   0.448   4.907 -1.7551 -0.6101  0.6871
 2247SOL     OW18373   3.512   4.357   5.778 -0.6610  0.4009  0.9729
 2247SOL    HW118374   3.487   4.351   5.686 -1.2180  1.4033  1.0571
 2247SOL    HW218375   3.566   4.435   5.768 -0.1677  0.0976  1.3126
 2248SOL     OW18376   1.583   3.200   1.682  0.1066  0.1759 -0.1224
 2248SOL    HW118377   1.599   3.155   1.765  2.5833 -0.5268 -0.9747
 2248SOL    HW218378   1.520   3.267   1.709 -1.7090 -1.6209  0.0799
 2249SOL     OW18379   1.230   0.211   8.150  0.0315 -0.0067  0.4372
 2249SOL    HW118380   1.301   0.190   8.211  0.6047 -1.0132 -0.5781
 2249SOL    HW218381   1.200   0.126   8.117 -0.6232  0.1161  0.7158
 2250SOL     OW18382   3.109   1.781   6.423  0.4027 -0.2014 -0.1811
 2250SOL    HW118383   3.097   1.801   6.330  1.1606 -1.0712 -0.4762
 2250SOL    HW218384   3.039   1.717   6.439  1.1190 -0.9744 -0.1271
 2251SOL     OW18385   1.835   4.644   8.720  0.0796  0.0445  0.0026
 2251SOL    HW118386   1.895   4.717   8.734  0.0709 -0.4784  2.6901
 2251SOL    HW218387   1.895   4.576   8.689 -0.4953 -0.0008 -1.0313
 2252SOL     OW18388   2.416   0.746   4.170 -0.3726  0.5510  0.0519
 2252SOL    HW118389   2.399   0.654   4.189  0.7057  0.3239 -0.1244
 2252SOL    HW218390   2.465   0.745   4.088 -0.4542  0.5519  0.0034
 2253SOL     OW18391   2.507   1.395   7.666  0.2449  0.4068  0.1723
 2253SOL    HW118392   2.580   1.339   7.690 -0.9435 -1.2687 -0.0867
 2253SOL    HW218393   2.486   1.426   7.754  2.0062  2.6321 -0.1864
 2254SOL     OW18394   2.206   0.838   1.115 -0.1000 -0.3393  0.0602
 2254SOL    HW118395   2.220   0.873   1.027 -3.9818 -0.9850 -0.8025
 2254SOL    HW218396   2.296   0.846   1.148 -0.6175  1.1794  1.0688
 2255SOL     OW18397   2.227   1.781   7.986 -0.5482 -0.2078 -1.1589
 2255SOL    HW118398   2.312   1.797   8.028  0.2593 -2.5334 -1.8585
 2255SOL    HW218399   2.170   1.779   8.062  0.2016  2.0484 -0.5294
 2256SOL     OW18400   3.637   1.877   3.562 -0.2483 -0.3848  0.3604
 2256SOL    HW118401   3.673   1.807   3.508  1.7247 -1.7072  3.4393
 2256SOL    HW218402   3.546   1.856   3.540 -0.5120  0.0624  1.0159
 2257SOL     OW18403   3.838   4.140   5.321  0.2989 -0.1059  0.3014
 2257SOL    HW118404   3.831   4.234   5.310  2.3228  0.0540  0.3781
 2257SOL    HW218405   3.879   4.125   5.407  3.8321  3.2165 -0.8387
 2258SOL     OW18406   2.089   4.643   5.135 -0.7925 -0.3669  0.4396
 2258SOL    HW118407   2.149   4.569   5.123  2.3272  2.0526  1.3182
 2258SOL    HW218408   2.125   4.710   5.077 -0.0319  0.2511  1.6306
 2259SOL     OW18409   3.915   2.666   6.085 -0.3020  0.0518  0.7891
 2259SOL    HW118410   3.901   2.709   6.170 -2.2165  0.6425  0.1889
 2259SOL    HW218411   3.853   2.593   6.089  2.5722 -2.3753  0.6132
 2260SOL     OW18412   3.790   4.399   4.824  0.5923 -0.4784  0.6138
 2260SOL    HW118413   3.773   4.456   4.900  0.1123  1.3850 -0.8925
 2260SOL    HW218414   3.698   4.373   4.811  0.1763  0.6963  1.1699
 2261SOL     OW18415   3.714   2.246   0.588 -0.6356  0.2855  0.1289
 2261SOL    HW118416   3.721   2.340   0.602 -1.9732  0.3752  0.2010
 2261SOL    HW218417   3.619   2.236   0.589 -0.2980 -2.9398 -2.6930
 2262SOL     OW18418   2.781   2.174  14.978  0.0527 -0.0171  0.3013
 2262SOL    HW118419   2.817   2.236  14.914 -1.3929  0.6175  0.0999
 2262SOL    HW218420   2.858   2.175  15.035 -1.5959  2.4999  2.4602
 2263SOL     OW18421   3.088   0.882   4.359  0.0330  0.2845 -0.2602
 2263SOL    HW118422   2.999   0.852   4.375  0.9529  0.1748  4.9400
 2263SOL    HW218423   3.115   0.901   4.449 -0.5817  0.0503 -0.0285
 2264SOL     OW18424   4.191   3.421  15.675  0.1364  0.3037 -0.7291
 2264SOL    HW118425   4.246   3.401  15.750 -1.2775 -0.3182  0.1462
 2264SOL    HW218426   4.138   3.488  15.718 -0.3733 -0.1536 -0.6466
 2265SOL     OW18427   0.385   3.376  11.224  0.3704 -0.0359 -0.3624
 2265SOL    HW118428   0.372   3.375  11.129  2.0044  0.3212 -0.6047
 2265SOL    HW218429   0.466   3.427  11.229  0.6541 -0.4968 -0.3022
 2266SOL     OW18430   2.296   4.254   9.220  0.1212  0.0273 -0.5519
 2266SOL    HW118431   2.328   4.229   9.134 -2.2432 -0.0347 -1.4088
 2266SOL    HW218432   2.372   4.252   9.278  0.3545 -1.2738 -0.9066
 2267SOL     OW18433   3.135   0.251   6.668 -0.3587 -0.6809  0.3892
 2267SOL    HW118434   3.204   0.205   6.715  0.2231 -1.6361 -1.3762
 2267SOL    HW218435   3.159   0.224   6.579 -2.0033 -0.3541 -0.1676
 2268SOL     OW18436   1.534   0.618   6.726  0.4777 -0.1804  0.2535
 2268SOL    HW118437   1.569   0.530   6.712  1.9447  0.4828 -0.1945
 2268SOL    HW218438   1.467   0.595   6.790 -0.2705  0.5210 -0.2862
 2269SOL     OW18439   1.261   0.139   7.296  0.2084 -0.5902  0.4567
 2269SOL    HW118440   1.301   0.076   7.236  1.0516 -0.3489  0.7738
 2269SOL    HW218441   1.172   0.103   7.300 -0.6720  1.4858 -0.3602
 2270SOL     OW18442   0.757   3.201   2.882  0.0925 -0.8088 -0.0773
 2270SOL    HW118443   0.776   3.149   2.960  1.4737  0.1160  0.1971
 2270SOL    HW218444   0.804   3.282   2.901 -1.2143 -0.1389  0.2639
 2271SOL     OW18445   3.737   0.266   1.047 -0.2071  0.5910  0.9349
 2271SOL    HW118446   3.660   0.291   0.997 -0.6324  0.6358  1.6101
 2271SOL    HW218447   3.738   0.170   1.038  3.0477  0.7042  0.0825
 2272SOL     OW18448   2.957   4.640   8.751  0.0534  0.3673  0.3388
 2272SOL    HW118449   2.939   4.553   8.714 -1.9709  0.7806  0.3549
 2272SOL    HW218450   3.038   4.651   8.701 -0.2456 -0.3542 -0.3075
 2273SOL     OW18451   2.058   3.310   2.511 -0.4180  0.0162 -0.2591
 2273SOL    HW118452   2.016   3.394   2.530 -0.0280  0.0926  0.2749
 2273SOL    HW218453   2.053   3.267   2.597 -1.3731  3.2513  1.2982
 2274SOL     OW18454   1.481   1.312   9.946 -0.1074 -0.0450 -0.5405
 2274SOL    HW118455   1.429   1.238   9.916  0.5769 -0.3512 -0.9790
 2274SOL    HW218456   1.436   1.327  10.029  2.3176 -0.8778  0.9208
 2275SOL     OW18457   1.755   0.422   7.296  0.8033  0.5606  0.2945
 2275SOL    HW118458   1.672   0.469   7.289  1.0345  1.1603  1.3911
 2275SOL    HW218459   1.722   0.352   7.352  2.1376 -1.0205 -0.8903
 2276SOL     OW18460   0.410   1.561   4.692 -0.4176 -0.1354 -0.5564
 2276SOL    HW118461   0.448   1.478   4.722 -0.9807  0.6500  2.3916
 2276SOL    HW218462   0.414   1.566   4.597  1.0389  1.3524 -0.4271
 2277SOL     OW18463   2.898   4.298   8.146  0.1088  0.1196  0.2231
 2277SOL    HW118464   2.993   4.294   8.133 -0.0682  0.0400 -1.0980
 2277SOL    HW218465   2.857   4.248   8.075  1.5859 -1.0489  0.1837
 2278SOL     OW18466   2.851   1.261   4.022 -0.3496 -0.2364  0.0609
 2278SOL    HW118467   2.815   1.326   3.961 -0.7723 -0.3218  0.2200
 2278SOL    HW218468   2.939   1.269   3.985 -1.3987  0.7269 -2.2113
 2279SOL     OW18469   2.801   0.939   2.767 -0.3662 -0.2205  0.1558
 2279SOL    HW118470   2.733   0.964   2.704 -1.0940 -2.6655 -0.0393
 2279SOL    HW218471   2.877   0.981   2.725  0.1238  0.3591  1.6264
 2280SOL     OW18472   3.645   0.169   6.118  0.2557  0.0098  0.1828
 2280SOL    HW118473   3.645   0.248   6.171 -0.4895 -0.6919  1.2497
 2280SOL    HW218474   3.566   0.131   6.157  1.0097 -0.9057  0.7973
 2281SOL     OW18475   2.676   1.479   3.571  0.1210  0.1776 -0.0335
 2281SOL    HW118476   2.747   1.504   3.512  1.3819 -0.8246  1.0479
 2281SOL    HW218477   2.646   1.567   3.593 -2.2525 -0.7815  0.4870
 2282SOL     OW18478   3.486   0.549   9.392 -0.0295  0.2804  0.0258
 2282SOL    HW118479   3.554   0.547   9.459 -0.6850 -0.3564  0.6692
 2282SOL    HW218480   3.487   0.457   9.364  0.0778 -0.0032  0.9501
 2283SOL     OW18481   0.070   1.655   7.636  0.5169 -0.4663  0.2348
 2283SOL    HW118482   0.046   1.679   7.725 -0.3635  0.9894 -0.4028
 2283SOL    HW218483   4.727   1.609   7.603  0.4720  0.1988 -0.5760
 2284SOL     OW18484   0.511   3.393   6.640 -0.1953 -0.5518 -0.2808
 2284SOL    HW118485   0.578   3.369   6.576  1.7529  2.6489  0.5989
 2284SOL    HW218486   0.496   3.483   6.613  1.1525 -0.4713 -0.7395
 2285SOL     OW18487   2.868   0.493  10.314  0.3732 -0.0534  0.0711
 2285SOL    HW118488   2.947   0.461  10.269  0.4863 -0.5624  0.6415
 2285SOL    HW218489   2.851   0.416  10.368 -2.2160 -0.5862 -1.5043
 2286SOL     OW18490   0.490   3.901   9.458  0.3145 -0.4231 -0.2882
 2286SOL    HW118491   0.479   3.984   9.504  0.8227 -1.0331  0.9300
 2286SOL    HW218492   0.464   3.836   9.524 -1.1867  1.4479  0.9708
 2287SOL     OW18493   3.049   1.087   7.226  0.5413  0.7946 -0.6599
 2287SOL    HW118494   2.966   1.040   7.228  1.1218 -0.1673  1.6188
 2287SOL    HW218495   3.053   1.135   7.309  0.8976 -1.5719  0.6977
 2288SOL     OW18496   3.458   2.327   8.256  0.2776  0.0025 -0.4382
 2288SOL    HW118497   3.478   2.275   8.334 -0.3372 -0.8570 -0.8590
 2288SOL    HW218498   3.441   2.413   8.295 -2.3790 -0.8043  0.1783
 2289SOL     OW18499   0.322   1.917  16.616  0.3412  0.6481 -0.0944
 2289SOL    HW118500   0.295   1.956  16.532  3.1986 -1.7854 -2.1273
 2289SOL    HW218501   0.379   1.842  16.601 -0.4685 -0.2879  1.5025
 2290SOL     OW18502   1.777   3.450   4.119 -0.3125  0.0648  0.8675
 2290SOL    HW118503   1.682   3.444   4.107  0.0303  0.2650 -1.8919
 2290SOL    HW218504   1.789   3.490   4.206  1.8470  0.3160  0.4452
 2291SOL     OW18505   1.432   4.481   8.996  0.4070  0.2318  0.3113
 2291SOL    HW118506   1.513   4.511   9.037  1.6637  1.6620 -3.2270
 2291SOL    HW218507   1.425   4.531   8.915 -1.3730 -0.3065  0.1300
 2292SOL     OW18508   4.275   0.439   5.509  0.1191 -0.3663  0.3523
 2292SOL    HW118509   4.231   0.399   5.434 -0.3622  2.4652 -0.8618
 2292SOL    HW218510   4.197   0.469   5.556 -1.2404 -2.9830 -0.1910
 2293SOL     OW18511   3.204   1.049   8.841  0.5964  0.2114  0.0689
 2293SOL    HW118512   3.111   1.067   8.832  1.2059  3.1847 -0.2987
 2293SOL    HW218513   3.208   1.013   8.929 -1.5221 -2.2077 -0.8195
 2294SOL     OW18514   4.174   0.463  11.920 -0.1893  0.2801  0.4004
 2294SOL    HW118515   4.131   0.501  11.844  3.8845  1.3696 -1.3777
 2294SOL    HW218516   4.211   0.533  11.974 -1.4604  0.7284  0.6673
 2295SOL     OW18517   4.668   4.052   0.997  0.1262 -0.8229 -0.2583
 2295SOL    HW118518   4.660   4.132   1.049  0.3134 -1.2852  0.4969
 2295SOL    HW218519   4.664   4.089   0.909 -0.4740  0.4585  0.3227
 2296SOL     OW18520   3.413   1.296   3.536 -0.4497 -0.2234 -0.2417
 2296SOL    HW118521   3.496   1.274   3.579 -1.8696  0.1460  2.6990
 2296SOL    HW218522   3.374   1.357   3.598  0.4258 -0.9006  0.9749
 2297SOL     OW18523   3.020   2.737   9.090  0.1707  0.3045  0.1844
 2297SOL    HW118524   3.064   2.769   9.169 -1.1653 -0.7470  1.3520
 2297SOL    HW218525   3.087   2.764   9.026 -0.7830  2.4333  0.0724
 2298SOL     OW18526   1.204   1.783   9.952  0.1816  0.5388 -0.4279
 2298SOL    HW118527   1.217   1.799  10.045 -1.0091 -1.1841  0.0412
 2298SOL    HW218528   1.268   1.713   9.935 -0.9337 -1.0057  1.7545
 2299SOL     OW18529   4.207   2.048   8.029 -0.7218  0.3995 -0.3716
 2299SOL    HW118530   4.239   2.138   8.034 -1.8254  0.7247  1.0614
 2299SOL    HW218531   4.223   2.022   7.938  0.9964  0.9240 -0.2194
 2300SOL     OW18532   0.128   3.751  13.449 -0.1349 -0.0389  0.3360
 2300SOL    HW118533   0.123   3.690  13.375  1.6054 -1.5764  1.4704
 2300SOL    HW218534   0.123   3.833  13.400 -0.8062 -1.3283 -1.7395
 2301SOL     OW18535   3.092   3.890   6.411 -0.1602 -0.1314  0.3988
 2301SOL    HW118536   3.034   3.932   6.349 -0.5267 -1.3286 -0.0757
 2301SOL    HW218537   3.136   3.828   6.353  0.9831  0.5541  0.5340
 2302SOL     OW18538   3.584   1.123   5.360 -0.3819  0.0671 -0.0471
 2302SOL    HW118539   3.629   1.178   5.296 -0.7727  0.8419  0.3439
 2302SOL    HW218540   3.655   1.078   5.405 -0.1776 -0.1742 -0.6071
 2303SOL     OW18541   4.446   0.809   6.871 -0.2028  0.3976  0.3514
 2303SOL    HW118542   4.535   0.820   6.837 -0.9667  1.6412 -1.2240
 2303SOL    HW218543   4.392   0.823   6.794  0.2982 -3.1845 -0.6755
 2304SOL     OW18544   0.157   1.431   2.491 -0.3454  0.7428 -0.0322
 2304SOL    HW118545   0.214   1.396   2.422 -0.2812  1.1701 -0.1984
 2304SOL    HW218546   0.114   1.348   2.507  2.1800 -0.6611 -0.4758
 2305SOL     OW18547   2.977   0.583   5.643 -0.5594 -0.3846 -0.1456
 2305SOL    HW118548   2.933   0.666   5.625  1.0442  0.7210  1.0455
 2305SOL    HW218549   3.001   0.591   5.735 -1.3791  0.0167  0.0334
 2306SOL     OW18550   0.055   0.184  17.270 -0.3870 -0.1884 -0.0093
 2306SOL    HW118551   0.137   0.135  17.270 -0.2776  0.0065 -2.9201
 2306SOL    HW218552   0.084   0.264  17.226 -0.8357 -0.5259 -0.9167
 2307SOL     OW18553   2.214   1.095   3.631  0.8601  0.0734  0.9885
 2307SOL    HW118554   2.298   1.134   3.652  0.7293  1.5205 -1.2098
 2307SOL    HW218555   2.224   1.049   3.547 -1.5778 -0.4245  0.9637
 2308SOL     OW18556   4.449   4.175   7.266  0.2923  0.3467  0.2293
 2308SOL    HW118557   4.460   4.084   7.238 -1.9628  0.6933 -1.8277
 2308SOL    HW218558   4.526   4.182   7.321 -0.3538 -1.2100  1.3354
 2309SOL     OW18559   0.776   1.140  17.186 -0.1381 -0.4154 -0.0565
 2309SOL    HW118560   0.869   1.116  17.186  0.1364  0.6756  2.8513
 2309SOL    HW218561   0.779   1.223  17.233  3.7469 -0.7783  0.3649
 2310SOL     OW18562   1.020   1.824   2.493 -0.0903  0.0485  0.2566
 2310SOL    HW118563   1.066   1.757   2.544 -1.5412  0.3034  1.9182
 2310SOL    HW218564   1.042   1.908   2.533 -1.3275  0.5856 -0.1938
 2311SOL     OW18565   1.045   0.112   7.485 -0.2373  0.0995  0.2109
 2311SOL    HW118566   1.036   0.030   7.437 -2.1032 -0.1340  0.9895
 2311SOL    HW218567   1.068   0.086   7.574 -0.6661  0.1777  0.3429
 2312SOL     OW18568   0.501   2.572   5.966 -0.1873 -0.1611 -0.8634
 2312SOL    HW118569   0.595   2.566   5.950  0.3021  0.2010  1.9218
 2312SOL    HW218570   0.504   2.667   5.972  0.4113 -0.3664  2.4263
 2313SOL     OW18571   0.116   2.976  13.216  0.1517  0.1740 -0.3001
 2313SOL    HW118572   0.191   2.931  13.256 -1.0233  0.5918  2.3966
 2313SOL    HW218573   0.036   2.939  13.252  0.4233  1.3002  1.4593
 2314SOL     OW18574   2.222   2.751   2.784  0.3686 -0.3968 -0.6317
 2314SOL    HW118575   2.292   2.687   2.770 -1.3618 -2.7004  1.2051
 2314SOL    HW218576   2.176   2.740   2.701  1.5650  1.4547 -1.5350
 2315SOL     OW18577   3.399   0.687   8.766 -0.1859  0.1062  0.6726
 2315SOL    HW118578   3.321   0.697   8.710  0.2565  1.9394  0.4015
 2315SOL    HW218579   3.353   0.672   8.849  0.0418 -0.4880  0.6925
 2316SOL     OW18580   0.879   2.531  10.279 -0.0873  0.6244  0.7809
 2316SOL    HW118581   0.824   2.579  10.216  0.3933 -0.8105 -0.7601
 2316SOL    HW218582   0.937   2.476  10.226  0.9623  0.7918  1.7675
 2317SOL     OW18583   0.129   4.288   8.749  0.4470  0.2065 -0.3249
 2317SOL    HW118584   0.033   4.284   8.757  0.5987  0.8850  1.8550
 2317SOL    HW218585   0.139   4.265   8.657  2.1623 -0.0808 -0.0582
 2318SOL     OW18586   3.727   1.849  16.662  0.0505  0.6021  0.4193
 2318SOL    HW118587   3.669   1.923  16.649 -2.0924 -0.9885  0.8497
 2318SOL    HW218588   3.807   1.877  16.707  0.9371 -1.3233  0.0553
 2319SOL     OW18589   0.741   1.349  17.339 -0.1217  0.2666  0.5170
 2319SOL    HW118590   0.769   1.382  17.424 -1.0072 -0.9535  1.2854
 2319SOL    HW218591   0.757   1.431  17.293  0.5343  1.4100  2.8121
 2320SOL     OW18592   4.136   4.708  13.713  0.1721  0.3114 -0.1058
 2320SOL    HW118593   4.066   4.659  13.758 -0.1145  1.0982  0.3095
 2320SOL    HW218594   4.207   4.672  13.766  0.9080  1.9091 -0.0128
 2321SOL     OW18595   2.841   4.611   0.520  0.5585 -0.0205  0.0838
 2321SOL    HW118596   2.872   4.692   0.481 -1.4743  1.2171  1.0570
 2321SOL    HW218597   2.921   4.559   0.534  0.5498  0.2241  1.0450
 2322SOL     OW18598   2.177   0.854   7.951 -0.2912  0.0765 -0.0326
 2322SOL    HW118599   2.258   0.803   7.944 -0.0123  0.9488 -3.3755
 2322SOL    HW218600   2.132   0.781   7.907  2.8063 -0.6003 -2.0694
 2323SOL     OW18601   2.005   1.563  14.851 -0.0952  0.5221 -0.5596
 2323SOL    HW118602   2.056   1.561  14.769  0.2193 -1.4565 -0.3132
 2323SOL    HW218603   2.073   1.523  14.905 -1.3666  0.7114  1.1479
 2324SOL     OW18604   1.577   4.592  17.581 -0.3254  0.6387  0.1848
 2324SOL    HW118605   1.488   4.593  17.618 -0.7770 -0.6517 -0.8496
 2324SOL    HW218606   1.563   4.660  17.516 -0.1945  0.1852 -0.3198
 2325SOL     OW18607   3.069   3.863   8.325 -0.2529 -0.3951  0.6506
 2325SOL    HW118608   3.009   3.837   8.255 -0.2214  0.5367  0.2830
 2325SOL    HW218609   3.031   3.944   8.357  1.3283  0.6295 -0.0753
 2326SOL     OW18610   0.685   0.240   8.224  0.2590  0.0503  0.0578
 2326SOL    HW118611   0.715   0.150   8.217  0.5457  0.4047 -3.5840
 2326SOL    HW218612   0.669   0.254   8.130 -1.3438  0.9128  0.4562
 2327SOL     OW18613   3.426   4.355   2.218 -0.0713 -0.2061 -0.7070
 2327SOL    HW118614   3.392   4.297   2.287  2.1508 -1.6746 -0.8378
 2327SOL    HW218615   3.521   4.364   2.225 -0.0992 -0.4538 -0.0096
 2328SOL     OW18616   0.188   1.192   8.474  0.3969  0.1746 -0.1070
 2328SOL    HW118617   0.279   1.221   8.480 -0.0732  1.4685  0.6856
 2328SOL    HW218618   0.176   1.194   8.379  0.0162  2.5260 -0.0165
 2329SOL     OW18619   1.156   2.082  12.727  0.2180 -0.5453  0.1867
 2329SOL    HW118620   1.097   2.079  12.802 -1.6765 -2.0988 -1.3602
 2329SOL    HW218621   1.177   2.175  12.729  0.3680 -0.5849  0.4407
 2330SOL     OW18622   1.982   3.869   6.218  0.1432 -0.2300  0.0529
 2330SOL    HW118623   2.036   3.938   6.255 -2.9678  2.0892  0.3009
 2330SOL    HW218624   1.956   3.830   6.302  1.0738  0.5327  0.6877
 2331SOL     OW18625   3.321   0.135   3.765 -0.2364 -0.2611 -0.8045
 2331SOL    HW118626   3.318   0.169   3.676 -0.3094  0.6009 -0.4731
 2331SOL    HW218627   3.410   0.099   3.765 -0.9005 -1.9103 -1.1929
 2332SOL     OW18628   4.598   2.773   2.825  0.1853  0.3372  0.2116
 2332SOL    HW118629   4.578   2.842   2.889  3.1880  0.0297  1.4771
 2332SOL    HW218630   4.554   2.811   2.749 -1.1121 -1.7675 -0.0732
 2333SOL     OW18631   2.834   0.779  11.395 -0.6938  0.1558  0.1908
 2333SOL    HW118632   2.794   0.857  11.432  0.1648  1.5944 -1.9241
 2333SOL    HW218633   2.907   0.765  11.456  0.4211 -1.8171 -1.5773
 2334SOL     OW18634   0.227   1.506   3.760 -0.2132  0.7111  0.1904
 2334SOL    HW118635   0.218   1.508   3.665 -3.0056  0.7476  0.4789
 2334SOL    HW218636   0.299   1.444   3.777  0.4285  1.5326  0.4681
 2335SOL     OW18637   2.510   1.789   6.446  0.7624 -0.4897  0.1228
 2335SOL    HW118638   2.503   1.708   6.497  0.2433  0.1901  1.1241
 2335SOL    HW218639   2.443   1.781   6.378 -0.6024 -0.1178  1.4200
 2336SOL     OW18640   0.176   0.850  11.760  0.0333 -0.0369  0.1551
 2336SOL    HW118641   0.250   0.908  11.777  1.4369 -1.5997 -0.5441
 2336SOL    HW218642   0.128   0.835  11.841 -1.1604  3.9410  0.1996
 2337SOL     OW18643   1.201   2.384  12.650 -0.0693 -0.0818 -0.2657
 2337SOL    HW118644   1.285   2.428  12.635 -0.8208  1.4704  0.0254
 2337SOL    HW218645   1.184   2.414  12.739  0.9717 -0.0563 -0.0744
 2338SOL     OW18646   1.038   4.314   7.587  0.0994  0.0125 -0.3043
 2338SOL    HW118647   1.013   4.291   7.677 -1.4750  2.3710 -0.1354
 2338SOL    HW218648   0.958   4.360   7.562 -0.0763  0.4542  1.0594
 2339SOL     OW18649   3.402   0.365   2.269 -0.5748  0.5430  0.4722
 2339SOL    HW118650   3.322   0.325   2.305  0.0180 -0.9243  0.1598
 2339SOL    HW218651   3.393   0.354   2.174 -0.0758  0.6098  0.4205
 2340SOL     OW18652   0.638   1.642  14.873 -0.2332 -0.5168  0.0536
 2340SOL    HW118653   0.674   1.679  14.954 -0.1466 -0.8347  0.1587
 2340SOL    HW218654   0.697   1.675  14.805  1.4959 -0.8274  1.4070
 2341SOL     OW18655   2.910   1.235   5.039  0.1615 -0.3547  0.0716
 2341SOL    HW118656   2.860   1.253   5.119 -0.2353 -2.7314  0.3571
 2341SOL    HW218657   2.882   1.312   4.990  1.2134  0.3216  0.5270
 2342SOL     OW18658   4.232   0.103  14.129 -0.3981  0.6262 -0.3521
 2342SOL    HW118659   4.141   0.074  14.121 -1.0141  2.4744 -0.0374
 2342SOL    HW218660   4.240   0.152  14.211  1.4140  0.4172 -0.3970
 2343SOL     OW18661   4.658   0.806   8.820  0.2890 -0.4763 -0.0118
 2343SOL    HW118662   4.728   0.750   8.787  0.2108 -0.1914 -0.6698
 2343SOL    HW218663   4.691   0.893   8.799 -0.2543 -0.0260  1.0195
 2344SOL     OW18664   1.950   2.964  15.402  0.4276 -0.1987 -0.6176
 2344SOL    HW118665   1.924   2.900  15.468  1.8870  0.2678  0.4095
 2344SOL    HW218666   1.935   3.050  15.442 -1.9311 -0.6546 -0.5235
 2345SOL     OW18667   3.292   4.044   3.935 -0.7265 -0.2248  0.1618
 2345SOL    HW118668   3.230   3.975   3.957 -1.7910  0.5472 -0.4098
 2345SOL    HW218669   3.298   4.026   3.841  1.2439  0.2505  0.1932
 2346SOL     OW18670   1.552   2.879   5.929  0.6471  0.4913 -0.5921
 2346SOL    HW118671   1.554   2.928   6.011 -0.9177 -0.9034  0.2676
 2346SOL    HW218672   1.633   2.921   5.900  0.5500  1.2559  0.2726
 2347SOL     OW18673   3.906   4.477   1.320  0.1504 -0.0106  0.4079
 2347SOL    HW118674   3.812   4.460   1.315  0.1315 -0.1772  1.2378
 2347SOL    HW218675   3.911   4.562   1.277  0.6906  0.2752  1.0206
 2348SOL     OW18676   3.697   0.120   6.628 -0.3990  0.3985 -0.1447
 2348SOL    HW118677   3.641   0.043   6.613 -0.2651  0.4125 -0.7220
 2348SOL    HW218678   3.724   0.133   6.537  1.0189 -0.6033  0.1257
 2349SOL     OW18679   2.253   0.961   8.996 -0.4544 -0.0735 -0.0949
 2349SOL    HW118680   2.233   0.876   8.959  0.4685 -0.9031  1.3105
 2349SOL    HW218681   2.240   0.955   9.091 -0.2853  0.1734 -0.0552
 2350SOL     OW18682   2.506   4.478   2.620  0.0338 -0.0145 -0.1540
 2350SOL    HW118683   2.538   4.421   2.690 -1.2849  1.0508  1.3139
 2350SOL    HW218684   2.428   4.516   2.658  1.0545  0.3673  1.5365
 2351SOL     OW18685   1.845   0.380   7.758 -0.0095 -0.6271  0.7713
 2351SOL    HW118686   1.908   0.318   7.723  0.7197  1.0314 -0.8769
 2351SOL    HW218687   1.876   0.460   7.714 -1.0830 -1.3292 -1.2556
 2352SOL     OW18688   2.438   3.035  16.432  0.3937  0.6991  0.1819
 2352SOL    HW118689   2.438   3.066  16.523  0.6397  0.2254  0.3388
 2352SOL    HW218690   2.351   2.996  16.425  1.5552 -1.8492  0.0850
 2353SOL     OW18691   4.331   3.820   5.468 -1.4097  0.5326 -0.0814
 2353SOL    HW118692   4.374   3.893   5.514 -1.6146 -0.6910  2.0738
 2353SOL    HW218693   4.315   3.759   5.541  1.0724 -1.4485 -1.2150
 2354SOL     OW18694   4.037   3.020   8.255  0.6200 -0.1612 -0.0278
 2354SOL    HW118695   4.066   3.046   8.168  0.1573  2.1798  0.5185
 2354SOL    HW218696   3.953   2.978   8.238  1.4789 -1.0802 -2.0346
 2355SOL     OW18697   1.546   2.812   2.791 -0.0036 -0.2251  0.2339
 2355SOL    HW118698   1.479   2.868   2.830  0.7296 -0.2172  1.4591
 2355SOL    HW218699   1.625   2.865   2.800  0.4648 -0.8750 -0.0888
 2356SOL     OW18700   0.656   1.164   7.421  0.2281  0.6616  0.0045
 2356SOL    HW118701   0.712   1.155   7.344 -0.4016  2.8852 -0.7064
 2356SOL    HW218702   0.721   1.137   7.486  0.6493 -0.9416 -1.0755
 2357SOL     OW18703   2.791   0.969   4.667  0.5520 -0.0967  0.3485
 2357SOL    HW118704   2.790   0.991   4.574 -2.6209  0.1472  0.4362
 2357SOL    HW218705   2.702   0.934   4.667  0.5811 -0.1737 -0.5357
 2358SOL     OW18706   0.090   0.197  15.290 -0.2388  0.1139  0.1901
 2358SOL    HW118707   0.004   0.174  15.256 -0.6466  0.9210  0.6495
 2358SOL    HW218708   0.122   0.269  15.235 -2.1605  1.6370  1.0430
 2359SOL     OW18709   1.444   0.979   1.842 -0.2429 -0.4501 -0.5390
 2359SOL    HW118710   1.537   0.995   1.826 -0.1107  2.0773  2.8125
 2359SOL    HW218711   1.438   0.884   1.852 -0.9481 -0.1815  1.5416
 2360SOL     OW18712   3.931   4.552   0.444  0.6776 -0.2732  0.5765
 2360SOL    HW118713   3.990   4.585   0.512  1.3695 -0.7193  0.1763
 2360SOL    HW218714   3.992   4.540   0.372  0.2379  2.2520 -0.2202
 2361SOL     OW18715   2.601   3.039   2.415  0.2026  0.0361  0.4378
 2361SOL    HW118716   2.588   2.960   2.468 -1.3671 -1.1309 -1.6885
 2361SOL    HW218717   2.638   3.009   2.332  1.4184 -0.1766  1.0530
 2362SOL     OW18718   0.622   1.203  12.724 -0.0732 -0.0587 -0.1494
 2362SOL    HW118719   0.607   1.205  12.630 -1.1322 -0.8029  0.0041
 2362SOL    HW218720   0.669   1.124  12.748 -1.0893 -0.8547 -0.7943
 2363SOL     OW18721   2.814   2.195   9.456 -0.3751  0.1547  0.4624
 2363SOL    HW118722   2.881   2.186   9.525  0.9971 -0.8487 -1.0043
 2363SOL    HW218723   2.790   2.107   9.429 -0.5052 -0.0481  1.2424
 2364SOL     OW18724   4.442   4.722  10.968  0.0535  0.2795  0.2453
 2364SOL    HW118725   4.495   0.033  11.034  1.4104 -1.2880  0.2351
 2364SOL    HW218726   4.500   0.002  10.893 -0.2469  0.0363 -0.0355
 2365SOL     OW18727   0.523   0.184   5.474  0.6043 -0.3911 -0.0245
 2365SOL    HW118728   0.488   0.194   5.562  1.1561  0.6831  0.0702
 2365SOL    HW218729   0.613   0.216   5.484 -0.2369  2.0495 -0.0759
 2366SOL     OW18730   2.572   0.229   6.999  0.4062 -0.1695  0.0775
 2366SOL    HW118731   2.651   0.231   7.053 -0.4448  1.9431  1.2315
 2366SOL    HW218732   2.504   0.232   7.066 -1.2786  1.4902 -1.6963
 2367SOL     OW18733   2.000   1.276   6.160 -0.4350  0.1327  0.2817
 2367SOL    HW118734   2.081   1.283   6.211  0.0950 -0.6643 -0.4635
 2367SOL    HW218735   2.010   1.365   6.125  2.3834 -0.3413 -0.0836
 2368SOL     OW18736   2.079   0.269   0.837  0.2303  0.2799 -0.1409
 2368SOL    HW118737   2.062   0.201   0.771 -0.0764 -1.0308  1.2766
 2368SOL    HW218738   2.024   0.235   0.907  0.4122  3.4811  1.5514
 2369SOL     OW18739   3.237   0.372  14.391 -0.6260  0.6785  0.2345
 2369SOL    HW118740   3.241   0.322  14.473  1.1789  1.2588  0.5007
 2369SOL    HW218741   3.327   0.375  14.359  0.2759  0.4360  2.7479
 2370SOL     OW18742   1.082   2.974   4.110 -0.0837  0.0993  0.0064
 2370SOL    HW118743   1.015   2.920   4.069  1.3002 -2.1023  0.6526
 2370SOL    HW218744   1.115   2.900   4.161 -0.7016 -0.9154 -1.0793
 2371SOL     OW18745   1.081   2.915  10.078  0.6235 -0.3725  0.3972
 2371SOL    HW118746   1.157   2.914  10.136  0.4791 -0.9292  0.5760
 2371SOL    HW218747   1.083   2.820  10.065  1.0130 -0.0641 -1.8203
 2372SOL     OW18748   2.146   2.149   2.922  0.8005  0.2008 -0.8248
 2372SOL    HW118749   2.113   2.124   3.008  0.8181  0.8235 -0.6322
 2372SOL    HW218750   2.151   2.245   2.932 -0.5638  0.2847 -0.8745
 2373SOL     OW18751   0.676   3.394   3.274 -0.2389  0.1169 -1.5279
 2373SOL    HW118752   0.746   3.378   3.338 -0.1399 -1.5551 -2.0454
 2373SOL    HW218753   0.616   3.459   3.311 -0.1095 -0.5213 -0.1997
 2374SOL     OW18754   0.522   4.070   9.684 -0.0143 -0.8059  0.0202
 2374SOL    HW118755   0.511   4.155   9.727  0.1872 -1.1077  0.6633
 2374SOL    HW218756   0.497   4.015   9.758  0.6433 -1.8459 -0.5306
 2375SOL     OW18757   4.181   4.445   7.541 -0.6342 -0.4154 -0.6417
 2375SOL    HW118758   4.266   4.453   7.497  0.2756 -2.8494  0.6876
 2375SOL    HW218759   4.126   4.461   7.464  0.6832  1.2882 -1.2264
 2376SOL     OW18760   3.543   0.174   7.085 -0.0998 -0.0874 -0.5492
 2376SOL    HW118761   3.612   0.127   7.131  2.0717  4.2289  0.5907
 2376SOL    HW218762   3.587   0.199   7.004 -1.1210  0.5163 -0.9220
 2377SOL     OW18763   4.556   0.958   2.471 -0.1905 -0.0637  0.1177
 2377SOL    HW118764   4.622   0.902   2.431 -2.4998 -2.0275 -0.8990
 2377SOL    HW218765   4.491   0.968   2.401  0.7028 -1.8994 -0.9628
 2378SOL     OW18766   3.422   3.784   7.566  0.3296  0.0468  0.0550
 2378SOL    HW118767   3.449   3.732   7.641  0.5258  0.6165  0.3746
 2378SOL    HW218768   3.464   3.869   7.577  0.1710  0.1503 -0.1391
 2379SOL     OW18769   0.158   0.241   8.975  0.3271  0.6169  0.0900
 2379SOL    HW118770   0.108   0.206   9.048 -0.3195  0.9337 -0.1977
 2379SOL    HW218771   0.249   0.224   9.000  0.8632 -0.4869 -2.7065
 2380SOL     OW18772   0.102   3.088   7.227  0.1246 -0.3359  0.4088
 2380SOL    HW118773   0.172   3.024   7.236 -0.0752 -0.8472 -1.4982
 2380SOL    HW218774   0.129   3.134   7.148  0.1254 -0.0404  0.5837
 2381SOL     OW18775   4.682   1.510  17.361  0.2581  0.0555 -0.6309
 2381SOL    HW118776   4.685   1.502  17.266 -2.9127  1.6603 -0.8713
 2381SOL    HW218777   4.706   1.602  17.371  0.5442  0.0415 -1.2282
 2382SOL     OW18778   2.056   1.957  14.850 -0.3631 -0.0767 -0.5864
 2382SOL    HW118779   2.006   2.019  14.902  0.3950  0.9410 -1.0642
 2382SOL    HW218780   1.987   1.928  14.790  0.2022  0.1292 -1.3457
 2383SOL     OW18781   0.373   3.918   2.232 -0.0864 -0.6048  0.2811
 2383SOL    HW118782   0.407   3.869   2.307  0.8097  0.3693  0.5127
 2383SOL    HW218783   0.407   3.868   2.159  0.8041  2.8067 -1.6372
 2384SOL     OW18784   1.085   0.440   3.663  0.8528 -0.2606 -0.4247
 2384SOL    HW118785   1.095   0.516   3.606  0.5068  0.8637  1.0194
 2384SOL    HW218786   1.014   0.476   3.717 -1.8003 -4.7022 -0.9715
 2385SOL     OW18787   2.754   4.380   2.158  0.5637 -0.0734 -0.1505
 2385SOL    HW118788   2.706   4.373   2.076  0.5270  1.0164 -0.2292
 2385SOL    HW218789   2.708   4.318   2.214  0.7725 -0.1233 -0.0343
 2386SOL     OW18790   2.164   1.190  11.884  0.3933  0.4070 -0.3016
 2386SOL    HW118791   2.253   1.155  11.885  0.0863 -0.3069  1.6646
 2386SOL    HW218792   2.140   1.189  11.791  0.1693  1.0593 -0.2488
 2387SOL     OW18793   1.450   2.610   9.389  0.3217 -0.0325  0.0725
 2387SOL    HW118794   1.508   2.584   9.317  0.4128 -0.4091  0.2819
 2387SOL    HW218795   1.370   2.571   9.354 -0.3758  2.5868 -1.1731
 2388SOL     OW18796   2.817   1.208   3.269  0.1611 -0.1695  0.0230
 2388SOL    HW118797   2.784   1.122   3.294  0.5502 -0.1036  0.7624
 2388SOL    HW218798   2.844   1.179   3.182 -1.3834 -2.1837  0.2031
 2389SOL     OW18799   1.571   4.479   3.924 -0.2988  0.4502 -0.7714
 2389SOL    HW118800   1.578   4.416   3.996  1.2635 -0.5979 -1.8280
 2389SOL    HW218801   1.548   4.563   3.964 -0.1565  0.3021 -0.3775
 2390SOL     OW18802   2.243   3.249   9.537 -0.1825 -0.1193 -0.4694
 2390SOL    HW118803   2.264   3.229   9.446 -0.5254  0.5629 -0.7004
 2390SOL    HW218804   2.147   3.253   9.540 -0.1772 -0.2598 -0.1102
 2391SOL     OW18805   2.234   2.660   4.313 -0.4530  0.7029  0.0561
 2391SOL    HW118806   2.287   2.581   4.322 -0.7455  0.6558  1.3649
 2391SOL    HW218807   2.278   2.693   4.235 -2.7409  1.2134 -1.0233
 2392SOL     OW18808   0.580   3.283   9.406 -0.8716  0.2672  0.3766
 2392SOL    HW118809   0.528   3.205   9.386  1.5695 -1.2044 -0.2345
 2392SOL    HW218810   0.566   3.291   9.501 -0.6346  1.3005  0.3218
 2393SOL     OW18811   3.234   4.228  15.039  0.2791  0.0694 -0.2317
 2393SOL    HW118812   3.308   4.201  14.985  0.4887  2.1854 -1.0050
 2393SOL    HW218813   3.216   4.145  15.082 -0.8098  0.3077 -0.2195
 2394SOL     OW18814   2.007   4.044   8.122 -0.0983 -0.5872  0.1086
 2394SOL    HW118815   1.996   3.980   8.192  1.2704 -1.6635 -0.6683
 2394SOL    HW218816   1.927   4.034   8.071  1.9436 -2.7102 -2.6216
 2395SOL     OW18817   2.062   1.636  13.389 -0.0180  0.0193  0.1153
 2395SOL    HW118818   2.112   1.555  13.378  0.7031  0.3879  0.6648
 2395SOL    HW218819   2.085   1.663  13.478 -0.1809  0.4201  0.0348
 2396SOL     OW18820   4.508   4.148   8.282  0.3596 -0.1608 -0.7735
 2396SOL    HW118821   4.556   4.223   8.247  1.8378  0.0418  1.7361
 2396SOL    HW218822   4.492   4.175   8.372  1.8743 -0.0659 -0.5427
 2397SOL     OW18823   0.927   4.334   3.462  0.0531 -0.7591  0.3303
 2397SOL    HW118824   0.924   4.287   3.379 -0.3136  2.1055 -1.2845
 2397SOL    HW218825   1.003   4.390   3.448 -0.8826  0.2043 -0.8486
 2398SOL     OW18826   4.264   0.429  10.736 -0.0250  0.2027  0.1375
 2398SOL    HW118827   4.184   0.421  10.787 -1.4815 -0.6151 -2.2845
 2398SOL    HW218828   4.294   0.338  10.740 -1.1074 -0.1269  0.5097
 2399SOL     OW18829   4.605   2.366   9.601  0.1314  0.5367  0.2014
 2399SOL    HW118830   4.647   2.315   9.670 -1.3940  0.9392  1.4301
 2399SOL    HW218831   4.545   2.412   9.660 -2.3698 -2.0267 -0.4079
 2400SOL     OW18832   0.461   2.010   2.545 -0.7262  0.4549  0.6212
 2400SOL    HW118833   0.456   1.949   2.472 -1.1348 -2.0225  2.7021
 2400SOL    HW218834   0.444   1.960   2.625  2.1984 -0.4537  0.6732
 2401SOL     OW18835   0.096   2.837   1.607  0.3077  0.1666  0.9507
 2401SOL    HW118836   0.018   2.803   1.563  1.2579 -1.3366  0.4263
 2401SOL    HW218837   0.147   2.847   1.527 -2.6391 -1.2310 -1.1220
 2402SOL     OW18838   0.119   1.565  16.257 -0.4108  0.1697  0.1799
 2402SOL    HW118839   0.200   1.534  16.217  1.4580 -1.7881  5.5826
 2402SOL    HW218840   0.143   1.644  16.306  1.4499 -0.3916  0.1643
 2403SOL     OW18841   1.765   0.089  13.959  0.0704  0.1789  0.3098
 2403SOL    HW118842   1.715   0.010  13.979 -1.5081  1.0196 -0.3661
 2403SOL    HW218843   1.693   0.151  13.972 -1.3265 -2.0599  3.2925
 2404SOL     OW18844   3.949   2.596   9.079 -0.3857 -0.2977 -0.4445
 2404SOL    HW118845   4.022   2.541   9.107  0.5721  0.2399 -1.8771
 2404SOL    HW218846   3.948   2.564   8.989 -3.8875 -2.3555  0.3097
 2405SOL     OW18847   4.189   0.276   3.578 -0.2962 -0.1254 -0.2715
 2405SOL    HW118848   4.203   0.295   3.670  1.2105 -1.0651 -0.2988
 2405SOL    HW218849   4.138   0.195   3.585  0.1735 -0.5172 -1.3774
 2406SOL     OW18850   0.198   3.141   1.909  0.3041  0.6295  0.2448
 2406SOL    HW118851   0.170   3.154   1.818 -0.6557 -2.0878  0.1470
 2406SOL    HW218852   0.240   3.055   1.916  0.5877  0.9971  3.0254
 2407SOL     OW18853   2.048   1.366  16.202  0.5263  0.5200 -0.3561
 2407SOL    HW118854   2.066   1.460  16.195  0.2835  0.5356 -0.7345
 2407SOL    HW218855   2.046   1.351  16.297  0.4082  2.6354 -0.0185
 2408SOL     OW18856   1.048   1.471   9.354  0.2171  0.0420  0.1858
 2408SOL    HW118857   1.139   1.450   9.333  0.0286 -0.8213  0.2385
 2408SOL    HW218858   1.002   1.409   9.298  0.9400 -0.2679 -0.0551
 2409SOL     OW18859   1.028   2.130   6.744  0.2684  0.6635  0.1580
 2409SOL    HW118860   1.057   2.158   6.658  0.9433  0.8347  0.4429
 2409SOL    HW218861   1.015   2.035   6.735  0.2889  0.8197 -1.4220
 2410SOL     OW18862   1.513   3.968   5.412 -0.4987 -0.1021 -0.8261
 2410SOL    HW118863   1.602   3.996   5.431 -0.8514  0.7803 -0.4511
 2410SOL    HW218864   1.477   3.959   5.501  0.0991 -0.5129 -0.6276
 2411SOL     OW18865   2.387   4.348  15.034 -0.5312  0.6493 -0.2562
 2411SOL    HW118866   2.404   4.260  15.069 -1.2096  0.7069  0.2192
 2411SOL    HW218867   2.328   4.332  14.961 -2.9162  0.6786  1.6451
 2412SOL     OW18868   4.219   3.421   2.607  0.2292  0.0213 -0.0581
 2412SOL    HW118869   4.251   3.434   2.517 -1.0573 -1.7456 -0.7660
 2412SOL    HW218870   4.206   3.326   2.604  1.1538 -0.1169  0.0528
 2413SOL     OW18871   3.988   3.839   0.420  0.9461  0.2127 -0.2380
 2413SOL    HW118872   4.052   3.810   0.355 -0.9942 -0.0583 -2.0220
 2413SOL    HW218873   3.995   3.935   0.424  0.7503  0.2313 -0.3687
 2414SOL     OW18874   1.046   1.099   1.398  0.0901 -0.0258 -0.1205
 2414SOL    HW118875   1.002   1.166   1.450  0.5469 -1.0821  1.6298
 2414SOL    HW218876   0.983   1.027   1.402 -0.4852  0.5195  0.4554
 2415SOL     OW18877   4.290   1.049   4.015  0.1002 -0.0259 -0.0577
 2415SOL    HW118878   4.372   1.078   4.055 -0.5009 -0.5449  1.5614
 2415SOL    HW218879   4.227   1.115   4.044  1.0027  0.5621  0.5851
 2416SOL     OW18880   0.006   3.434   2.459 -0.1621 -1.1700 -0.9496
 2416SOL    HW118881   4.704   3.369   2.520 -2.2562  2.0156  1.1699
 2416SOL    HW218882   4.711   3.388   2.380 -3.0839  1.4866 -1.4223
 2417SOL     OW18883   0.230   3.511   1.083 -0.2713  0.2100  0.2498
 2417SOL    HW118884   0.218   3.606   1.078  2.3444  0.4717 -0.6520
 2417SOL    HW218885   0.141   3.484   1.107 -0.4137  0.4893  0.0397
 2418SOL     OW18886   2.814   2.203   3.878  0.1593  0.2753  0.0401
 2418SOL    HW118887   2.737   2.217   3.824 -0.2471  1.6210  0.9795
 2418SOL    HW218888   2.830   2.109   3.883 -1.3129  0.0441  0.3492
 2419SOL     OW18889   2.567   0.789  16.862  0.3051 -0.3665  0.2159
 2419SOL    HW118890   2.516   0.806  16.783  0.7505  0.5123  0.1087
 2419SOL    HW218891   2.613   0.872  16.877 -1.8788  0.8373  0.2147
 2420SOL     OW18892   4.525   2.330   3.038  0.2007 -0.1546 -0.0714
 2420SOL    HW118893   4.489   2.415   3.064  0.7663  0.3026 -0.7712
 2420SOL    HW218894   4.480   2.325   2.954 -0.9773 -0.1527  0.5642
 2421SOL     OW18895   0.096   4.507   6.346 -0.1978  0.0985  0.0301
 2421SOL    HW118896   0.007   4.515   6.381 -0.4378  2.0203 -1.0140
 2421SOL    HW218897   0.083   4.453   6.268 -3.0611 -0.9832  1.2326
 2422SOL     OW18898   3.506   2.479   7.027 -0.6539 -0.3009 -0.0891
 2422SOL    HW118899   3.466   2.433   7.101  0.5598  3.0884  2.6967
 2422SOL    HW218900   3.508   2.402   6.970  0.3853 -1.4672  1.4922
 2423SOL     OW18901   0.887   1.883  10.233  0.5435 -0.3769 -0.1258
 2423SOL    HW118902   0.967   1.845  10.196  0.8995  0.6858 -0.4665
 2423SOL    HW218903   0.871   1.949  10.165  0.3204 -1.2705 -0.9388
 2424SOL     OW18904   1.271   3.668   5.584  0.1525 -0.5372 -0.5422
 2424SOL    HW118905   1.310   3.605   5.646 -0.8737 -1.0058 -0.3672
 2424SOL    HW218906   1.252   3.611   5.510  0.5596  0.1796 -1.1899
 2425SOL     OW18907   1.111   3.410   7.267  0.0514  1.0666 -0.0876
 2425SOL    HW118908   1.025   3.432   7.304 -0.1357 -0.7018  0.5290
 2425SOL    HW218909   1.090   3.390   7.176  1.7874 -0.7990 -0.0771
 2426SOL     OW18910   1.809   2.415   6.916 -0.5152 -0.3162 -0.0181
 2426SOL    HW118911   1.877   2.458   6.968  0.3159 -0.9842 -0.5554
 2426SOL    HW218912   1.860   2.361   6.856 -1.7965 -1.6489  0.0741
 2427SOL     OW18913   1.976   0.029   8.080 -0.4800 -0.2093 -0.0483
 2427SOL    HW118914   2.008   4.674   8.097 -3.0653 -1.4196 -1.4948
 2427SOL    HW218915   2.049   0.090   8.080 -1.4409  0.9311 -2.5266
 2428SOL     OW18916   4.165   1.716   7.100  0.3879 -0.0459 -0.3288
 2428SOL    HW118917   4.084   1.764   7.083 -0.1755  0.0060  2.5577
 2428SOL    HW218918   4.141   1.626   7.120 -1.2205  0.5728  0.5362
 2429SOL     OW18919   2.417   1.103  11.853  0.1788  0.4005 -0.1436
 2429SOL    HW118920   2.488   1.070  11.909  0.0740  0.8969  0.2732
 2429SOL    HW218921   2.451   1.070  11.769 -0.1045  0.7313 -0.3875
 2430SOL     OW18922   3.155   4.025  17.394  0.1748  0.3420 -0.2273
 2430SOL    HW118923   3.228   3.994  17.447  0.6296  0.4682 -0.7781
 2430SOL    HW218924   3.082   3.969  17.422 -1.5505  2.5820 -0.2246
 2431SOL     OW18925   1.584   1.660   8.013 -0.4923 -0.1218 -0.9503
 2431SOL    HW118926   1.535   1.742   8.014  0.3126  0.3542 -0.9383
 2431SOL    HW218927   1.513   1.597   7.999  0.4656 -1.7284  1.4564
 2432SOL     OW18928   2.901   3.959   2.687 -0.6483  0.0813 -0.6223
 2432SOL    HW118929   2.941   4.046   2.690 -1.3175  0.4312 -1.6739
 2432SOL    HW218930   2.810   3.990   2.683 -1.5879 -2.2644  2.2341
 2433SOL     OW18931   1.195   1.454   1.880 -0.7831 -0.4919 -0.2808
 2433SOL    HW118932   1.130   1.436   1.812 -1.3771 -0.2244  0.2211
 2433SOL    HW218933   1.278   1.446   1.832 -0.3934  0.1304  0.2919
 2434SOL     OW18934   2.380   1.290  10.590 -0.5726 -0.4171 -0.0851
 2434SOL    HW118935   2.472   1.271  10.571 -0.2960 -0.5473  1.3944
 2434SOL    HW218936   2.355   1.230  10.661  0.5361 -0.0504  0.6008
 2435SOL     OW18937   1.838   1.385   2.451 -0.3156 -0.0038 -0.6763
 2435SOL    HW118938   1.784   1.307   2.438  1.2307 -1.5715  2.2980
 2435SOL    HW218939   1.794   1.445   2.510  0.8687  1.1869 -0.9937
 2436SOL     OW18940   3.812   3.671   0.737  0.1509  0.9818 -0.3810
 2436SOL    HW118941   3.840   3.586   0.703 -0.1266  1.4041 -1.6338
 2436SOL    HW218942   3.871   3.729   0.689 -0.6205  4.4715  2.9313
 2437SOL     OW18943   2.828   3.160   7.764 -0.0687 -0.0367 -0.2893
 2437SOL    HW118944   2.787   3.100   7.826  0.4388  0.2708  0.3446
 2437SOL    HW218945   2.910   3.110   7.768 -0.3705 -0.4308  0.7826
 2438SOL     OW18946   1.718   3.778   6.798 -0.3023  0.0573 -0.2348
 2438SOL    HW118947   1.644   3.821   6.756 -1.4002 -1.3407  0.2558
 2438SOL    HW218948   1.777   3.852   6.810  0.6382 -0.8669  0.9634
 2439SOL     OW18949   4.080   3.638  16.560 -0.5169 -0.2586  0.1860
 2439SOL    HW118950   4.164   3.623  16.517 -0.7632  2.6628 -1.2861
 2439SOL    HW218951   4.091   3.587  16.640  1.4879 -1.6582 -0.9865
 2440SOL     OW18952   4.721   0.098   3.444 -0.8746  0.3902 -0.0306
 2440SOL    HW118953   0.055   0.043   3.404 -0.2709  2.0764 -1.3309
 2440SOL    HW218954   4.647   0.043   3.417 -2.6163  2.6359  0.1091
 2441SOL     OW18955   2.208   1.267   8.266 -0.9255 -0.3890  0.0762
 2441SOL    HW118956   2.127   1.318   8.262 -0.5870  0.0145 -1.7206
 2441SOL    HW218957   2.241   1.254   8.177  1.1410 -1.9489  1.0857
 2442SOL     OW18958   1.761   4.334  15.997  0.1747 -0.0716  0.4170
 2442SOL    HW118959   1.719   4.269  16.053 -0.8143 -0.9030 -1.2747
 2442SOL    HW218960   1.708   4.412  16.014  0.2593  0.6027 -2.4273
 2443SOL     OW18961   2.480   4.682  16.122  0.4466  0.6201  0.0568
 2443SOL    HW118962   2.415   4.731  16.072  3.2037  3.1804 -1.0258
 2443SOL    HW218963   2.542   0.021  16.129  0.5330  0.6709 -1.2923
 2444SOL     OW18964   1.576   2.994   1.848 -0.4556 -0.5838 -0.1493
 2444SOL    HW118965   1.514   2.924   1.830 -1.8863  0.1104  2.1655
 2444SOL    HW218966   1.634   2.952   1.912  0.2497  0.0713 -0.3519
 2445SOL     OW18967   3.993   0.432  10.764  0.7675  0.3550 -0.0119
 2445SOL    HW118968   3.910   0.481  10.764  0.3354 -0.4005  1.4493
 2445SOL    HW218969   3.963   0.345  10.791 -1.1013  0.7445 -0.8357
 2446SOL     OW18970   1.728   0.871   6.155  0.0365  0.7815 -0.6509
 2446SOL    HW118971   1.779   0.799   6.119  0.0734  0.5149 -0.0587
 2446SOL    HW218972   1.794   0.897   6.220 -0.1117  1.2561 -0.6887
 2447SOL     OW18973   3.225   1.766   8.276 -0.1905 -0.4376  0.3149
 2447SOL    HW118974   3.138   1.806   8.266 -0.0400 -0.3829 -0.8291
 2447SOL    HW218975   3.193   1.676   8.280 -0.3808 -0.3434  0.9293
 2448SOL     OW18976   3.266   1.558  10.958  0.1171 -0.5226 -0.2182
 2448SOL    HW118977   3.322   1.562  10.881  1.3602 -0.2504  0.7018
 2448SOL    HW218978   3.322   1.595  11.027 -0.2662  0.3644 -0.3786
 2449SOL     OW18979   0.374   4.310   7.232 -0.2640  0.3608 -0.3005
 2449SOL    HW118980   0.299   4.363   7.207  0.1811  1.8370  1.5052
 2449SOL    HW218981   0.427   4.389   7.237  0.5430 -0.1024 -1.6689
 2450SOL     OW18982   3.571   4.016   0.283 -0.3439 -0.0975  0.3580
 2450SOL    HW118983   3.520   4.016   0.364 -0.8663 -0.5203  0.0358
 2450SOL    HW218984   3.582   3.921   0.276 -3.1273 -0.3547 -0.8777
 2451SOL     OW18985   3.685   1.854   8.608 -0.7302 -0.1323 -0.7017
 2451SOL    HW118986   3.602   1.874   8.566 -0.2446  3.0139 -0.1663
 2451SOL    HW218987   3.724   1.815   8.529 -1.4977 -1.8656 -0.2241
 2452SOL     OW18988   3.334   1.580   3.045 -0.5507  0.2053  0.0718
 2452SOL    HW118989   3.392   1.505   3.055  2.0234  2.0183 -1.1432
 2452SOL    HW218990   3.255   1.554   3.093  0.3165  0.5445  1.6908
 2453SOL     OW18991   3.192   1.162  13.216  0.4078 -0.2632 -0.4557
 2453SOL    HW118992   3.145   1.246  13.211  0.6098 -0.1499 -0.4398
 2453SOL    HW218993   3.146   1.117  13.287  0.1241  1.1161  0.2386
 2454SOL     OW18994   0.575   1.968  14.948 -0.0530  0.5906 -0.3680
 2454SOL    HW118995   0.656   1.917  14.946 -2.4000 -3.1603  1.2734
 2454SOL    HW218996   0.516   1.902  14.985  0.0102  0.8560  0.2191
 2455SOL     OW18997   1.834   3.183   3.119  0.3226 -0.7168  0.7640
 2455SOL    HW118998   1.856   3.138   3.201  0.7554 -3.4175 -0.8282
 2455SOL    HW218999   1.786   3.258   3.154 -2.3055 -0.5682 -3.2117
 2456SOL     OW19000   2.090   0.947  11.159 -0.2351 -0.0205 -0.4085
 2456SOL    HW119001   2.141   0.897  11.223  0.4823  0.6995 -0.4244
 2456SOL    HW219002   2.169   0.975  11.113 -0.4080 -2.7210 -2.3352
 2457SOL     OW19003   1.000   2.372  13.119 -0.2166  0.1281  0.0451
 2457SOL    HW119004   0.918   2.337  13.084  0.9732 -1.4844 -1.1342
 2457SOL    HW219005   0.990   2.409  13.207  2.0225 -2.6387  1.4516
 2458SOL     OW19006   1.688   0.458  16.845  0.3981 -0.3594 -0.7457
 2458SOL    HW119007   1.715   0.521  16.779 -0.6867 -0.7870 -1.6039
 2458SOL    HW219008   1.653   0.389  16.787  2.8570 -0.2151 -2.4280
 2459SOL     OW19009   0.534   3.871   0.765  0.0352 -0.3102  0.4627
 2459SOL    HW119010   0.565   3.852   0.677 -1.1398  0.1005 -0.0432
 2459SOL    HW219011   0.538   3.785   0.807 -3.5301 -1.7518 -2.1416
 2460SOL     OW19012   1.633   3.690   2.715 -0.4717 -0.1803 -0.5115
 2460SOL    HW119013   1.639   3.714   2.623 -1.2212  1.1730 -0.2263
 2460SOL    HW219014   1.615   3.597   2.704 -1.0845 -0.0682 -0.5082
 2461SOL     OW19015   1.861   2.768   3.270 -0.6495 -0.2325  0.5312
 2461SOL    HW119016   1.917   2.704   3.228 -1.3652  0.4898 -1.5482
 2461SOL    HW219017   1.786   2.772   3.210 -2.2145  2.0606  2.5997
 2462SOL     OW19018   2.685   2.221  13.745  0.2218 -0.3990  0.9706
 2462SOL    HW119019   2.642   2.144  13.784 -0.1791 -1.0953 -0.8769
 2462SOL    HW219020   2.637   2.225  13.662  1.4157 -1.3157  0.2375
 2463SOL     OW19021   1.491   2.727   5.480  0.0129  0.4673  0.0465
 2463SOL    HW119022   1.508   2.691   5.393 -1.2996 -1.6012  0.6492
 2463SOL    HW219023   1.525   2.661   5.540 -0.5687  0.2675  0.1598
 2464SOL     OW19024   2.763   4.390   3.765 -1.3007 -0.0987 -0.3190
 2464SOL    HW119025   2.799   4.461   3.713  1.8005  0.1866  2.2178
 2464SOL    HW219026   2.838   4.350   3.808 -1.3479  1.5551  1.2998
 2465SOL     OW19027   2.221   0.652  11.243 -0.5830  0.5646  0.5761
 2465SOL    HW119028   2.277   0.634  11.168  0.8251  0.0089  1.7699
 2465SOL    HW219029   2.284   0.661  11.315  0.8962  1.1431 -0.7928
 2466SOL     OW19030   1.450   4.679   9.571 -0.0783 -0.4549 -0.3997
 2466SOL    HW119031   1.373   4.639   9.611 -0.3517  1.8234  1.3833
 2466SOL    HW219032   1.429   4.694   9.479  0.5887 -1.5813 -0.7363
 2467SOL     OW19033   0.675   3.606   9.155  0.6700 -0.3500 -0.1523
 2467SOL    HW119034   0.701   3.577   9.243 -0.9786 -0.6474  0.2385
 2467SOL    HW219035   0.624   3.684   9.173  1.7644  0.6343 -1.3329
 2468SOL     OW19036   0.114   2.645   2.864 -0.7884  0.6384 -0.1669
 2468SOL    HW119037   0.179   2.697   2.817  2.1146 -3.0837 -0.2811
 2468SOL    HW219038   0.036   2.700   2.856 -1.1867 -0.3520 -3.0888
 2469SOL     OW19039   3.568   0.678   2.726 -0.0297  0.2243  0.2515
 2469SOL    HW119040   3.605   0.669   2.638 -1.7126 -0.4557 -0.3674
 2469SOL    HW219041   3.629   0.632   2.784  1.7525 -0.5658 -2.2728
 2470SOL     OW19042   3.744   3.943   9.708 -0.5726  0.7470  0.0394
 2470SOL    HW119043   3.795   4.022   9.695 -0.2801  1.0822  3.3322
 2470SOL    HW219044   3.737   3.900   9.623 -0.3294 -0.8719  0.8374
 2471SOL     OW19045   3.548   3.064   6.160 -0.2865  0.5343  0.9152
 2471SOL    HW119046   3.494   3.102   6.091 -2.2855 -2.3711  0.8773
 2471SOL    HW219047   3.626   3.119   6.166 -1.5381  2.4537 -0.5089
 2472SOL     OW19048   4.233   4.529   6.394  0.1211 -0.7736 -0.1143
 2472SOL    HW119049   4.243   4.616   6.355  0.9837 -0.7775  0.1002
 2472SOL    HW219050   4.154   4.496   6.352 -0.2475  1.5430 -1.2909
 2473SOL     OW19051   4.219   1.959   8.899 -0.0781 -0.1531  0.2016
 2473SOL    HW119052   4.254   1.870   8.907  0.7129  0.0058 -1.4927
 2473SOL    HW219053   4.238   1.975   8.807 -1.4892  0.9723  0.1005
 2474SOL     OW19054   0.262   3.424   5.462  0.3428  0.2834 -0.1282
 2474SOL    HW119055   0.169   3.398   5.460  0.4114 -0.2216  3.4371
 2474SOL    HW219056   0.289   3.378   5.542  1.1416 -0.0883 -0.6124
 2475SOL     OW19057   1.242   0.060  12.624 -0.0951  0.0010  0.1403
 2475SOL    HW119058   1.168   0.019  12.580 -1.0257 -0.8868  2.5490
 2475SOL    HW219059   1.321   0.015  12.593  0.3262 -1.1001  2.8163
 2476SOL     OW19060   3.021   3.133   2.507  0.2836  0.6966  0.4427
 2476SOL    HW119061   3.056   3.065   2.564  2.2729 -0.7620 -2.5118
 2476SOL    HW219062   2.993   3.083   2.431 -0.0410 -2.0365  2.3538
 2477SOL     OW19063   2.772   1.612  16.170  0.0660  0.1381  0.4787
 2477SOL    HW119064   2.734   1.645  16.089  1.3729  0.2964 -0.0653
 2477SOL    HW219065   2.849   1.668  16.186  0.5243 -1.0316  2.4003
 2478SOL     OW19066   4.154   4.588   7.291  0.4423  0.5522  0.1180
 2478SOL    HW119067   4.248   4.572   7.282  0.3264  0.9340 -1.6709
 2478SOL    HW219068   4.144   4.621   7.202 -0.2781  1.4879  0.5423
 2479SOL     OW19069   2.755   1.435   6.996 -0.3275  0.0815 -0.4803
 2479SOL    HW119070   2.796   1.521   6.986  1.3910 -0.4917  1.6762
 2479SOL    HW219071   2.702   1.438   7.076 -0.4964 -1.1835 -0.5399
 2480SOL     OW19072   2.966   0.962   1.553  0.0919 -0.0830  0.7117
 2480SOL    HW119073   2.930   1.011   1.627  1.0758  3.4525 -1.1719
 2480SOL    HW219074   3.061   0.971   1.560 -0.0663  0.9807  1.5209
 2481SOL     OW19075   1.849   1.729  15.005  0.7757 -0.1802 -0.0243
 2481SOL    HW119076   1.906   1.694  14.938  1.5808 -3.7869  2.5678
 2481SOL    HW219077   1.768   1.682  14.987  0.9846 -1.6514  2.9528
 2482SOL     OW19078   0.425   0.788   5.891 -0.0289 -0.2988 -0.5392
 2482SOL    HW119079   0.440   0.693   5.893  1.8336 -0.0062 -0.8355
 2482SOL    HW219080   0.445   0.807   5.799 -2.5911 -1.2668 -1.2866
 2483SOL     OW19081   4.592   3.917   9.112 -0.0628  0.1244  0.2398
 2483SOL    HW119082   4.589   3.826   9.082 -1.4542  0.8701 -1.8358
 2483SOL    HW219083   4.578   3.965   9.030 -1.3501 -2.3937 -1.0160
 2484SOL     OW19084   2.049   3.103   1.746 -0.0795  0.0478 -0.1790
 2484SOL    HW119085   2.123   3.054   1.711  1.2089 -1.2637  4.4380
 2484SOL    HW219086   2.049   3.172   1.680  1.0260 -0.8713 -1.1408
 2485SOL     OW19087   0.302   2.551   2.064  0.0455  0.1638  0.0493
 2485SOL    HW119088   0.262   2.589   2.143  0.4272 -2.8721  1.7229
 2485SOL    HW219089   0.260   2.603   1.996 -0.7132  0.8520  1.0284
 2486SOL     OW19090   0.521   4.703   6.798  0.1809 -0.4200 -0.2252
 2486SOL    HW119091   0.482   0.053   6.774  3.2554  1.0506 -0.0447
 2486SOL    HW219092   0.614   4.725   6.791  0.0170  1.4142  3.3496
 2487SOL     OW19093   4.412   1.288   5.765 -0.1813 -0.7077  0.9094
 2487SOL    HW119094   4.399   1.211   5.710 -0.1936 -0.1778  0.1808
 2487SOL    HW219095   4.420   1.357   5.700 -1.6904 -0.9956  0.4227
 2488SOL     OW19096   3.353   1.793   2.511  0.1659  0.2028 -0.1319
 2488SOL    HW119097   3.351   1.877   2.466 -1.4903  0.2907  0.1031
 2488SOL    HW219098   3.435   1.754   2.479  0.7497 -0.2238  1.8516
 2489SOL     OW19099   0.287   3.659   2.027 -0.3058  0.2673 -0.2370
 2489SOL    HW119100   0.219   3.605   1.987  0.9975 -1.1502 -0.5165
 2489SOL    HW219101   0.355   3.602   2.062  1.0192  0.6683 -2.0984
 2490SOL     OW19102   1.391   0.041  13.552  0.0923 -0.0214 -0.1347
 2490SOL    HW119103   1.478   0.005  13.565 -0.1744 -0.4901  0.3395
 2490SOL    HW219104   1.403   0.067  13.460 -0.5831  0.1287 -0.1806
 2491SOL     OW19105   2.250   4.491   6.390 -0.2518 -0.8507  0.1137
 2491SOL    HW119106   2.154   4.488   6.388 -0.2269 -2.5914  2.0758
 2491SOL    HW219107   2.255   4.558   6.459 -0.1698  0.7067 -1.3818
 2492SOL     OW19108   1.236   2.810   3.133  0.0076  0.3266 -0.3159
 2492SOL    HW119109   1.241   2.812   3.229  1.2782 -1.2380 -0.3501
 2492SOL    HW219110   1.231   2.715   3.122  0.9036  0.4134 -1.4555
 2493SOL     OW19111   0.886   4.070  11.103  0.3665 -0.0997  0.0608
 2493SOL    HW119112   0.915   4.077  11.012  0.2381 -1.0612 -0.0554
 2493SOL    HW219113   0.910   4.159  11.129  1.5169 -0.7765  1.2859
 2494SOL     OW19114   1.221   2.975  14.723 -0.2921 -0.0666 -0.0368
 2494SOL    HW119115   1.221   3.065  14.754 -0.5500 -0.1316  0.1531
 2494SOL    HW219116   1.138   2.991  14.677  0.0506  2.1615  0.0975
 2495SOL     OW19117   3.638   0.770   8.258 -0.6621 -0.0819  0.4048
 2495SOL    HW119118   3.628   0.848   8.313  1.4968  0.3046  0.2569
 2495SOL    HW219119   3.635   0.708   8.331 -2.8546  0.0373  0.4179
 2496SOL     OW19120   1.583   4.438  14.608 -0.1145 -0.1550  0.6678
 2496SOL    HW119121   1.517   4.401  14.549  2.1491 -1.2074 -1.2347
 2496SOL    HW219122   1.654   4.375  14.598  0.7398  0.5986  2.0055
 2497SOL     OW19123   0.488   1.679   8.595  0.0778  0.5501 -0.4252
 2497SOL    HW119124   0.523   1.768   8.589  0.0659  0.5397 -0.6260
 2497SOL    HW219125   0.487   1.662   8.501 -2.0871 -2.0478  0.0699
 2498SOL     OW19126   2.015   1.680  15.348 -0.7203 -0.2043 -0.1157
 2498SOL    HW119127   1.985   1.768  15.325 -1.6266 -0.4922 -0.0555
 2498SOL    HW219128   2.085   1.670  15.284 -0.0585 -0.6195  0.6602
 2499SOL     OW19129   2.660   1.678   1.894 -0.1094 -0.2131 -0.1923
 2499SOL    HW119130   2.727   1.711   1.833  0.3009  0.5064  0.6516
 2499SOL    HW219131   2.654   1.746   1.961 -2.1537 -1.0884  0.5182
 2500SOL     OW19132   0.193   3.917   1.941 -0.1373  0.0428  0.2898
 2500SOL    HW119133   0.098   3.919   1.955 -0.2536  1.5047 -0.7523
 2500SOL    HW219134   0.223   3.838   1.986  4.3778  0.6671 -1.6534
 2501SOL     OW19135   1.075   0.332  12.703 -0.1021  0.0805 -0.0435
 2501SOL    HW119136   1.166   0.324  12.732  0.1178  1.4483 -0.3691
 2501SOL    HW219137   1.097   0.354  12.613 -1.9210 -1.2599 -0.8094
 2502SOL     OW19138   1.701   3.820   1.596 -0.4872  0.5532  0.2800
 2502SOL    HW119139   1.662   3.748   1.646  0.9610  0.4231  1.2449
 2502SOL    HW219140   1.750   3.859   1.669  0.6993  0.0662 -0.2684
 2503SOL     OW19141   1.936   1.061  10.502  0.0926 -0.1322 -0.5586
 2503SOL    HW119142   1.929   1.033  10.411  0.6820 -2.4456  0.1033
 2503SOL    HW219143   1.994   0.993  10.537 -0.3857 -0.2724 -0.0480
 2504SOL     OW19144   4.104   3.860   9.001  0.1435  0.0227  0.3340
 2504SOL    HW119145   4.191   3.847   8.962 -0.7131  0.3155 -1.6649
 2504SOL    HW219146   4.136   3.898   9.083 -0.9603  1.9097 -0.1102
 2505SOL     OW19147   2.629   0.751   8.744  0.5955  0.0597 -0.3070
 2505SOL    HW119148   2.550   0.724   8.697 -0.1771 -0.3359  1.2182
 2505SOL    HW219149   2.698   0.710   8.693  1.4373  0.6956  0.3334
 2506SOL     OW19150   4.016   3.345   3.348 -0.1980  0.1974  0.1173
 2506SOL    HW119151   3.925   3.361   3.372 -0.6782 -1.3613 -0.7018
 2506SOL    HW219152   4.037   3.408   3.278  1.4379  0.7113  1.0577
 2507SOL     OW19153   1.970   4.032   7.735  0.4812  0.1123  0.1292
 2507SOL    HW119154   1.892   4.080   7.765  0.1664  0.6855 -1.6194
 2507SOL    HW219155   1.925   3.968   7.679 -1.3380  1.3614  0.1725
 2508SOL     OW19156   3.587   4.391  14.099  0.2973  0.0199  0.3247
 2508SOL    HW119157   3.526   4.345  14.041  0.5967  2.1138 -1.6293
 2508SOL    HW219158   3.553   4.378  14.187 -0.6148  0.9323  0.1083
 2509SOL     OW19159   0.782   2.882   1.613  0.6283 -0.0603 -0.1495
 2509SOL    HW119160   0.840   2.869   1.538  1.8034 -1.1816  0.9755
 2509SOL    HW219161   0.815   2.802   1.654 -2.8015 -1.4818 -0.1288
 2510SOL     OW19162   0.187   3.946   3.943 -0.1173  0.0658  0.1691
 2510SOL    HW119163   0.231   3.982   4.020 -1.9730  2.5692  0.0575
 2510SOL    HW219164   0.166   3.856   3.969 -0.4003  0.1530  0.2386
 2511SOL     OW19165   2.661   0.174   7.770 -0.1465 -0.1964  0.1778
 2511SOL    HW119166   2.755   0.156   7.776 -0.3540 -1.8392 -1.4812
 2511SOL    HW219167   2.624   0.142   7.852  2.3259  0.2157  1.4648
 2512SOL     OW19168   4.056   2.294   4.035  0.0961  0.2253 -0.1391
 2512SOL    HW119169   4.032   2.384   4.059 -2.0858 -0.4018 -0.0115
 2512SOL    HW219170   4.105   2.314   3.956  0.3369 -3.9707 -1.0253
 2513SOL     OW19171   1.974   2.921   2.469 -0.5488 -0.1795  0.1564
 2513SOL    HW119172   1.954   2.989   2.404  0.1454 -0.2752 -0.1593
 2513SOL    HW219173   2.047   2.876   2.428 -0.2536  0.3699  0.0717
 2514SOL     OW19174   3.679   1.462  13.828 -0.1636  0.4061 -0.0337
 2514SOL    HW119175   3.619   1.399  13.787  0.0140  0.9352 -1.1076
 2514SOL    HW219176   3.665   1.547  13.785  0.2321 -0.3185 -1.5930
 2515SOL     OW19177   0.529   1.920   3.949 -0.1069  0.3173  0.7571
 2515SOL    HW119178   0.534   2.014   3.930  0.1554  0.4920  1.6742
 2515SOL    HW219179   0.612   1.885   3.919  0.6486  2.6907  0.1263
 2516SOL     OW19180   3.857   4.406   7.861  0.5442  0.3964  0.0270
 2516SOL    HW119181   3.861   4.327   7.916  0.5612 -0.1970 -0.8319
 2516SOL    HW219182   3.764   4.421   7.844  0.0232 -1.2299  1.3419
 2517SOL     OW19183   0.705   0.899   2.273  0.4553  0.4503  0.2047
 2517SOL    HW119184   0.693   0.885   2.179 -1.6011  0.1502  0.5242
 2517SOL    HW219185   0.800   0.914   2.280  0.4178  1.0868 -0.6691
 2518SOL     OW19186   0.162   2.703   8.385 -0.2502  0.2443 -0.0178
 2518SOL    HW119187   0.167   2.701   8.480  0.9985  0.3226 -0.0821
 2518SOL    HW219188   0.144   2.795   8.363  0.1632  0.1173 -0.8997
 2519SOL     OW19189   3.611   2.253  12.471 -0.4876  0.5529 -0.3198
 2519SOL    HW119190   3.604   2.205  12.554  1.8977 -2.5650 -1.9365
 2519SOL    HW219191   3.685   2.203  12.436 -0.1810 -0.0418  1.1446
 2520SOL     OW19192   3.585   1.167   3.692  0.3037  0.7675 -0.5674
 2520SOL    HW119193   3.587   1.178   3.787  0.3946  0.9335 -0.5875
 2520SOL    HW219194   3.645   1.093   3.679 -0.1270  0.1128  1.1763
 2521SOL     OW19195   4.346   3.712   3.882 -0.3143 -0.1004 -0.0882
 2521SOL    HW119196   4.405   3.761   3.938  0.2360 -3.9013  2.6975
 2521SOL    HW219197   4.333   3.638   3.941 -1.0475 -1.9914 -2.5772
 2522SOL     OW19198   1.080   2.985   6.882  0.2159  0.0068  0.0985
 2522SOL    HW119199   1.093   3.070   6.924 -0.9194  1.2108 -1.9684
 2522SOL    HW219200   1.106   3.009   6.793  0.1334  2.7133  0.8116
 2523SOL     OW19201   3.974   0.455   9.544 -0.1670  0.0002  0.8801
 2523SOL    HW119202   3.967   0.485   9.453 -2.3045  0.4886  1.1948
 2523SOL    HW219203   3.966   0.359   9.543 -1.0767  0.0774 -0.6846
 2524SOL     OW19204   1.824   4.347   4.812  0.5738  0.4786  0.0895
 2524SOL    HW119205   1.888   4.346   4.884 -0.2603 -2.5570  0.7992
 2524SOL    HW219206   1.792   4.257   4.815  1.7875  0.0076 -0.8889
 2525SOL     OW19207   3.668   4.120   1.800  0.1902 -0.9322  0.0393
 2525SOL    HW119208   3.579   4.109   1.767  0.6084 -0.8298 -1.1181
 2525SOL    HW219209   3.650   4.186   1.867  1.6963 -0.1630 -0.3285
 2526SOL     OW19210   4.033   4.097   6.780  0.2732  0.1550  0.0917
 2526SOL    HW119211   4.034   4.002   6.767 -0.3687  0.0699  0.6627
 2526SOL    HW219212   3.948   4.123   6.746  0.0529 -1.6077 -0.6823
 2527SOL     OW19213   0.365   2.215  16.776 -0.5088 -0.2127 -0.0390
 2527SOL    HW119214   0.343   2.138  16.724 -0.0959 -0.9062  0.8175
 2527SOL    HW219215   0.461   2.217  16.778 -0.6269  1.0274  3.3697
 2528SOL     OW19216   2.680   3.561   9.239  0.2492 -0.1997  0.2033
 2528SOL    HW119217   2.653   3.598   9.323  0.7479  1.3857 -0.3253
 2528SOL    HW219218   2.731   3.634   9.204  1.7253 -1.8128 -0.9751
 2529SOL     OW19219   1.770   4.239  12.988 -0.0550  0.2325 -0.5804
 2529SOL    HW119220   1.679   4.206  12.983  0.4817 -1.0985 -1.8194
 2529SOL    HW219221   1.784   4.247  13.082 -0.9004 -0.8900 -0.3528
 2530SOL     OW19222   2.239   1.185  13.225 -0.6329  0.3417  0.8717
 2530SOL    HW119223   2.227   1.091  13.241 -0.8522  0.1312 -0.5294
 2530SOL    HW219224   2.263   1.183  13.132 -1.8170 -2.0040  0.6155
 2531SOL     OW19225   0.400   4.232   9.194  0.2512 -0.5220 -0.7206
 2531SOL    HW119226   0.441   4.317   9.205 -0.3896 -0.3359  0.1987
 2531SOL    HW219227   0.348   4.242   9.114  1.6532 -1.8325 -1.7838
 2532SOL     OW19228   3.368   2.016   4.315 -0.1558 -0.5786  0.2647
 2532SOL    HW119229   3.417   1.970   4.247 -0.6915  1.0936 -1.2426
 2532SOL    HW219230   3.424   2.093   4.325 -1.1500  0.3870 -1.7167
 2533SOL     OW19231   1.641   1.314  15.290  0.2857 -0.5134  0.3824
 2533SOL    HW119232   1.716   1.373  15.283 -1.7705  1.8926 -1.4342
 2533SOL    HW219233   1.610   1.324  15.380  2.8963  0.7696  1.1382
 2534SOL     OW19234   4.176   2.925  17.692 -0.6231  0.0944 -0.1949
 2534SOL    HW119235   4.109   2.891   0.016  0.4584  0.8961  1.5159
 2534SOL    HW219236   4.142   2.886  17.612  0.1364  1.2526 -1.0815
 2535SOL     OW19237   1.351   3.661   2.240  0.4533 -0.2327 -0.1410
 2535SOL    HW119238   1.339   3.679   2.333 -0.5528 -1.0949 -0.0998
 2535SOL    HW219239   1.430   3.711   2.218  1.5949 -1.3018  1.5417
 2536SOL     OW19240   1.689   0.861   8.072  0.1151 -0.2715  0.4917
 2536SOL    HW119241   1.651   0.844   8.158 -2.8902  1.4913 -0.4490
 2536SOL    HW219242   1.736   0.780   8.050  1.8418  0.7663  0.3737
 2537SOL     OW19243   1.168   2.307   7.240  0.1610  0.0425 -0.0996
 2537SOL    HW119244   1.142   2.298   7.149 -0.4624 -2.5460  0.3474
 2537SOL    HW219245   1.108   2.378   7.263 -0.1363 -0.8291  1.7885
 2538SOL     OW19246   2.636   0.867   6.321  0.2143 -0.1007  0.2414
 2538SOL    HW119247   2.617   0.839   6.231  0.8927  1.1132 -0.2717
 2538SOL    HW219248   2.706   0.804   6.334  1.9339  1.6449 -0.6054
 2539SOL     OW19249   1.058   1.068   5.778 -0.6260 -0.0448 -0.3318
 2539SOL    HW119250   1.130   1.005   5.789 -0.3679  0.3271  0.1047
 2539SOL    HW219251   1.062   1.074   5.683  0.1511 -1.4907 -0.3843
 2540SOL     OW19252   2.873   4.385   6.456  0.2878 -0.2421  0.0812
 2540SOL    HW119253   2.807   4.447   6.427  2.2159  0.3605 -2.9729
 2540SOL    HW219254   2.931   4.390   6.380  0.8735  0.2449  0.5643
 2541SOL     OW19255   2.742   3.064   4.262 -0.4154  0.2282  0.1432
 2541SOL    HW119256   2.773   2.974   4.274  3.2549  1.4297 -0.4811
 2541SOL    HW219257   2.823   3.114   4.251  0.1773 -0.1966  2.5832
 2542SOL     OW19258   3.344   0.422   3.014 -0.6146  0.4054  0.4532
 2542SOL    HW119259   3.439   0.422   3.007 -0.5895  1.4576  0.6785
 2542SOL    HW219260   3.329   0.341   2.966 -0.2580  0.2342  0.6315
 2543SOL     OW19261   2.755   3.352   0.316  0.1300 -0.2543  0.3124
 2543SOL    HW119262   2.751   3.428   0.257  0.9573  0.8720  1.7151
 2543SOL    HW219263   2.661   3.351   0.332 -0.0343  0.7692 -0.6014
 2544SOL     OW19264   3.348   2.267   4.435 -0.1856  0.1889  0.3206
 2544SOL    HW119265   3.396   2.262   4.352 -0.6391  0.8867  0.0220
 2544SOL    HW219266   3.382   2.346   4.478  1.3882  0.4580 -1.3645
 2545SOL     OW19267   3.982   4.075   6.399  0.0384  0.2710 -0.0967
 2545SOL    HW119268   4.050   4.009   6.387 -0.4931 -0.5274  1.3182
 2545SOL    HW219269   3.992   4.131   6.322 -0.7148 -1.1809 -1.2692
 2546SOL     OW19270   0.621   3.010   5.826  0.2216 -0.3101  0.6600
 2546SOL    HW119271   0.707   2.985   5.793  0.2216 -3.1534  2.8469
 2546SOL    HW219272   0.599   3.090   5.778 -1.7290 -1.0053  0.4211
 2547SOL     OW19273   3.102   4.330   3.233  0.0742  0.3110 -0.2692
 2547SOL    HW119274   3.013   4.294   3.233 -0.8612  2.6151  1.2837
 2547SOL    HW219275   3.088   4.402   3.294 -2.1312  0.7378 -1.2959
 2548SOL     OW19276   1.688   3.089   8.377 -0.1734  0.6306  0.0175
 2548SOL    HW119277   1.766   3.035   8.392 -0.4872  0.1444 -0.0905
 2548SOL    HW219278   1.656   3.114   8.464  0.0964  3.1545 -0.6248
 2549SOL     OW19279   0.340   2.439  17.101  0.2018 -0.0770  0.0453
 2549SOL    HW119280   0.412   2.502  17.101  0.2800 -0.1549  1.8278
 2549SOL    HW219281   0.389   2.357  17.115 -0.5526 -0.6598 -0.7741
 2550SOL     OW19282   3.054   4.619   3.068 -0.1632  0.1960 -0.2371
 2550SOL    HW119283   3.053   4.676   2.991 -1.7693  0.0599 -0.3169
 2550SOL    HW219284   3.095   4.684   3.125  0.5004  1.5155 -2.2133
 2551SOL     OW19285   2.749   2.392   1.859 -0.4062 -0.5379 -0.1183
 2551SOL    HW119286   2.780   2.444   1.933 -1.0110  0.6441 -0.6879
 2551SOL    HW219287   2.684   2.450   1.820 -1.3252  0.8806  3.4912
 2552SOL     OW19288   3.232   0.924   6.417 -0.1693  0.0068 -0.0322
 2552SOL    HW119289   3.238   0.994   6.482  0.7559  0.9055 -1.0901
 2552SOL    HW219290   3.178   0.975   6.358  0.0570  2.0133  1.4849
 2553SOL     OW19291   4.348   4.191   3.594 -0.3526 -0.6470 -0.0154
 2553SOL    HW119292   4.263   4.172   3.554 -1.2733  2.2644  0.6192
 2553SOL    HW219293   4.401   4.120   3.559  0.1478 -0.4974  0.4463
 2554SOL     OW19294   2.144   0.250  10.679  0.2404  0.0976 -0.0129
 2554SOL    HW119295   2.236   0.234  10.697  0.4976  0.1488 -1.2965
 2554SOL    HW219296   2.115   0.166  10.643 -0.0510 -0.0622  0.6024
 2555SOL     OW19297   2.577   1.874   5.893 -0.1302  0.3674  0.1957
 2555SOL    HW119298   2.561   1.790   5.936  1.3627 -0.1042 -0.1567
 2555SOL    HW219299   2.544   1.858   5.805 -1.8910 -0.7607  1.0666
 2556SOL     OW19300   1.170   1.153   6.484  0.0842 -0.3809  0.7318
 2556SOL    HW119301   1.245   1.102   6.456 -1.0577 -1.0744 -1.0933
 2556SOL    HW219302   1.108   1.137   6.413 -2.1333  0.4817  2.4467
 2557SOL     OW19303   1.927   2.953   5.542 -0.7006  0.2879 -0.3261
 2557SOL    HW119304   1.833   2.938   5.531 -1.1996  3.8152 -0.7018
 2557SOL    HW219305   1.935   2.911   5.627  0.8227 -1.0089 -1.0889
 2558SOL     OW19306   0.938   0.746   5.391  0.8100 -0.5495 -0.2967
 2558SOL    HW119307   1.019   0.703   5.417 -0.6018 -2.7164  0.5805
 2558SOL    HW219308   0.895   0.767   5.474  1.2435  0.9925 -0.4729
 2559SOL     OW19309   0.604   2.004   4.609 -0.1943  0.4533  0.3269
 2559SOL    HW119310   0.614   1.911   4.588  2.0262  0.4646  1.3941
 2559SOL    HW219311   0.508   2.006   4.605 -0.1015 -0.4214 -2.5032
 2560SOL     OW19312   2.922   3.117  16.237 -0.4696 -0.0358 -0.4357
 2560SOL    HW119313   2.917   3.132  16.331  0.3674  1.9635 -0.7184
 2560SOL    HW219314   2.835   3.137  16.203  0.9539  1.5576 -3.2177
 2561SOL     OW19315   1.981   1.164   6.496  0.1542 -0.4799 -0.6386
 2561SOL    HW119316   1.926   1.236   6.465 -1.5938 -2.1322 -1.4040
 2561SOL    HW219317   1.918   1.126   6.557  1.3587 -1.9861 -0.3124
 2562SOL     OW19318   3.467   3.083   7.731 -0.9337 -0.1703  0.1334
 2562SOL    HW119319   3.500   3.163   7.690 -0.2752  0.1407  1.2749
 2562SOL    HW219320   3.442   3.029   7.655  0.1606 -0.6897  0.1448
 2563SOL     OW19321   3.083   0.908   2.836 -0.1883 -0.0893 -0.0098
 2563SOL    HW119322   3.077   0.962   2.756  0.8990 -0.3275 -0.2455
 2563SOL    HW219323   3.089   0.980   2.899  0.8547 -0.2029  0.0069
 2564SOL     OW19324   0.659   4.070  16.693 -0.0358  0.3790 -0.5167
 2564SOL    HW119325   0.587   4.110  16.742  0.7472 -0.6291  1.4594
 2564SOL    HW219326   0.696   4.015  16.762  1.0118  3.0966  1.1049
 2565SOL     OW19327   0.908   0.469   6.679  0.4336 -0.0024  0.1132
 2565SOL    HW119328   0.862   0.552   6.665  1.6785  0.5177 -0.8139
 2565SOL    HW219329   0.995   0.478   6.642  0.3750 -0.3231 -0.1067
 2566SOL     OW19330   1.090   0.226   9.628  0.7501  0.2753  0.2994
 2566SOL    HW119331   1.049   0.148   9.665  1.4659 -0.7596 -1.1072
 2566SOL    HW219332   1.134   0.261   9.705  1.5465  0.0063 -0.0370
 2567SOL     OW19333   2.721   4.695   3.305  0.0188  0.2943  0.1003
 2567SOL    HW119334   2.663   4.631   3.347  0.1575  1.3023  1.8051
 2567SOL    HW219335   2.697   0.048   3.336  2.7207  0.7589  0.8554
 2568SOL     OW19336   4.348   0.052   4.906 -0.4692 -0.4111 -0.3418
 2568SOL    HW119337   4.303   0.095   4.833  2.3887 -0.2747 -2.0700
 2568SOL    HW219338   4.299   0.085   4.980 -1.3575 -0.5145 -0.8827
 2569SOL     OW19339   1.693   1.001   0.559  0.6514 -0.3639  0.4554
 2569SOL    HW119340   1.663   1.081   0.516  0.9215 -0.2814  0.4183
 2569SOL    HW219341   1.689   0.938   0.487 -2.9855 -1.7556  1.9088
 2570SOL     OW19342   1.634   1.203   0.411  0.1204  0.2744 -0.2717
 2570SOL    HW119343   1.716   1.248   0.434  0.2880  1.4040 -3.0744
 2570SOL    HW219344   1.587   1.281   0.381  1.5710  0.7878 -1.2043
 2571SOL     OW19345   3.900   1.042   5.195  0.0640  0.1304 -0.0736
 2571SOL    HW119346   3.919   1.084   5.111  0.2510 -0.1731 -0.1830
 2571SOL    HW219347   3.904   0.952   5.161  2.3492  0.3009 -0.2422
 2572SOL     OW19348   4.009   1.476  14.867  0.4471  0.0365  0.2863
 2572SOL    HW119349   3.985   1.391  14.830  1.7269 -1.3746  2.6937
 2572SOL    HW219350   4.000   1.548  14.805 -1.8918  0.4720  1.1596
 2573SOL     OW19351   4.049   4.603   1.533 -0.2284 -0.3296 -0.2112
 2573SOL    HW119352   3.993   4.562   1.467 -0.9124 -0.5110  0.4747
 2573SOL    HW219353   4.069   4.526   1.587 -1.9232 -0.0534  0.8277
 2574SOL     OW19354   2.455   3.642  13.317  0.0744 -0.7536 -0.4739
 2574SOL    HW119355   2.481   3.582  13.248  1.5643  0.3363 -0.8758
 2574SOL    HW219356   2.371   3.684  13.299  1.9335  2.7859 -0.8363
 2575SOL     OW19357   1.140   3.344   1.392 -1.3056  0.1980  0.2233
 2575SOL    HW119358   1.164   3.307   1.477 -0.6953 -1.4667 -0.6769
 2575SOL    HW219359   1.201   3.293   1.340 -1.5032 -1.6969  1.8465
 2576SOL     OW19360   0.302   1.713   2.464 -0.5006 -0.2086  0.6860
 2576SOL    HW119361   0.257   1.777   2.519 -0.8290  1.1843 -1.2398
 2576SOL    HW219362   0.346   1.659   2.531  0.3119 -2.6824 -1.8430
 2577SOL     OW19363   4.011   0.979   9.179  0.2252 -0.4661  0.0044
 2577SOL    HW119364   3.995   1.073   9.185  2.2958 -0.1230  0.2618
 2577SOL    HW219365   3.935   0.940   9.136  0.8423  0.2642 -1.7344
 2578SOL     OW19366   4.153   2.633  10.587  0.0920 -0.0569  0.4603
 2578SOL    HW119367   4.185   2.720  10.608 -0.2089 -0.4903  2.6721
 2578SOL    HW219368   4.197   2.574  10.648  0.7013 -0.0452  0.0306
 2579SOL     OW19369   3.138   1.885   6.121 -0.4277 -0.2121  0.2935
 2579SOL    HW119370   3.232   1.869   6.121 -0.4024 -0.0265  2.3493
 2579SOL    HW219371   3.132   1.968   6.074  1.9838 -1.0941 -1.5402
 2580SOL     OW19372   0.377   4.606   1.397  0.2327 -0.1684 -0.1032
 2580SOL    HW119373   0.301   4.547   1.398  1.2680 -1.4578  1.2953
 2580SOL    HW219374   0.420   4.595   1.312  0.5233 -0.0469  0.0288
 2581SOL     OW19375   2.088   3.453   0.379  0.2221 -0.6631  0.0066
 2581SOL    HW119376   2.167   3.404   0.402 -0.7311 -1.9605  0.4702
 2581SOL    HW219377   2.119   3.492   0.297 -0.0826 -0.9777 -0.2560
 2582SOL     OW19378   1.507   1.003   5.723  0.2471 -0.3194  0.0701
 2582SOL    HW119379   1.509   1.087   5.768  1.3749  0.4483 -1.4375
 2582SOL    HW219380   1.568   1.026   5.653 -0.8444 -2.7721 -1.7195
 2583SOL     OW19381   3.132   2.202   4.729  0.0118  0.0777 -0.0525
 2583SOL    HW119382   3.134   2.227   4.822 -0.2025 -2.1912  0.5514
 2583SOL    HW219383   3.175   2.280   4.694 -0.1017 -0.5382 -1.5584
 2584SOL     OW19384   4.467   2.130   2.327  0.4359 -0.1627  0.5127
 2584SOL    HW119385   4.549   2.082   2.314  0.7458  0.2347  1.0260
 2584SOL    HW219386   4.413   2.053   2.344 -1.0778  0.9681  0.7819
 2585SOL     OW19387   4.561   1.149   5.407  0.4053  0.3599  0.0031
 2585SOL    HW119388   4.539   1.175   5.318  0.9601 -0.0475 -0.2457
 2585SOL    HW219389   4.618   1.216   5.444 -0.9255  0.5851  1.6767
 2586SOL     OW19390   3.079   1.319   2.082 -0.4596  0.5286 -0.4639
 2586SOL    HW119391   3.041   1.293   1.998  0.1698  0.7963 -0.8359
 2586SOL    HW219392   3.019   1.384   2.118 -2.0406 -2.2978  2.0298
 2587SOL     OW19393   2.249   2.512   7.519 -0.4548  0.5961  0.3106
 2587SOL    HW119394   2.319   2.530   7.456 -0.2942 -3.0667 -0.5375
 2587SOL    HW219395   2.193   2.453   7.469  0.0589 -1.0696  1.6949
 2588SOL     OW19396   0.423   0.247   3.905 -0.0808  0.2206  0.8524
 2588SOL    HW119397   0.377   0.183   3.852  1.4085  1.5419 -2.0200
 2588SOL    HW219398   0.357   0.315   3.915 -1.6651 -1.3376  0.8805
 2589SOL     OW19399   2.663   2.943   2.172 -0.1303  0.1521 -0.2035
 2589SOL    HW119400   2.620   3.027   2.158  0.7903  0.6560 -0.0370
 2589SOL    HW219401   2.596   2.881   2.142  0.6805  0.1265 -1.9736
 2590SOL     OW19402   3.790   2.530  14.736 -0.1243  0.1532 -0.2302
 2590SOL    HW119403   3.855   2.510  14.804  0.5793 -0.5147 -1.0907
 2590SOL    HW219404   3.852   2.559  14.669  0.8570  1.6725  1.3180
 2591SOL     OW19405   0.824   0.483   0.958 -0.1678 -0.1559 -0.0258
 2591SOL    HW119406   0.912   0.448   0.939 -1.1150 -2.1209 -0.8635
 2591SOL    HW219407   0.833   0.497   1.052 -1.3394  0.0595  0.0475
 2592SOL     OW19408   1.791   0.111  13.676  0.2541  0.2037  0.0847
 2592SOL    HW119409   1.777   0.105  13.771  2.3332 -1.5062  0.2721
 2592SOL    HW219410   1.740   0.187  13.647  0.1139  0.9628  2.2541
 2593SOL     OW19411   4.604   3.638   3.721  0.2108 -0.0558 -0.2007
 2593SOL    HW119412   4.619   3.668   3.811  1.3473  1.8740 -1.0493
 2593SOL    HW219413   4.624   3.544   3.726  0.5302  0.0976  1.6927
 2594SOL     OW19414   3.053   4.037   1.108  0.5876 -0.4644  0.0350
 2594SOL    HW119415   2.966   4.010   1.138  0.6772 -0.2714  0.4732
 2594SOL    HW219416   3.038   4.054   1.015 -0.7385 -1.9342 -0.0267
 2595SOL     OW19417   1.638   1.721   0.359  0.0610  0.2764 -0.0770
 2595SOL    HW119418   1.618   1.711   0.266 -1.7437 -2.7567  0.6340
 2595SOL    HW219419   1.716   1.776   0.348  0.8750 -0.8636 -0.0301
 2596SOL     OW19420   3.247   0.124   8.202 -0.5366 -0.0954  0.4200
 2596SOL    HW119421   3.161   0.167   8.201 -0.0065  0.9788  0.0888
 2596SOL    HW219422   3.299   0.204   8.208  1.4270 -1.1592 -2.2341
 2597SOL     OW19423   3.105   0.711   0.016 -0.2474 -0.3481 -0.3007
 2597SOL    HW119424   3.131   0.796  17.715 -0.0063 -0.7111 -0.9648
 2597SOL    HW219425   3.059   0.664  17.682 -0.5648 -0.5184  0.0269
 2598SOL     OW19426   3.157   0.384   9.227  0.3439 -0.2519 -0.1526
 2598SOL    HW119427   3.206   0.304   9.244  0.0432 -0.1676  1.0806
 2598SOL    HW219428   3.124   0.367   9.139  2.0667  0.4970 -0.9383
 2599SOL     OW19429   2.081   1.872   3.502 -0.0810  0.4731  0.3708
 2599SOL    HW119430   2.011   1.936   3.488  1.2633  1.2786 -2.6297
 2599SOL    HW219431   2.057   1.809   3.435 -0.3468 -1.1770  2.0207
 2600SOL     OW19432   4.663   0.554   0.438  0.6224  0.1021  0.5163
 2600SOL    HW119433   4.574   0.527   0.462  0.8293 -1.2785 -0.2561
 2600SOL    HW219434   4.650   0.541   0.344 -1.0660 -1.2923  0.9391
 2601SOL     OW19435   2.729   4.447  16.256 -0.0166 -0.3430  0.1989
 2601SOL    HW119436   2.681   4.374  16.296 -1.3115  0.8663  0.8202
 2601SOL    HW219437   2.689   4.465  16.171 -1.8137 -0.0462  1.1076
 2602SOL     OW19438   0.216   1.214   3.579  0.4474  0.0858 -0.7139
 2602SOL    HW119439   0.191   1.162   3.503  2.8170 -1.5476 -0.3522
 2602SOL    HW219440   0.262   1.148   3.630 -0.3314 -0.0556 -0.1822
 2603SOL     OW19441   3.406   1.814   3.387  0.4164  0.5475 -0.4559
 2603SOL    HW119442   3.397   1.829   3.293  0.5127 -1.8164 -0.8584
 2603SOL    HW219443   3.342   1.882   3.408 -1.7285 -0.9577 -2.0750
 2604SOL     OW19444   4.699   2.267  10.944 -0.9235 -0.0565  0.0870
 2604SOL    HW119445   4.610   2.265  10.979 -0.6563  0.5891  0.8103
 2604SOL    HW219446   4.719   2.352  10.983 -1.6401  0.4140 -0.5880
 2605SOL     OW19447   1.712   4.309   6.985  0.1430 -0.2600  0.3742
 2605SOL    HW119448   1.754   4.233   7.026 -2.2090 -1.5009  0.4481
 2605SOL    HW219449   1.786   4.355   6.945  1.1179 -1.8812  0.3221
 2606SOL     OW19450   3.578   3.390   1.216 -0.1919  0.0230  0.0300
 2606SOL    HW119451   3.584   3.485   1.206 -3.0246 -0.0183 -1.9987
 2606SOL    HW219452   3.602   3.367   1.127 -0.5691 -0.2135 -0.0099
 2607SOL     OW19453   1.964   1.629   2.084 -0.0341 -0.3620  0.4552
 2607SOL    HW119454   1.871   1.606   2.082 -0.2381  0.6604 -1.6874
 2607SOL    HW219455   2.000   1.583   2.160  0.5797 -0.3926  0.1488
 2608SOL     OW19456   3.070   2.323   4.474 -0.4649 -0.4069  0.1949
 2608SOL    HW119457   3.031   2.261   4.413 -0.1301 -1.0768  0.6731
 2608SOL    HW219458   3.163   2.300   4.464 -0.5703 -0.1095 -1.5804
 2609SOL     OW19459   4.315   1.818   5.596  0.3071 -0.2097 -0.7123
 2609SOL    HW119460   4.252   1.888   5.579 -0.4808 -1.1568 -1.7666
 2609SOL    HW219461   4.333   1.774   5.512  0.4860  2.4864 -2.1027
 2610SOL     OW19462   2.849   1.975  10.552 -0.3971 -0.2892 -0.5299
 2610SOL    HW119463   2.912   2.044  10.575  0.2028 -0.4938 -1.5483
 2610SOL    HW219464   2.825   1.993  10.461 -1.7472  0.5413 -0.0089
 2611SOL     OW19465   3.423   1.869   6.098  0.6104  0.1582  0.2615
 2611SOL    HW119466   3.486   1.942   6.097  1.9004 -0.9590 -1.7392
 2611SOL    HW219467   3.448   1.795   6.153 -1.1958 -1.1225 -0.6477
 2612SOL     OW19468   1.401   1.166   4.851 -0.2311 -0.0142 -0.1530
 2612SOL    HW119469   1.321   1.113   4.855  0.4775 -1.0245  0.7838
 2612SOL    HW219470   1.459   1.106   4.804 -1.4341  0.3453 -2.0835
 2613SOL     OW19471   1.817   0.312   1.331  0.0740  0.4079 -0.0867
 2613SOL    HW119472   1.800   0.406   1.321 -3.1003 -0.0561  0.9996
 2613SOL    HW219473   1.898   0.316   1.382 -0.1335  1.0734  0.2018
 2614SOL     OW19474   2.340   4.155   8.935  0.3886  0.0539 -0.2675
 2614SOL    HW119475   2.363   4.066   8.906 -0.4417 -1.1194  2.6597
 2614SOL    HW219476   2.247   4.137   8.948  0.4868 -1.6384 -1.8067
 2615SOL     OW19477   1.740   0.865  11.629  0.1367 -0.7096 -0.0897
 2615SOL    HW119478   1.697   0.911  11.556 -0.3661 -3.0444 -1.2432
 2615SOL    HW219479   1.831   0.856  11.601 -0.3669 -1.2057 -1.5576
 2616SOL     OW19480   3.009   1.464  10.185 -0.6670 -0.2231  0.0916
 2616SOL    HW119481   2.981   1.385  10.230 -4.8290  0.8948 -0.5168
 2616SOL    HW219482   3.103   1.447  10.178 -0.4561  1.3681 -1.2348
 2617SOL     OW19483   3.469   3.591   3.419  0.4188 -0.0668 -0.0372
 2617SOL    HW119484   3.399   3.587   3.355 -0.3433  1.1760  0.7157
 2617SOL    HW219485   3.533   3.643   3.370 -0.9231  0.1956 -1.4925
 2618SOL     OW19486   0.078   1.865   8.727 -0.3327  0.4884 -0.2134
 2618SOL    HW119487   0.080   1.850   8.633  1.8946  2.6096 -0.5000
 2618SOL    HW219488   0.116   1.785   8.764 -0.4206  0.4194 -0.2713
 2619SOL     OW19489   3.261   4.561  12.690 -0.1423 -0.7564 -0.3278
 2619SOL    HW119490   3.328   4.505  12.730  1.7375  2.3543  0.8262
 2619SOL    HW219491   3.200   4.583  12.760  2.4162 -1.6471  2.1876
 2620SOL     OW19492   2.206   0.045   1.966 -0.3026 -0.0324 -0.2010
 2620SOL    HW119493   2.227   4.719   2.038  2.6796 -1.1818 -2.0582
 2620SOL    HW219494   2.110   0.046   1.965 -0.2516  0.4686 -2.7114
 2621SOL     OW19495   0.580   2.673   1.995 -0.2705  0.0222  0.0962
 2621SOL    HW119496   0.580   2.679   1.899  1.4325  4.5107  0.3758
 2621SOL    HW219497   0.505   2.615   2.011 -2.1165  1.7617 -2.1612
 2622SOL     OW19498   0.924   1.366   7.132  0.0899 -0.2992  0.4513
 2622SOL    HW119499   0.831   1.387   7.121  0.3700  1.3566  1.2503
 2622SOL    HW219500   0.947   1.423   7.205  1.6402 -2.3063  1.5158
 2623SOL     OW19501   4.090   2.852   0.433  0.2248  0.3387  0.1106
 2623SOL    HW119502   4.140   2.804   0.367  0.3991 -0.6834  0.9929
 2623SOL    HW219503   4.157   2.874   0.498  1.2461 -0.3728 -0.6999
 2624SOL     OW19504   2.615   1.902   7.975  0.1523 -0.2994  0.1623
 2624SOL    HW119505   2.704   1.932   7.955  0.3960 -2.0861 -1.3772
 2624SOL    HW219506   2.599   1.840   7.904 -2.8306  1.9228 -1.0961
 2625SOL     OW19507   2.047   1.984   7.539 -0.2844 -0.4382  0.2136
 2625SOL    HW119508   2.091   1.998   7.623 -0.0239  0.6235 -0.0955
 2625SOL    HW219509   1.955   1.995   7.563  0.0326 -0.8910  1.6889
 2626SOL     OW19510   4.350   0.328  12.375 -0.3187 -0.0639 -0.7242
 2626SOL    HW119511   4.410   0.295  12.308  0.9747 -1.2184  1.0129
 2626SOL    HW219512   4.307   0.401  12.330 -1.7830 -0.0849  0.6243
 2627SOL     OW19513   2.657   3.203   5.090  0.4717 -0.7182  0.1819
 2627SOL    HW119514   2.718   3.193   5.017 -2.8561 -0.8651 -2.5971
 2627SOL    HW219515   2.638   3.112   5.114  0.9776 -0.2563  2.2807
 2628SOL     OW19516   3.994   4.617   2.554  0.6570 -0.1931 -0.3341
 2628SOL    HW119517   4.029   4.701   2.582  0.7366 -0.7702  1.2639
 2628SOL    HW219518   3.965   4.640   2.465 -0.3412  0.0816  0.0530
 2629SOL     OW19519   1.260   0.900   5.690  0.3025 -0.2675 -0.7505
 2629SOL    HW119520   1.345   0.935   5.717 -0.2658  0.6996 -0.2017
 2629SOL    HW219521   1.271   0.898   5.595  0.1530 -1.8381 -0.7276
 2630SOL     OW19522   2.844   0.551  15.085  0.2831  0.0757 -0.0901
 2630SOL    HW119523   2.821   0.644  15.094  1.3010  0.1835  1.5280
 2630SOL    HW219524   2.753   0.523  15.087  0.7916 -1.4047  1.9116
 2631SOL     OW19525   1.536   3.163   9.668 -0.3112 -0.2188 -0.0487
 2631SOL    HW119526   1.615   3.215   9.653  0.1164 -0.0690  2.7683
 2631SOL    HW219527   1.573   3.075   9.676 -1.3002 -0.5468  0.9986
 2632SOL     OW19528   1.904   2.395   7.888 -0.6024 -0.1937  0.1171
 2632SOL    HW119529   1.873   2.473   7.934  1.1367 -0.5515  1.8457
 2632SOL    HW219530   1.996   2.413   7.867 -0.6018  0.1862  0.4659
 2633SOL     OW19531   2.037   4.465  14.592  0.0628  0.6276  0.6351
 2633SOL    HW119532   1.954   4.421  14.611  0.0531 -0.3606 -1.7046
 2633SOL    HW219533   2.089   4.387  14.575 -0.4360  0.3045  0.5949
 2634SOL     OW19534   4.357   0.495  17.401  0.0158  0.6787  0.1959
 2634SOL    HW119535   4.417   0.424  17.378 -0.8403  0.1704 -0.4478
 2634SOL    HW219536   4.417   0.569  17.411  1.2091 -0.3776  0.8963
 2635SOL     OW19537   0.454   4.044  13.371  0.5456  0.1446  0.0042
 2635SOL    HW119538   0.462   4.066  13.278  0.5268 -0.1720 -0.0693
 2635SOL    HW219539   0.455   3.949  13.369 -0.3033  0.0695  2.8663
 2636SOL     OW19540   2.113   2.409  16.102 -0.4400 -0.9746 -0.0983
 2636SOL    HW119541   2.121   2.314  16.098  1.0047 -0.9119  1.3280
 2636SOL    HW219542   2.207   2.421  16.092 -0.7584  1.3213 -0.4528
 2637SOL     OW19543   3.365   1.816  15.259 -0.2527 -0.0188  0.2810
 2637SOL    HW119544   3.308   1.751  15.301 -1.9606  0.0733 -1.8732
 2637SOL    HW219545   3.451   1.778  15.242 -0.8320 -0.4661 -1.6707
 2638SOL     OW19546   3.760   3.809  15.993  0.0571  0.2190 -0.4565
 2638SOL    HW119547   3.731   3.726  15.955 -1.8105  0.3685  0.6013
 2638SOL    HW219548   3.840   3.785  16.040 -2.3494 -1.3121  2.8977
 2639SOL     OW19549   2.714   2.992   7.934 -0.0623  0.5504 -0.5073
 2639SOL    HW119550   2.662   2.946   7.867  0.8700 -2.0453  0.5467
 2639SOL    HW219551   2.646   3.026   7.992  0.8298 -1.2650  1.6237
 2640SOL     OW19552   1.832   4.500   6.088  0.0789 -0.3302 -0.8522
 2640SOL    HW119553   1.850   4.472   5.999  1.1511  0.0470 -0.7618
 2640SOL    HW219554   1.745   4.538   6.075  0.6203  0.8756 -0.9529
 2641SOL     OW19555   0.758   1.844  15.391 -0.3118  0.0935  0.6332
 2641SOL    HW119556   0.710   1.782  15.446 -0.2933  0.3758  0.9722
 2641SOL    HW219557   0.848   1.835  15.425  0.1319 -0.1921 -0.6226
 2642SOL     OW19558   0.658   2.253   7.180 -0.0664  0.1607  0.1901
 2642SOL    HW119559   0.686   2.267   7.271  2.3207 -1.4406 -0.2991
 2642SOL    HW219560   0.577   2.302   7.168 -0.0228  0.6781  2.0214
 2643SOL     OW19561   0.162   0.782   2.624  0.3744  0.7352  0.1077
 2643SOL    HW119562   0.134   0.832   2.702 -1.4927  2.5844 -1.7468
 2643SOL    HW219563   0.079   0.744   2.594  0.5244 -0.1787  0.8357
 2644SOL     OW19564   3.191   2.553   9.927 -0.2800 -0.0751  0.1324
 2644SOL    HW119565   3.132   2.539   9.853 -1.9825 -1.4309  1.7607
 2644SOL    HW219566   3.135   2.525   9.999 -2.3442 -1.7696 -2.1251
 2645SOL     OW19567   0.943   4.317  16.330  0.4021 -0.0129 -0.4554
 2645SOL    HW119568   0.944   4.235  16.379 -0.6025  0.3764  0.2132
 2645SOL    HW219569   1.001   4.292  16.258 -0.7642  1.1221 -1.7996
 2646SOL     OW19570   2.109   0.166   9.008 -0.2911 -0.0804  0.5102
 2646SOL    HW119571   2.054   0.176   8.930  1.3772  1.8533 -0.4158
 2646SOL    HW219572   2.191   0.124   8.982 -1.0238 -1.2089  0.0406
 2647SOL     OW19573   0.205   1.138   6.543 -0.5986 -0.3585 -0.6409
 2647SOL    HW119574   0.115   1.168   6.557 -0.7661 -0.9874 -0.3568
 2647SOL    HW219575   0.179   1.054   6.507  3.0809 -0.8824 -2.0455
 2648SOL     OW19576   1.152   3.221   2.112  0.0355  0.2109 -0.0543
 2648SOL    HW119577   1.085   3.232   2.180 -1.6574  1.2821 -1.8727
 2648SOL    HW219578   1.217   3.281   2.148  0.3893  0.2829 -0.8224
 2649SOL     OW19579   1.916   0.429   8.874 -0.1555 -1.0407 -0.6694
 2649SOL    HW119580   1.972   0.477   8.935  0.4535 -2.5339 -0.0355
 2649SOL    HW219581   1.832   0.467   8.902 -0.5383 -1.2366 -1.5592
 2650SOL     OW19582   1.996   0.212   8.500 -0.6857 -0.0720  0.0079
 2650SOL    HW119583   2.069   0.157   8.528  0.5839  1.6874  0.1374
 2650SOL    HW219584   2.031   0.221   8.411 -1.6599 -1.1515 -0.4850
 2651SOL     OW19585   1.172   1.427   2.456 -0.0420 -0.1315 -0.3022
 2651SOL    HW119586   1.218   1.493   2.508 -0.0759 -0.4782  0.1659
 2651SOL    HW219587   1.122   1.383   2.525 -1.1930 -0.3436 -1.2817
 2652SOL     OW19588   4.016   3.238   2.304  0.5538  0.2317 -0.0107
 2652SOL    HW119589   4.050   3.315   2.259  0.1743  0.1412 -0.4572
 2652SOL    HW219590   3.968   3.192   2.236 -0.2583 -0.7256  1.2151
 2653SOL     OW19591   0.658   4.190   9.093  0.3896  0.4762  0.8404
 2653SOL    HW119592   0.719   4.146   9.151 -0.8983 -1.6364  0.5937
 2653SOL    HW219593   0.590   4.225   9.150  2.6527  3.0093  1.9671
 2654SOL     OW19594   3.830   2.389   5.471 -0.2464 -0.2595 -0.0177
 2654SOL    HW119595   3.817   2.353   5.384 -0.9038 -0.7300  0.2782
 2654SOL    HW219596   3.813   2.483   5.458  0.0930 -0.5964 -2.7890
 2655SOL     OW19597   2.479   1.179   4.371 -0.6636  0.3178  0.4033
 2655SOL    HW119598   2.567   1.193   4.405 -0.1658  0.7056 -1.0132
 2655SOL    HW219599   2.467   1.084   4.372  0.0015  0.2327  0.1917
 2656SOL     OW19600   4.026   3.853  11.687 -0.6938  0.3434  0.5986
 2656SOL    HW119601   4.098   3.791  11.698 -1.0907 -0.0754  0.8803
 2656SOL    HW219602   4.002   3.871  11.778  0.8703 -0.0514  1.0778
 2657SOL     OW19603   3.764   1.507  12.324  0.3950  0.3421 -0.2056
 2657SOL    HW119604   3.711   1.442  12.371 -1.0794  0.0513 -2.2458
 2657SOL    HW219605   3.710   1.500  12.245 -0.7728 -0.3993  0.6464
 2658SOL     OW19606   3.729   3.998   2.842 -0.1453 -0.5128 -0.1309
 2658SOL    HW119607   3.710   3.908   2.815  0.5727 -0.1120 -1.9196
 2658SOL    HW219608   3.792   4.033   2.779 -0.0696 -1.6648 -0.6904
 2659SOL     OW19609   2.526   1.515  12.641  0.0785  0.0423  0.1400
 2659SOL    HW119610   2.486   1.451  12.582  0.5439 -1.4938  1.4837
 2659SOL    HW219611   2.510   1.600  12.600  1.1653 -0.0604 -0.4882
 2660SOL     OW19612   3.518   2.708   3.565  0.3248  0.6322  0.0582
 2660SOL    HW119613   3.439   2.761   3.558 -1.6138 -2.3887 -0.9793
 2660SOL    HW219614   3.578   2.761   3.512  0.3224  0.2556 -0.3200
 2661SOL     OW19615   4.425   4.549   7.371  0.5053  0.1614 -0.5736
 2661SOL    HW119616   4.487   4.485   7.338 -1.4840 -1.9759 -0.1962
 2661SOL    HW219617   4.488   4.615   7.400  0.8273 -0.9551  1.2660
 2662SOL     OW19618   2.868   4.042   0.591 -0.1566 -0.8469  0.0080
 2662SOL    HW119619   2.847   4.133   0.614 -0.1241 -0.8448  0.0296
 2662SOL    HW219620   2.964   4.044   0.601 -0.3261 -0.4455  1.5722
 2663SOL     OW19621   0.589   1.889   5.803 -0.0265 -0.5903  0.0567
 2663SOL    HW119622   0.565   1.973   5.841  1.6806 -0.5791  1.1252
 2663SOL    HW219623   0.642   1.860   5.877 -0.8193 -2.2290 -0.0101
 2664SOL     OW19624   2.348   2.967   3.290 -0.1242  0.2610  0.3092
 2664SOL    HW119625   2.353   2.880   3.249  1.6484 -0.1473  1.3920
 2664SOL    HW219626   2.266   2.999   3.252  0.0076  0.1988 -0.0330
 2665SOL     OW19627   1.872   2.835   9.784  0.6930  0.2170 -0.5897
 2665SOL    HW119628   1.937   2.856   9.717  3.8273  2.3755  3.0969
 2665SOL    HW219629   1.896   2.746   9.809  1.4853  0.7330  0.5253
 2666SOL     OW19630   3.184   4.293   6.958  0.3432  0.2760 -0.4801
 2666SOL    HW119631   3.174   4.343   6.878  0.0785  0.3299 -0.4138
 2666SOL    HW219632   3.102   4.309   7.005 -0.0211  1.7616 -1.6339
 2667SOL     OW19633   3.980   3.187   0.980  0.6978 -0.2288  0.3467
 2667SOL    HW119634   3.981   3.283   0.981  1.6692 -0.2565  1.7691
 2667SOL    HW219635   3.983   3.155   0.890  1.1930  0.1078  0.2396
 2668SOL     OW19636   1.657   4.456   9.533 -0.4927 -0.1790 -0.0836
 2668SOL    HW119637   1.583   4.512   9.554 -0.3036  1.3253 -3.3640
 2668SOL    HW219638   1.727   4.505   9.576 -2.0632  1.5815  0.4488
 2669SOL     OW19639   2.321   3.065   8.397 -0.1830 -0.0909 -0.3806
 2669SOL    HW119640   2.391   3.030   8.341  0.6066  1.9662 -0.6799
 2669SOL    HW219641   2.302   2.997   8.461 -1.6142  0.0720 -0.6330
 2670SOL     OW19642   3.308   1.082   3.439 -0.0216 -0.2429  0.7418
 2670SOL    HW119643   3.350   1.165   3.461  2.7150 -0.9277 -1.9119
 2670SOL    HW219644   3.218   1.111   3.452  0.2306  0.1119  1.7412
 2671SOL     OW19645   2.494   0.627  11.291  0.1231 -0.0708 -0.1747
 2671SOL    HW119646   2.559   0.556  11.285  0.1387 -0.0835  0.1474
 2671SOL    HW219647   2.510   0.651  11.382  3.1869 -1.1334 -0.4372
 2672SOL     OW19648   2.386   1.403   1.287 -0.1237 -1.4282 -0.3370
 2672SOL    HW119649   2.368   1.497   1.297  1.4584 -1.0896 -0.6030
 2672SOL    HW219650   2.381   1.377   1.379  1.3001 -0.7696 -0.0738
 2673SOL     OW19651   3.878   2.802   4.128  0.3031  0.2605 -0.3447
 2673SOL    HW119652   3.820   2.753   4.071  0.0896  0.3081 -0.1676
 2673SOL    HW219653   3.833   2.886   4.129  3.2366  1.8438 -1.3191
 2674SOL     OW19654   3.387   0.252   5.084 -0.0967  0.0466 -0.1973
 2674SOL    HW119655   3.324   0.213   5.023  0.7128 -0.4587 -0.7253
 2674SOL    HW219656   3.325   0.292   5.144  0.0106 -1.0296  0.6335
 2675SOL     OW19657   4.457   3.140   0.402 -0.3089 -0.4779  0.2136
 2675SOL    HW119658   4.422   3.083   0.333 -1.1861  0.8645 -0.4333
 2675SOL    HW219659   4.551   3.132   0.383 -0.6790 -0.5434 -1.5652
 2676SOL     OW19660   3.289   1.293   6.102  0.6834 -0.2326  0.0543
 2676SOL    HW119661   3.335   1.267   6.182  0.8636  0.2763  0.1174
 2676SOL    HW219662   3.197   1.269   6.103  1.0948 -1.7592  2.1845
 2677SOL     OW19663   2.343   3.342   8.503 -0.4314 -0.1192  0.1878
 2677SOL    HW119664   2.314   3.387   8.424 -0.9433 -1.3028 -0.2972
 2677SOL    HW219665   2.315   3.254   8.481 -0.1730  0.9442 -4.3829
 2678SOL     OW19666   3.910   3.738   7.798 -0.0420 -0.1888  0.2880
 2678SOL    HW119667   3.998   3.712   7.827  0.9509  0.2094 -2.3578
 2678SOL    HW219668   3.928   3.723   7.705  0.0256  1.4591  0.0331
 2679SOL     OW19669   1.603   3.548   4.969  0.1678 -0.1587 -0.1112
 2679SOL    HW119670   1.609   3.453   4.984 -0.9839 -0.2515 -0.1943
 2679SOL    HW219671   1.509   3.555   4.988 -0.3462 -1.7573 -2.0383
 2680SOL     OW19672   2.440   2.741   3.001  0.1519 -0.5608 -0.0574
 2680SOL    HW119673   2.447   2.652   2.968  1.3183 -1.2901  2.1428
 2680SOL    HW219674   2.356   2.769   2.963  0.9548  0.0961 -1.3583
 2681SOL     OW19675   1.257   2.536   3.106 -0.0548  0.2787  0.0880
 2681SOL    HW119676   1.287   2.493   3.186  0.4142  0.8008  0.1877
 2681SOL    HW219677   1.336   2.514   3.056  0.1546  0.9257  0.1312
 2682SOL     OW19678   2.599   3.988   1.570  0.0752  0.0050  0.1033
 2682SOL    HW119679   2.693   4.000   1.559 -0.0975  0.3722 -0.9643
 2682SOL    HW219680   2.592   3.892   1.578  1.9938 -0.0961  0.5732
 2683SOL     OW19681   1.070   1.874   6.296 -0.2925  0.2701  0.1098
 2683SOL    HW119682   1.152   1.923   6.294 -0.1573  0.0436 -0.0218
 2683SOL    HW219683   1.074   1.870   6.391 -1.2518 -0.2989  0.1294
 2684SOL     OW19684   1.431   4.102   4.691  0.2087 -0.0441 -0.1793
 2684SOL    HW119685   1.487   4.175   4.665 -0.1563  0.0207 -0.8083
 2684SOL    HW219686   1.347   4.141   4.715  1.2219 -0.5013  3.9769
 2685SOL     OW19687   0.967   2.199   6.163  0.6226  0.6223  0.2158
 2685SOL    HW119688   0.995   2.149   6.087  0.5198 -1.1525  1.3630
 2685SOL    HW219689   0.927   2.128   6.213  1.5901 -1.1641 -1.5420
 2686SOL     OW19690   2.570   2.321  14.808 -0.6660  1.1855  0.0110
 2686SOL    HW119691   2.600   2.275  14.887 -0.7626 -0.0291 -0.6568
 2686SOL    HW219692   2.516   2.250  14.771 -0.2635  0.3132  1.0956
 2687SOL     OW19693   3.932   0.126   7.874  0.1666 -0.1107 -0.3000
 2687SOL    HW119694   3.953   0.103   7.783  2.6777  1.0439  0.0149
 2687SOL    HW219695   4.008   0.094   7.922 -0.0545  1.7147  1.2407
 2688SOL     OW19696   1.916   1.233   8.104 -0.4370 -0.2188  0.5833
 2688SOL    HW119697   1.980   1.173   8.065  0.5224 -0.3287  2.3114
 2688SOL    HW219698   1.971   1.310   8.116  0.5370 -0.7279 -0.6344
 2689SOL     OW19699   1.035   0.080   9.234 -0.4997  0.1348  0.0427
 2689SOL    HW119700   1.116   0.122   9.262  0.2969 -0.6684 -1.0262
 2689SOL    HW219701   1.035   0.009   9.299 -0.6442 -0.8531 -1.0268
 2690SOL     OW19702   2.410   0.535   7.356  0.2449 -0.1143  0.5495
 2690SOL    HW119703   2.426   0.588   7.278  0.5440 -0.3378  0.4601
 2690SOL    HW219704   2.494   0.553   7.397  1.3413 -0.9673 -1.3381
 2691SOL     OW19705   4.585   3.679   1.029  0.4282  0.1288 -0.0119
 2691SOL    HW119706   4.651   3.727   0.979  0.6485 -0.5074 -0.3167
 2691SOL    HW219707   4.522   3.749   1.046 -0.0095  0.1095 -1.5730
 2692SOL     OW19708   2.122   2.510   2.347 -0.5284 -0.2241  0.0677
 2692SOL    HW119709   2.208   2.528   2.308 -1.1644 -1.0869 -1.6787
 2692SOL    HW219710   2.125   2.561   2.428 -0.5769 -1.2163  0.6943
 2693SOL     OW19711   3.894   0.966  10.378  0.6333 -0.1142  0.1919
 2693SOL    HW119712   3.801   0.980  10.397  0.6666  0.0817  0.2026
 2693SOL    HW219713   3.928   1.051  10.403  0.3970 -0.6757  2.4526
 2694SOL     OW19714   2.798   1.807   4.950  0.1099 -0.6223  0.3160
 2694SOL    HW119715   2.787   1.717   4.979  1.7822 -0.5972  1.0256
 2694SOL    HW219716   2.877   1.846   4.988 -0.8317  0.8003  0.8248
 2695SOL     OW19717   4.606   0.984  10.685 -0.9125  0.1928 -0.3799
 2695SOL    HW119718   4.544   1.056  10.686  0.4838  1.3834  0.1054
 2695SOL    HW219719   4.544   0.912  10.699 -0.3741 -0.4868 -1.4858
 2696SOL     OW19720   3.797   4.023   7.586  0.2365 -0.9467  0.1914
 2696SOL    HW119721   3.821   3.958   7.520 -1.3957  1.8375 -3.1408
 2696SOL    HW219722   3.836   4.103   7.550 -0.0026 -0.9268 -0.0174
 2697SOL     OW19723   4.099   1.131   7.143  0.3052 -0.1831  0.2573
 2697SOL    HW119724   4.174   1.179   7.178 -0.3054 -0.0759  1.4085
 2697SOL    HW219725   4.096   1.055   7.202  1.5387  0.4188  1.1103
 2698SOL     OW19726   1.292   0.318  14.597  0.3449  0.0470  0.1350
 2698SOL    HW119727   1.256   0.256  14.534  2.5477  0.8216 -1.9110
 2698SOL    HW219728   1.214   0.366  14.624 -0.8979 -1.2820 -1.1399
 2699SOL     OW19729   4.457   0.690  13.720  0.1051 -0.9079 -0.2981
 2699SOL    HW119730   4.533   0.714  13.666 -0.2073  2.7999  0.8906
 2699SOL    HW219731   4.402   0.657  13.649 -1.8481  1.0638  0.2750
 2700SOL     OW19732   1.774   3.329   1.466  0.3381 -0.0460 -0.1669
 2700SOL    HW119733   1.814   3.292   1.387 -2.0881  2.7593 -2.7439
 2700SOL    HW219734   1.720   3.255   1.494  0.8142 -0.3840 -0.1484
 2701SOL     OW19735   0.832   2.415   4.392  0.1272 -0.1988  0.4112
 2701SOL    HW119736   0.773   2.380   4.459 -2.4789  0.1205 -1.6890
 2701SOL    HW219737   0.913   2.386   4.434 -0.9765 -0.8025  2.1212
 2702SOL     OW19738   1.755   2.320   3.835 -0.2338  0.0701  0.4737
 2702SOL    HW119739   1.805   2.402   3.837 -0.7195  0.3961 -0.7914
 2702SOL    HW219740   1.779   2.297   3.925 -0.4319 -0.5002  0.3834
 2703SOL     OW19741   0.529   1.972   8.547  0.1975  0.3883 -0.3274
 2703SOL    HW119742   0.452   1.998   8.498  1.3132 -0.0891 -2.3135
 2703SOL    HW219743   0.537   2.051   8.600  1.7350  1.1502 -1.6890
 2704SOL     OW19744   3.343   4.495   6.638 -0.1866 -0.4642 -1.1046
 2704SOL    HW119745   3.267   4.509   6.695 -0.0952 -1.5812 -0.7012
 2704SOL    HW219746   3.319   4.533   6.553  0.3980 -1.1394 -1.5741
 2705SOL     OW19747   0.481   2.500   4.763  0.4565 -0.1551 -0.2631
 2705SOL    HW119748   0.477   2.553   4.683  2.1514  0.9742  0.3825
 2705SOL    HW219749   0.400   2.450   4.755  2.0416 -2.9648  1.1742
 2706SOL     OW19750   1.526   0.695   1.860 -0.1279  0.3241 -0.5045
 2706SOL    HW119751   1.606   0.728   1.818 -0.0052  1.1317  0.3522
 2706SOL    HW219752   1.567   0.627   1.914  2.2684  1.7968 -0.4757
 2707SOL     OW19753   4.688   1.730   3.072  0.1905  0.1421  0.2354
 2707SOL    HW119754   4.702   1.745   3.166 -1.2669  0.7654  0.3627
 2707SOL    HW219755   4.645   1.810   3.039 -1.1742  0.4512  2.7502
 2708SOL     OW19756   4.231   2.238   6.200 -0.0063 -0.0129 -0.7926
 2708SOL    HW119757   4.273   2.259   6.116  1.1900  0.8185  0.0157
 2708SOL    HW219758   4.153   2.294   6.196  0.4184  0.5226 -1.7840
 2709SOL     OW19759   0.489   3.248  12.494 -0.4964 -0.2172 -0.2697
 2709SOL    HW119760   0.489   3.244  12.589 -0.4276 -1.3902 -0.3210
 2709SOL    HW219761   0.485   3.154  12.477  0.0448 -0.3566  0.4065
 2710SOL     OW19762   3.929   0.076   5.838 -0.1279 -0.8032  0.0904
 2710SOL    HW119763   3.979   0.040   5.764 -1.7631  1.1478 -1.9640
 2710SOL    HW219764   3.860   0.123   5.792  0.4567  0.4815  0.5207
 2711SOL     OW19765   2.856   3.772   2.104  0.4044  0.5686 -0.1779
 2711SOL    HW119766   2.763   3.773   2.128  0.4251  0.7419 -0.1063
 2711SOL    HW219767   2.881   3.839   2.167  1.8618 -0.7620  0.6462
 2712SOL     OW19768   3.834   3.852   6.522  0.2784  0.5861 -0.1067
 2712SOL    HW119769   3.754   3.855   6.469  0.4111  0.6848 -0.3036
 2712SOL    HW219770   3.862   3.944   6.522 -0.8625  0.9434 -1.9326
 2713SOL     OW19771   0.581   4.188   7.685 -0.2452 -0.1637 -0.2851
 2713SOL    HW119772   0.633   4.196   7.605  3.0324  1.5523  1.9762
 2713SOL    HW219773   0.653   4.164   7.743  1.1017 -0.7177 -2.1764
 2714SOL     OW19774   1.831   3.705   9.206 -0.7723  0.5408 -0.3809
 2714SOL    HW119775   1.804   3.794   9.231 -0.2926  0.4059  0.5974
 2714SOL    HW219776   1.886   3.728   9.131  1.0815  1.0344  1.1065
 2715SOL     OW19777   1.666   2.945   5.487 -0.3691 -0.2833  0.0628
 2715SOL    HW119778   1.628   2.961   5.400  0.9890  1.2561 -0.2251
 2715SOL    HW219779   1.629   2.858   5.507  1.4201 -1.0491  0.0110
 2716SOL     OW19780   1.071   2.860   5.282 -0.4895  0.5422 -0.9264
 2716SOL    HW119781   1.132   2.810   5.228  0.5793 -0.1256  0.9235
 2716SOL    HW219782   1.075   2.811   5.364  1.6774  1.7434 -0.3195
 2717SOL     OW19783   0.055   2.335  17.648 -0.2906  0.5198  0.3696
 2717SOL    HW119784   0.133   2.340  17.703 -1.1286  1.7594  1.4524
 2717SOL    HW219785   0.077   2.265  17.586 -2.0275  1.2741 -1.0793
 2718SOL     OW19786   2.930   0.387   3.303 -0.1525  0.2592  0.2817
 2718SOL    HW119787   2.844   0.415   3.333 -0.3953  1.9923 -2.1109
 2718SOL    HW219788   2.927   0.303   3.349  1.4795 -0.4469 -0.9324
 2719SOL     OW19789   1.628   0.360  13.773 -0.3021  0.2483 -0.4181
 2719SOL    HW119790   1.599   0.362  13.682 -1.5454 -0.4837 -0.0383
 2719SOL    HW219791   1.582   0.438  13.804 -0.5485 -0.1108  0.1226
 2720SOL     OW19792   0.903   3.042  10.232 -0.1121  0.2139 -0.6849
 2720SOL    HW119793   0.977   3.000  10.189 -0.3866  0.2278 -1.1641
 2720SOL    HW219794   0.830   2.983  10.211  0.2296 -1.0863  1.7808
 2721SOL     OW19795   2.409   3.277  10.940  0.1163 -0.1057 -0.0726
 2721SOL    HW119796   2.369   3.336  10.877 -0.9787 -1.6895 -0.8449
 2721SOL    HW219797   2.500   3.306  10.943  0.0960  0.0028 -0.6375
 2722SOL     OW19798   3.210   0.627   4.989  0.2606 -0.6782 -0.2833
 2722SOL    HW119799   3.275   0.604   4.922  0.3059 -1.1039 -0.0924
 2722SOL    HW219800   3.247   0.707   5.026 -1.9535 -0.1151  0.6722
 2723SOL     OW19801   3.486   1.289  13.438 -0.5076 -0.1632  0.3664
 2723SOL    HW119802   3.407   1.236  13.433 -0.7317  0.1818  0.2597
 2723SOL    HW219803   3.474   1.336  13.355 -1.2699  1.4843  1.4140
 2724SOL     OW19804   2.535   1.369  12.855  0.8361 -0.4689  0.4457
 2724SOL    HW119805   2.587   1.319  12.792  0.6581 -1.1671  0.8592
 2724SOL    HW219806   2.517   1.448  12.803 -0.5112 -1.9804 -1.3840
 2725SOL     OW19807   0.966   3.378   3.296 -0.1881  0.0194  0.5539
 2725SOL    HW119808   0.991   3.381   3.388 -2.2476 -1.7615  1.1431
 2725SOL    HW219809   1.015   3.303   3.261  0.8660 -0.5316  3.2210
 2726SOL     OW19810   0.231   1.208   3.216 -0.3458  0.0155  0.0664
 2726SOL    HW119811   0.255   1.128   3.170 -1.0417 -0.0639 -0.1686
 2726SOL    HW219812   0.171   1.163   3.276 -1.8838  0.5547 -1.0422
 2727SOL     OW19813   0.242   0.514  12.173  0.2190 -0.5204  0.1286
 2727SOL    HW119814   0.218   0.566  12.250  0.0965 -1.9334  1.0478
 2727SOL    HW219815   0.262   0.434  12.222 -1.4120 -1.1164 -0.1718
 2728SOL     OW19816   3.089   0.352   8.953  0.3296  0.0246 -0.5897
 2728SOL    HW119817   3.146   0.291   8.906  0.4433 -0.8596  0.6805
 2728SOL    HW219818   3.008   0.315   8.917  0.5508 -0.6243 -0.4269
 2729SOL     OW19819   4.055   0.416   5.733  0.2892  0.5470 -0.2091
 2729SOL    HW119820   3.993   0.485   5.757 -1.2834 -1.2540  0.9590
 2729SOL    HW219821   4.011   0.398   5.650  0.9468  0.0189 -0.4492
 2730SOL     OW19822   1.844   3.925  16.851 -0.4062  0.3848 -0.2661
 2730SOL    HW119823   1.780   3.995  16.865  0.1231  0.5076  1.6630
 2730SOL    HW219824   1.924   3.974  16.830  0.8917 -1.8007 -0.4291
 2731SOL     OW19825   2.738   4.364   5.123  0.6287 -0.6523 -0.2709
 2731SOL    HW119826   2.665   4.305   5.106  1.1073 -0.8987 -1.4184
 2731SOL    HW219827   2.709   4.428   5.058  0.7683  0.4053  0.6982
 2732SOL     OW19828   3.935   1.165   8.131  0.3728  0.7007  0.4000
 2732SOL    HW119829   3.958   1.086   8.180  1.1848 -0.5429 -1.9612
 2732SOL    HW219830   3.860   1.128   8.084 -1.2841  0.3422  3.3786
 2733SOL     OW19831   4.498   0.289  15.179  0.4039  0.1070 -0.3296
 2733SOL    HW119832   4.463   0.252  15.260 -1.1192 -2.6335 -2.2404
 2733SOL    HW219833   4.542   0.369  15.208  0.5752  0.1789 -0.7933
 2734SOL     OW19834   1.392   0.320   4.156  0.3046 -0.0436  0.0684
 2734SOL    HW119835   1.354   0.246   4.109  0.7024 -2.6409  3.8532
 2734SOL    HW219836   1.337   0.319   4.235  2.2099  0.1968  1.3989
 2735SOL     OW19837   3.920   2.659   4.767 -0.1239  0.7526 -0.8817
 2735SOL    HW119838   3.997   2.713   4.786 -0.7447  0.7077  1.8377
 2735SOL    HW219839   3.928   2.668   4.672 -0.0439 -0.6534 -1.0072
 2736SOL     OW19840   3.058   3.839   8.960  0.2457 -0.0292 -0.4467
 2736SOL    HW119841   3.057   3.749   8.926 -1.0421 -0.3760  0.5370
 2736SOL    HW219842   3.019   3.903   8.901 -0.4068  0.1392  0.1714
 2737SOL     OW19843   1.320   0.917   9.354  0.3185 -0.0797  0.0471
 2737SOL    HW119844   1.282   0.967   9.281  1.2163  0.5699  0.0219
 2737SOL    HW219845   1.320   0.829   9.316 -0.0735 -0.0327 -0.0624
 2738SOL     OW19846   3.223   3.303   1.804 -0.3622 -0.0575  0.3521
 2738SOL    HW119847   3.171   3.356   1.743  2.0909  2.3968  0.4392
 2738SOL    HW219848   3.309   3.298   1.764 -1.4183 -3.2124 -1.5901
 2739SOL     OW19849   4.697   0.644   1.027 -0.3125  0.2729 -0.4194
 2739SOL    HW119850   4.620   0.673   1.076 -0.4901  0.4279 -0.7964
 2739SOL    HW219851   4.689   0.551   1.044 -0.2974  0.8759  3.0617
 2740SOL     OW19852   0.720   3.234   0.881 -0.0189  0.7676  0.1965
 2740SOL    HW119853   0.650   3.283   0.837 -0.4053  2.0250  2.2557
 2740SOL    HW219854   0.719   3.282   0.963  0.9901 -0.6806  1.0546
 2741SOL     OW19855   1.275   1.997   3.405 -0.0726  0.5437  0.4300
 2741SOL    HW119856   1.223   2.075   3.385  0.0113  0.3421 -0.5833
 2741SOL    HW219857   1.230   1.957   3.479  2.6790  1.5136  2.6485
 2742SOL     OW19858   1.516   0.873  16.999 -0.3034  0.4975  0.0271
 2742SOL    HW119859   1.562   0.813  17.057 -2.7216 -2.5528 -1.2297
 2742SOL    HW219860   1.450   0.914  17.055 -0.8468 -0.6141  0.1979
 2743SOL     OW19861   1.555   0.635  11.922  0.8830 -0.2936 -0.5232
 2743SOL    HW119862   1.552   0.727  11.895 -0.5690 -0.1867  0.0152
 2743SOL    HW219863   1.608   0.643  12.002 -0.4972  1.1739  0.2385
 2744SOL     OW19864   3.190   2.841   6.762 -0.1182  0.0872  0.0948
 2744SOL    HW119865   3.237   2.764   6.792 -0.7315 -0.1829  0.3726
 2744SOL    HW219866   3.107   2.840   6.810 -0.3169 -0.8807 -0.2809
 2745SOL     OW19867   2.176   0.689  10.486  0.6567 -0.2113  0.2682
 2745SOL    HW119868   2.120   0.613  10.499 -0.1203  0.4765  0.8615
 2745SOL    HW219869   2.138   0.759  10.539  2.0449 -0.5858  1.7685
 2746SOL     OW19870   0.236   2.206   5.421 -0.4594  0.1118  0.3238
 2746SOL    HW119871   0.205   2.278   5.475  0.4796  1.2411 -0.6557
 2746SOL    HW219872   0.329   2.225   5.428 -0.2705 -1.6752  2.8299
 2747SOL     OW19873   3.657   3.310   2.408 -0.7752 -0.0507  0.1744
 2747SOL    HW119874   3.717   3.363   2.355  0.6775 -0.4063  1.4789
 2747SOL    HW219875   3.609   3.259   2.342 -0.1646  1.0811 -1.1394
 2748SOL     OW19876   0.678   0.666   2.422 -0.2729  0.3775  0.4650
 2748SOL    HW119877   0.686   0.740   2.362  0.9492  0.6216  0.9199
 2748SOL    HW219878   0.760   0.625   2.394 -2.2144 -0.9470 -3.2403
 2749SOL     OW19879   1.344   1.496   6.027  0.7053 -0.3766  0.1536
 2749SOL    HW119880   1.345   1.406   6.059 -0.9728  0.3363  2.1904
 2749SOL    HW219881   1.286   1.543   6.088  0.5730  1.1903 -1.1667
 2750SOL     OW19882   0.714   1.242   6.749  0.6135  0.4444 -0.1104
 2750SOL    HW119883   0.631   1.270   6.788 -0.4330 -0.0537 -1.9507
 2750SOL    HW219884   0.775   1.243   6.823 -0.0837  2.7206  0.4377
 2751SOL     OW19885   0.034   1.310  14.478 -0.2076 -0.0979 -0.1482
 2751SOL    HW119886   0.092   1.235  14.466 -0.3698 -0.3954  0.9294
 2751SOL    HW219887   0.093   1.377  14.512 -1.5137  0.6802  0.6023
 2752SOL     OW19888   2.992   0.423   1.238  0.0019  0.2468  0.1555
 2752SOL    HW119889   2.962   0.495   1.183  0.1181  0.3767  0.2596
 2752SOL    HW219890   2.971   0.344   1.188 -1.2667  0.5405  0.2222
 2753SOL     OW19891   3.290   3.598   4.721  0.4502 -0.2148  0.1697
 2753SOL    HW119892   3.203   3.607   4.761  0.2684  1.6561 -0.6274
 2753SOL    HW219893   3.274   3.556   4.637  1.1236  1.3271 -0.7308
 2754SOL     OW19894   1.341   3.560  15.495  0.4419  0.8538 -0.4994
 2754SOL    HW119895   1.406   3.499  15.460  0.1230 -0.6200  1.4247
 2754SOL    HW219896   1.394   3.603  15.562  0.8170 -0.8732  0.3342
 2755SOL     OW19897   0.588   2.828   3.891 -0.1442  0.5051 -0.1378
 2755SOL    HW119898   0.636   2.867   3.818  0.8177  0.3582  0.4279
 2755SOL    HW219899   0.634   2.880   3.956 -0.3990  0.2804  0.2212
 2756SOL     OW19900   3.574   0.083   4.392 -0.0589  0.4535  0.2282
 2756SOL    HW119901   3.637   0.129   4.336  2.2101 -0.0455  2.4074
 2756SOL    HW219902   3.616   0.092   4.477  1.7008  0.4989 -0.6434
 2757SOL     OW19903   0.131   3.904   7.359 -0.6288 -0.5812  0.2215
 2757SOL    HW119904   0.146   3.832   7.298  0.7570  0.4705 -0.6890
 2757SOL    HW219905   0.215   3.950   7.354 -1.1643  0.3825  0.0489
 2758SOL     OW19906   3.176   2.797   8.484  0.4194  0.2049  0.2749
 2758SOL    HW119907   3.246   2.799   8.418 -0.1903 -0.3699 -0.3949
 2758SOL    HW219908   3.191   2.720   8.538 -2.2158 -1.1113 -0.8566
 2759SOL     OW19909   3.599   0.580   6.731 -0.0091  0.1603  0.3434
 2759SOL    HW119910   3.655   0.635   6.677  0.2594  0.0611  0.5237
 2759SOL    HW219911   3.610   0.605   6.823 -0.8031 -0.9397  0.7322
 2760SOL     OW19912   1.892   2.470  16.304  0.3376 -0.1086 -0.1366
 2760SOL    HW119913   1.954   2.413  16.258  0.7628  1.6399 -1.7205
 2760SOL    HW219914   1.896   2.550  16.252  1.1467 -0.3426 -0.4279
 2761SOL     OW19915   2.278   2.226   9.002  0.4126 -0.1808  0.0386
 2761SOL    HW119916   2.373   2.219   9.011  0.6345  0.1379 -2.1403
 2761SOL    HW219917   2.260   2.140   8.964 -2.2239  0.0882  0.6973
 2762SOL     OW19918   4.362   2.541   3.105  0.0240 -0.4019 -0.2244
 2762SOL    HW119919   4.293   2.517   3.166 -0.1352 -0.7508 -0.5424
 2762SOL    HW219920   4.417   2.594   3.162 -0.0164  0.0958 -0.6462
 2763SOL     OW19921   2.741   2.898   9.349  0.1668 -0.4019  0.1823
 2763SOL    HW119922   2.672   2.859   9.295  0.1996  2.2360 -1.7595
 2763SOL    HW219923   2.699   2.972   9.392  1.2441  1.1310 -1.4454
 2764SOL     OW19924   3.724   1.317   4.377 -0.1924 -0.7375 -0.1422
 2764SOL    HW119925   3.802   1.371   4.374 -1.4897  0.9981 -2.0675
 2764SOL    HW219926   3.756   1.239   4.332  0.3831  0.0503 -1.0806
 2765SOL     OW19927   0.334   1.478   7.126  0.4450 -0.1965 -0.6225
 2765SOL    HW119928   0.273   1.545   7.096 -2.3011 -1.9277  1.2036
 2765SOL    HW219929   0.370   1.512   7.208  1.1611  1.0901 -1.4648
 2766SOL     OW19930   4.547   1.032   4.149  0.1225 -0.5921  0.1429
 2766SOL    HW119931   4.599   1.054   4.225  0.4958 -0.8776 -0.0308
 2766SOL    HW219932   4.541   0.937   4.153 -1.4865 -0.5250 -0.4609
 2767SOL     OW19933   4.538   0.785   4.253 -0.0177 -0.0141 -0.5361
 2767SOL    HW119934   4.468   0.729   4.220 -0.4934  0.2411  0.0302
 2767SOL    HW219935   4.497   0.813   4.335  0.1894  2.7260 -1.3536
 2768SOL     OW19936   3.662   3.906   5.481  0.3202 -0.8013  0.3931
 2768SOL    HW119937   3.750   3.878   5.504  1.4150  2.4971  0.1835
 2768SOL    HW219938   3.648   3.871   5.393 -0.7712  0.4352  0.0626
 2769SOL     OW19939   0.515   3.115  12.196 -0.0920  1.1554 -0.3051
 2769SOL    HW119940   0.421   3.121  12.177 -0.3606 -1.0547  0.2916
 2769SOL    HW219941   0.539   3.062  12.120  0.3710  0.8227  0.0709
 2770SOL     OW19942   4.065   3.681   7.094 -0.5858 -0.0084  0.4554
 2770SOL    HW119943   3.984   3.730   7.107 -1.3249 -1.1303  0.1406
 2770SOL    HW219944   4.129   3.749   7.108 -0.4580 -0.0397  0.0214
 2771SOL     OW19945   2.735   1.693   9.481  0.1166  0.2924  0.2710
 2771SOL    HW119946   2.660   1.674   9.537  0.1827  0.4895  0.4239
 2771SOL    HW219947   2.803   1.642   9.525  1.4561  1.6647 -0.2082
 2772SOL     OW19948   2.573   1.744  16.519  0.2727 -0.0931  0.1986
 2772SOL    HW119949   2.576   1.835  16.550  0.3307  0.1277 -0.4558
 2772SOL    HW219950   2.589   1.693  16.598  3.7515 -0.2079 -0.5620
 2773SOL     OW19951   2.732   2.882   5.826 -0.1652 -0.4374 -1.2165
 2773SOL    HW119952   2.716   2.972   5.855 -0.6321  0.3013 -3.7850
 2773SOL    HW219953   2.827   2.889   5.824 -0.1694 -0.1167 -0.1250
 2774SOL     OW19954   1.491   2.210  10.190 -0.6875 -0.2880  0.2499
 2774SOL    HW119955   1.491   2.134  10.248 -0.3225  0.2319  0.9379
 2774SOL    HW219956   1.582   2.235  10.209 -1.6014  2.2959  1.1652
 2775SOL     OW19957   4.432   3.245   2.275  0.0233 -0.1691  0.3668
 2775SOL    HW119958   4.425   3.321   2.333  1.4524  1.2884 -1.3614
 2775SOL    HW219959   4.416   3.273   2.185 -0.7488 -1.3842  0.1199
 2776SOL     OW19960   1.343   3.895   9.520 -0.1552  0.0994 -0.4333
 2776SOL    HW119961   1.267   3.909   9.464 -1.4687 -0.9922  1.0755
 2776SOL    HW219962   1.392   3.978   9.523 -0.9937  0.5799  0.1411
 2777SOL     OW19963   3.348   3.702  11.754  0.2290 -0.1401  0.4904
 2777SOL    HW119964   3.331   3.747  11.671  1.1615  1.8466  1.3933
 2777SOL    HW219965   3.405   3.767  11.795  0.6811 -1.2838  1.6628
 2778SOL     OW19966   1.311   2.919   2.886  0.5094 -0.0946 -0.1543
 2778SOL    HW119967   1.278   3.002   2.920  0.8844  0.4453 -1.1290
 2778SOL    HW219968   1.302   2.864   2.965 -0.1669 -1.7421 -1.3820
 2779SOL     OW19969   1.119   0.528  14.658  0.3732  0.7047 -0.2191
 2779SOL    HW119970   1.071   0.465  14.711 -0.7506  0.8226 -1.0943
 2779SOL    HW219971   1.078   0.613  14.673  2.1166  1.3718  0.7276
 2780SOL     OW19972   3.389   0.355   8.654 -1.1454  0.3022 -1.1330
 2780SOL    HW119973   3.467   0.337   8.602 -0.3953  2.0345 -0.5851
 2780SOL    HW219974   3.398   0.450   8.661 -1.4393  0.3056 -0.7932
 2781SOL     OW19975   0.972   2.441   3.413 -0.0029 -0.3721 -0.4870
 2781SOL    HW119976   0.973   2.534   3.436  0.1072 -0.2319 -1.0508
 2781SOL    HW219977   0.963   2.443   3.318  0.1305 -1.9922 -0.5378
 2782SOL     OW19978   3.924   3.363  12.546  0.1119  0.1967  0.7492
 2782SOL    HW119979   4.003   3.404  12.583  0.3286 -0.6239  1.2120
 2782SOL    HW219980   3.852   3.407  12.592  0.5343 -1.4053  2.9985
 2783SOL     OW19981   2.484   1.725  12.382  0.2318 -0.1021 -0.2825
 2783SOL    HW119982   2.499   1.818  12.366  1.3822 -0.3805 -0.8605
 2783SOL    HW219983   2.409   1.707  12.326 -0.2899 -0.7833  0.6228
 2784SOL     OW19984   3.554   4.142   0.017 -0.3752 -0.2608  0.1346
 2784SOL    HW119985   3.509   4.111   0.095 -0.7630 -1.3315 -0.5210
 2784SOL    HW219986   3.637   4.157   0.062  1.2321 -2.0546 -2.2500
 2785SOL     OW19987   1.801   2.344  12.243 -0.0406 -0.3300 -0.1827
 2785SOL    HW119988   1.842   2.312  12.163 -0.8095 -0.6237 -0.4568
 2785SOL    HW219989   1.877   2.318  12.295 -1.5426 -0.5598  1.8575
 2786SOL     OW19990   1.358   3.319   6.055  0.1974  0.5991 -0.5740
 2786SOL    HW119991   1.450   3.339   6.075  0.4410 -0.2517 -0.8195
 2786SOL    HW219992   1.366   3.267   5.975  0.6484  0.0064 -0.1468
 2787SOL     OW19993   1.625   0.839   3.419 -0.0182  0.3824 -0.1564
 2787SOL    HW119994   1.700   0.838   3.360  1.0885 -1.1958  1.2646
 2787SOL    HW219995   1.555   0.846   3.355 -1.0692  0.0167  0.9471
 2788SOL     OW19996   2.233   2.905  11.242  0.6180 -0.0636  0.9288
 2788SOL    HW119997   2.263   2.853  11.317  1.2506 -1.1831 -0.0943
 2788SOL    HW219998   2.212   2.840  11.175  0.6979  0.7183  0.1462
 2789SOL     OW19999   2.234   4.509   2.440 -0.4888 -0.2017 -0.1706
 2789SOL    HW120000   2.190   4.594   2.450 -2.6568 -1.2155 -1.1632
 2789SOL    HW220001   2.285   4.513   2.521 -0.3442 -0.5665 -0.2433
 2790SOL     OW20002   2.170   4.550   6.748 -0.4643  0.5704  0.1380
 2790SOL    HW120003   2.183   4.644   6.731  0.5504  0.3181 -0.4282
 2790SOL    HW220004   2.217   4.544   6.832 -0.0358 -1.4182 -0.2483
 2791SOL     OW20005   1.605   4.246   5.320 -0.3995  0.0873  0.5568
 2791SOL    HW120006   1.587   4.244   5.414 -1.9070  0.0796  0.2722
 2791SOL    HW220007   1.517   4.227   5.288 -0.1350 -1.6858  0.8694
 2792SOL     OW20008   4.656   4.652  17.566  0.0522  0.2105 -0.5855
 2792SOL    HW120009   4.656   0.011  17.589  0.3522  0.2465 -0.7408
 2792SOL    HW220010   0.016   4.642  17.549  0.2957  2.8064 -0.6440
 2793SOL     OW20011   2.070   4.596   4.712 -0.1815 -0.4077 -0.2397
 2793SOL    HW120012   2.162   4.620   4.728 -0.4811 -1.1257  2.5693
 2793SOL    HW220013   2.031   4.668   4.763 -0.0402  1.0453 -2.1746
 2794SOL     OW20014   2.304   1.492   5.208  0.3206 -0.2511  0.5885
 2794SOL    HW120015   2.377   1.519   5.153  0.6365  1.7873  1.9998
 2794SOL    HW220016   2.329   1.414   5.257 -0.1957  0.2730  1.6824
 2795SOL     OW20017   3.930   3.832  16.705 -0.0109 -0.2545 -0.0902
 2795SOL    HW120018   3.998   3.788  16.654  0.6787 -0.2686  0.8383
 2795SOL    HW220019   3.921   3.767  16.775  0.2285  0.5152  0.6514
 2796SOL     OW20020   0.567   4.613  16.202 -0.1903 -0.2148  0.4991
 2796SOL    HW120021   0.653   4.652  16.217  0.5035 -0.9630 -1.5243
 2796SOL    HW220022   0.594   4.523  16.221 -3.1332 -1.1530  0.2170
 2797SOL     OW20023   2.049   0.626   7.819 -0.2482  0.0779 -0.3885
 2797SOL    HW120024   2.081   0.624   7.728  0.2447 -1.6754 -0.1915
 2797SOL    HW220025   2.086   0.550   7.863  1.8163  1.6363  0.5511
 2798SOL     OW20026   2.362   3.605   5.919 -0.3605  0.1214  0.8395
 2798SOL    HW120027   2.290   3.600   5.983 -0.4717 -1.3205  0.5879
 2798SOL    HW220028   2.386   3.698   5.919  0.3097 -0.0314  2.7654
 2799SOL     OW20029   2.821   4.221   1.438 -0.5363 -0.4488  0.3870
 2799SOL    HW120030   2.834   4.153   1.504 -1.0757 -1.3075 -0.3967
 2799SOL    HW220031   2.905   4.264   1.457 -1.1546  1.0615 -0.3108
 2800SOL     OW20032   2.734   3.635   2.653  0.2559 -0.1511  0.3059
 2800SOL    HW120033   2.655   3.684   2.674 -0.5992 -1.6509  0.6210
 2800SOL    HW220034   2.729   3.627   2.558  0.5781 -0.5941  0.3240
 2801SOL     OW20035   0.618   2.999   9.086 -0.4086  0.3652  0.8332
 2801SOL    HW120036   0.561   2.936   9.041 -1.5270  1.9663 -0.0053
 2801SOL    HW220037   0.622   2.985   9.180 -1.3728  0.4001  0.8853
 2802SOL     OW20038   0.658   3.762  15.675  0.2958 -0.3019 -0.1797
 2802SOL    HW120039   0.708   3.680  15.670  1.2379  0.1942  1.1104
 2802SOL    HW220040   0.567   3.732  15.683 -0.4071  1.7710 -0.5385
 2803SOL     OW20041   2.039   2.618   8.074 -0.0236 -0.0019  0.2546
 2803SOL    HW120042   2.028   2.647   8.164 -0.0426  1.1786 -0.1282
 2803SOL    HW220043   2.105   2.550   8.083 -1.0344 -1.1367 -0.8151
 2804SOL     OW20044   1.863   3.871   5.790 -0.2410 -0.3556 -0.4752
 2804SOL    HW120045   1.926   3.883   5.860 -0.2433  0.5317 -0.6266
 2804SOL    HW220046   1.913   3.808   5.737 -1.1246 -0.6934 -0.9209
 2805SOL     OW20047   3.364   1.420   8.046 -0.5679 -0.8438 -0.1108
 2805SOL    HW120048   3.455   1.427   8.018 -0.8441  2.7507 -0.0704
 2805SOL    HW220049   3.339   1.491   8.105 -1.9292 -1.2503 -0.1789
 2806SOL     OW20050   1.558   0.981   6.894 -0.1850  0.5316  0.2088
 2806SOL    HW120051   1.509   0.941   6.965  2.3800 -1.4992  0.8319
 2806SOL    HW220052   1.486   0.983   6.831 -0.9458 -1.8064  1.0015
 2807SOL     OW20053   2.425   0.015   5.274 -0.5595  0.3174 -0.2372
 2807SOL    HW120054   2.439   4.658   5.301  0.4643  0.4213 -0.4058
 2807SOL    HW220055   2.482   0.013   5.197  0.4906  3.2035  0.4704
 2808SOL     OW20056   3.715   1.411   6.065  0.8451 -0.4703  0.0769
 2808SOL    HW120057   3.749   1.362   5.990 -1.1733 -2.1478  0.2563
 2808SOL    HW220058   3.723   1.347   6.135 -0.7277  1.2624  1.8352
 2809SOL     OW20059   2.255   4.291   6.214  0.4823  0.0304  0.0279
 2809SOL    HW120060   2.260   4.357   6.283 -1.4389 -0.8031  0.9422
 2809SOL    HW220061   2.243   4.345   6.136 -0.7593 -0.2937  0.0055
 2810SOL     OW20062   3.812   2.192   5.201 -0.3510 -0.0797 -0.3423
 2810SOL    HW120063   3.849   2.123   5.257  1.3277  0.5962 -0.6163
 2810SOL    HW220064   3.732   2.142   5.186  0.5576 -1.1705 -1.5528
 2811SOL     OW20065   1.462   3.107   7.643 -0.0610  0.0642 -0.5580
 2811SOL    HW120066   1.505   3.192   7.632  1.1702 -0.6328 -1.1842
 2811SOL    HW220067   1.526   3.054   7.595 -1.4710 -0.5873 -1.7453
 2812SOL     OW20068   1.254   2.743   5.120 -0.8341  0.3413  0.2450
 2812SOL    HW120069   1.248   2.746   5.024  1.1764 -1.5000  0.0727
 2812SOL    HW220070   1.217   2.657   5.141 -0.6296 -0.3858 -2.3362
 2813SOL     OW20071   1.106   1.948   9.525  0.0123 -0.2432 -0.4184
 2813SOL    HW120072   1.113   1.905   9.610  0.7107  1.7328  0.5160
 2813SOL    HW220073   1.090   1.870   9.472  1.2023  0.3466 -1.6341
 2814SOL     OW20074   3.192   0.348   5.235  0.4163  0.2620  0.5045
 2814SOL    HW120075   3.186   0.368   5.329  2.4714 -0.3161  0.7598
 2814SOL    HW220076   3.112   0.304   5.204  1.2042 -1.7546  1.3513
 2815SOL     OW20077   0.327   0.949   6.770  0.3343 -0.0553 -0.4003
 2815SOL    HW120078   0.298   0.977   6.683  1.8786 -1.6471 -1.4276
 2815SOL    HW220079   0.409   0.901   6.764  0.2379 -0.2434 -0.1884
 2816SOL     OW20080   4.137   2.528   8.471 -0.2286 -0.2369 -0.4399
 2816SOL    HW120081   4.198   2.563   8.406  0.6517  2.1979  1.6560
 2816SOL    HW220082   4.205   2.486   8.524  0.2295  0.4504 -0.4672
 2817SOL     OW20083   3.319   2.615   9.139 -0.2841 -0.2142 -0.7950
 2817SOL    HW120084   3.306   2.708   9.118  2.5818  0.3199 -0.1681
 2817SOL    HW220085   3.311   2.610   9.234 -2.9286 -1.5262 -1.1024
 2818SOL     OW20086   0.778   4.691   0.249  0.3077  0.3616  0.0921
 2818SOL    HW120087   0.686   4.679   0.223  0.3992  0.6433 -0.3778
 2818SOL    HW220088   0.812   0.004   0.172 -3.4045  0.9826 -1.1812
 2819SOL     OW20089   2.624   4.343   2.870  0.2034 -0.0380 -0.2120
 2819SOL    HW120090   2.620   4.286   2.947 -1.0228 -0.0345 -0.2794
 2819SOL    HW220091   2.701   4.398   2.882 -1.2383  1.1149  3.8767
 2820SOL     OW20092   0.565   0.038   4.034  0.5954 -0.6141  0.2529
 2820SOL    HW120093   0.562   0.042   4.130  1.0250  0.9875  0.1822
 2820SOL    HW220094   0.498   0.100   4.006  1.9720 -0.2721 -2.2399
 2821SOL     OW20095   4.699   1.705  10.376  0.5542  0.3243  0.2063
 2821SOL    HW120096   4.673   1.789  10.338  0.3580 -0.0644 -0.5203
 2821SOL    HW220097   4.651   1.646  10.317  0.7532  0.8484 -0.4684
 2822SOL     OW20098   2.145   0.184  11.934  0.4513  0.3129  0.1850
 2822SOL    HW120099   2.199   0.106  11.922 -0.3156 -0.3959  1.2341
 2822SOL    HW220100   2.110   0.173  12.023 -0.3847 -0.7557 -0.2603
 2823SOL     OW20101   1.262   1.894   5.411 -0.3855  0.0293  0.3272
 2823SOL    HW120102   1.211   1.973   5.392 -0.7785 -0.6354 -1.3524
 2823SOL    HW220103   1.206   1.833   5.460  0.0929  0.4981  1.4745
 2824SOL     OW20104   3.210   1.866   1.705 -0.9675 -0.1559 -0.1919
 2824SOL    HW120105   3.183   1.944   1.753  0.1179 -0.5744  1.1050
 2824SOL    HW220106   3.227   1.902   1.618  1.6906 -0.5834  0.1640
 2825SOL     OW20107   3.111   0.579  15.238  0.0177 -0.0593 -0.2162
 2825SOL    HW120108   3.067   0.631  15.305  0.9483 -0.7475  0.9423
 2825SOL    HW220109   3.037   0.527  15.207 -0.4451  1.2292 -1.2797
 2826SOL     OW20110   2.305   3.139   3.960  0.3050 -1.0819 -0.0679
 2826SOL    HW120111   2.228   3.194   3.949  0.5324 -0.8102 -0.3358
 2826SOL    HW220112   2.374   3.197   3.928  0.0054 -0.1053  1.0604
 2827SOL     OW20113   1.517   3.062  10.333  0.1455 -0.4873  0.1525
 2827SOL    HW120114   1.523   2.989  10.271 -1.3506 -0.5871  0.1276
 2827SOL    HW220115   1.431   3.050  10.373 -1.4734 -2.3567 -3.9245
 2828SOL     OW20116   4.055   3.107   3.229  0.3580 -0.0719 -0.3029
 2828SOL    HW120117   4.030   3.183   3.282  0.7244 -0.8352  0.9601
 2828SOL    HW220118   4.020   3.134   3.144  1.3403  1.6102 -0.1879
 2829SOL     OW20119   2.261   4.544   3.812  0.2427  0.3619 -0.3297
 2829SOL    HW120120   2.332   4.503   3.762  0.7973 -0.5695  1.2014
 2829SOL    HW220121   2.203   4.589   3.751  0.5076  0.1682 -0.7240
 2830SOL     OW20122   3.870   1.571  17.340 -0.5748 -0.2897 -0.5098
 2830SOL    HW120123   3.953   1.567  17.293 -0.4798 -0.0088 -0.3665
 2830SOL    HW220124   3.884   1.645  17.399  0.4059 -1.8728  1.2115
 2831SOL     OW20125   1.518   2.158   2.225 -0.0334  0.0334  0.4850
 2831SOL    HW120126   1.455   2.086   2.219  1.7288 -1.4648 -0.0234
 2831SOL    HW220127   1.464   2.237   2.224  2.2551  1.5794  0.7849
 2832SOL     OW20128   4.243   3.550  17.518  0.1008 -0.3645  0.1775
 2832SOL    HW120129   4.330   3.536  17.555  0.4481 -1.0290 -0.8878
 2832SOL    HW220130   4.207   3.613  17.580 -1.7413 -1.6280  0.3969
 2833SOL     OW20131   1.795   1.766   0.618 -0.0669 -0.1026 -0.2446
 2833SOL    HW120132   1.705   1.782   0.646  1.4485  2.3823  3.1486
 2833SOL    HW220133   1.837   1.740   0.700  0.3335 -0.4607 -0.5642
 2834SOL     OW20134   1.586   1.246   5.466 -0.5708 -0.0442  0.0274
 2834SOL    HW120135   1.491   1.250   5.467 -0.6124 -0.1335 -2.9065
 2834SOL    HW220136   1.601   1.340   5.456 -1.1189  0.1956  1.5589
 2835SOL     OW20137   1.122   4.654   3.376  0.1111  0.2062  0.4394
 2835SOL    HW120138   1.171   4.700   3.444 -0.1183 -0.1303  0.8318
 2835SOL    HW220139   1.150   4.563   3.392 -1.0867 -0.4185 -1.0876
 2836SOL     OW20140   3.574   1.785   5.626  0.0882  0.3876  0.8755
 2836SOL    HW120141   3.627   1.716   5.667  1.8479  0.7420 -0.8128
 2836SOL    HW220142   3.524   1.799   5.707 -3.3753  0.5360 -1.3205
 2837SOL     OW20143   1.348   2.959   5.430 -0.3765 -0.0008  0.3635
 2837SOL    HW120144   1.379   2.870   5.448 -1.7578 -0.4590  0.4874
 2837SOL    HW220145   1.348   2.969   5.334 -2.7919  1.5087  0.5208
 2838SOL     OW20146   3.462   1.279  15.312  0.3472 -0.0728 -0.1364
 2838SOL    HW120147   3.463   1.188  15.281  0.8923 -0.3884  0.7745
 2838SOL    HW220148   3.545   1.310  15.275  0.5565 -0.5290 -0.0525
 2839SOL     OW20149   3.286   3.364  11.763 -0.0017  0.2821 -0.5031
 2839SOL    HW120150   3.334   3.283  11.781 -0.2298  0.2427 -0.0796
 2839SOL    HW220151   3.364   3.415  11.782 -0.0701  0.1450  0.1540
 2840SOL     OW20152   0.992   4.361  11.619 -0.2552 -0.3833 -0.0708
 2840SOL    HW120153   0.932   4.436  11.630  0.8241  0.8224 -2.5277
 2840SOL    HW220154   1.062   4.407  11.573  1.0531 -1.7640  0.5311
 2841SOL     OW20155   0.356   3.985   5.116 -0.4397  0.1670  0.1026
 2841SOL    HW120156   0.343   4.014   5.025 -1.6001 -2.6404 -0.6366
 2841SOL    HW220157   0.442   3.946   5.105  0.1177  1.0497  1.4017
 2842SOL     OW20158   4.077   4.145   4.353  0.1524 -0.1591 -0.0255
 2842SOL    HW120159   4.113   4.067   4.395 -2.1385 -0.4354  1.4119
 2842SOL    HW220160   4.144   4.207   4.384  3.3089 -2.8272 -1.4522
 2843SOL     OW20161   1.948   2.636   2.644  0.1778 -0.3813  0.3817
 2843SOL    HW120162   1.912   2.591   2.568 -0.0229  0.4688 -0.0177
 2843SOL    HW220163   1.905   2.720   2.628 -0.0344 -0.2965  1.3980
 2844SOL     OW20164   3.151   0.781   4.642  0.7114 -0.2729  0.0943
 2844SOL    HW120165   3.137   0.859   4.696  2.7133 -0.7345  1.3123
 2844SOL    HW220166   3.246   0.793   4.640  1.1862 -3.8906  0.7774
 2845SOL     OW20167   4.225   4.099  11.651  0.0579 -0.0427  0.0726
 2845SOL    HW120168   4.156   4.033  11.643 -1.1670  1.2416  0.0004
 2845SOL    HW220169   4.286   4.056  11.591 -0.9072  0.9539 -1.6129
 2846SOL     OW20170   2.101   2.856   9.172  0.2134  0.3510  0.3722
 2846SOL    HW120171   2.150   2.776   9.189 -0.7215 -0.0584  1.1609
 2846SOL    HW220172   2.080   2.879   9.263  1.1735  0.4835  0.5593
 2847SOL     OW20173   1.512   2.957   8.212  0.2639 -0.2466  0.2736
 2847SOL    HW120174   1.577   2.990   8.275  1.3619  2.1827 -2.0815
 2847SOL    HW220175   1.502   3.035   8.157  2.8578 -0.6159 -0.7566
 2848SOL     OW20176   1.568   2.717   7.266  0.1661 -0.2312  0.1946
 2848SOL    HW120177   1.485   2.670   7.274 -0.2238  0.5453  0.7356
 2848SOL    HW220178   1.618   2.641   7.236 -0.9007  0.3202 -2.9870
 2849SOL     OW20179   1.064   3.615   3.135 -0.6983 -0.7170  0.0457
 2849SOL    HW120180   1.116   3.652   3.207 -1.8925  0.4359  0.3203
 2849SOL    HW220181   1.008   3.561   3.192 -1.8608  0.2829 -0.1350
 2850SOL     OW20182   2.623   0.766   1.768 -0.1544  0.7013  0.3207
 2850SOL    HW120183   2.604   0.673   1.778  2.0416  0.4315  1.9373
 2850SOL    HW220184   2.711   0.776   1.804  0.0114 -1.6434  0.5728
 2851SOL     OW20185   0.521   2.101  16.501  0.0251 -0.4084  0.1800
 2851SOL    HW120186   0.535   2.013  16.465 -0.3337  0.5296 -2.3163
 2851SOL    HW220187   0.514   2.067  16.589 -0.4328 -0.1852  0.2289
 2852SOL     OW20188   0.093   1.429   8.560  0.5329 -0.5140 -0.4793
 2852SOL    HW120189   0.088   1.444   8.655  0.7405  1.0172 -0.6997
 2852SOL    HW220190   0.127   1.340   8.554 -0.8739 -1.1659  1.2901
 2853SOL     OW20191   0.215   3.459   6.919  0.4061 -0.2160  0.1676
 2853SOL    HW120192   0.244   3.550   6.912  3.6221 -1.3014 -0.5673
 2853SOL    HW220193   0.218   3.439   6.826 -0.5605 -2.7093  0.6747
 2854SOL     OW20194   2.959   3.684   4.625 -0.0972 -0.4965 -0.5627
 2854SOL    HW120195   2.902   3.611   4.648 -2.5773  2.2759  2.1052
 2854SOL    HW220196   3.034   3.646   4.579  1.0495 -0.3928  1.2230
 2855SOL     OW20197   1.009   2.509   8.683 -0.1624 -0.0996 -0.1661
 2855SOL    HW120198   0.972   2.585   8.638  1.5256  1.0348  0.3439
 2855SOL    HW220199   1.074   2.548   8.742 -2.1146  0.9840  1.2238
 2856SOL     OW20200   4.172   3.621   7.861 -0.6542 -0.4709  0.0827
 2856SOL    HW120201   4.259   3.661   7.862  0.1699 -2.2293 -1.0031
 2856SOL    HW220202   4.153   3.649   7.950 -2.2792  0.4200 -0.5232
 2857SOL     OW20203   1.935   1.685   1.404  0.4102 -0.0044  0.1571
 2857SOL    HW120204   1.982   1.752   1.355  0.5900 -0.3499 -0.1377
 2857SOL    HW220205   1.958   1.705   1.495 -1.2241 -1.9070  0.9790
 2858SOL     OW20206   2.382   0.060   3.564  0.2689  0.0349 -0.5702
 2858SOL    HW120207   2.297   0.036   3.598  1.1616 -3.5926 -0.9097
 2858SOL    HW220208   2.381   0.153   3.586  0.6127  0.1848 -1.1639
 2859SOL     OW20209   2.240   0.160   4.665  0.8681 -0.2266  1.1461
 2859SOL    HW120210   2.247   0.094   4.596  0.3877 -0.0146  0.9008
 2859SOL    HW220211   2.291   0.221   4.612 -0.0113 -0.7617 -0.3095
 2860SOL     OW20212   0.945   0.180   5.259  0.1135 -0.1445 -0.0121
 2860SOL    HW120213   0.995   0.109   5.220 -0.3077  0.3059 -1.3903
 2860SOL    HW220214   0.865   0.131   5.279 -0.5755  1.2421  0.6483
 2861SOL     OW20215   2.781   2.233   5.795 -0.3290 -0.2266  0.2158
 2861SOL    HW120216   2.761   2.178   5.871  2.4785  0.4109  1.4478
 2861SOL    HW220217   2.722   2.200   5.728 -0.9894 -0.1828  0.7725
 2862SOL     OW20218   0.643   1.236  12.204 -0.0280 -0.2650 -0.2319
 2862SOL    HW120219   0.566   1.194  12.165  0.6769  0.0423 -1.9475
 2862SOL    HW220220   0.720   1.181  12.190 -0.0267 -0.2558 -0.2606
 2863SOL     OW20221   0.597   1.817  11.704  0.2734 -0.3979 -0.2389
 2863SOL    HW120222   0.521   1.859  11.664 -0.6899 -0.8907  1.0741
 2863SOL    HW220223   0.563   1.730  11.723 -0.6821  0.2530  0.9750
 2864SOL     OW20224   3.360   1.214   1.909  0.0325 -0.2436  0.0897
 2864SOL    HW120225   3.328   1.134   1.949  1.0745 -2.0112 -2.6164
 2864SOL    HW220226   3.283   1.270   1.914 -0.3232 -0.8894  1.8290
 2865SOL     OW20227   2.107   1.913   3.147  0.1959  0.6693 -0.1643
 2865SOL    HW120228   2.057   1.995   3.153 -2.1627 -0.8440  1.1720
 2865SOL    HW220229   2.196   1.945   3.163 -0.2148  1.0618  1.3896
 2866SOL     OW20230   0.551   4.724   4.317 -0.1474  0.5982  0.2756
 2866SOL    HW120231   0.631   0.026   4.356 -0.2744  0.5029  0.6190
 2866SOL    HW220232   0.520   4.680   4.396 -0.9009 -2.2862 -1.6202
 2867SOL     OW20233   2.095   4.320  14.273 -0.2170  0.0679  0.3568
 2867SOL    HW120234   2.069   4.257  14.341  2.4474 -1.4960 -0.0463
 2867SOL    HW220235   2.151   4.381  14.320  0.8677 -0.7828  0.1553
 2868SOL     OW20236   1.734   1.746   3.653 -0.1460 -0.4384 -0.3661
 2868SOL    HW120237   1.787   1.670   3.677 -0.3131 -0.5672 -0.4021
 2868SOL    HW220238   1.776   1.818   3.701 -1.9835 -1.5073  2.8172
 2869SOL     OW20239   2.855   1.370   8.774  0.6893  0.2326 -0.0988
 2869SOL    HW120240   2.845   1.457   8.813  3.3677  1.9644 -3.2916
 2869SOL    HW220241   2.768   1.352   8.738  0.2695  0.9095  0.5587
 2870SOL     OW20242   4.187   0.014  10.874  0.2760 -0.1036  0.7401
 2870SOL    HW120243   4.142   4.669  10.904 -1.4216  0.2543 -0.8773
 2870SOL    HW220244   4.274   4.730  10.910  0.9064  0.6952 -0.3625
 2871SOL     OW20245   2.865   3.206   3.880 -0.4656  0.4902 -0.6894
 2871SOL    HW120246   2.867   3.207   3.975  0.8972 -1.2172 -0.6981
 2871SOL    HW220247   2.928   3.138   3.856 -0.4786  0.5033 -0.7611
 2872SOL     OW20248   4.176   0.263   9.725  0.1682 -0.3091  0.3996
 2872SOL    HW120249   4.256   0.212   9.714 -0.6483 -2.0818  2.6191
 2872SOL    HW220250   4.140   0.245   9.638  0.4275  0.7615  0.0827
 2873SOL     OW20251   3.618   4.551   8.974 -0.1894  0.1280 -0.2926
 2873SOL    HW120252   3.560   4.486   9.014  0.9036  0.9663  2.6723
 2873SOL    HW220253   3.658   4.511   8.896 -0.7294  1.3847 -1.2046
 2874SOL     OW20254   4.505   1.013   5.916  0.7065 -0.1929 -0.2269
 2874SOL    HW120255   4.597   1.011   5.944  0.9760 -0.4931 -1.1537
 2874SOL    HW220256   4.486   1.104   5.893 -0.5916  0.2011  2.3576
 2875SOL     OW20257   0.265   0.184  16.022 -0.4104  0.3851  0.2083
 2875SOL    HW120258   0.268   0.279  16.031  0.3103  0.3901 -0.1120
 2875SOL    HW220259   0.198   0.175  15.954 -1.4896 -1.6698  1.5487
 2876SOL     OW20260   1.453   2.157   1.819 -0.2111 -0.0019  0.0128
 2876SOL    HW120261   1.445   2.067   1.788 -0.3518  0.1706 -0.4506
 2876SOL    HW220262   1.547   2.169   1.835 -0.3728  0.2319  0.7907
 2877SOL     OW20263   3.871   3.070  13.154  0.7343 -0.1522 -0.1646
 2877SOL    HW120264   3.801   3.087  13.218  1.8924  2.0866  0.4898
 2877SOL    HW220265   3.934   3.037  13.218 -1.7329 -2.1921  1.2269
 2878SOL     OW20266   2.204   0.833   8.764 -0.6044  0.3141 -0.7338
 2878SOL    HW120267   2.152   0.911   8.744  0.7457  1.1883 -0.8313
 2878SOL    HW220268   2.267   0.842   8.692  1.6060  2.1519  1.4385
 2879SOL     OW20269   3.828   2.138  17.695 -0.1592  0.5352  0.5150
 2879SOL    HW120270   3.780   2.202   0.012 -0.0847 -1.1286  2.6135
 2879SOL    HW220271   3.766   2.065  17.685  2.0923 -1.1890 -0.7447
 2880SOL     OW20272   3.532   1.905   6.586 -0.5840  0.4384 -0.0171
 2880SOL    HW120273   3.553   1.998   6.578 -1.3657  0.7731  1.8793
 2880SOL    HW220274   3.457   1.900   6.526 -1.4064 -1.1006  1.1270
 2881SOL     OW20275   4.159   3.954   4.148  0.1867  0.0015 -0.0702
 2881SOL    HW120276   4.136   3.925   4.236 -0.0374  2.2327  0.6046
 2881SOL    HW220277   4.232   4.011   4.171  0.5058 -0.1960 -0.5899
 2882SOL     OW20278   0.903   2.156   7.688 -0.4262 -0.1783  0.2985
 2882SOL    HW120279   0.957   2.077   7.699  0.9377  0.9079  1.4772
 2882SOL    HW220280   0.970   2.225   7.682 -1.4857  0.7556 -0.6516
 2883SOL     OW20281   3.836   4.711   4.939  0.0900  0.5199 -0.2339
 2883SOL    HW120282   3.896   4.709   4.865  0.2164 -1.8920 -0.0745
 2883SOL    HW220283   3.761   0.001   4.885  1.1481  1.8863 -1.0778
 2884SOL     OW20284   3.394   1.661   6.722  0.4350 -0.3037 -0.7054
 2884SOL    HW120285   3.351   1.683   6.804  1.9384 -0.0635  0.0264
 2884SOL    HW220286   3.451   1.735   6.700 -1.1054  0.4036 -2.3098
 2885SOL     OW20287   2.761   1.755   7.439  0.0861 -0.2090 -0.1496
 2885SOL    HW120288   2.683   1.729   7.489  0.8788  0.8389  1.6309
 2885SOL    HW220289   2.781   1.838   7.483 -1.2404 -1.1806  2.3436
 2886SOL     OW20290   2.262   3.833  13.207 -0.0485 -0.1806  0.0336
 2886SOL    HW120291   2.176   3.797  13.185  0.0704 -1.0694  1.0856
 2886SOL    HW220292   2.303   3.859  13.124 -0.8134 -0.7747 -0.5190
 2887SOL     OW20293   0.523   1.313  13.018 -0.0381  0.2283 -0.0216
 2887SOL    HW120294   0.514   1.401  13.053  0.7529  0.8714 -1.4242
 2887SOL    HW220295   0.561   1.328  12.931 -1.1638  0.8429 -0.4060
 2888SOL     OW20296   0.117   0.188  11.568 -0.3927  0.1063  0.6156
 2888SOL    HW120297   0.184   0.173  11.502 -0.9695 -0.5905  0.1784
 2888SOL    HW220298   0.049   0.125  11.542 -1.1158  0.8262  0.7446
 2889SOL     OW20299   3.250   1.032   1.556  0.4286 -0.0517 -0.1135
 2889SOL    HW120300   3.286   1.008   1.471 -2.1410 -3.2212 -0.3014
 2889SOL    HW220301   3.326   1.016   1.613 -1.6385  0.9480  2.9166
 2890SOL     OW20302   1.126   0.850   2.424 -0.5818  0.2304  0.1162
 2890SOL    HW120303   1.113   0.922   2.486  3.4061  1.0190  0.0269
 2890SOL    HW220304   1.206   0.880   2.380  0.2258 -2.4860 -0.2594
 2891SOL     OW20305   2.909   1.366   2.951  0.6288 -0.8024 -0.5356
 2891SOL    HW120306   2.913   1.275   2.982  3.6596 -0.8421 -1.0950
 2891SOL    HW220307   2.909   1.358   2.855  2.1166  1.8297 -0.7227
 2892SOL     OW20308   1.997   1.196   4.226  0.0438 -0.1333  0.2092
 2892SOL    HW120309   2.048   1.267   4.265  1.8722 -1.9100  1.0613
 2892SOL    HW220310   1.910   1.220   4.256  0.0497  2.0340 -1.5401
 2893SOL     OW20311   1.796   0.137  17.442 -0.1972 -0.5994 -0.0534
 2893SOL    HW120312   1.855   0.117  17.369 -1.6317  0.1830 -1.4289
 2893SOL    HW220313   1.841   0.080  17.504  0.5801  0.5001  0.3819
 2894SOL     OW20314   2.643   3.643   4.088 -0.1967  0.7916  0.2824
 2894SOL    HW120315   2.581   3.654   4.016 -1.0264 -1.3376  0.6754
 2894SOL    HW220316   2.725   3.632   4.039 -1.5493 -0.0528 -1.8356
 2895SOL     OW20317   1.771   3.033   3.595  0.2956 -0.3376 -0.0723
 2895SOL    HW120318   1.735   2.972   3.659  0.1915  1.2052  1.3531
 2895SOL    HW220319   1.688   3.078   3.582  0.9790  0.6435 -1.0059
 2896SOL     OW20320   3.638   2.206   6.379  0.3588 -0.1248 -0.1601
 2896SOL    HW120321   3.734   2.209   6.379  0.3259  0.7163 -0.0032
 2896SOL    HW220322   3.618   2.268   6.449 -2.4444 -2.1078  0.7760
 2897SOL     OW20323   3.275   3.639  10.100  0.4712  0.4732 -0.1911
 2897SOL    HW120324   3.370   3.644  10.085  0.3328  0.6950 -0.9953
 2897SOL    HW220325   3.264   3.725  10.141 -2.1074 -0.5629  1.2498
 2898SOL     OW20326   1.070   4.142   9.785  0.2322 -0.3878 -0.3628
 2898SOL    HW120327   1.044   4.231   9.761 -1.5653 -1.0465 -0.8567
 2898SOL    HW220328   0.993   4.105   9.828 -0.9039  1.8910 -0.4914
 2899SOL     OW20329   2.396   3.650   7.172 -0.6876 -0.7391  0.0516
 2899SOL    HW120330   2.438   3.696   7.244 -1.7725 -0.7150  0.6617
 2899SOL    HW220331   2.309   3.678   7.200 -0.9860 -1.8794  0.2470
 2900SOL     OW20332   0.910   1.229   1.898 -0.8920 -0.2045  0.5404
 2900SOL    HW120333   0.893   1.322   1.880 -0.2620 -0.1971 -0.0131
 2900SOL    HW220334   1.005   1.226   1.890 -0.9667 -0.5193 -0.1425
 2901SOL     OW20335   3.239   2.374   9.042  0.0472  0.0029 -0.3302
 2901SOL    HW120336   3.267   2.465   9.056  0.2675 -0.1009 -0.0935
 2901SOL    HW220337   3.206   2.364   9.132 -0.0519 -3.5319 -0.7590
 2902SOL     OW20338   2.333   1.011  11.499 -0.1935  0.1961  0.0329
 2902SOL    HW120339   2.298   0.923  11.511 -0.8683  0.7182  1.8964
 2902SOL    HW220340   2.355   1.009  11.406 -1.6936  0.3060 -0.3371
 2903SOL     OW20341   3.848   0.606   8.717  0.3129 -0.2271 -0.3399
 2903SOL    HW120342   3.797   0.685   8.700 -0.0427 -0.2909  0.4049
 2903SOL    HW220343   3.913   0.643   8.777  2.0467 -0.6708 -1.9543
 2904SOL     OW20344   1.591   1.328   3.567 -0.2985  0.1634  0.5496
 2904SOL    HW120345   1.573   1.378   3.646  1.0251 -0.2488  1.1117
 2904SOL    HW220346   1.661   1.269   3.596  0.1245  0.2580 -0.2810
 2905SOL     OW20347   0.651   2.813  17.032 -0.1307  0.4205 -0.4410
 2905SOL    HW120348   0.601   2.818  16.950  0.1832  2.2507 -0.5214
 2905SOL    HW220349   0.726   2.864  17.002  1.5115 -1.4090  0.5365
 2906SOL     OW20350   1.167   2.967   2.577  0.4013  0.2345 -0.3631
 2906SOL    HW120351   1.102   2.975   2.646  0.3980  1.4173 -0.5027
 2906SOL    HW220352   1.121   2.953   2.494 -0.6030 -0.0481  0.2481
 2907SOL     OW20353   2.079   4.103   4.285  0.2785  0.0127  0.4496
 2907SOL    HW120354   2.014   4.037   4.261 -0.7545  0.0382  3.1413
 2907SOL    HW220355   2.051   4.120   4.375 -0.7189 -2.3738  0.5777
 2908SOL     OW20356   3.722   1.475   7.676  0.7205  0.2071 -0.4180
 2908SOL    HW120357   3.654   1.411   7.656  0.7126  0.4962 -1.3296
 2908SOL    HW220358   3.684   1.555   7.640  2.3322  1.1369 -0.0734
 2909SOL     OW20359   1.754   1.275   1.235 -0.2411 -0.2264 -0.2187
 2909SOL    HW120360   1.823   1.322   1.282 -0.3421 -1.1768  0.8935
 2909SOL    HW220361   1.695   1.290   1.308 -0.3137  2.1070 -0.7732
 2910SOL     OW20362   1.577   3.797   3.413 -0.1411  0.2551  0.2461
 2910SOL    HW120363   1.636   3.782   3.339  0.9409  0.7224  1.0039
 2910SOL    HW220364   1.588   3.713   3.457  0.2034 -0.2299 -0.7744
 2911SOL     OW20365   1.169   1.449   6.870  0.2969 -0.2381  0.4095
 2911SOL    HW120366   1.110   1.506   6.920 -0.9403  0.0746 -1.3884
 2911SOL    HW220367   1.206   1.399   6.943  1.4744 -0.1288 -0.1279
 2912SOL     OW20368   2.826   1.274  17.686  0.1452 -0.4805 -0.0580
 2912SOL    HW120369   2.796   1.293  17.597  0.8829 -3.3613 -0.9304
 2912SOL    HW220370   2.750   1.306   0.000  0.0754 -4.5080  2.4266
 2913SOL     OW20371   2.632   3.100  16.260 -0.1869  0.3331  0.2977
 2913SOL    HW120372   2.661   3.009  16.261  0.6786  0.6085  0.4133
 2913SOL    HW220373   2.563   3.094  16.326  0.6355 -0.5015  1.0875
 2914SOL     OW20374   1.149   1.143   8.904  0.1084  0.1076  0.4198
 2914SOL    HW120375   1.131   1.095   8.822  0.0707 -0.3596  0.7012
 2914SOL    HW220376   1.086   1.214   8.895  1.1436  0.6710 -2.5574
 2915SOL     OW20377   3.013   3.799   3.754  0.1541  0.0184 -0.0331
 2915SOL    HW120378   2.966   3.716   3.763 -0.4795  0.4161  0.3653
 2915SOL    HW220379   3.070   3.795   3.830  1.9022  0.6336 -1.3182
 2916SOL     OW20380   3.105   4.219   4.653  0.2384 -0.0790  0.6245
 2916SOL    HW120381   3.136   4.132   4.679 -0.4853 -0.1721  1.1752
 2916SOL    HW220382   3.090   4.205   4.559  0.9326  0.7133  0.3987
 2917SOL     OW20383   4.243   1.797   4.473 -0.1937 -0.1050 -0.4663
 2917SOL    HW120384   4.236   1.811   4.568  1.3596 -3.1065  0.0908
 2917SOL    HW220385   4.337   1.793   4.456 -0.1795 -1.2486 -0.1595
 2918SOL     OW20386   0.142   3.350  17.382  0.2063 -0.4183 -0.2986
 2918SOL    HW120387   0.210   3.405  17.342 -1.8050  0.9963 -1.7903
 2918SOL    HW220388   0.061   3.396  17.358 -0.5905 -0.0934  3.0450
 2919SOL     OW20389   2.919   2.075   1.484  1.2050  0.3070  0.1073
 2919SOL    HW120390   2.838   2.113   1.450  0.8300  0.6743  1.4023
 2919SOL    HW220391   2.926   2.122   1.568 -0.5832  1.7608 -0.5578
 2920SOL     OW20392   1.747   3.927   3.677 -0.0936  0.0838  1.1648
 2920SOL    HW120393   1.807   3.920   3.602  0.6288  2.3944  1.5426
 2920SOL    HW220394   1.732   4.021   3.681 -1.6070 -0.1294  0.4069
 2921SOL     OW20395   2.341   1.558   9.164  0.7032 -0.0077 -0.4578
 2921SOL    HW120396   2.381   1.527   9.082 -0.1238  0.6570 -1.1137
 2921SOL    HW220397   2.376   1.495   9.227 -1.7722 -0.0460  0.8533
 2922SOL     OW20398   4.006   0.978   7.395  0.0983 -0.4656 -0.0623
 2922SOL    HW120399   3.958   0.999   7.475  1.5161 -1.7293  1.1206
 2922SOL    HW220400   3.952   0.925   7.337  1.1143 -0.8974 -0.6047
 2923SOL     OW20401   2.216   3.369   3.139 -0.0075 -0.1640  0.1944
 2923SOL    HW120402   2.151   3.391   3.206  0.5901 -0.2113  0.7918
 2923SOL    HW220403   2.176   3.290   3.102 -0.9040 -0.2422  1.3153
 2924SOL     OW20404   3.670   0.557  15.520  0.1150  0.2717  0.9765
 2924SOL    HW120405   3.621   0.507  15.455  0.0509  0.8383  0.5923
 2924SOL    HW220406   3.725   0.615  15.468  2.2183 -1.7707  0.9425
 2925SOL     OW20407   3.111   1.103   4.179 -0.1251  0.3103 -0.1925
 2925SOL    HW120408   3.104   1.019   4.223 -2.1248  0.0282 -1.0247
 2925SOL    HW220409   3.202   1.121   4.202  0.5325  0.5479 -2.9745
 2926SOL     OW20410   4.436   3.748   2.184 -0.4167  0.1065  0.0585
 2926SOL    HW120411   4.497   3.722   2.252 -0.4472 -0.7275 -0.2281
 2926SOL    HW220412   4.483   3.711   2.109  0.3093  1.1305  0.0023
 2927SOL     OW20413   1.385   1.405   2.928 -0.4106 -0.0402  0.3151
 2927SOL    HW120414   1.356   1.365   3.010 -0.5851 -0.7653 -0.1052
 2927SOL    HW220415   1.374   1.499   2.944  1.1187  0.5262 -1.9013
 2928SOL     OW20416   4.074   2.640   4.526  0.3635  0.2707 -0.2736
 2928SOL    HW120417   4.047   2.701   4.457 -2.9053 -0.1007  0.6595
 2928SOL    HW220418   4.023   2.562   4.505  0.0650  0.5306 -0.5152
 2929SOL     OW20419   3.118   3.526   4.486 -0.2938 -0.3280  0.6260
 2929SOL    HW120420   3.068   3.476   4.421 -1.1705  2.0222 -0.5137
 2929SOL    HW220421   3.143   3.448   4.535  0.9125 -0.1498  0.2843
 2930SOL     OW20422   3.073   0.384   9.507  0.3233  0.1525 -0.1983
 2930SOL    HW120423   3.069   0.367   9.412  1.2252  1.8787 -0.5542
 2930SOL    HW220424   2.981   0.389   9.532  1.3157 -2.0190  3.7694
 2931SOL     OW20425   4.278   2.734   3.583 -0.0119 -0.0238 -0.3216
 2931SOL    HW120426   4.246   2.814   3.541 -0.4324 -0.6026 -1.0937
 2931SOL    HW220427   4.204   2.674   3.583 -0.6467  0.7412 -0.0141
 2932SOL     OW20428   1.417   1.119  11.796 -0.1103 -0.7482 -0.1451
 2932SOL    HW120429   1.491   1.160  11.843 -0.0742  0.2579 -1.0917
 2932SOL    HW220430   1.418   1.175  11.719  1.7814  0.9081  1.0611
 2933SOL     OW20431   2.760   3.867  13.788 -0.5353  0.1500 -0.6462
 2933SOL    HW120432   2.671   3.901  13.776 -0.3658  0.1578 -1.9074
 2933SOL    HW220433   2.762   3.808  13.713 -1.1781  0.9577 -1.2987
 2934SOL     OW20434   2.077   3.546  13.530 -0.2750  0.0306 -0.0631
 2934SOL    HW120435   2.133   3.556  13.453 -3.3456  0.5913 -2.2268
 2934SOL    HW220436   1.998   3.538  13.477 -0.1825  1.0989 -0.3607
 2935SOL     OW20437   0.540   0.845   8.786  0.8041  0.4261 -0.2064
 2935SOL    HW120438   0.486   0.851   8.707  3.6016  1.4724 -2.0441
 2935SOL    HW220439   0.524   0.754   8.811 -0.7342  1.8355  4.0277
 2936SOL     OW20440   0.602   4.170   2.905  0.4994  0.1453  0.1621
 2936SOL    HW120441   0.520   4.151   2.950  0.3323  0.3394 -0.0635
 2936SOL    HW220442   0.573   4.258   2.880 -1.5065 -0.4541  0.3686
 2937SOL     OW20443   1.306   4.004   2.253  0.3094 -0.1805  0.2640
 2937SOL    HW120444   1.347   3.999   2.167  1.1448 -3.2168  0.8349
 2937SOL    HW220445   1.246   3.929   2.247 -1.9678  1.6607 -0.0318
 2938SOL     OW20446   0.744   0.650  17.335  0.4920 -0.0230  0.0697
 2938SOL    HW120447   0.758   0.702  17.414  0.5921 -0.9314  0.6442
 2938SOL    HW220448   0.817   0.588  17.337  0.4080 -0.1200  0.0791
 2939SOL     OW20449   0.781   3.663   6.022 -0.3614 -0.2111 -0.6063
 2939SOL    HW120450   0.793   3.627   5.934  1.6332  2.1041 -1.2770
 2939SOL    HW220451   0.834   3.613   6.083  1.4458  0.0608 -1.9718
 2940SOL     OW20452   0.232   1.922   1.731 -0.5490 -0.5809 -0.0793
 2940SOL    HW120453   0.200   2.003   1.690 -1.5411 -1.4726 -1.0514
 2940SOL    HW220454   0.281   1.964   1.802 -0.8671 -1.9588  0.9548
 2941SOL     OW20455   0.016   1.723   7.898  0.4499 -0.6801 -0.2049
 2941SOL    HW120456   0.068   1.720   7.978  1.7408 -1.7709 -1.0953
 2941SOL    HW220457   4.708   1.809   7.897  1.5184 -0.1595  0.0171
 2942SOL     OW20458   3.243   1.463   7.220 -0.3956 -0.7322 -0.7810
 2942SOL    HW120459   3.333   1.470   7.253 -1.2644 -0.8364  1.6160
 2942SOL    HW220460   3.199   1.485   7.302  1.3854 -1.0178  0.2592
 2943SOL     OW20461   0.691   0.906   6.635 -0.0683 -0.0948  0.4179
 2943SOL    HW120462   0.607   0.930   6.595  1.6396  0.6462 -2.7592
 2943SOL    HW220463   0.743   0.983   6.615 -0.2837 -0.1473 -0.3459
 2944SOL     OW20464   2.535   3.479  16.047  0.6652  0.1359  0.2922
 2944SOL    HW120465   2.577   3.539  15.986 -2.7132  1.0569 -1.1160
 2944SOL    HW220466   2.447   3.507  16.025  2.0718  1.3717 -3.7080
 2945SOL     OW20467   4.091   4.325   5.693 -0.1261  1.0591 -0.2111
 2945SOL    HW120468   4.133   4.243   5.666 -2.1617  0.0979 -0.5296
 2945SOL    HW220469   4.001   4.313   5.661 -0.1490  0.4814  0.0658
 2946SOL     OW20470   4.022   0.093   3.830 -0.5531 -0.4757  0.2240
 2946SOL    HW120471   4.015   0.052   3.744  0.6358 -1.9046  0.8319
 2946SOL    HW220472   4.097   0.045   3.863  0.3246 -0.5771 -1.9154
 2947SOL     OW20473   0.275   2.938   8.166  0.5513 -0.4234  0.1462
 2947SOL    HW120474   0.215   2.872   8.134  0.8760 -0.8404  0.3931
 2947SOL    HW220475   0.213   3.010   8.178 -0.4695 -1.5525  1.7753
 2948SOL     OW20476   4.019   0.471   9.264  0.0238 -0.3901  0.1960
 2948SOL    HW120477   4.086   0.502   9.203 -1.8691  2.5507 -0.3716
 2948SOL    HW220478   4.036   0.377   9.257  1.2958 -0.1550  0.1037
 2949SOL     OW20479   2.942   1.125   8.805  0.0928  0.1183  0.0056
 2949SOL    HW120480   2.938   1.220   8.791  1.9242 -0.0486 -1.6212
 2949SOL    HW220481   2.853   1.096   8.825 -1.2906  1.5588 -4.0156
 2950SOL     OW20482   4.358   3.821   1.029  0.2823 -0.0140  0.3884
 2950SOL    HW120483   4.330   3.912   1.034 -2.3924 -0.9194  2.1049
 2950SOL    HW220484   4.288   3.775   1.076 -0.0503 -0.1952 -0.2830
 2951SOL     OW20485   3.190   3.364   9.083 -0.2000  1.0623  0.1740
 2951SOL    HW120486   3.249   3.350   9.009  0.3841 -0.6971  0.9783
 2951SOL    HW220487   3.220   3.444   9.126 -0.0976  1.1616 -0.0836
 2952SOL     OW20488   2.979   2.434   5.767  0.0340 -0.6201 -0.2211
 2952SOL    HW120489   2.918   2.361   5.777 -2.2479  1.1636 -1.0843
 2952SOL    HW220490   2.944   2.496   5.831  1.0360 -0.3092  0.0391
 2953SOL     OW20491   2.633   1.354   5.495 -0.5337  0.0858 -0.1975
 2953SOL    HW120492   2.711   1.323   5.542  0.2184  0.7967 -0.9722
 2953SOL    HW220493   2.597   1.410   5.563 -1.2659 -1.7840  0.9525
 2954SOL     OW20494   1.122   2.194   9.319 -0.3213  0.1325  0.3600
 2954SOL    HW120495   1.104   2.208   9.412 -1.9523 -0.9076  0.2054
 2954SOL    HW220496   1.038   2.150   9.302  0.7595 -1.3541 -1.1063
 2955SOL     OW20497   4.166   2.246  13.766  0.8442 -0.0483  0.1123
 2955SOL    HW120498   4.158   2.159  13.727  0.2500  0.4542 -0.8992
 2955SOL    HW220499   4.176   2.221  13.857  0.7044  0.2896  0.2207
 2956SOL     OW20500   4.131   3.846   6.361 -0.4396  0.6776  0.3683
 2956SOL    HW120501   4.118   3.822   6.270  0.7418 -1.1005  0.6701
 2956SOL    HW220502   4.178   3.766   6.383  1.2395  2.3421  2.8479
 2957SOL     OW20503   0.636   2.489   8.679  0.6310  0.1194 -0.3944
 2957SOL    HW120504   0.668   2.436   8.607  1.5452 -1.5628  1.2632
 2957SOL    HW220505   0.594   2.555   8.623 -0.3648 -0.7014 -0.6211
 2958SOL     OW20506   2.425   0.916   0.303 -0.1688 -0.1618 -0.3655
 2958SOL    HW120507   2.451   0.920   0.395 -2.0138 -0.0165  0.1486
 2958SOL    HW220508   2.331   0.912   0.322 -0.4449  1.2103 -1.4282
 2959SOL     OW20509   1.322   3.587   5.074 -0.5583 -0.8054 -0.4280
 2959SOL    HW120510   1.282   3.510   5.034 -2.7475  0.2694 -0.3414
 2959SOL    HW220511   1.258   3.656   5.053  1.7694  2.0490  1.8383
 2960SOL     OW20512   4.137   1.598   5.985  0.5065 -0.7630 -0.2948
 2960SOL    HW120513   4.213   1.611   5.929  0.7247 -1.4832 -0.1575
 2960SOL    HW220514   4.078   1.671   5.963  0.4860 -0.0149  2.2749
 2961SOL     OW20515   2.840   2.802   4.258 -0.2496 -0.4470  0.2532
 2961SOL    HW120516   2.898   2.735   4.292 -0.5254 -0.1165  1.3857
 2961SOL    HW220517   2.905   2.836   4.196 -0.5413  0.5349  0.4876
 2962SOL     OW20518   1.934   2.935   4.524 -0.2106  0.0155  0.3204
 2962SOL    HW120519   1.952   2.844   4.501 -1.3491  0.3810 -1.9862
 2962SOL    HW220520   1.896   2.921   4.611  1.9390  1.0384  1.4441
 2963SOL     OW20521   3.620   1.733   7.534 -0.2726 -0.6586 -0.2375
 2963SOL    HW120522   3.661   1.810   7.574 -4.8272  1.4301  0.5269
 2963SOL    HW220523   3.600   1.771   7.448  3.7085  0.5404 -0.6352
 2964SOL     OW20524   2.251   1.125   6.568  0.8505 -0.3202  0.0588
 2964SOL    HW120525   2.156   1.135   6.563  0.7207 -2.7141 -2.5534
 2964SOL    HW220526   2.263   1.092   6.479 -0.6716 -0.8864  0.0515
 2965SOL     OW20527   4.726   3.899   4.195  0.1712  0.6523 -0.5524
 2965SOL    HW120528   0.029   3.971   4.143  0.1509  0.7671 -0.4080
 2965SOL    HW220529   0.005   3.930   4.285  2.6525  0.0818 -0.7112
 2966SOL     OW20530   3.469   1.049  15.173 -0.2242  0.1692  0.4455
 2966SOL    HW120531   3.523   1.043  15.094 -0.6436  0.2605  0.1530
 2966SOL    HW220532   3.395   1.006  15.131  0.0117  0.1284  0.0725
 2967SOL     OW20533   3.129   0.379   8.457 -0.3081 -0.9245 -0.4656
 2967SOL    HW120534   3.219   0.365   8.486 -0.6684 -1.9828  0.1642
 2967SOL    HW220535   3.085   0.309   8.506 -0.3646  0.0163  0.8372
 2968SOL     OW20536   1.818   4.716  10.966  0.4384 -0.0404 -0.7141
 2968SOL    HW120537   1.826   0.072  10.936  0.7317 -0.4405 -1.8401
 2968SOL    HW220538   1.905   4.706  11.005  0.4899 -1.6658 -1.2231
 2969SOL     OW20539   0.381   1.816   2.740  0.1461 -0.8935 -0.0496
 2969SOL    HW120540   0.447   1.826   2.809  1.3136 -2.9468 -0.9082
 2969SOL    HW220541   0.299   1.793   2.784  0.4294 -2.4831 -0.3566
 2970SOL     OW20542   0.599   4.103   1.169  0.8272  0.2499  0.7285
 2970SOL    HW120543   0.617   4.080   1.260 -2.0115 -2.3329  0.6378
 2970SOL    HW220544   0.668   4.167   1.151  1.7328 -0.6921  0.8545
 2971SOL     OW20545   1.136   1.645   7.282  0.2024  0.0420 -0.7474
 2971SOL    HW120546   1.221   1.689   7.291 -0.1106  0.1212  1.8510
 2971SOL    HW220547   1.075   1.695   7.337  0.1336 -2.6429  1.6350
 2972SOL     OW20548   0.207   4.436   9.414 -1.0162  0.1365 -0.2676
 2972SOL    HW120549   0.242   4.478   9.335 -1.3002  0.9319  0.0417
 2972SOL    HW220550   0.280   4.378   9.436 -1.4327 -0.2393  0.1122
 2973SOL     OW20551   1.761   3.012   8.039  0.2107 -0.8786 -0.5168
 2973SOL    HW120552   1.771   2.919   8.021 -0.3599 -1.0400  0.0023
 2973SOL    HW220553   1.674   3.040   8.012  0.5423  1.8725  1.2514
 2974SOL     OW20554   0.873   0.235   1.573  0.4345 -0.4905 -0.2097
 2974SOL    HW120555   0.872   0.292   1.496 -0.7292  5.3629  4.1513
 2974SOL    HW220556   0.967   0.240   1.590  0.1306  0.5104  1.1143
 2975SOL     OW20557   3.318   2.826   2.928  0.5188 -0.2863 -0.2552
 2975SOL    HW120558   3.253   2.781   2.982  0.0021  0.4417 -0.2647
 2975SOL    HW220559   3.380   2.756   2.908 -1.5865 -2.6290  1.5342
 2976SOL     OW20560   1.610   2.588   5.265  0.1774  0.1439 -0.2782
 2976SOL    HW120561   1.572   2.552   5.186  2.5141 -1.0663 -0.8498
 2976SOL    HW220562   1.655   2.508   5.290 -0.0731 -0.3074 -1.3069
 2977SOL     OW20563   1.327   3.793   3.677  0.1216 -0.2542 -0.3977
 2977SOL    HW120564   1.414   3.771   3.710 -0.1356  0.7844  0.9610
 2977SOL    HW220565   1.275   3.808   3.756 -0.1575  0.7786 -0.7731
 2978SOL     OW20566   3.014   2.471   9.756 -0.1390  0.2566  0.5678
 2978SOL    HW120567   2.931   2.517   9.766  1.4291  3.2661 -0.2279
 2978SOL    HW220568   3.004   2.435   9.668 -0.0353  2.1421 -0.2322
 2979SOL     OW20569   1.975   4.451   4.311 -0.0636 -0.0060 -0.4584
 2979SOL    HW120570   1.983   4.377   4.252 -0.4019 -0.0791 -0.4128
 2979SOL    HW220571   1.914   4.410   4.372 -1.0712 -1.6743 -2.6317
 2980SOL     OW20572   1.274   2.209  14.670 -0.4505 -0.2440  0.5268
 2980SOL    HW120573   1.275   2.298  14.705 -2.1069  0.0291 -0.1381
 2980SOL    HW220574   1.271   2.157  14.750  0.8452  0.1877  0.8608
 2981SOL     OW20575   0.918   4.710   8.626 -0.0408 -0.3072  0.3294
 2981SOL    HW120576   0.838   4.692   8.576  0.7958 -0.0540 -1.1073
 2981SOL    HW220577   0.976   4.688   8.553  2.1202  1.8413  1.3784
 2982SOL     OW20578   2.626   1.700   7.791 -0.0189  0.4581  0.3381
 2982SOL    HW120579   2.570   1.639   7.838 -0.6750  0.4670 -0.4419
 2982SOL    HW220580   2.575   1.719   7.713  1.2332  0.6304 -0.4420
 2983SOL     OW20581   2.847   3.066   5.601 -0.3090  0.2582 -0.6361
 2983SOL    HW120582   2.855   3.035   5.510  1.6122 -0.1861 -0.3327
 2983SOL    HW220583   2.888   2.995   5.651 -0.8338  0.9750  0.7838
 2984SOL     OW20584   2.501   1.045  13.101  0.1149 -0.0601 -0.0748
 2984SOL    HW120585   2.540   1.108  13.162 -0.0740  0.4405 -0.4771
 2984SOL    HW220586   2.454   1.098  13.038  0.8274 -1.5927 -1.8800
 2985SOL     OW20587   4.123   4.557   4.433 -0.2674  0.0829  0.1816
 2985SOL    HW120588   4.155   4.642   4.463  0.3124  0.5883 -1.8556
 2985SOL    HW220589   4.079   4.508   4.502  1.5804  0.0766  1.3573
 2986SOL     OW20590   1.455   0.555   5.522 -0.0108  0.0350  0.3019
 2986SOL    HW120591   1.527   0.610   5.554  1.2039 -0.8837 -0.8278
 2986SOL    HW220592   1.384   0.599   5.568  0.8753  0.8420  0.8994
 2987SOL     OW20593   2.470   1.833   2.383  0.2078  0.0069 -0.7593
 2987SOL    HW120594   2.470   1.907   2.322  1.5255 -1.2386 -2.2950
 2987SOL    HW220595   2.395   1.785   2.349 -0.4155 -0.5701  1.4265
 2988SOL     OW20596   2.928   2.333   8.719  0.4067  0.0056  0.2552
 2988SOL    HW120597   3.015   2.311   8.754  0.0853  0.7891  1.5205
 2988SOL    HW220598   2.928   2.428   8.729 -0.3348  0.1284 -0.9705
 2989SOL     OW20599   4.555   2.479   6.399 -0.4597  0.0410  0.5604
 2989SOL    HW120600   4.606   2.480   6.318 -1.6911  3.2002 -0.1570
 2989SOL    HW220601   4.591   2.399   6.438  1.3410  0.1037 -0.9662
 2990SOL     OW20602   2.938   2.846  12.402 -0.0605  0.1192  0.0377
 2990SOL    HW120603   2.925   2.775  12.338 -0.0316 -0.3968  0.6084
 2990SOL    HW220604   2.981   2.907  12.341 -1.5520  1.0973 -0.0249
 2991SOL     OW20605   0.409   1.990  17.666 -0.3025 -0.0982 -0.0544
 2991SOL    HW120606   0.493   1.943  17.659  0.0991  0.9723 -2.2644
 2991SOL    HW220607   0.356   1.938  17.605 -0.1196  2.0111 -2.0089
 2992SOL     OW20608   3.889   2.691   7.757  0.8801  0.3716  0.2901
 2992SOL    HW120609   3.939   2.615   7.788  2.1493  0.2276 -2.1073
 2992SOL    HW220610   3.885   2.747   7.834 -1.3377  0.8769 -0.1926
 2993SOL     OW20611   2.679   2.452   0.078  0.1687  0.1656  0.0688
 2993SOL    HW120612   2.699   2.500  17.733  0.8247  0.6778  0.5418
 2993SOL    HW220613   2.584   2.437   0.073 -0.0983  1.7461  0.4246
 2994SOL     OW20614   1.037   3.689   6.588  0.4242  0.0853  0.2299
 2994SOL    HW120615   1.012   3.631   6.660  0.7474 -0.2552  0.0644
 2994SOL    HW220616   0.973   3.650   6.529 -0.2910  2.2136 -0.3746
 2995SOL     OW20617   2.060   3.430   8.498 -0.3337 -0.0399  0.2849
 2995SOL    HW120618   2.122   3.419   8.425  0.5474 -0.1195  1.0471
 2995SOL    HW220619   2.015   3.346   8.501 -0.2161 -0.1056  0.2217
 2996SOL     OW20620   4.635   0.186   8.625 -0.5497 -0.7032  0.7064
 2996SOL    HW120621   4.591   0.103   8.644 -1.4053 -0.6737 -1.1013
 2996SOL    HW220622   4.578   0.245   8.676 -2.3635 -2.3541  0.6043
 2997SOL     OW20623   0.200   3.710   5.165 -0.9071 -0.4767  0.1293
 2997SOL    HW120624   0.289   3.734   5.193 -1.1612 -0.3094  0.8010
 2997SOL    HW220625   0.149   3.785   5.197 -0.9263 -0.3171 -0.2839
 2998SOL     OW20626   2.207   4.055   6.600  0.1606 -0.1654 -0.2495
 2998SOL    HW120627   2.221   4.149   6.617  0.1819 -0.2680  0.3169
 2998SOL    HW220628   2.242   4.011   6.678  0.3896 -0.6227 -0.6133
 2999SOL     OW20629   1.128   1.331   4.486 -0.5033  0.1945  0.3751
 2999SOL    HW120630   1.068   1.392   4.445  0.4964  1.3932  0.7171
 2999SOL    HW220631   1.072   1.254   4.472  0.8980 -0.9131  0.9006
 3000SOL     OW20632   4.495   4.660   3.410  0.0319 -0.9131  0.2891
 3000SOL    HW120633   4.462   4.716   3.339  0.2120 -0.0821  0.8574
 3000SOL    HW220634   4.435   4.586   3.403 -1.4470  0.1345  2.1013
 3001SOL     OW20635   0.185   2.667   3.110 -0.3213  0.3653 -0.2384
 3001SOL    HW120636   0.247   2.597   3.086 -0.4367  0.4687 -0.8253
 3001SOL    HW220637   0.153   2.679   3.021  0.0857 -0.6451 -0.5231
 3002SOL     OW20638   2.495   0.913   4.389  0.7248  0.3358 -0.0034
 3002SOL    HW120639   2.504   0.840   4.451  0.0446 -0.4535 -0.8343
 3002SOL    HW220640   2.473   0.853   4.317 -1.4495  3.1054 -1.6465
 3003SOL     OW20641   3.183   0.650   9.323  0.6553  0.6806 -0.0873
 3003SOL    HW120642   3.194   0.560   9.291  2.6421  1.2820 -1.0471
 3003SOL    HW220643   3.088   0.659   9.320  0.6022  0.3266  0.4601
 3004SOL     OW20644   0.483   2.935   5.158 -1.3178  0.6281  0.8646
 3004SOL    HW120645   0.540   2.885   5.100 -0.4840 -0.9176  3.0218
 3004SOL    HW220646   0.513   3.024   5.141 -1.4564  0.7613  1.3304
 3005SOL     OW20647   2.387   0.003   1.092 -0.7188 -0.1333  0.1037
 3005SOL    HW120648   2.405   0.063   1.020  3.4817 -0.1803  1.1447
 3005SOL    HW220649   2.336   0.072   1.136  0.3215  1.4759 -1.2576
 3006SOL     OW20650   4.356   4.027   6.402  0.4096  0.0566  0.1016
 3006SOL    HW120651   4.272   3.982   6.403  0.3917  0.0622 -0.8938
 3006SOL    HW220652   4.344   4.109   6.451 -1.0045 -0.4738  0.6203
 3007SOL     OW20653   2.324   0.735  11.912  0.5209  0.0001 -0.3795
 3007SOL    HW120654   2.369   0.656  11.882  0.9759  0.2426 -0.3308
 3007SOL    HW220655   2.385   0.765  11.979  1.4294 -1.0558 -0.7461
 3008SOL     OW20656   1.224   0.315  13.950 -0.3540  0.2076 -0.3737
 3008SOL    HW120657   1.211   0.375  14.023 -2.3069 -1.5587  0.7429
 3008SOL    HW220658   1.231   0.363  13.868  1.5981  0.7159  0.0970
 3009SOL     OW20659   2.141   1.505   7.475  1.1054 -0.1869 -0.4299
 3009SOL    HW120660   2.094   1.588   7.480 -1.8029 -1.9534  1.5193
 3009SOL    HW220661   2.141   1.470   7.564 -0.0469 -0.1190 -0.4076
 3010SOL     OW20662   1.194   2.042   8.885 -0.2899  0.1790 -0.0346
 3010SOL    HW120663   1.110   2.083   8.866  0.1298  0.5982 -0.9699
 3010SOL    HW220664   1.188   2.026   8.979  2.0477 -1.2394 -0.1176
 3011SOL     OW20665   0.484   3.735   3.081 -0.0700  0.1809 -0.6691
 3011SOL    HW120666   0.425   3.744   3.006  0.2234 -1.2481 -1.0778
 3011SOL    HW220667   0.421   3.715   3.151 -0.8518  2.7119 -0.6644
 3012SOL     OW20668   3.812   4.712   6.859 -0.0662 -0.2386  0.3704
 3012SOL    HW120669   3.745   4.691   6.794  0.8114 -1.6922 -0.0741
 3012SOL    HW220670   3.848   0.061   6.829 -0.8410 -0.4204 -1.0677
 3013SOL     OW20671   1.155   0.480  11.140  0.2744 -0.4075 -0.0176
 3013SOL    HW120672   1.201   0.455  11.220 -1.8769  0.6118  1.5463
 3013SOL    HW220673   1.066   0.482  11.175  0.6273 -1.0073  0.9156
 3014SOL     OW20674   0.994   3.585   5.120 -0.0758 -0.1464 -0.3003
 3014SOL    HW120675   1.051   3.648   5.075  1.1542 -1.0078  0.0445
 3014SOL    HW220676   1.012   3.501   5.078 -0.9952 -0.4643 -0.0611
 3015SOL     OW20677   2.508   3.411   5.220  0.0572  0.1491 -0.2447
 3015SOL    HW120678   2.550   3.343   5.167 -0.8944 -1.3020  0.8909
 3015SOL    HW220679   2.585   3.460   5.249  0.5369 -1.6591  1.5244
 3016SOL     OW20680   1.247   2.089   7.969 -0.1984 -0.0660  0.3887
 3016SOL    HW120681   1.167   2.141   7.964  1.0269  1.8141  0.3334
 3016SOL    HW220682   1.246   2.069   8.063  0.7971  0.4250  0.5102
 3017SOL     OW20683   2.045   1.816   7.218 -0.3010  0.6952  0.1325
 3017SOL    HW120684   2.130   1.797   7.180  0.5607  0.8779  2.0064
 3017SOL    HW220685   1.983   1.759   7.171  0.8512 -1.8476  1.7126
 3018SOL     OW20686   4.720   4.706  11.770 -0.0883 -0.2025  0.9925
 3018SOL    HW120687   0.019   4.619  11.789  2.3846  0.5472  0.1677
 3018SOL    HW220688   4.652   4.691  11.704 -0.2325  3.4218  0.2798
 3019SOL     OW20689   0.957   4.076   1.266 -0.0937  0.1001  0.5967
 3019SOL    HW120690   0.879   4.028   1.294 -0.1484 -0.1847 -0.0459
 3019SOL    HW220691   0.959   4.145   1.333  2.2942  1.1912 -0.6258
 3020SOL     OW20692   1.714   4.525   2.639  0.1594 -0.2876  0.1674
 3020SOL    HW120693   1.710   4.596   2.575  2.7715  0.6800  1.0904
 3020SOL    HW220694   1.668   4.570   2.710  0.5493  0.0846  0.1841
 3021SOL     OW20695   2.083   3.349   6.634  0.4266  0.5760  0.2697
 3021SOL    HW120696   2.031   3.384   6.706  0.3221  0.8721  0.0523
 3021SOL    HW220697   2.028   3.272   6.620  1.5875 -0.3281  0.6588
 3022SOL     OW20698   3.593   3.399   7.654 -0.5887 -0.2442 -0.4048
 3022SOL    HW120699   3.582   3.492   7.677  0.8393  0.2144 -1.5469
 3022SOL    HW220700   3.651   3.370   7.724 -0.1634  0.5101 -0.4379
 3023SOL     OW20701   0.057   0.068   6.699  0.1045  0.2143  0.2301
 3023SOL    HW120702   0.078   4.721   6.744  2.5670 -0.3234 -1.9410
 3023SOL    HW220703   4.733   0.045   6.626 -0.2604  2.7093 -0.2830
 3024SOL     OW20704   4.440   4.554   7.713  0.0783  0.3694  0.0580
 3024SOL    HW120705   4.524   4.572   7.670 -0.7276  0.1113 -1.6082
 3024SOL    HW220706   4.404   4.642   7.709 -0.5951  0.1177  0.6731
 3025SOL     OW20707   3.976   4.519   1.881  0.7333 -0.2301  0.5081
 3025SOL    HW120708   4.016   4.569   1.952  0.4695 -0.3095  0.7131
 3025SOL    HW220709   4.009   4.431   1.899 -4.0585 -1.9875  0.6655
 3026SOL     OW20710   1.775   3.583   6.582 -0.7875 -0.2269 -0.3588
 3026SOL    HW120711   1.742   3.634   6.656 -0.2664 -1.2506  0.5733
 3026SOL    HW220712   1.716   3.508   6.595  0.2973 -0.8892  0.6944
 3027SOL     OW20713   1.851   1.807  13.539 -0.5368 -0.0386 -0.2380
 3027SOL    HW120714   1.823   1.885  13.588 -0.3175  1.3136 -2.2870
 3027SOL    HW220715   1.895   1.749  13.601 -2.5809 -3.3530 -1.8595
 3028SOL     OW20716   0.436   3.788   4.468  0.1180 -0.1833 -0.1114
 3028SOL    HW120717   0.414   3.875   4.502  3.4408  1.2392 -1.6661
 3028SOL    HW220718   0.430   3.726   4.541 -0.2193  0.9576  0.8488
 3029SOL     OW20719   2.750   0.892   5.881  0.0116  0.0994 -0.1321
 3029SOL    HW120720   2.690   0.966   5.884 -1.0749 -0.8524  1.3216
 3029SOL    HW220721   2.774   0.886   5.788 -5.4001  0.9520 -1.5754
 3030SOL     OW20722   3.486   0.840  14.915  0.2360 -0.3284 -0.2524
 3030SOL    HW120723   3.554   0.895  14.876  0.1787 -0.5119 -0.6117
 3030SOL    HW220724   3.405   0.890  14.909 -0.5434 -1.1763  3.0505
 3031SOL     OW20725   0.679   4.234   6.718  0.1013  0.2506 -0.3727
 3031SOL    HW120726   0.635   4.309   6.759  0.3395 -0.3191  0.9510
 3031SOL    HW220727   0.678   4.259   6.626 -1.4244 -0.4562 -0.5474
 3032SOL     OW20728   3.643   2.385  13.641 -0.1816 -0.1398 -0.2710
 3032SOL    HW120729   3.676   2.313  13.587 -1.2824  0.5380 -1.8590
 3032SOL    HW220730   3.551   2.360  13.636 -0.3837  0.2717  1.7132
 3033SOL     OW20731   2.371   1.992   6.912 -0.1124  0.6956  0.2290
 3033SOL    HW120732   2.369   2.084   6.885 -2.7633  0.9911  1.3968
 3033SOL    HW220733   2.424   1.946   6.848 -0.9692  0.5037 -0.3368
 3034SOL     OW20734   3.947   3.968   3.682  0.4852 -0.4806  0.3416
 3034SOL    HW120735   3.863   4.014   3.687  0.6164 -0.2950  0.8403
 3034SOL    HW220736   3.966   3.947   3.774  0.4786 -0.1788  0.4110
 3035SOL     OW20737   2.913   0.706   2.531  0.4275  0.4278  0.5547
 3035SOL    HW120738   2.999   0.726   2.494  0.1857  0.0058 -0.2275
 3035SOL    HW220739   2.861   0.767   2.479 -1.1202 -0.7533  0.7334
 3036SOL     OW20740   0.697   4.139  13.206 -0.1218  0.8923 -0.0642
 3036SOL    HW120741   0.625   4.084  13.173  0.5566 -0.0501  0.0165
 3036SOL    HW220742   0.682   4.146  13.300 -1.6224 -0.6136 -0.1889
 3037SOL     OW20743   3.257   1.616  12.062  0.5405  0.5390  0.5690
 3037SOL    HW120744   3.163   1.626  12.078  0.0930 -0.4465 -1.4031
 3037SOL    HW220745   3.286   1.698  12.024 -0.8514  0.4408 -0.7130
 3038SOL     OW20746   0.737   0.570   4.144  0.6190  0.5359  0.0987
 3038SOL    HW120747   0.765   0.479   4.154 -1.1993 -0.1790 -1.5043
 3038SOL    HW220748   0.659   0.560   4.199  0.7720  2.3530  0.6616
 3039SOL     OW20749   2.257   0.024   7.196  0.1062  0.7145  0.0547
 3039SOL    HW120750   2.269   4.700   7.271 -0.8169 -0.0108 -0.3637
 3039SOL    HW220751   2.181   0.076   7.224 -0.1499  0.2547  0.2158
 3040SOL     OW20752   2.966   2.627   6.311 -0.0715  0.2295  0.1323
 3040SOL    HW120753   2.891   2.588   6.356  1.8240 -2.0326  1.3193
 3040SOL    HW220754   2.981   2.705   6.365 -0.2006 -1.2441  2.3047
 3041SOL     OW20755   2.552   3.506   6.709  0.2654  0.0174 -0.1254
 3041SOL    HW120756   2.466   3.522   6.748  0.3236 -1.6151  0.6741
 3041SOL    HW220757   2.563   3.592   6.668  1.4137 -0.6330 -1.1897
 3042SOL     OW20758   3.320   0.444  15.057  0.2686  0.5673 -0.3148
 3042SOL    HW120759   3.369   0.483  14.985 -1.9546 -1.1347 -2.7403
 3042SOL    HW220760   3.299   0.512  15.121 -1.9903  0.6247 -1.1144
 3043SOL     OW20761   0.525   2.210  12.089 -0.8064  0.7971 -0.4317
 3043SOL    HW120762   0.592   2.242  12.029  0.9718 -3.2829 -0.6181
 3043SOL    HW220763   0.497   2.131  12.044  0.7859 -0.3622  0.6023
 3044SOL     OW20764   1.051   2.927   2.077 -0.3594  0.1060  0.1774
 3044SOL    HW120765   1.115   2.988   2.042 -0.7584  0.6812  0.4528
 3044SOL    HW220766   0.984   2.940   2.010 -0.3141 -0.3717  0.0381
 3045SOL     OW20767   2.776   1.170   7.011 -0.1449  0.4802  0.2336
 3045SOL    HW120768   2.755   1.171   7.104 -1.5789  1.8932 -0.1070
 3045SOL    HW220769   2.793   1.262   6.991 -0.4190  0.8040  1.5366
 3046SOL     OW20770   1.342   1.973   2.134  0.4813 -0.1680  0.6010
 3046SOL    HW120771   1.248   1.993   2.138  0.3569 -1.0315  2.0772
 3046SOL    HW220772   1.344   1.932   2.047  1.4801  0.4749  0.3227
 3047SOL     OW20773   0.608   0.062   8.784  0.6350  0.2567 -0.1899
 3047SOL    HW120774   0.700   0.038   8.783  0.6466  0.2880  0.0318
 3047SOL    HW220775   0.570   4.709   8.796 -1.6714  1.2674 -0.1936
 3048SOL     OW20776   3.465   1.708   3.971 -1.0226 -0.1418  0.1434
 3048SOL    HW120777   3.517   1.671   4.043  2.4351  1.5045 -1.5088
 3048SOL    HW220778   3.403   1.637   3.958 -0.4086 -0.9342  1.4642
 3049SOL     OW20779   3.507   2.489   8.976 -0.5255 -0.0793  0.3030
 3049SOL    HW120780   3.446   2.543   9.027  1.4707  2.6351 -0.1461
 3049SOL    HW220781   3.550   2.449   9.052  1.2137 -0.6083 -0.9662
 3050SOL     OW20782   0.996   0.471   2.768  0.2876  0.0277  0.0334
 3050SOL    HW120783   1.039   0.496   2.686 -1.2299 -1.0418 -1.0788
 3050SOL    HW220784   0.909   0.509   2.756  0.5287  0.2251 -1.1507
 3051SOL     OW20785   4.167   1.451   3.881 -0.4058  0.0054 -0.4406
 3051SOL    HW120786   4.117   1.448   3.962  0.5675 -0.1645  0.1564
 3051SOL    HW220787   4.137   1.537   3.851 -0.9793 -0.6590 -1.7574
 3052SOL     OW20788   1.266   1.454   2.171 -0.3985  0.2167  0.1117
 3052SOL    HW120789   1.207   1.461   2.096 -0.0942  0.8640 -0.0658
 3052SOL    HW220790   1.215   1.494   2.241  2.7644  3.6092  0.4823
 3053SOL     OW20791   3.481   4.397  17.700 -0.3897  0.8047 -0.1878
 3053SOL    HW120792   3.412   4.413   0.028 -0.8627 -2.5532  0.1481
 3053SOL    HW220793   3.504   4.305  17.710  1.4446  1.3263  0.3802
 3054SOL     OW20794   3.704   1.946   4.785 -0.2327 -0.0520 -0.1533
 3054SOL    HW120795   3.621   1.983   4.753 -1.2159  0.0773  2.6087
 3054SOL    HW220796   3.743   2.013   4.839 -0.7983  0.4362 -0.3498
 3055SOL     OW20797   2.217   4.256  14.834 -0.5596 -0.6187 -0.6074
 3055SOL    HW120798   2.125   4.237  14.851 -0.9005  0.4179 -1.3023
 3055SOL    HW220799   2.210   4.263  14.739  0.1932  0.4964 -0.5771
 3056SOL     OW20800   2.476   4.632   6.598 -0.0501 -0.2256 -0.5678
 3056SOL    HW120801   2.517   4.659   6.679 -1.1457 -0.7485  0.1594
 3056SOL    HW220802   2.424   4.710   6.575  0.6638  1.2092  2.7838
 3057SOL     OW20803   1.997   3.460  17.206  0.2881 -0.7209 -0.6467
 3057SOL    HW120804   1.978   3.535  17.262  0.5822  0.2057 -1.7857
 3057SOL    HW220805   1.917   3.472  17.154  1.0096 -1.7010 -1.9850
 3058SOL     OW20806   0.243   4.425   8.087 -0.4318 -0.0007 -0.0578
 3058SOL    HW120807   0.228   4.415   7.993 -0.1359 -0.0509 -0.1003
 3058SOL    HW220808   0.158   4.411   8.129 -0.1953 -0.3666  0.3012
 3059SOL     OW20809   1.008   4.413   6.438  0.0293 -0.4450  0.0631
 3059SOL    HW120810   0.983   4.497   6.398 -1.7514 -1.4035 -0.8531
 3059SOL    HW220811   1.050   4.452   6.515  2.2824 -0.2756 -1.2605
 3060SOL     OW20812   1.396   3.989   2.012 -0.1016 -0.7349 -0.2693
 3060SOL    HW120813   1.472   3.931   2.023  0.0094 -0.4793  0.3449
 3060SOL    HW220814   1.358   3.952   1.933  0.5966  0.6431 -1.2368
 3061SOL     OW20815   4.478   3.000  15.683  0.7208 -0.1397 -0.1070
 3061SOL    HW120816   4.444   3.065  15.622 -0.4453 -0.7998 -0.1563
 3061SOL    HW220817   4.557   2.965  15.640 -0.2182 -0.1787 -1.7843
 3062SOL     OW20818   2.137   4.328   4.762  0.7361 -0.1340  0.1018
 3062SOL    HW120819   2.112   4.410   4.720  0.8402 -1.2052 -2.0281
 3062SOL    HW220820   2.095   4.350   4.846  2.4939 -1.6043  1.3685
 3063SOL     OW20821   0.372   4.561   8.577  0.1078  0.0072 -0.1526
 3063SOL    HW120822   0.348   4.600   8.661 -2.6554 -1.5637 -0.2229
 3063SOL    HW220823   0.418   4.480   8.597 -0.9896 -0.3728  0.7897
 3064SOL     OW20824   1.421   1.364  14.253  0.1602  0.2576  0.3374
 3064SOL    HW120825   1.453   1.417  14.180 -2.4016  0.2699 -0.7840
 3064SOL    HW220826   1.472   1.285  14.235 -0.8390 -0.5439  1.0598
 3065SOL     OW20827   2.376   4.061   8.627  0.9248 -0.3591 -0.1863
 3065SOL    HW120828   2.410   4.007   8.698 -0.8773 -0.5413  0.5388
 3065SOL    HW220829   2.453   4.080   8.573  0.4481 -0.6406 -0.9578
 3066SOL     OW20830   0.327   4.688   6.997 -0.0036  0.2069 -0.5563
 3066SOL    HW120831   0.308   0.048   6.987  1.2390  0.3120 -1.9096
 3066SOL    HW220832   0.375   4.683   6.915  1.3742 -1.5605  0.3856
 3067SOL     OW20833   4.284   0.018   1.597  0.0730 -0.1011  0.0007
 3067SOL    HW120834   4.210   4.695   1.580 -0.8244  0.4608  2.0985
 3067SOL    HW220835   4.258   0.056   1.681  2.3611  1.3385  0.0735
 3068SOL     OW20836   0.415   2.827   2.581  0.2086 -0.3590 -0.5015
 3068SOL    HW120837   0.410   2.913   2.624 -1.5119 -0.8033  0.1961
 3068SOL    HW220838   0.323   2.804   2.571 -0.4342  1.6653  0.7619
 3069SOL     OW20839   1.265   3.407   8.683 -0.0278 -0.6610  0.1122
 3069SOL    HW120840   1.283   3.334   8.623  0.6341 -0.7420  0.4006
 3069SOL    HW220841   1.226   3.359   8.756  0.4270 -1.0107  0.1298
 3070SOL     OW20842   2.394   4.053  14.851  0.5605  0.3639  0.2843
 3070SOL    HW120843   2.318   4.110  14.840 -1.3865 -2.0619  1.0568
 3070SOL    HW220844   2.405   4.057  14.946 -2.0841 -0.7079  0.6301
 3071SOL     OW20845   1.871   0.414  17.618  0.2605 -0.0557  0.5976
 3071SOL    HW120846   1.831   0.334  17.652 -2.2138 -0.2999 -2.8272
 3071SOL    HW220847   1.919   0.450  17.692 -0.3725 -1.1584  1.5403
 3072SOL     OW20848   4.385   1.883  11.386 -0.4723 -0.3382 -0.0269
 3072SOL    HW120849   4.302   1.841  11.408  1.1667 -3.0078  1.1308
 3072SOL    HW220850   4.406   1.828  11.311 -0.3609  0.6598 -0.7153
 3073SOL     OW20851   3.345   2.240   7.804  0.1035  0.1594  0.6583
 3073SOL    HW120852   3.373   2.298   7.733  0.9036 -0.7425  0.2368
 3073SOL    HW220853   3.372   2.152   7.778 -1.0344  0.3123 -1.0791
 3074SOL     OW20854   0.820   0.307   3.187 -0.1123 -0.0853  0.2763
 3074SOL    HW120855   0.821   0.304   3.282 -0.9147  0.3177  0.2960
 3074SOL    HW220856   0.822   0.401   3.167 -0.7467 -0.2555 -0.5772
 3075SOL     OW20857   0.724   3.521   9.412  0.3121 -0.9723  0.2484
 3075SOL    HW120858   0.805   3.501   9.460  0.6871 -0.7979 -0.3167
 3075SOL    HW220859   0.686   3.433   9.411  0.9573 -1.2510  0.0586
 3076SOL     OW20860   1.882   1.027   1.251  0.0618 -1.4033 -0.4388
 3076SOL    HW120861   1.858   0.987   1.334  0.3354 -0.7963 -0.0739
 3076SOL    HW220862   1.824   1.102   1.240  0.6328 -1.3494 -3.0486
 3077SOL     OW20863   1.755   1.098  10.004 -0.6172  0.2701  0.0018
 3077SOL    HW120864   1.669   1.077   9.967 -0.8669  2.3812 -0.6200
 3077SOL    HW220865   1.809   1.041   9.949 -2.2392 -1.5045  0.2656
 3078SOL     OW20866   3.955   2.046   7.396  0.3932  0.9550  0.0123
 3078SOL    HW120867   4.002   2.057   7.478  0.9545 -2.0013  0.0886
 3078SOL    HW220868   3.954   1.950   7.399  0.8843  0.9140 -1.0751
 3079SOL     OW20869   2.326   1.208  12.966 -0.1322  0.1007  0.5763
 3079SOL    HW120870   2.391   1.268  12.931 -0.4093 -0.1437 -0.3595
 3079SOL    HW220871   2.249   1.262  12.946 -2.1796 -2.6815  0.9780
 3080SOL     OW20872   1.580   0.895  11.837  0.5601 -0.0995 -0.0380
 3080SOL    HW120873   1.524   0.957  11.789  0.5678  0.3771  0.5730
 3080SOL    HW220874   1.652   0.893  11.774  0.5939  1.7355 -0.0536
 3081SOL     OW20875   1.622   2.073   3.156  0.2716  0.4541 -0.0211
 3081SOL    HW120876   1.662   2.107   3.076 -1.2314 -0.1231 -1.0183
 3081SOL    HW220877   1.585   2.155   3.188  0.2913  1.4867 -2.6634
 3082SOL     OW20878   1.631   1.019   3.860  0.1619  0.2396 -0.2145
 3082SOL    HW120879   1.699   1.070   3.817 -1.5779  3.2693  0.6496
 3082SOL    HW220880   1.665   0.991   3.945  0.4656 -0.3852 -0.5405
 3083SOL     OW20881   1.130   3.615   2.848 -0.2812  0.5444 -0.4219
 3083SOL    HW120882   1.128   3.708   2.828  0.8820  0.7608  0.4527
 3083SOL    HW220883   1.114   3.631   2.941 -1.5471 -0.4290 -0.4772
 3084SOL     OW20884   3.906   3.350   4.777  0.5750 -0.3360 -0.3022
 3084SOL    HW120885   3.813   3.344   4.753  0.6830  1.2256 -1.1287
 3084SOL    HW220886   3.929   3.258   4.790 -2.3644 -1.1238 -0.5341
 3085SOL     OW20887   4.188   3.184   0.047 -0.3473 -0.0941 -0.2832
 3085SOL    HW120888   4.114   3.220  17.734 -1.0519 -0.1214  0.7794
 3085SOL    HW220889   4.207   3.094   0.020  2.9196  1.1872 -2.2718
 3086SOL     OW20890   0.384   3.230   4.692  0.4770  0.3327  0.2933
 3086SOL    HW120891   0.422   3.274   4.615  0.7750  0.3180  0.4324
 3086SOL    HW220892   0.376   3.307   4.749  0.5696  0.4223  0.1882
 3087SOL     OW20893   3.453   3.612   1.620  0.3268 -0.2180 -0.4319
 3087SOL    HW120894   3.532   3.575   1.581 -0.1235 -0.8210 -0.7627
 3087SOL    HW220895   3.385   3.603   1.553  1.9208 -2.4147 -1.7516
 3088SOL     OW20896   2.664   2.141  16.242 -0.4231 -0.2684 -0.3278
 3088SOL    HW120897   2.749   2.181  16.225  0.2162 -0.7445  1.8199
 3088SOL    HW220898   2.609   2.219  16.235 -0.5031 -0.4280 -1.5370
 3089SOL     OW20899   3.353   0.643   5.607 -0.4072 -0.3978  0.3516
 3089SOL    HW120900   3.377   0.713   5.546 -1.0457 -1.1371 -0.7509
 3089SOL    HW220901   3.371   0.682   5.692  3.8309 -0.9072 -0.2877
 3090SOL     OW20902   2.040   2.986  11.948 -0.5537 -0.5922 -0.5212
 3090SOL    HW120903   1.963   2.965  11.894 -1.9448  1.8006  0.5245
 3090SOL    HW220904   2.085   3.049  11.892  1.5719 -0.6631  1.1079
 3091SOL     OW20905   1.013   3.060  16.850 -0.7293 -0.3201  0.2192
 3091SOL    HW120906   1.006   3.020  16.936 -2.1662 -0.1359  0.1809
 3091SOL    HW220907   0.938   3.120  16.856 -0.4294  0.4105 -3.0985
 3092SOL     OW20908   3.341   2.996  13.857 -0.7016 -0.3019 -0.2498
 3092SOL    HW120909   3.430   2.961  13.860 -1.2371 -1.4921  2.4715
 3092SOL    HW220910   3.357   3.091  13.858 -2.7387  0.0186  1.4465
 3093SOL     OW20911   2.735   2.637   0.684 -0.0277  0.7879  0.2752
 3093SOL    HW120912   2.727   2.553   0.730  2.1621  1.7001  2.2984
 3093SOL    HW220913   2.827   2.632   0.658  0.2991 -2.6314  2.0310
 3094SOL     OW20914   2.408   2.844   5.226  0.0589 -0.1150  0.0602
 3094SOL    HW120915   2.344   2.896   5.178 -0.1433 -2.6473 -2.4239
 3094SOL    HW220916   2.348   2.813   5.294  0.6379 -0.2729  0.5062
 3095SOL     OW20917   0.886   4.673   4.763  0.2438  0.2927 -0.1264
 3095SOL    HW120918   0.867   4.613   4.836  0.1270  0.1311 -0.2915
 3095SOL    HW220919   0.976   4.694   4.787  0.4751  0.5300 -1.2528
 3096SOL     OW20920   1.123   1.043   0.500 -0.1663  0.1130 -0.0058
 3096SOL    HW120921   1.062   1.052   0.427 -1.8453  0.7498  1.4591
 3096SOL    HW220922   1.194   0.993   0.460  0.4402 -0.0143  1.2176
 3097SOL     OW20923   3.602   3.799   4.205  0.0754 -0.2333  0.3145
 3097SOL    HW120924   3.669   3.831   4.265 -0.2746 -0.1373  0.6543
 3097SOL    HW220925   3.592   3.871   4.142  0.0431  0.3277  0.9574
 3098SOL     OW20926   3.853   0.802   2.985 -0.3246 -0.6993  0.4756
 3098SOL    HW120927   3.767   0.834   3.011 -0.3318  0.3279 -0.7927
 3098SOL    HW220928   3.917   0.873   2.991 -3.5624  2.3283 -0.9658
 3099SOL     OW20929   2.687   0.697   4.803 -0.3422  0.4431 -0.1001
 3099SOL    HW120930   2.647   0.634   4.863  0.1828  0.6485  0.4605
 3099SOL    HW220931   2.766   0.649   4.779 -1.4689 -0.9119 -1.1356
 3100SOL     OW20932   1.318   2.080  14.903  0.6353 -0.2403 -0.0173
 3100SOL    HW120933   1.396   2.119  14.942  0.1815 -0.7456  1.3960
 3100SOL    HW220934   1.332   1.986  14.892 -2.0799 -0.6328 -0.1001
 3101SOL     OW20935   3.826   2.813   2.979  0.1029  0.0595  0.0269
 3101SOL    HW120936   3.855   2.804   2.888 -0.7355  0.8971 -0.3171
 3101SOL    HW220937   3.825   2.718   2.992  1.1593 -0.1834 -1.6999
 3102SOL     OW20938   0.460   2.683  14.089 -0.1147  0.1516 -0.0333
 3102SOL    HW120939   0.539   2.688  14.142 -1.0896 -0.5870  1.5047
 3102SOL    HW220940   0.448   2.771  14.053 -0.1083  0.1414 -0.0602
 3103SOL     OW20941   2.134   0.147  15.565 -0.2653 -0.4010  0.3816
 3103SOL    HW120942   2.083   0.222  15.534 -0.5611 -2.4698 -4.0076
 3103SOL    HW220943   2.115   0.088  15.492 -1.7656  1.7102 -0.9339
 3104SOL     OW20944   0.867   0.406   2.522 -0.0680  0.0022 -0.5376
 3104SOL    HW120945   0.776   0.410   2.492  0.1350  3.0576 -0.7830
 3104SOL    HW220946   0.854   0.336   2.586 -0.3605  0.0887 -0.5017
 3105SOL     OW20947   0.147   3.160   6.757  0.5115 -0.1731  0.3885
 3105SOL    HW120948   0.061   3.191   6.788 -0.7017 -1.3839 -1.7810
 3105SOL    HW220949   0.204   3.179   6.831  3.5349  0.3142 -2.0712
 3106SOL     OW20950   2.064   1.864   9.581  0.0222  0.3639 -0.0905
 3106SOL    HW120951   2.117   1.819   9.516 -0.5110 -0.3895  0.0008
 3106SOL    HW220952   2.075   1.952   9.545 -0.3191  0.8526  0.9954
 3107SOL     OW20953   1.239   0.911   9.042  0.5425 -0.0254  0.5885
 3107SOL    HW120954   1.299   0.873   8.978 -1.3823 -1.6082 -0.2925
 3107SOL    HW220955   1.233   1.003   9.015  0.6930 -0.3604 -0.5704
 3108SOL     OW20956   0.921   4.203   4.226 -0.1132  0.0352 -0.6032
 3108SOL    HW120957   0.886   4.217   4.138 -1.7730  3.9683  0.7157
 3108SOL    HW220958   0.846   4.226   4.281 -0.3687 -0.7183 -0.6294
 3109SOL     OW20959   1.799   1.527   8.288  0.2635 -0.1585  0.1374
 3109SOL    HW120960   1.740   1.600   8.270 -1.1916 -1.2623  0.4538
 3109SOL    HW220961   1.748   1.466   8.341 -2.8651  0.3336 -2.2629
 3110SOL     OW20962   3.351   1.487  11.582  0.2365 -0.1346  0.2157
 3110SOL    HW120963   3.362   1.457  11.672  0.5396  1.5640  0.7518
 3110SOL    HW220964   3.323   1.576  11.604  1.7180  0.4082 -0.0918
 3111SOL     OW20965   3.636   1.560  13.549 -0.0076  0.1466 -0.3346
 3111SOL    HW120966   3.544   1.557  13.522  0.3459  1.5416 -1.7265
 3111SOL    HW220967   3.666   1.475  13.518 -1.8739 -0.6885  0.1201
 3112SOL     OW20968   2.013   3.524   3.866  0.0111  0.0046 -0.7397
 3112SOL    HW120969   1.927   3.542   3.829  0.0460  1.6073 -0.0486
 3112SOL    HW220970   2.077   3.578   3.819  0.1497  0.8702  0.4322
 3113SOL     OW20971   4.620   3.402   2.865 -0.0846 -0.0654 -0.1221
 3113SOL    HW120972   4.570   3.386   2.945  1.1377 -0.8980  0.4658
 3113SOL    HW220973   4.687   3.450   2.913  0.3887 -1.0077  0.1726
 3114SOL     OW20974   3.995   3.935  14.451  0.0661  0.0269  0.1832
 3114SOL    HW120975   4.010   4.029  14.455  0.8404 -0.0799 -0.3276
 3114SOL    HW220976   3.915   3.934  14.504  0.0031  2.2046  0.1170
 3115SOL     OW20977   0.575   4.209   4.100  0.0049  0.2364 -0.1822
 3115SOL    HW120978   0.635   4.167   4.037 -1.6803  1.9658 -2.9124
 3115SOL    HW220979   0.594   4.301   4.086 -2.6551  0.8024 -0.0660
 3116SOL     OW20980   0.829   4.021  15.177 -0.5123 -0.4466 -0.7441
 3116SOL    HW120981   0.846   4.081  15.105 -0.8606  2.2419  1.3844
 3116SOL    HW220982   0.863   3.937  15.147 -0.3569 -1.1090  1.2563
 3117SOL     OW20983   2.107   0.665   1.918 -0.2186  0.1242 -0.1740
 3117SOL    HW120984   2.134   0.598   1.856 -1.2074 -1.7805  1.4601
 3117SOL    HW220985   2.107   0.619   2.002 -0.7660  1.3142  0.4768
 3118SOL     OW20986   1.709   4.362   0.563 -0.3160  0.4714  0.0008
 3118SOL    HW120987   1.795   4.326   0.539 -1.1218 -1.4059 -0.0579
 3118SOL    HW220988   1.738   4.453   0.564  0.1610  0.3358 -0.9818
 3119SOL     OW20989   2.775   4.575   4.889 -0.6402 -0.3587 -0.0551
 3119SOL    HW120990   2.837   4.503   4.874  0.3194  0.3367  0.5481
 3119SOL    HW220991   2.837   4.644   4.865  0.6607 -1.4065  0.2747
 3120SOL     OW20992   3.943   1.822   2.603  0.3251  0.1406 -0.4671
 3120SOL    HW120993   4.006   1.784   2.542 -1.2480 -1.4822 -1.0695
 3120SOL    HW220994   3.945   1.758   2.673  0.2648 -0.4373 -0.9958
 3121SOL     OW20995   1.107   2.222   9.594  0.3572  0.1633  1.1259
 3121SOL    HW120996   1.076   2.133   9.582 -0.1597  0.6175 -0.9078
 3121SOL    HW220997   1.137   2.219   9.685 -0.8292 -0.3556  1.4963
 3122SOL     OW20998   1.698   3.398  13.179 -0.4793  0.3353 -0.2555
 3122SOL    HW120999   1.725   3.404  13.270  0.8549 -1.2547 -0.5454
 3122SOL    HW221000   1.774   3.436  13.134  1.4721 -0.3597  2.4620
 3123SOL     OW21001   0.980   2.230   8.837  0.1070 -0.1325 -0.6293
 3123SOL    HW121002   0.999   2.304   8.779 -0.5093  0.7359  0.2771
 3123SOL    HW221003   1.027   2.259   8.915  0.4421  1.5763 -1.4617
 3124SOL     OW21004   1.093   1.102  13.944  0.2026 -0.3005 -0.6072
 3124SOL    HW121005   1.009   1.058  13.952 -1.9063  2.9950 -4.1520
 3124SOL    HW221006   1.133   1.066  14.023 -2.5396 -1.0583  0.4377
 3125SOL     OW21007   3.780   1.853   3.801 -0.1893 -0.4032  0.3160
 3125SOL    HW121008   3.723   1.863   3.724  0.8611  0.5521 -0.3320
 3125SOL    HW221009   3.849   1.800   3.760  1.9839  3.0080 -0.4196
 3126SOL     OW21010   3.758   0.103  15.212 -0.0998 -0.3980 -0.5787
 3126SOL    HW121011   3.692   0.147  15.159 -0.1916  0.3243  0.1285
 3126SOL    HW221012   3.842   0.126  15.172  0.0577 -2.6911 -1.5680
 3127SOL     OW21013   2.563   3.194  13.456 -0.6903 -0.7036 -0.5753
 3127SOL    HW121014   2.491   3.256  13.450  0.0884  0.1467 -1.0561
 3127SOL    HW221015   2.551   3.175  13.549  2.7338  3.4593  0.6985
 3128SOL     OW21016   4.672   3.693   2.700  0.1419  0.0412 -0.7988
 3128SOL    HW121017   4.612   3.762   2.729 -0.5636 -0.7119 -0.4745
 3128SOL    HW221018   4.628   3.612   2.726  0.5660  0.1461  0.2318
 3129SOL     OW21019   1.440   0.456   0.491  0.1405  0.5286  0.2978
 3129SOL    HW121020   1.519   0.504   0.516  0.0082  1.5765 -1.3093
 3129SOL    HW221021   1.371   0.520   0.508  0.0393  0.1761  1.2254
 3130SOL     OW21022   2.075   1.761   3.740 -0.3400 -0.5281  0.1142
 3130SOL    HW121023   2.088   1.788   3.649 -1.6420 -1.1026 -0.2566
 3130SOL    HW221024   2.050   1.669   3.728 -3.2287  0.5031 -1.8574
 3131SOL     OW21025   2.737   1.262   7.726 -0.0656 -0.3083  0.1035
 3131SOL    HW121026   2.816   1.315   7.738 -1.1216  0.8078  2.0368
 3131SOL    HW221027   2.772   1.173   7.727  0.4630 -0.0712  1.7279
 3132SOL     OW21028   2.777   3.902   9.409 -0.1572  0.1896  0.5552
 3132SOL    HW121029   2.727   3.825   9.435  1.0077 -0.5443  0.5992
 3132SOL    HW221030   2.783   3.891   9.315  0.6093  1.9528  0.4025
 3133SOL     OW21031   4.423   0.430   3.556  0.3507 -0.1715 -0.2473
 3133SOL    HW121032   4.386   0.517   3.575  0.0423 -0.7181  1.5606
 3133SOL    HW221033   4.347   0.373   3.544 -0.1490  0.4348  0.0221
 3134SOL     OW21034   3.307   4.519   1.473  0.7010 -0.2118 -0.0496
 3134SOL    HW121035   3.352   4.438   1.447 -0.3556 -0.9983  0.5346
 3134SOL    HW221036   3.249   4.526   1.398 -0.0836 -2.0306  0.3710
 3135SOL     OW21037   3.051   0.788   1.091 -0.2476 -0.0726 -0.0704
 3135SOL    HW121038   2.979   0.728   1.069  0.9598 -1.6391  0.2710
 3135SOL    HW221039   3.088   0.741   1.166  0.4739  0.3965 -0.1418
 3136SOL     OW21040   0.439   2.141   4.834 -0.9459 -0.4913  0.2073
 3136SOL    HW121041   0.516   2.088   4.855 -0.5383 -1.3158 -3.4280
 3136SOL    HW221042   0.391   2.139   4.917  2.7090  1.1177  2.3772
 3137SOL     OW21043   0.967   0.090  16.443 -0.4724 -0.6012 -0.6650
 3137SOL    HW121044   1.041   0.140  16.408 -0.2526  0.3938  1.2065
 3137SOL    HW221045   0.905   0.163  16.432  0.3110  0.2169  0.3477
 3138SOL     OW21046   4.574   4.130   3.374 -0.6305  0.1566 -0.8242
 3138SOL    HW121047   4.607   4.057   3.322 -0.1662  0.1290 -0.4930
 3138SOL    HW221048   4.541   4.077   3.447  0.6512 -1.4899 -1.4302
 3139SOL     OW21049   1.538   4.733   7.332 -0.0404 -0.4640  0.0169
 3139SOL    HW121050   1.626   4.708   7.361  0.0440 -1.5594 -1.1883
 3139SOL    HW221051   1.474   4.686   7.386 -0.8490  2.4570  1.5724
 3140SOL     OW21052   2.449   4.024   2.563 -0.3148 -0.6631 -0.0215
 3140SOL    HW121053   2.363   4.007   2.602 -0.3654 -1.6684 -0.5766
 3140SOL    HW221054   2.420   4.011   2.473  0.0878  1.4298 -0.4450
 3141SOL     OW21055   2.229   0.568   7.584 -0.5064 -0.5409 -0.3455
 3141SOL    HW121056   2.163   0.545   7.519 -1.5538  0.7749  0.2364
 3141SOL    HW221057   2.301   0.607   7.535 -1.3191  1.2080 -0.1886
 3142SOL     OW21058   1.471   1.271   7.444 -0.1047 -0.0939  0.2111
 3142SOL    HW121059   1.561   1.274   7.412 -1.6728  1.3938 -4.0415
 3142SOL    HW221060   1.492   1.266   7.537 -1.3739 -0.2315  0.4961
 3143SOL     OW21061   0.804   1.239   3.434 -0.3457 -0.5173  0.8734
 3143SOL    HW121062   0.821   1.289   3.514 -0.8420 -2.7432  2.3745
 3143SOL    HW221063   0.714   1.212   3.449 -0.6894  0.1104 -0.1115
 3144SOL     OW21064   4.716   1.368   3.423 -0.2261 -0.3980  0.2821
 3144SOL    HW121065   4.731   1.274   3.409  0.8034 -0.3937  1.2947
 3144SOL    HW221066   4.650   1.358   3.492  2.6084  0.4621  3.1591
 3145SOL     OW21067   2.904   2.055   0.593 -0.2096 -0.3747 -0.8910
 3145SOL    HW121068   2.852   2.134   0.577 -2.9720 -1.9987  0.0234
 3145SOL    HW221069   2.993   2.088   0.581 -0.4038  0.8450  0.8483
 3146SOL     OW21070   2.378   0.255   1.362 -0.6255 -0.8699  0.5212
 3146SOL    HW121071   2.388   0.342   1.322  0.8915 -1.3176 -0.0571
 3146SOL    HW221072   2.470   0.237   1.380 -0.1394  1.7094  0.7019
 3147SOL     OW21073   2.318   1.002   9.538 -0.2823  0.4432 -0.1735
 3147SOL    HW121074   2.304   1.040   9.625  0.0013  1.6160 -0.6462
 3147SOL    HW221075   2.296   0.912   9.561 -2.5671  1.1258  0.2793
 3148SOL     OW21076   0.305   4.155   2.056 -0.0903 -0.2205  0.4573
 3148SOL    HW121077   0.339   4.120   2.139 -0.4887  0.2047  0.8024
 3148SOL    HW221078   0.270   4.072   2.022  1.1214 -0.2873 -0.6514
 3149SOL     OW21079   0.273   0.923  16.172  0.0299  0.3193 -0.5513
 3149SOL    HW121080   0.224   0.962  16.245  2.9168  1.5767  0.7171
 3149SOL    HW221081   0.259   0.983  16.098 -2.1732  1.6228  0.9232
 3150SOL     OW21082   0.691   1.936   7.114  0.6492  0.0486 -0.3567
 3150SOL    HW121083   0.626   2.003   7.134 -0.5530 -1.4637  0.8749
 3150SOL    HW221084   0.777   1.976   7.107  0.3483  0.9650  1.0970
 3151SOL     OW21085   3.717   2.787  10.250 -0.5064 -0.0317 -0.5018
 3151SOL    HW121086   3.742   2.756  10.337 -1.8298 -0.3374 -0.2214
 3151SOL    HW221087   3.656   2.854  10.279 -0.9841 -1.1499  1.0832
 3152SOL     OW21088   3.899   1.039   6.325 -0.3155  0.2178 -0.9168
 3152SOL    HW121089   3.898   1.001   6.238  2.0755  0.7471 -1.1846
 3152SOL    HW221090   3.908   1.131   6.299 -2.7052  0.4084 -1.0808
 3153SOL     OW21091   1.637   1.560   9.693  0.1926  0.2078 -0.4981
 3153SOL    HW121092   1.667   1.628   9.754 -0.1247 -0.8143  0.7968
 3153SOL    HW221093   1.547   1.588   9.676  0.5123  1.7902  0.4712
 3154SOL     OW21094   1.309   1.618   9.068  0.4809  0.3547 -0.3350
 3154SOL    HW121095   1.306   1.544   9.129 -0.0878  0.4863 -0.2078
 3154SOL    HW221096   1.223   1.655   9.050  0.6385  0.2083 -1.4532
 3155SOL     OW21097   4.320   3.593   9.111 -0.2262 -0.2765 -0.2776
 3155SOL    HW121098   4.328   3.542   9.191 -0.9146  0.8724  0.5203
 3155SOL    HW221099   4.410   3.599   9.081 -0.4750 -1.3583 -1.2273
 3156SOL     OW21100   1.293   1.168   5.255 -0.0415 -0.0196 -0.3121
 3156SOL    HW121101   1.387   1.175   5.237  0.3571 -3.0896  0.6212
 3156SOL    HW221102   1.270   1.101   5.190  2.7332  0.8385 -2.1851
 3157SOL     OW21103   1.816   0.377   5.787  0.1891 -0.5736  0.1034
 3157SOL    HW121104   1.741   0.428   5.818  0.4277 -1.1324  1.6234
 3157SOL    HW221105   1.815   0.297   5.841 -0.0534 -0.5093  0.1951
 3158SOL     OW21106   0.136   0.398   5.124  0.3351 -0.2442  0.5070
 3158SOL    HW121107   0.172   0.313   5.149 -1.6974 -1.4719 -0.6880
 3158SOL    HW221108   0.173   0.449   5.196  0.9353  0.1496 -0.0792
 3159SOL     OW21109   3.607   4.402   3.381 -0.1775 -0.3357 -0.2897
 3159SOL    HW121110   3.647   4.455   3.451 -1.3465 -0.9213  0.8081
 3159SOL    HW221111   3.538   4.459   3.347 -0.1258 -0.7084 -1.0022
 3160SOL     OW21112   3.077   1.074   6.252 -0.0789 -0.8475  0.4307
 3160SOL    HW121113   3.027   1.004   6.212 -0.3489  0.0150 -0.7583
 3160SOL    HW221114   3.068   1.142   6.185 -1.4707  2.1297  3.6289
 3161SOL     OW21115   3.635   0.261   2.698 -0.2535 -0.1180  0.3050
 3161SOL    HW121116   3.584   0.194   2.653  1.7065 -1.9601  0.8096
 3161SOL    HW221117   3.699   0.292   2.634 -0.5697  2.4521  1.2271
 3162SOL     OW21118   2.033   2.740   1.680  0.4911  0.3397  0.3358
 3162SOL    HW121119   1.989   2.751   1.764  0.1899  0.3288  0.1806
 3162SOL    HW221120   2.069   2.652   1.688 -2.5423 -0.5946  3.4876
 3163SOL     OW21121   3.908   1.508  11.851 -0.1394 -0.1341 -0.2776
 3163SOL    HW121122   3.920   1.437  11.913 -0.9972  0.7386  0.8887
 3163SOL    HW221123   3.848   1.469  11.787 -1.5311  1.0543  0.2821
 3164SOL     OW21124   4.155   2.554  16.104 -0.1393  0.0443 -0.3917
 3164SOL    HW121125   4.130   2.503  16.181  2.1452  1.3955  1.2583
 3164SOL    HW221126   4.147   2.491  16.032  0.1092 -0.3079 -0.1106
 3165SOL     OW21127   0.559   3.572   4.302 -0.2357 -0.2770 -0.2663
 3165SOL    HW121128   0.489   3.634   4.322 -1.5143 -1.1591 -1.9295
 3165SOL    HW221129   0.633   3.629   4.282 -1.5472  1.8741  1.1276
 3166SOL     OW21130   2.684   4.177   2.590  0.2565  0.0505 -0.5068
 3166SOL    HW121131   2.618   4.108   2.594  1.7214 -1.4448 -2.1095
 3166SOL    HW221132   2.657   4.226   2.668 -0.6852 -0.4287 -0.5282
 3167SOL     OW21133   3.063   1.887  11.556 -0.0887  0.4892  0.0507
 3167SOL    HW121134   2.974   1.853  11.560  0.0769 -0.1652 -1.9468
 3167SOL    HW221135   3.086   1.889  11.463  0.3835  1.5728  0.1903
 3168SOL     OW21136   4.351   2.861  13.448  0.1137  0.1693 -0.3255
 3168SOL    HW121137   4.338   2.766  13.448 -1.3213  0.3540  1.1237
 3168SOL    HW221138   4.374   2.878  13.539 -0.7058  0.3293 -0.1429
 3169SOL     OW21139   0.064   0.890   1.431 -0.1156 -0.4712 -0.0115
 3169SOL    HW121140   0.126   0.848   1.491 -0.5673 -0.1970  0.6496
 3169SOL    HW221141   0.038   0.969   1.479  0.4659  0.4730 -1.2562
 3170SOL     OW21142   4.607   0.326   5.029  0.1840 -0.5843 -0.0946
 3170SOL    HW121143   4.530   0.345   5.082  1.3013  3.5366  0.0245
 3170SOL    HW221144   4.674   0.356   5.091 -1.3720  1.1550  0.7089
 3171SOL     OW21145   1.671   0.329   4.609  0.1922  0.1731 -0.6787
 3171SOL    HW121146   1.598   0.386   4.635 -0.0880 -0.0937 -0.8899
 3171SOL    HW221147   1.738   0.350   4.674 -0.1786  2.2137 -0.9388
 3172SOL     OW21148   4.216   1.099   6.899 -0.1538 -0.2558  0.1938
 3172SOL    HW121149   4.257   1.186   6.900 -0.8300  0.0499  1.0254
 3172SOL    HW221150   4.151   1.107   6.969 -0.4556  2.1722 -0.3775
 3173SOL     OW21151   4.250   1.545  15.750  0.5529 -0.0318  0.0013
 3173SOL    HW121152   4.273   1.601  15.676  0.7292 -1.5899 -1.1277
 3173SOL    HW221153   4.254   1.603  15.826  0.0453 -0.2585  0.2003
 3174SOL     OW21154   3.588   0.459   2.452  0.0345 -0.2222  0.1335
 3174SOL    HW121155   3.522   0.440   2.385 -1.0614  2.7921  0.3796
 3174SOL    HW221156   3.605   0.553   2.451 -1.2794  0.0142  0.8967
 3175SOL     OW21157   3.361   0.628  11.379  0.0417  0.5310  0.3739
 3175SOL    HW121158   3.402   0.613  11.464  2.0552  1.0980 -0.4987
 3175SOL    HW221159   3.402   0.710  11.349 -1.7642  1.9782  1.8471
 3176SOL     OW21160   2.651   0.256   4.576  0.4547 -0.3681  0.1010
 3176SOL    HW121161   2.707   0.323   4.616 -0.9831  0.2585  1.0655
 3176SOL    HW221162   2.715   0.218   4.516  0.7850 -0.1357  0.3046
 3177SOL     OW21163   2.223   0.994   6.309  0.2025  0.2558  0.5558
 3177SOL    HW121164   2.272   0.915   6.287 -0.5879 -0.1924  0.3773
 3177SOL    HW221165   2.140   0.985   6.262  1.2893  1.6364 -1.6269
 3178SOL     OW21166   0.022   4.416   9.621  0.4667 -0.5020 -0.0217
 3178SOL    HW121167   0.028   4.512   9.623  0.0880 -0.4460 -1.8477
 3178SOL    HW221168   0.090   4.401   9.556 -0.2026 -0.3123 -0.7698
 3179SOL     OW21169   3.953   2.217   6.863  0.3795  0.1610  0.4290
 3179SOL    HW121170   3.958   2.165   6.943 -1.8816 -0.5488  0.1062
 3179SOL    HW221171   3.892   2.167   6.808  0.0974 -1.3252  2.0824
 3180SOL     OW21172   0.666   1.114  17.536  0.0322 -0.2417  0.3224
 3180SOL    HW121173   0.690   1.169  17.462 -0.4852 -1.5453 -0.8027
 3180SOL    HW221174   0.619   1.173  17.595  2.5955  0.0968  2.0343
 3181SOL     OW21175   3.035   0.982   4.777  0.0653  0.2390  0.6757
 3181SOL    HW121176   2.963   0.955   4.721  1.4659 -1.7799 -0.1286
 3181SOL    HW221177   2.993   0.973   4.862 -1.4431  0.2099 -0.0807
 3182SOL     OW21178   4.719   1.998  17.224  0.3240 -0.0776  0.2932
 3182SOL    HW121179   4.712   2.036  17.137  1.4170  1.0955  0.7235
 3182SOL    HW221180   4.719   2.067  17.290  0.1904  0.9244 -0.7638
 3183SOL     OW21181   4.707   2.573   7.766 -0.2222  0.0920  0.3150
 3183SOL    HW121182   0.035   2.563   7.838  0.7666 -0.7697 -0.6620
 3183SOL    HW221183   0.008   2.509   7.703  1.9944 -0.1692  1.8085
 3184SOL     OW21184   1.744   3.339   9.668 -0.1958  0.3412  0.0199
 3184SOL    HW121185   1.704   3.397   9.603 -0.5588  1.6743  1.4435
 3184SOL    HW221186   1.745   3.399   9.742 -2.0982 -1.0918  1.1955
 3185SOL     OW21187   1.079   2.764   3.632 -0.3598 -0.3954  0.2963
 3185SOL    HW121188   1.008   2.827   3.626 -0.7585 -0.9634 -0.9960
 3185SOL    HW221189   1.111   2.784   3.720 -1.5258  1.2943  0.3295
 3186SOL     OW21190   2.975   3.938   4.752 -0.2677  0.7064  0.4138
 3186SOL    HW121191   2.989   3.851   4.715 -0.9580  1.6923 -2.1671
 3186SOL    HW221192   2.897   3.958   4.700 -0.2164  1.2602  0.5477
 3187SOL     OW21193   4.311   2.462   4.653 -0.4261  0.1969  0.0119
 3187SOL    HW121194   4.245   2.414   4.603 -1.6108  2.6698 -0.8426
 3187SOL    HW221195   4.255   2.523   4.702 -1.1047 -0.9792  0.6929
 3188SOL     OW21196   0.043   4.076   4.452  0.4955 -0.2137 -0.2034
 3188SOL    HW121197   0.025   4.007   4.515 -0.8628 -1.0355 -1.4817
 3188SOL    HW221198   0.083   4.152   4.494  1.5744 -0.2972 -1.0538
 3189SOL     OW21199   1.062   0.101   0.852  0.3343  0.2901 -0.0503
 3189SOL    HW121200   1.122   0.136   0.786 -0.8816 -0.3714 -1.5134
 3189SOL    HW221201   1.000   0.049   0.801 -0.8983 -0.9038  2.6717
 3190SOL     OW21202   1.631   2.270   4.522 -0.5177  0.0813 -0.4855
 3190SOL    HW121203   1.550   2.263   4.471  0.8626  0.4429 -2.7502
 3190SOL    HW221204   1.654   2.182   4.553 -0.5812 -0.5769 -2.3019
 3191SOL     OW21205   3.249   1.149   6.588  0.0615  0.5519  0.3009
 3191SOL    HW121206   3.243   1.074   6.647 -0.9422  0.9900  0.7574
 3191SOL    HW221207   3.234   1.216   6.655  0.0547 -1.5848  2.4251
 3192SOL     OW21208   3.374   0.492   0.586 -0.5192 -0.1933 -0.0302
 3192SOL    HW121209   3.463   0.524   0.597 -0.3451 -0.5857 -0.2661
 3192SOL    HW221210   3.378   0.397   0.599  2.2670 -0.5558 -3.5189
 3193SOL     OW21211   3.461   4.152   5.947 -0.2897 -0.5220  0.5469
 3193SOL    HW121212   3.470   4.236   5.902  0.7647  0.3339  2.3461
 3193SOL    HW221213   3.466   4.085   5.878 -0.8517  0.0613 -0.0494
 3194SOL     OW21214   3.992   0.587   0.625  0.3481 -0.3870  0.5218
 3194SOL    HW121215   4.055   0.514   0.627 -0.2034 -0.8231  2.2339
 3194SOL    HW221216   3.939   0.548   0.695 -0.9492 -0.6580 -0.6086
 3195SOL     OW21217   4.534   2.876   6.635 -0.1646 -0.6903 -0.6560
 3195SOL    HW121218   4.534   2.786   6.667 -0.1175 -0.8971 -1.2236
 3195SOL    HW221219   4.472   2.912   6.698  0.9144  0.6421 -0.3632
 3196SOL     OW21220   0.719   1.909   2.993  0.0881  0.1075 -0.0305
 3196SOL    HW121221   0.681   1.928   3.079 -0.8081 -0.7518 -0.2347
 3196SOL    HW221222   0.688   1.985   2.943 -1.2125 -0.1779  0.3505
 3197SOL     OW21223   0.368   0.052  10.219 -0.0451 -0.3687 -0.2816
 3197SOL    HW121224   0.382   0.110  10.144 -1.4065 -1.6429 -1.5156
 3197SOL    HW221225   0.275   0.034  10.207  0.1045 -0.8242 -0.7580
 3198SOL     OW21226   1.473   0.031   8.065 -0.5080 -0.1244 -0.2659
 3198SOL    HW121227   1.470   0.025   7.970 -0.6827  2.9448 -0.4419
 3198SOL    HW221228   1.562   0.064   8.077 -0.6838 -0.5679  2.2890
 3199SOL     OW21229   1.299   0.617   5.951 -0.3133  0.4401 -0.1726
 3199SOL    HW121230   1.369   0.606   6.015  0.0589 -1.1161 -0.8541
 3199SOL    HW221231   1.326   0.702   5.914 -1.4922  0.9650  0.1860
 3200SOL     OW21232   2.582   0.633  11.038  0.2238  0.3350 -0.0828
 3200SOL    HW121233   2.578   0.726  11.018  0.9855 -0.0834 -2.1675
 3200SOL    HW221234   2.532   0.634  11.120 -0.6313 -1.0791 -0.5783
 3201SOL     OW21235   2.518   1.734   5.109  0.3339 -0.0252 -0.4118
 3201SOL    HW121236   2.506   1.794   5.036  1.2063 -1.2472 -1.5542
 3201SOL    HW221237   2.589   1.675   5.080  0.4829 -0.1983  0.2972
 3202SOL     OW21238   3.420   0.809   5.871 -0.1719 -0.0809 -0.1580
 3202SOL    HW121239   3.424   0.739   5.937 -0.9287 -0.2563 -0.3058
 3202SOL    HW221240   3.331   0.834   5.893  1.3014  2.4748  2.8779
 3203SOL     OW21241   2.537   0.839   7.279 -0.4665  0.3777  0.3736
 3203SOL    HW121242   2.553   0.933   7.269 -1.7952  0.4861 -0.7937
 3203SOL    HW221243   2.442   0.827   7.284 -0.3774 -0.4054  0.2404
 3204SOL     OW21244   3.512   0.890   1.905  0.1782 -0.6809  0.0514
 3204SOL    HW121245   3.489   0.840   1.983  0.8785  0.1854  0.8034
 3204SOL    HW221246   3.600   0.911   1.936  0.9462 -2.4079 -0.9588
 3205SOL     OW21247   3.101   3.738   5.827 -0.1518 -0.4321 -0.2566
 3205SOL    HW121248   3.046   3.766   5.754  0.4458  4.5734  1.2706
 3205SOL    HW221249   3.052   3.667   5.870 -0.8175  0.6907  0.8154
 3206SOL     OW21250   2.633   4.577  16.956 -0.5624 -0.1274  0.5734
 3206SOL    HW121251   2.588   4.662  16.954 -0.2586 -0.0215 -1.3938
 3206SOL    HW221252   2.721   4.601  16.927 -0.3275  0.3179  1.6334
 3207SOL     OW21253   3.825   4.095   4.855  0.0504 -0.5971  0.1104
 3207SOL    HW121254   3.803   4.090   4.948 -0.1954  0.9191  0.1287
 3207SOL    HW221255   3.809   4.189   4.846  0.7442 -0.2226  2.8290
 3208SOL     OW21256   4.734   3.390   2.198 -0.4503 -0.3379  0.4844
 3208SOL    HW121257   4.712   3.314   2.146  0.8723  0.8090 -1.7446
 3208SOL    HW221258   0.090   3.404   2.171 -1.0323  1.6705 -0.4686
 3209SOL     OW21259   0.311   2.940  10.235  0.0214  0.0631  0.8017
 3209SOL    HW121260   0.377   2.922  10.303  1.1027  1.2955  0.0849
 3209SOL    HW221261   0.370   2.955  10.161  0.5357 -1.7055  0.8552
 3210SOL     OW21262   1.165   1.134   2.166  0.7436 -0.4532 -0.1117
 3210SOL    HW121263   1.230   1.169   2.105 -0.3012  0.2584 -0.8201
 3210SOL    HW221264   1.143   1.214   2.214 -1.4670 -1.3751  0.4226
 3211SOL     OW21265   1.781   2.698   1.512  0.3008 -0.1284 -0.0921
 3211SOL    HW121266   1.856   2.687   1.570 -0.9377  1.2984  1.7821
 3211SOL    HW221267   1.763   2.792   1.507  0.0710  0.0375  3.7715
 3212SOL     OW21268   4.261   4.348   8.340 -0.1614  0.1246 -0.0247
 3212SOL    HW121269   4.243   4.354   8.434  0.4201  0.5745  0.0564
 3212SOL    HW221270   4.353   4.372   8.348 -0.0889 -0.2342  0.2154
 3213SOL     OW21271   2.525   4.733   7.932  0.9325  0.3868 -0.1267
 3213SOL    HW121272   2.542   4.727   8.026 -0.0205 -1.7716 -0.0999
 3213SOL    HW221273   2.438   4.693   7.942  1.7725 -1.3818  0.0684
 3214SOL     OW21274   4.315   4.569   0.520  0.1860  0.2265 -0.3804
 3214SOL    HW121275   4.347   4.481   0.497 -0.3747  0.5655 -2.4484
 3214SOL    HW221276   4.380   4.618   0.471  0.2883  1.9609  1.5193
 3215SOL     OW21277   2.348   2.902   7.069 -0.1947 -0.0381  0.2862
 3215SOL    HW121278   2.425   2.917   7.125 -0.5687 -1.4494  1.2055
 3215SOL    HW221279   2.382   2.831   7.015  0.4585  1.0793 -0.7570
 3216SOL     OW21280   1.709   1.297   8.476  0.0245  0.4318 -0.1343
 3216SOL    HW121281   1.756   1.216   8.497  0.8395  0.8610 -0.2838
 3216SOL    HW221282   1.653   1.272   8.403 -1.6441  0.5347  1.1190
 3217SOL     OW21283   1.930   3.896   2.914 -0.4958 -0.1131 -0.3525
 3217SOL    HW121284   1.867   3.824   2.917  0.1581 -0.6753  0.0412
 3217SOL    HW221285   1.898   3.960   2.977 -1.9087 -2.0142  0.8850
 3218SOL     OW21286   3.946   2.528   5.729 -0.5882 -0.0131  0.3005
 3218SOL    HW121287   3.939   2.519   5.634 -0.3394 -0.6666  0.3448
 3218SOL    HW221288   3.871   2.473   5.750  0.5257 -1.6636 -0.0690
 3219SOL     OW21289   0.753   2.151   7.449 -0.2482 -0.0145 -0.2747
 3219SOL    HW121290   0.814   2.091   7.405  1.5089  2.1449 -0.7657
 3219SOL    HW221291   0.797   2.171   7.532  4.7715 -1.2790 -2.6023
 3220SOL     OW21292   3.594   2.206   8.040  0.0338 -0.6981 -0.1259
 3220SOL    HW121293   3.532   2.134   8.027 -0.1101 -0.4296 -0.9065
 3220SOL    HW221294   3.547   2.244   8.114 -1.5098  0.6136 -1.7991
 3221SOL     OW21295   3.970   2.780  13.062  0.2362 -0.1937 -0.5657
 3221SOL    HW121296   3.877   2.768  13.081 -0.0326  1.0119 -1.1420
 3221SOL    HW221297   3.990   2.836  13.136  3.0016  1.6723 -2.7422
 3222SOL     OW21298   3.896   1.098   2.480 -0.2659 -0.1641  0.6421
 3222SOL    HW121299   3.870   1.190   2.475  1.5912  0.3204  0.2515
 3222SOL    HW221300   3.826   1.054   2.432  1.4058 -0.1567 -1.7564
 3223SOL     OW21301   4.189   4.198   7.323  0.1372  0.1307 -0.5381
 3223SOL    HW121302   4.284   4.207   7.313  0.2653  0.2867  0.8126
 3223SOL    HW221303   4.192   4.111   7.362  0.8381  0.2687 -0.2828
 3224SOL     OW21304   0.347   0.476   3.083 -1.1238  0.1620  0.9218
 3224SOL    HW121305   0.301   0.496   3.164  0.7066 -0.4042  2.0960
 3224SOL    HW221306   0.377   0.387   3.104 -0.0550  0.4151  0.5181
 3225SOL     OW21307   3.069   1.869   5.001  0.1686  0.4076  0.0925
 3225SOL    HW121308   3.072   1.804   4.931  1.2723 -1.0137  1.4801
 3225SOL    HW221309   3.163   1.887   5.005  0.4572 -1.4718  1.5391
 3226SOL     OW21310   0.464   0.733  15.057 -0.2369  0.0697  0.2947
 3226SOL    HW121311   0.519   0.796  15.104 -1.0223  0.1223  1.1334
 3226SOL    HW221312   0.476   0.653  15.107 -0.5115  0.5458  1.1170
 3227SOL     OW21313   0.457   4.228  12.149  0.2226  0.4336  0.2123
 3227SOL    HW121314   0.544   4.202  12.180 -0.6653 -1.0949  1.4562
 3227SOL    HW221315   0.421   4.281  12.220  0.7465 -1.5011  1.9258
 3228SOL     OW21316   3.108   0.278   7.572  0.2848  0.1211 -0.4747
 3228SOL    HW121317   3.138   0.318   7.654 -2.1415 -0.8542  0.8685
 3228SOL    HW221318   3.120   0.184   7.586 -0.5717  0.1061  0.1294
 3229SOL     OW21319   1.101   3.169   6.108 -0.9325 -0.5567  0.3957
 3229SOL    HW121320   1.086   3.127   6.193 -0.3559  0.9068  1.2081
 3229SOL    HW221321   1.194   3.152   6.092 -0.4418 -1.0664  3.6588
 3230SOL     OW21322   2.035   1.066   5.020 -0.2666  0.0638 -0.0281
 3230SOL    HW121323   2.088   1.136   5.057 -2.7517  1.3347  1.1290
 3230SOL    HW221324   2.047   1.076   4.925 -0.1594 -1.0913 -0.1371
 3231SOL     OW21325   1.943   1.415   1.364 -0.7186  0.1956 -0.1888
 3231SOL    HW121326   2.013   1.373   1.414  0.1742  2.1274  0.1555
 3231SOL    HW221327   1.956   1.508   1.379  0.0712  0.0867 -0.1987
 3232SOL     OW21328   3.927   4.418   4.591  0.0678 -0.4715 -0.4856
 3232SOL    HW121329   3.939   4.323   4.593  0.7814 -0.3518  0.7416
 3232SOL    HW221330   3.873   4.434   4.668 -0.4333  2.2916 -1.4084
 3233SOL     OW21331   4.336   1.007   2.270 -0.3297 -0.1669  0.1485
 3233SOL    HW121332   4.338   0.988   2.176  0.0238  0.1235  0.1010
 3233SOL    HW221333   4.244   0.986   2.290 -0.2529  0.5127  1.1939
 3234SOL     OW21334   1.166   3.981   1.028  0.2459 -0.7248 -0.7581
 3234SOL    HW121335   1.247   3.973   1.079  0.9121  0.9349 -1.5766
 3234SOL    HW221336   1.116   4.034   1.091  2.1460  2.9497 -2.3460
 3235SOL     OW21337   0.149   3.131   5.835  0.2401 -0.2218  0.0042
 3235SOL    HW121338   0.148   3.063   5.903  0.1764  0.3342  0.5555
 3235SOL    HW221339   0.112   3.078   5.764 -2.3601 -1.2781  2.1640
 3236SOL     OW21340   3.231   1.193   1.225  0.2645  0.2110  0.3090
 3236SOL    HW121341   3.172   1.150   1.163 -0.0948  1.8486 -0.4988
 3236SOL    HW221342   3.246   1.107   1.264  0.8387  0.5605  0.8558
 3237SOL     OW21343   3.978   0.020   8.211  0.0063  0.7249  0.0846
 3237SOL    HW121344   3.999   4.662   8.192  0.1817  0.5784  0.9751
 3237SOL    HW221345   4.024   0.062   8.139 -1.9697  1.5338 -0.6935
 3238SOL     OW21346   0.713   4.321   5.495 -0.2322 -0.2531 -0.8944
 3238SOL    HW121347   0.652   4.250   5.476  1.9216 -1.8611 -1.8155
 3238SOL    HW221348   0.662   4.398   5.470 -1.7029  0.3433  3.9023
 3239SOL     OW21349   0.516   1.126   7.921 -0.3751 -0.0352 -0.1974
 3239SOL    HW121350   0.566   1.059   7.873  1.4915  0.6493  0.7723
 3239SOL    HW221351   0.498   1.080   8.003  0.0714 -1.5519 -0.9486
 3240SOL     OW21352   0.856   3.691  12.226  0.1556  0.0294  0.2368
 3240SOL    HW121353   0.839   3.601  12.198 -0.7479  0.3662 -0.3020
 3240SOL    HW221354   0.773   3.735  12.206  0.4379  0.9460  1.0922
 3241SOL     OW21355   3.961   2.110   2.814  0.5292  0.0567 -1.0144
 3241SOL    HW121356   3.973   2.068   2.729 -2.6746  0.8884 -1.8904
 3241SOL    HW221357   3.997   2.047   2.876 -0.3035 -0.3476 -0.9345
 3242SOL     OW21358   2.030   1.566   0.372 -0.3379 -0.1885  0.6956
 3242SOL    HW121359   2.068   1.612   0.447  0.4099  0.9944 -0.4153
 3242SOL    HW221360   1.982   1.639   0.334 -2.7722 -2.9048 -1.4177
 3243SOL     OW21361   1.570   1.804   8.784 -0.7912  0.4094  0.5336
 3243SOL    HW121362   1.577   1.725   8.837 -0.2406  0.1373  0.0552
 3243SOL    HW221363   1.589   1.870   8.851  1.8627 -1.0947  1.2367
 3244SOL     OW21364   3.739   4.698   4.074 -0.5716 -0.6676 -0.4402
 3244SOL    HW121365   3.790   4.674   4.152  0.1899 -1.8353 -1.3016
 3244SOL    HW221366   3.781   4.635   4.015 -2.5414 -1.9566 -0.4473
 3245SOL     OW21367   0.497   3.050   8.071  0.0130 -0.1049 -0.1810
 3245SOL    HW121368   0.555   3.028   8.145  0.1271  1.8427  0.3244
 3245SOL    HW221369   0.416   3.016   8.108  1.4904 -0.0553  3.1121
 3246SOL     OW21370   1.309   1.447   6.440  0.3264 -0.4441 -0.1174
 3246SOL    HW121371   1.256   1.368   6.448  0.7675 -0.6914  0.3616
 3246SOL    HW221372   1.323   1.467   6.532 -1.0307 -0.1485  0.0187
 3247SOL     OW21373   3.391   4.180   8.878 -0.2314  0.4375  0.0564
 3247SOL    HW121374   3.480   4.145   8.889 -1.1114 -2.7364 -3.0385
 3247SOL    HW221375   3.345   4.137   8.950  2.1399 -0.2941  1.1375
 3248SOL     OW21376   4.547   2.170   8.843  0.6145 -0.2615  0.0698
 3248SOL    HW121377   4.527   2.258   8.874 -0.6882 -0.7665  0.6402
 3248SOL    HW221378   4.468   2.116   8.843 -0.5495  1.4341  1.3946
 3249SOL     OW21379   3.730   2.054   1.859 -0.4180  0.2002  0.6334
 3249SOL    HW121380   3.728   1.972   1.908 -1.9034 -0.4415 -0.5315
 3249SOL    HW221381   3.781   2.107   1.921 -0.5527  1.1568 -0.0694
 3250SOL     OW21382   4.167   2.173  12.065  0.4762 -0.2763 -0.2598
 3250SOL    HW121383   4.215   2.225  12.000 -1.4222  0.5315 -1.0018
 3250SOL    HW221384   4.225   2.190  12.139  2.1647  0.0793 -1.6571
 3251SOL     OW21385   3.924   0.696   8.400  0.3082 -0.6228  0.3501
 3251SOL    HW121386   3.950   0.617   8.447  1.2337 -1.7719 -2.1251
 3251SOL    HW221387   3.877   0.668   8.322  1.1682 -1.7004  0.2219
 3252SOL     OW21388   2.568   0.123   8.799  0.3801  0.1490  0.3458
 3252SOL    HW121389   2.522   0.059   8.854  0.3792  0.0531  0.2333
 3252SOL    HW221390   2.647   0.142   8.850 -0.8648  1.6645  1.7251
 3253SOL     OW21391   1.238   4.388   3.422 -0.1095  0.1526 -0.2109
 3253SOL    HW121392   1.249   4.299   3.391  0.5898 -0.4206  1.7255
 3253SOL    HW221393   1.324   4.418   3.392  0.4072  0.0688  1.2077
 3254SOL     OW21394   2.570   3.072   8.245  0.0399  0.5026 -0.7265
 3254SOL    HW121395   2.651   3.031   8.275  0.1470  0.4439 -1.1011
 3254SOL    HW221396   2.597   3.164   8.251  2.1768  0.1045 -4.1168
 3255SOL     OW21397   2.631   1.609  16.735 -0.0723  0.3579  0.1633
 3255SOL    HW121398   2.586   1.583  16.816  0.4789  1.5884  0.8627
 3255SOL    HW221399   2.667   1.521  16.721  1.3269  0.7838  1.0961
 3256SOL     OW21400   0.491   0.183  13.641  0.0138 -0.2716  0.1093
 3256SOL    HW121401   0.459   0.186  13.550 -0.2889 -0.4977  0.2051
 3256SOL    HW221402   0.420   0.217  13.695 -0.3159  0.7398 -0.9638
 3257SOL     OW21403   1.206   3.950   7.272  0.2711  0.4871 -0.4516
 3257SOL    HW121404   1.173   3.865   7.241 -1.2674  0.6904  0.6152
 3257SOL    HW221405   1.247   3.916   7.352 -1.3674  1.6976  0.9185
 3258SOL     OW21406   3.304   2.154   1.731  0.0223  0.1919  0.0983
 3258SOL    HW121407   3.315   2.161   1.825  1.6759  2.5003 -0.2918
 3258SOL    HW221408   3.372   2.097   1.695 -0.5925  0.1441 -1.0075
 3259SOL     OW21409   3.605   2.018   1.476  0.4329  0.1391 -0.2910
 3259SOL    HW121410   3.558   1.952   1.426  0.4828  0.9248 -1.3824
 3259SOL    HW221411   3.694   2.013   1.441  1.7859 -1.0800  3.3273
 3260SOL     OW21412   0.760   0.596   0.713 -0.1599  0.2750  0.2120
 3260SOL    HW121413   0.766   0.551   0.798 -2.9350  2.7222  1.6970
 3260SOL    HW221414   0.811   0.540   0.654 -0.2271  0.2837  0.1458
 3261SOL     OW21415   3.311   2.269   3.945  0.0400 -0.0950 -0.3527
 3261SOL    HW121416   3.362   2.265   3.863  0.9161  0.5277  0.1558
 3261SOL    HW221417   3.235   2.222   3.912 -0.2073  0.7128 -0.9536
 3262SOL     OW21418   2.794   2.019  16.002  0.2179  0.2115 -0.0335
 3262SOL    HW121419   2.847   2.046  15.927  1.4590  0.1868  0.8454
 3262SOL    HW221420   2.842   2.068  16.068 -0.4586  0.3026  0.3896
 3263SOL     OW21421   0.470   1.721   5.392 -0.1817  0.1143  0.9547
 3263SOL    HW121422   0.401   1.755   5.334  0.0296 -2.3425 -0.7305
 3263SOL    HW221423   0.470   1.634   5.354  1.7895 -0.1226  1.5304
 3264SOL     OW21424   4.188   2.988   3.488  0.2676 -0.0374 -0.1362
 3264SOL    HW121425   4.109   2.984   3.541 -0.3228  0.1156 -1.0095
 3264SOL    HW221426   4.151   3.013   3.403 -0.6127  0.8769  0.5186
 3265SOL     OW21427   4.410   3.070   4.010 -0.4450 -0.0281  0.5861
 3265SOL    HW121428   4.370   2.997   3.962  1.2323 -1.0848  0.7850
 3265SOL    HW221429   4.374   3.061   4.099  0.7537 -1.3552  0.9516
 3266SOL     OW21430   2.256   4.559   2.709  0.3505  0.5013  0.1463
 3266SOL    HW121431   2.205   4.511   2.774 -0.1456  0.3309 -0.3692
 3266SOL    HW221432   2.227   4.649   2.721 -1.2531  0.0876 -0.6216
 3267SOL     OW21433   3.263   2.070  15.137 -0.4156  0.1728  0.1386
 3267SOL    HW121434   3.296   1.981  15.129 -1.3342  0.0015 -1.6547
 3267SOL    HW221435   3.324   2.095  15.207  1.9588  3.2483 -3.0321
 3268SOL     OW21436   1.565   3.702   8.972  0.1745 -0.3297  0.1186
 3268SOL    HW121437   1.509   3.753   8.913  0.4559 -0.7184 -0.4853
 3268SOL    HW221438   1.619   3.676   8.897  0.4330  0.1932  0.1232
 3269SOL     OW21439   3.393   3.114   8.212 -0.4255 -0.1687  0.7320
 3269SOL    HW121440   3.372   3.117   8.118  1.5324 -2.3644  0.2303
 3269SOL    HW221441   3.327   3.177   8.241  0.4673  1.0584  0.0896
 3270SOL     OW21442   1.971   2.051   8.385  0.2327  0.3177  0.3375
 3270SOL    HW121443   2.047   2.051   8.444  0.9212  0.9320 -0.5399
 3270SOL    HW221444   2.022   2.037   8.305 -1.7310 -0.6495 -0.7202
 3271SOL     OW21445   3.012   4.404   3.994  0.2444 -0.3972  0.4525
 3271SOL    HW121446   2.977   4.316   4.007  1.5408 -0.9356  0.3412
 3271SOL    HW221447   3.104   4.386   3.973  0.5660  0.3320  1.2008
 3272SOL     OW21448   1.873   1.308   5.809  0.0167 -0.4456 -0.3155
 3272SOL    HW121449   1.863   1.213   5.798 -0.9327 -0.2782 -0.9046
 3272SOL    HW221450   1.784   1.340   5.823  1.3916  2.3500  1.8761
 3273SOL     OW21451   0.674   3.500   4.691 -0.0243 -0.4773 -0.0894
 3273SOL    HW121452   0.625   3.515   4.771  0.7285  0.7419  0.1388
 3273SOL    HW221453   0.759   3.533   4.718 -0.9947  1.9549  0.0579
 3274SOL     OW21454   2.216   4.302  13.524  0.4052 -0.7105 -0.4918
 3274SOL    HW121455   2.299   4.343  13.502 -0.0319  0.5209  0.1522
 3274SOL    HW221456   2.190   4.247  13.450 -1.6870  2.6655 -2.2496
 3275SOL     OW21457   0.728   2.338   8.459  0.0057  0.6088 -1.1364
 3275SOL    HW121458   0.753   2.256   8.416  1.3970 -0.7548  2.3176
 3275SOL    HW221459   0.717   2.397   8.384 -2.3729  1.3763 -0.2077
 3276SOL     OW21460   2.820   2.137   2.411 -0.4816  0.5042 -0.2961
 3276SOL    HW121461   2.810   2.160   2.503  1.4228  0.7913 -0.1574
 3276SOL    HW221462   2.848   2.046   2.419 -0.8851  0.1766 -2.4522
 3277SOL     OW21463   1.240   0.596   7.375 -0.2209 -0.3795  0.2083
 3277SOL    HW121464   1.296   0.601   7.297 -3.4000 -1.0152 -2.0779
 3277SOL    HW221465   1.287   0.537   7.434 -0.4253  0.4906  1.2304
 3278SOL     OW21466   0.024   1.708   3.966  0.0714 -0.3481 -0.5612
 3278SOL    HW121467   0.013   1.800   3.991  0.8749 -0.0816 -1.1928
 3278SOL    HW221468   0.114   1.703   3.934  0.9220  0.9211  1.6155
 3279SOL     OW21469   3.251   3.288   3.302  0.1639 -0.2288 -0.6883
 3279SOL    HW121470   3.196   3.238   3.363 -0.1660  0.4340 -0.4395
 3279SOL    HW221471   3.189   3.280   3.229  1.7644  0.1945 -2.0966
 3280SOL     OW21472   4.370   0.364   2.737 -1.0616  0.1439  0.3103
 3280SOL    HW121473   4.413   0.438   2.781  1.4883 -1.4497  0.4598
 3280SOL    HW221474   4.383   0.299   2.805 -1.9407 -3.0920 -2.6444
 3281SOL     OW21475   3.657   4.561  17.570 -0.2884  0.3357  0.4916
 3281SOL    HW121476   3.732   4.549  17.628 -0.0711 -1.1581 -0.0813
 3281SOL    HW221477   3.595   4.525  17.633 -0.2992 -0.5719 -0.0287
 3282SOL     OW21478   1.568   3.209  11.575  0.0495  0.1138  0.3627
 3282SOL    HW121479   1.483   3.231  11.537  0.7205 -0.2536 -1.3374
 3282SOL    HW221480   1.617   3.215  11.493 -1.3133  3.0031 -0.2377
 3283SOL     OW21481   3.003   1.994  17.203  0.3138 -0.2162  0.3297
 3283SOL    HW121482   3.079   1.959  17.250  1.0055  2.7756  1.4210
 3283SOL    HW221483   3.019   1.945  17.122 -1.3351  0.1061 -0.1781
 3284SOL     OW21484   2.131   1.865  15.571 -0.2123  0.0073 -0.4026
 3284SOL    HW121485   2.199   1.808  15.534 -0.4983  1.8994 -3.8579
 3284SOL    HW221486   2.182   1.894  15.646 -0.9228  1.9334 -0.6615
 3285SOL     OW21487   2.404   2.305   2.122  0.2635 -0.2644 -0.0129
 3285SOL    HW121488   2.317   2.334   2.096  0.7356 -0.7232 -2.1322
 3285SOL    HW221489   2.454   2.387   2.114 -1.0752  0.2339 -3.3386
 3286SOL     OW21490   4.373   4.477  15.349  0.0811  0.3692  0.6860
 3286SOL    HW121491   4.319   4.498  15.425 -0.4371 -0.1918  0.4763
 3286SOL    HW221492   4.312   4.413  15.310 -0.2444  1.4694 -0.6358
 3287SOL     OW21493   0.338   4.597   6.079 -0.2856  0.1035 -0.2239
 3287SOL    HW121494   0.307   4.677   6.122 -0.8396  0.5517 -1.4694
 3287SOL    HW221495   0.387   4.630   6.004  1.4872  1.1465  1.3850
 3288SOL     OW21496   4.486   1.801   6.466  0.2201  0.3799 -0.4860
 3288SOL    HW121497   4.420   1.734   6.481 -1.5397  2.5272  1.2660
 3288SOL    HW221498   4.567   1.750   6.470  0.0292  0.1264  0.0137
 3289SOL     OW21499   4.080   3.688   5.241  0.0696  0.1582  0.5452
 3289SOL    HW121500   4.044   3.678   5.153  2.8613  1.3401 -0.7366
 3289SOL    HW221501   4.021   3.742   5.294  0.1348  2.2199 -1.5017
 3290SOL     OW21502   0.788   0.299   3.446  0.5388  0.4652 -0.2917
 3290SOL    HW121503   0.827   0.250   3.519  1.0247  1.2022 -0.0534
 3290SOL    HW221504   0.696   0.276   3.459  0.8574  0.5171  2.1051
 3291SOL     OW21505   0.441   0.002  11.228 -0.0756 -0.0221  0.0127
 3291SOL    HW121506   0.371   4.708  11.168  2.4602 -0.1887 -2.8780
 3291SOL    HW221507   0.514   4.679  11.204  1.0385  0.9565  1.0891
 3292SOL     OW21508   3.269   2.476  16.207 -0.3322 -0.1054 -0.5885
 3292SOL    HW121509   3.292   2.568  16.197 -1.1059  0.2262  0.7323
 3292SOL    HW221510   3.349   2.435  16.239  0.6823  1.3930 -1.1760
 3293SOL     OW21511   4.256   2.320   2.332 -0.1894  0.2442 -0.0088
 3293SOL    HW121512   4.279   2.374   2.408  2.0934  0.3109 -0.7648
 3293SOL    HW221513   4.334   2.266   2.331 -0.0648  0.4551 -1.1801
 3294SOL     OW21514   1.360   3.556  14.569  0.4704  0.1127 -0.2189
 3294SOL    HW121515   1.376   3.470  14.608 -2.3795 -1.9634 -3.6316
 3294SOL    HW221516   1.436   3.550  14.511  3.6846  1.6711  3.8148
 3295SOL     OW21517   0.455   2.000  14.151 -0.1948  0.3195 -0.0280
 3295SOL    HW121518   0.538   1.958  14.171  1.1772  1.8017 -2.6396
 3295SOL    HW221519   0.403   1.931  14.110  1.4054 -1.0185  0.1980
 3296SOL     OW21520   2.161   4.598   1.331 -0.2366  0.6926 -0.0768
 3296SOL    HW121521   2.088   4.659   1.341 -1.1300 -0.4416  0.2786
 3296SOL    HW221522   2.211   4.601   1.413  1.7774 -3.8325 -1.1691
 3297SOL     OW21523   4.512   3.954   3.571 -0.2787  0.4481 -0.5486
 3297SOL    HW121524   4.452   3.881   3.587 -2.2043  1.5327 -2.8177
 3297SOL    HW221525   4.595   3.922   3.607 -1.4965 -1.7608  0.2746
 3298SOL     OW21526   0.446   0.146   7.265 -0.0730 -0.0259  0.6406
 3298SOL    HW121527   0.458   0.176   7.175 -1.6387  0.1996  0.5019
 3298SOL    HW221528   0.493   0.216   7.311  2.7316 -1.7271  0.3085
 3299SOL     OW21529   3.458   3.721  11.446 -0.4426 -0.0667  0.2361
 3299SOL    HW121530   3.544   3.718  11.405 -0.9402  0.0957 -0.8135
 3299SOL    HW221531   3.462   3.808  11.487  0.8942  0.2854 -0.6569
 3300SOL     OW21532   1.031   2.347  10.125  0.3870 -0.8710 -0.1144
 3300SOL    HW121533   1.037   2.252  10.120 -1.6408 -0.9846 -0.3944
 3300SOL    HW221534   1.112   2.366  10.172  0.2190 -2.6492  0.8969
 3301SOL     OW21535   0.891   4.570   1.438 -0.7962  0.2630  0.2108
 3301SOL    HW121536   0.810   4.595   1.484 -0.4282  0.5373  0.7109
 3301SOL    HW221537   0.907   4.645   1.381 -1.1087  0.4608  0.3763
 3302SOL     OW21538   1.219   0.256   9.881 -0.6284  0.1667 -0.3778
 3302SOL    HW121539   1.200   0.345   9.910 -0.3946 -0.3719  1.4177
 3302SOL    HW221540   1.205   0.215   9.966 -1.1686  0.4330 -0.3369
 3303SOL     OW21541   3.371   0.551   7.450 -0.1892  0.0422 -0.3473
 3303SOL    HW121542   3.411   0.464   7.456 -1.4628 -0.6075 -1.3587
 3303SOL    HW221543   3.446   0.610   7.449  0.3859 -0.6966 -1.3775
 3304SOL     OW21544   0.660   4.356  16.284 -0.6143  0.0885 -0.2104
 3304SOL    HW121545   0.612   4.297  16.342  1.5394  0.8415  2.3378
 3304SOL    HW221546   0.750   4.357  16.316 -0.4932 -2.2259 -0.4919
 3305SOL     OW21547   3.046   2.694   2.758  0.3832 -0.1937 -0.2818
 3305SOL    HW121548   3.087   2.609   2.742 -1.5938 -0.8623 -1.8388
 3305SOL    HW221549   2.973   2.661   2.810  1.8396 -0.1700  1.7847
 3306SOL     OW21550   4.128   4.355  11.626  0.2909 -0.5081 -0.2691
 3306SOL    HW121551   4.127   4.260  11.636  0.5909 -0.4998 -0.1469
 3306SOL    HW221552   4.061   4.372  11.693 -1.4855  1.9944 -2.6797
 3307SOL     OW21553   3.971   3.908  11.991 -0.6207 -0.0637 -0.2114
 3307SOL    HW121554   3.948   3.979  12.050  1.1772  0.9914 -0.7867
 3307SOL    HW221555   3.905   3.842  12.012 -0.3512 -0.6677 -1.2409
 3308SOL     OW21556   2.633   0.480  17.312 -0.6154  0.1535  0.2195
 3308SOL    HW121557   2.638   0.508  17.220 -0.7526  2.3853  0.8861
 3308SOL    HW221558   2.564   0.414  17.313  0.2126 -0.7111 -0.7158
 3309SOL     OW21559   3.269   0.769  14.581  0.3855  0.2745  0.6344
 3309SOL    HW121560   3.268   0.674  14.574 -1.0236  0.5348 -2.6535
 3309SOL    HW221561   3.213   0.777  14.504  0.3543  1.1862  0.7551
 3310SOL     OW21562   3.071   3.388  15.028 -0.0786  0.1906 -0.1344
 3310SOL    HW121563   3.125   3.453  14.983  0.7844 -0.7058 -0.3886
 3310SOL    HW221564   3.144   3.330  15.050 -0.2907  0.6521  1.8224
 3311SOL     OW21565   1.290   0.490   4.448  0.0998  0.2140 -0.4172
 3311SOL    HW121566   1.215   0.531   4.492 -1.5737 -0.1803 -2.8823
 3311SOL    HW221567   1.257   0.401   4.438 -0.9666  0.5527 -0.0256
 3312SOL     OW21568   4.431   2.062  13.470 -1.0318  0.3462 -0.3688
 3312SOL    HW121569   4.503   2.011  13.509 -1.3056 -1.3162 -2.0186
 3312SOL    HW221570   4.358   2.057  13.531 -1.5927  0.0332 -1.0666
 3313SOL     OW21571   0.809   4.645   5.807 -0.2748  0.1643  0.4484
 3313SOL    HW121572   0.861   4.569   5.832 -0.2959  0.6165  1.8618
 3313SOL    HW221573   0.779   4.668   5.895 -0.2484 -1.4440  0.8812
 3314SOL     OW21574   1.208   1.566   3.979  0.3189  0.3738  0.4419
 3314SOL    HW121575   1.289   1.553   4.027  0.8841  1.7956 -0.1257
 3314SOL    HW221576   1.145   1.500   4.009  1.0332 -1.3471 -1.8636
 3315SOL     OW21577   2.058   4.516   8.158  0.0725 -0.1011 -0.1358
 3315SOL    HW121578   2.143   4.472   8.162  0.3430  0.3552 -0.9941
 3315SOL    HW221579   2.008   4.444   8.121  0.4127 -2.2720  3.5660
 3316SOL     OW21580   1.524   3.541   6.753 -1.0350  0.1118  0.1261
 3316SOL    HW121581   1.571   3.583   6.825 -0.2945  1.8557 -1.3870
 3316SOL    HW221582   1.499   3.456   6.791 -1.2642  0.5156  0.8938
 3317SOL     OW21583   4.584   2.728   0.911  0.1595  0.0654  0.0548
 3317SOL    HW121584   4.549   2.718   0.822 -2.6959 -1.5217  1.3581
 3317SOL    HW221585   4.546   2.815   0.924  1.5715  0.3797  1.9739
 3318SOL     OW21586   2.408   4.029   3.157  0.5034  0.0534 -0.0455
 3318SOL    HW121587   2.336   3.992   3.107  1.6113  0.0738 -1.6770
 3318SOL    HW221588   2.444   3.952   3.199  1.7969  1.5383  1.5770
 3319SOL     OW21589   4.315   2.206  12.290 -0.2913 -0.3840 -0.2621
 3319SOL    HW121590   4.381   2.140  12.267  1.0090  0.6993  0.3598
 3319SOL    HW221591   4.346   2.234  12.376  1.1477  0.3973 -1.0323
 3320SOL     OW21592   4.013   2.515   6.781  0.0316 -0.3226  0.2347
 3320SOL    HW121593   4.064   2.522   6.700 -2.1136  2.4368 -0.8680
 3320SOL    HW221594   4.016   2.420   6.793 -1.1440 -0.4964 -0.8768
 3321SOL     OW21595   2.267   4.510   5.998  0.7168 -0.1499  0.2036
 3321SOL    HW121596   2.310   4.577   6.051  1.0675 -1.4821  1.5709
 3321SOL    HW221597   2.344   4.459   5.974 -0.6821 -1.8066 -0.8327
 3322SOL     OW21598   3.451   3.288   5.063  0.0794  0.1533  0.3342
 3322SOL    HW121599   3.475   3.367   5.111 -1.8629  2.1477 -1.9873
 3322SOL    HW221600   3.530   3.235   5.078 -0.0028 -0.0852 -0.0810
 3323SOL     OW21601   0.228   0.331  12.405  0.1539  0.0375 -0.1806
 3323SOL    HW121602   0.139   0.334  12.440  0.5377 -2.4954  0.9939
 3323SOL    HW221603   0.210   0.275  12.330 -0.5007 -0.2111  0.1598
 3324SOL     OW21604   4.558   3.022   7.181 -0.0411  0.2357 -0.1028
 3324SOL    HW121605   4.650   3.047   7.183 -0.1928  0.3442  4.6885
 3324SOL    HW221606   4.533   3.018   7.089 -1.8672  1.8191  0.3175
 3325SOL     OW21607   3.543   1.683   2.342 -0.2356 -0.1678  0.2910
 3325SOL    HW121608   3.635   1.657   2.337 -0.1911 -0.5394  3.1056
 3325SOL    HW221609   3.535   1.768   2.298 -0.2798  0.0245  0.6626
 3326SOL     OW21610   2.432   0.481   1.132  0.4312  0.6587  0.1070
 3326SOL    HW121611   2.414   0.424   1.057  0.4446  1.3153 -0.3969
 3326SOL    HW221612   2.433   0.565   1.085 -1.6141 -0.7157 -2.3608
 3327SOL     OW21613   3.769   0.824   9.069 -0.0373 -0.7871 -0.4404
 3327SOL    HW121614   3.720   0.747   9.099  0.5608 -1.3767 -0.9987
 3327SOL    HW221615   3.822   0.796   8.995  1.3882  0.3021  0.1817
 3328SOL     OW21616   4.605   2.217   8.079 -0.1944 -0.1247 -0.0160
 3328SOL    HW121617   4.598   2.145   8.141 -1.1488  1.5317  1.7883
 3328SOL    HW221618   4.633   2.169   8.001 -0.9343  0.0076 -0.3566
 3329SOL     OW21619   4.593   3.705   2.408 -0.3267 -0.1387 -0.1131
 3329SOL    HW121620   4.668   3.706   2.348 -1.9389  3.5306 -2.0768
 3329SOL    HW221621   4.644   3.688   2.486 -1.4739 -1.9927  0.2240
 3330SOL     OW21622   1.464   4.411   3.308  0.2418 -0.4843 -1.1795
 3330SOL    HW121623   1.540   4.356   3.330 -0.0318 -0.6422 -0.6150
 3330SOL    HW221624   1.498   4.499   3.324 -0.0486 -0.5457 -0.2364
 3331SOL     OW21625   0.560   0.444   6.850  0.0973  0.5733  0.6677
 3331SOL    HW121626   0.522   0.458   6.937 -2.9654 -1.7611 -0.2839
 3331SOL    HW221627   0.653   0.436   6.872 -0.5812 -2.0153  2.6344
 3332SOL     OW21628   1.207   2.693   6.138 -0.2514 -0.2716  0.3035
 3332SOL    HW121629   1.130   2.639   6.118 -0.7026  0.5560 -0.1893
 3332SOL    HW221630   1.273   2.627   6.157  2.2004  2.3408  0.7407
 3333SOL     OW21631   2.675   2.117   1.973 -0.1366  0.1333  0.3073
 3333SOL    HW121632   2.717   2.199   1.944  0.3632  0.3527  1.6431
 3333SOL    HW221633   2.618   2.148   2.043 -0.1707 -3.2134  1.7580
 3334SOL     OW21634   3.677   2.997   5.771  0.0023  0.1098 -0.0702
 3334SOL    HW121635   3.755   2.942   5.765 -0.2630 -0.1002 -1.4429
 3334SOL    HW221636   3.620   2.946   5.829 -2.0720  3.9242  1.2421
 3335SOL     OW21637   3.089   1.872   5.436 -0.3434 -0.1043  1.1006
 3335SOL    HW121638   3.015   1.928   5.414  0.5026  0.1720 -1.0534
 3335SOL    HW221639   3.117   1.912   5.518 -0.4917  3.3437 -0.5134
 3336SOL     OW21640   3.234   0.902   8.074  0.4628  0.2336 -0.3153
 3336SOL    HW121641   3.219   0.988   8.035 -0.0056  0.8359  1.1788
 3336SOL    HW221642   3.327   0.908   8.096  0.2235  0.1578  0.7261
 3337SOL     OW21643   3.140   2.229   5.626 -0.4348 -1.4750  0.6618
 3337SOL    HW121644   3.089   2.310   5.625 -0.0570 -1.2082  2.7292
 3337SOL    HW221645   3.193   2.237   5.546 -0.9992 -2.0415  0.2342
 3338SOL     OW21646   0.719   3.965   6.719  0.1325  0.0724 -0.1401
 3338SOL    HW121647   0.719   4.059   6.733 -0.4808  0.0512  0.0379
 3338SOL    HW221648   0.659   3.931   6.786  1.6685  0.8557  1.6222
 3339SOL     OW21649   3.504   2.117   0.255  0.0433 -0.2951 -1.0488
 3339SOL    HW121650   3.586   2.087   0.294  0.7710  1.1118 -1.4974
 3339SOL    HW221651   3.521   2.084   0.166  1.5167 -1.1143 -0.4525
 3340SOL     OW21652   0.174   2.960  10.655 -0.5965  0.5090  0.0314
 3340SOL    HW121653   0.125   2.898  10.601 -0.7738 -0.7666  1.6796
 3340SOL    HW221654   0.122   2.955  10.734  0.3817 -1.0690  0.5705
 3341SOL     OW21655   4.549   2.726  10.611 -0.8022 -0.1795  0.2243
 3341SOL    HW121656   4.549   2.647  10.665  1.2804 -0.9348 -0.8944
 3341SOL    HW221657   4.470   2.773  10.639 -0.3377 -0.7362  2.4539
 3342SOL     OW21658   0.734   1.832   2.661 -0.2712  0.1391  0.0122
 3342SOL    HW121659   0.723   1.847   2.754 -0.3216 -2.9346  0.5035
 3342SOL    HW221660   0.759   1.923   2.643  1.2458 -0.3776 -0.4936
 3343SOL     OW21661   0.455   4.522   5.194  0.4455 -0.1483  0.0811
 3343SOL    HW121662   0.433   4.509   5.286  2.1303  1.0219  0.6342
 3343SOL    HW221663   0.445   4.432   5.164 -0.0679 -0.3694  0.9349
 3344SOL     OW21664   4.401   1.653   7.318 -0.2553  0.1060 -0.3354
 3344SOL    HW121665   4.394   1.612   7.404 -2.9065  0.0338 -0.5757
 3344SOL    HW221666   4.312   1.670   7.287  0.7799  1.2692 -2.7114
 3345SOL     OW21667   2.469   0.267   8.097  0.3446  0.1266 -0.3564
 3345SOL    HW121668   2.444   0.341   8.152  2.4996 -0.7523  1.8039
 3345SOL    HW221669   2.388   0.250   8.049 -1.4888  1.7038  2.1990
 3346SOL     OW21670   0.153   1.608   8.827  0.1007 -0.1531 -0.4612
 3346SOL    HW121671   0.244   1.582   8.817  0.4257  1.7510 -2.4398
 3346SOL    HW221672   0.120   1.532   8.874  0.5727  0.1552  0.3622
 3347SOL     OW21673   0.801   3.331   6.975  0.0975 -0.3263  0.3223
 3347SOL    HW121674   0.719   3.369   6.943 -0.0422 -2.5335 -1.9518
 3347SOL    HW221675   0.851   3.364   6.900 -0.8742 -0.0052 -0.1819
 3348SOL     OW21676   4.416   0.058   0.761  0.0348  0.0245 -0.1437
 3348SOL    HW121677   4.426   0.070   0.667 -0.6159 -1.6210 -0.4211
 3348SOL    HW221678   4.469   4.712   0.769 -0.1291 -0.2527 -1.7788
 3349SOL     OW21679   3.351   3.506   1.952 -0.2032  0.1935 -0.5532
 3349SOL    HW121680   3.295   3.550   1.888 -0.6539 -1.5553 -1.3715
 3349SOL    HW221681   3.331   3.416   1.928  3.9670 -0.9400  0.2132
 3350SOL     OW21682   4.279   1.927   2.373  0.1344  0.1946  0.4147
 3350SOL    HW121683   4.245   1.901   2.288 -1.0749  0.6502  0.7574
 3350SOL    HW221684   4.284   1.849   2.429  1.4350  0.7658  1.0806
 3351SOL     OW21685   2.090   4.231   5.578  0.3383  0.4440 -0.6749
 3351SOL    HW121686   2.119   4.192   5.660 -2.5646  0.2436  0.2615
 3351SOL    HW221687   2.134   4.168   5.521  1.1189 -0.6988  1.1631
 3352SOL     OW21688   3.697   1.348   2.435  0.3206  0.0089  0.2974
 3352SOL    HW121689   3.747   1.429   2.423 -1.6227  1.2249  0.4115
 3352SOL    HW221690   3.631   1.351   2.365 -2.6838 -2.1067  3.0142
 3353SOL     OW21691   3.768   3.086   2.801 -0.2880  0.2338  0.0966
 3353SOL    HW121692   3.811   3.085   2.715 -0.5694 -1.5141 -0.0222
 3353SOL    HW221693   3.724   3.171   2.793  0.9277  0.9416  0.9647
 3354SOL     OW21694   0.830   2.841   5.174  0.7644 -0.6735 -0.1263
 3354SOL    HW121695   0.907   2.870   5.224  1.2000 -1.4879 -0.3302
 3354SOL    HW221696   0.755   2.856   5.233  0.5474 -2.8774  0.1495
 3355SOL     OW21697   1.815   2.926   4.803  0.2097 -0.7915  0.6054
 3355SOL    HW121698   1.725   2.897   4.819 -0.6486 -0.0698 -2.8623
 3355SOL    HW221699   1.796   3.016   4.778 -1.1382 -1.5376 -1.0201
 3356SOL     OW21700   1.899   3.138  12.160 -1.0614 -0.4070  0.3185
 3356SOL    HW121701   1.923   3.111  12.248  4.6703 -1.0921 -1.4951
 3356SOL    HW221702   1.949   3.077  12.105 -1.1914 -1.4486  1.3648
 3357SOL     OW21703   0.654   4.487   4.076 -0.7385  0.2964  0.6669
 3357SOL    HW121704   0.609   4.571   4.088  0.8122  1.1556  0.5255
 3357SOL    HW221705   0.633   4.481   3.983  0.6875  0.1542  0.3628
 3358SOL     OW21706   1.832   0.735   9.418  0.3690 -0.3056 -0.3082
 3358SOL    HW121707   1.846   0.807   9.480  0.2968 -1.3947  0.9793
 3358SOL    HW221708   1.833   0.666   9.484  0.0591  0.2713  0.3013
 3359SOL     OW21709   4.589   1.781   5.363  0.8501  0.4381 -0.3295
 3359SOL    HW121710   4.528   1.731   5.308  0.8059 -0.2428  0.3401
 3359SOL    HW221711   4.556   1.869   5.345  1.9127  0.8395 -0.3137
 3360SOL     OW21712   1.218   2.690   5.793  0.3940  0.2577  0.0611
 3360SOL    HW121713   1.240   2.656   5.706  1.5204  0.2565  0.3535
 3360SOL    HW221714   1.298   2.681   5.845  0.4079 -1.4381 -0.2605
 3361SOL     OW21715   0.667   4.464   9.605 -0.1537 -0.8768  0.4108
 3361SOL    HW121716   0.751   4.504   9.628 -1.1027  0.4347  1.5838
 3361SOL    HW221717   0.697   4.392   9.549 -0.8758 -0.7417 -0.1535
 3362SOL     OW21718   0.268   0.456  16.040  0.0281  0.4964  0.0123
 3362SOL    HW121719   0.193   0.487  15.990 -0.8949 -2.4554 -0.4212
 3362SOL    HW221720   0.279   0.523  16.108  0.4071 -1.9067  2.2863
 3363SOL     OW21721   2.017   2.135  17.151 -0.0263 -0.6543 -0.1736
 3363SOL    HW121722   1.978   2.094  17.228  1.8450 -0.5961  0.8061
 3363SOL    HW221723   1.991   2.227  17.153  2.2341 -0.0384  1.0731
 3364SOL     OW21724   1.217   4.657   8.168  0.5480 -0.0583  0.5592
 3364SOL    HW121725   1.309   4.674   8.147  0.1783 -0.7053 -1.6975
 3364SOL    HW221726   1.187   4.601   8.096 -0.0698  2.5876 -1.2399
 3365SOL     OW21727   2.123   0.913  10.654 -0.2230 -0.0680 -0.4989
 3365SOL    HW121728   2.190   0.855  10.690  0.7798  1.2204 -0.3028
 3365SOL    HW221729   2.171   0.995  10.668 -0.6107 -0.0365  0.5766
 3366SOL     OW21730   3.234   2.173   8.221  0.0985 -0.5557 -0.0173
 3366SOL    HW121731   3.321   2.207   8.240  0.2543 -0.5830 -0.7082
 3366SOL    HW221732   3.196   2.191   8.307 -0.0878  0.9790 -0.4092
 3367SOL     OW21733   3.607   2.315   2.128 -0.1858  0.2201 -0.3324
 3367SOL    HW121734   3.544   2.361   2.073 -0.7818  0.0268  0.1870
 3367SOL    HW221735   3.686   2.321   2.074  0.5173 -1.0909  0.5574
 3368SOL     OW21736   2.981   2.265   3.537 -0.0836 -0.4365  0.0730
 3368SOL    HW121737   2.945   2.259   3.448  0.7684  0.5103 -0.3385
 3368SOL    HW221738   2.913   2.323   3.572 -1.3909 -2.3068  0.6158
 3369SOL     OW21739   3.727   0.527  13.303 -0.4768 -0.5483  0.1808
 3369SOL    HW121740   3.790   0.507  13.233 -1.3749  0.2476 -0.8628
 3369SOL    HW221741   3.771   0.576  13.371  0.0284 -2.0053  0.9101
 3370SOL     OW21742   3.977   0.829   3.993  0.1694 -0.3415 -0.0735
 3370SOL    HW121743   3.900   0.774   4.005 -0.4916  0.3757 -1.0806
 3370SOL    HW221744   4.039   0.802   4.061  1.0898  1.5655 -0.1391
 3371SOL     OW21745   4.484   4.080   3.860 -0.6332 -0.0002  0.2014
 3371SOL    HW121746   4.443   4.098   3.775 -1.4615  1.2712  0.8680
 3371SOL    HW221747   4.575   4.071   3.831 -0.3733  1.2008  0.6589
 3372SOL     OW21748   2.681   0.501   9.388  0.4384 -0.2571 -0.3325
 3372SOL    HW121749   2.649   0.416   9.418  0.4644 -0.5574 -1.1459
 3372SOL    HW221750   2.630   0.518   9.309 -2.1206  0.8553  1.5346
 3373SOL     OW21751   0.014   3.133   3.695  0.0043  0.4649  0.6357
 3373SOL    HW121752   0.020   3.129   3.599  1.9219  0.6394  0.7528
 3373SOL    HW221753   4.703   3.049   3.702 -0.8548  0.7407 -1.4831
 3374SOL     OW21754   3.580   3.430   0.436  0.5895 -0.4982  0.0955
 3374SOL    HW121755   3.530   3.355   0.404 -0.8834  0.9293 -0.9411
 3374SOL    HW221756   3.638   3.436   0.360  0.3750  0.5020  0.0153
 3375SOL     OW21757   1.358   4.378   7.773  0.1518 -0.5012  0.4948
 3375SOL    HW121758   1.451   4.373   7.751  0.6391  0.6674  2.2589
 3375SOL    HW221759   1.327   4.301   7.725 -0.0196 -1.4398  2.1283
 3376SOL     OW21760   1.847   3.622   6.979  0.4010 -0.5606  0.1099
 3376SOL    HW121761   1.788   3.678   6.930 -2.0995 -2.2138  1.2094
 3376SOL    HW221762   1.870   3.557   6.913  0.8635 -0.6272  0.3337
 3377SOL     OW21763   2.011   3.404   3.342 -0.2366  0.0060 -0.2059
 3377SOL    HW121764   2.032   3.345   3.413 -0.4372  0.3824  0.1679
 3377SOL    HW221765   2.041   3.484   3.386  0.6883 -0.0052 -0.8006
 3378SOL     OW21766   1.749   1.644   9.206 -0.0435  0.0510 -0.4120
 3378SOL    HW121767   1.762   1.597   9.289  1.5555  0.9194 -0.1676
 3378SOL    HW221768   1.834   1.628   9.164  0.7191  1.5386  0.5566
 3379SOL     OW21769   1.014   2.844   9.424  0.1288 -0.0666  0.1288
 3379SOL    HW121770   1.078   2.812   9.360 -1.4215  1.7713 -2.3608
 3379SOL    HW221771   1.071   2.853   9.501 -0.5245  0.8492  0.5077
 3380SOL     OW21772   4.589   2.783   1.517  0.6802  0.3670  0.0984
 3380SOL    HW121773   4.603   2.692   1.543  0.6868 -0.3562 -2.4290
 3380SOL    HW221774   4.517   2.777   1.454  1.6475  2.3876 -1.1743
 3381SOL     OW21775   2.063   2.583  16.498 -0.0964  0.0977  0.0657
 3381SOL    HW121776   2.000   2.534  16.446  0.2060 -1.1922  0.9347
 3381SOL    HW221777   2.130   2.520  16.526  0.7825  1.3457  0.7860
 3382SOL     OW21778   2.947   4.452  11.765  0.1880  0.2290 -0.2270
 3382SOL    HW121779   2.898   4.369  11.770 -0.9149  0.8838 -0.0611
 3382SOL    HW221780   2.875   4.510  11.740  1.6005  1.8825 -0.4527
 3383SOL     OW21781   2.900   4.678  10.354 -0.5502 -0.0396  0.9070
 3383SOL    HW121782   2.947   0.002  10.414  1.2286  2.7440 -3.1872
 3383SOL    HW221783   2.876   4.610  10.417  1.4371 -0.9997  0.6559
 3384SOL     OW21784   0.151   1.756   6.278  0.4037 -0.9479 -0.1034
 3384SOL    HW121785   0.124   1.775   6.188 -0.0149  4.3820  1.1781
 3384SOL    HW221786   0.199   1.837   6.290 -0.1469 -0.5977 -0.2579
 3385SOL     OW21787   0.150   2.769   4.625  0.0899  0.4712 -0.0330
 3385SOL    HW121788   0.194   2.826   4.689  0.2685  1.3890 -0.9752
 3385SOL    HW221789   0.154   2.677   4.653 -3.0256  0.0601 -0.9621
 3386SOL     OW21790   3.464   2.915   3.280 -0.6100 -0.3880  0.0882
 3386SOL    HW121791   3.457   2.821   3.266  1.2501 -0.7400  1.6037
 3386SOL    HW221792   3.550   2.937   3.244 -0.2277 -0.2069  1.1283
 3387SOL     OW21793   3.761   0.539  12.065  0.3211  0.0468  0.2344
 3387SOL    HW121794   3.813   0.510  12.140 -0.7980  0.0242  1.0102
 3387SOL    HW221795   3.823   0.591  12.013  0.3813  1.6453  1.9217
 3388SOL     OW21796   3.755   1.840   4.355  0.0906 -0.0249 -0.0276
 3388SOL    HW121797   3.812   1.856   4.430 -1.6356 -0.7932  1.4489
 3388SOL    HW221798   3.814   1.839   4.280 -0.5194 -0.1872 -0.5115
 3389SOL     OW21799   2.526   4.062  13.832 -0.0788  0.2399  1.0224
 3389SOL    HW121800   2.434   4.063  13.805 -0.3344 -0.5865  1.8958
 3389SOL    HW221801   2.563   4.141  13.792 -1.8268 -0.6183 -2.3021
 3390SOL     OW21802   0.920   3.841   0.989 -0.2266 -0.1930 -0.3965
 3390SOL    HW121803   1.007   3.882   0.994  1.5424 -4.3682  2.6573
 3390SOL    HW221804   0.934   3.753   0.956  1.6976  0.5039 -1.4544
 3391SOL     OW21805   2.238   3.990   2.733 -0.8032 -0.1498  0.6225
 3391SOL    HW121806   2.229   3.968   2.826  3.2068  1.5534  1.4295
 3391SOL    HW221807   2.154   4.030   2.710 -0.3193 -0.2386 -1.3246
 3392SOL     OW21808   3.753   3.880  11.741 -0.0264 -1.1771 -0.1823
 3392SOL    HW121809   3.828   3.916  11.694 -0.0084  0.5857  1.1761
 3392SOL    HW221810   3.674   3.914  11.698  0.3283 -0.1394 -0.0330
 3393SOL     OW21811   4.613   4.372   6.873 -0.7564 -0.0197  0.1993
 3393SOL    HW121812   4.658   4.288   6.869  0.3981  0.6968 -1.9188
 3393SOL    HW221813   4.568   4.365   6.957  0.1694  0.0594  0.7018
 3394SOL     OW21814   3.195   3.753   4.343 -0.5641 -0.0847  0.4309
 3394SOL    HW121815   3.165   3.687   4.406  1.0042 -0.2011  1.0725
 3394SOL    HW221816   3.237   3.694   4.281 -0.4103 -0.0241  0.4773
 3395SOL     OW21817   0.092   0.016   2.282 -0.2713 -0.0925 -0.4970
 3395SOL    HW121818   0.076   4.696   2.205 -0.8860 -1.9907  0.9560
 3395SOL    HW221819   0.140   0.087   2.240  0.2019  0.9060  1.7421
 3396SOL     OW21820   0.353   1.407   1.110  0.4202  0.1797  0.2868
 3396SOL    HW121821   0.403   1.431   1.032  0.9340  1.6274  1.0671
 3396SOL    HW221822   0.300   1.487   1.112 -0.5627 -0.5480  4.3256
 3397SOL     OW21823   3.115   1.973  13.701  0.4000 -0.0847  0.2143
 3397SOL    HW121824   3.036   1.935  13.740 -1.9668  1.3902 -3.1668
 3397SOL    HW221825   3.068   2.047  13.663 -0.3245 -1.1936 -1.0737
 3398SOL     OW21826   2.300   1.692  14.682  0.2529  0.1866  0.0833
 3398SOL    HW121827   2.218   1.652  14.653 -0.7349  0.3731  2.6541
 3398SOL    HW221828   2.331   1.719  14.595 -2.3686  0.2376 -0.8399
 3399SOL     OW21829   2.306   4.051   4.578  0.0733  0.3624  0.2273
 3399SOL    HW121830   2.289   4.051   4.672 -0.5957 -0.8580  0.1121
 3399SOL    HW221831   2.320   4.143   4.557 -1.6478  0.2699 -1.4336
 3400SOL     OW21832   4.282   0.110   7.398  0.2396  0.1726 -0.2517
 3400SOL    HW121833   4.248   0.022   7.413 -0.2306  0.0865 -1.7770
 3400SOL    HW221834   4.243   0.116   7.311 -3.4241 -1.5565  1.2879
 3401SOL     OW21835   1.856   3.206   0.612 -0.1681 -0.0577 -0.0069
 3401SOL    HW121836   1.882   3.176   0.699 -0.3801 -0.5039 -0.0992
 3401SOL    HW221837   1.761   3.192   0.615 -0.0952 -0.0579  2.1530
 3402SOL     OW21838   1.596   4.070   1.508 -0.0827  0.2020  0.2104
 3402SOL    HW121839   1.623   3.980   1.523 -1.1690 -0.0559  0.5971
 3402SOL    HW221840   1.505   4.072   1.537 -0.6308  1.1118 -1.5270
 3403SOL     OW21841   1.327   0.798  13.778 -0.1096 -0.4651  0.5004
 3403SOL    HW121842   1.362   0.884  13.800  0.2097 -0.5523  0.3232
 3403SOL    HW221843   1.368   0.791  13.692 -0.2542  0.2072  0.3733
 3404SOL     OW21844   4.631   0.829   4.672 -0.5455  0.4052  0.4694
 3404SOL    HW121845   4.619   0.738   4.698  1.7417 -0.2503 -0.8356
 3404SOL    HW221846   4.718   0.857   4.700  0.3568 -1.0074 -0.9787
 3405SOL     OW21847   0.653   0.457  11.586 -0.0059  0.0542  0.2291
 3405SOL    HW121848   0.633   0.423  11.498  1.6438  0.5147 -0.3192
 3405SOL    HW221849   0.581   0.421  11.638 -1.1832  0.3728 -1.1606
 3406SOL     OW21850   4.658   0.994  17.587  0.3034  0.3224 -0.2410
 3406SOL    HW121851   4.661   1.069  17.647 -1.0401  0.7295 -0.6868
 3406SOL    HW221852   0.006   0.951  17.610  0.7593  1.3294 -0.0211
 3407SOL     OW21853   2.239   2.894   8.057 -0.2870 -0.0707 -0.1518
 3407SOL    HW121854   2.188   2.964   8.096 -0.6504  0.0744 -0.8955
 3407SOL    HW221855   2.180   2.842   8.002 -0.5906  0.2419 -0.1182
 3408SOL     OW21856   2.605   2.616   1.782  0.6817  0.0425 -0.0074
 3408SOL    HW121857   2.692   2.656   1.790  0.3730  0.8558 -0.7934
 3408SOL    HW221858   2.588   2.631   1.689 -1.1175 -1.4957  0.0800
 3409SOL     OW21859   3.067   3.545   7.459 -0.9056 -0.0699 -0.5899
 3409SOL    HW121860   3.136   3.498   7.412 -2.0376 -2.1801 -0.1324
 3409SOL    HW221861   2.993   3.509   7.409 -2.1030 -0.8812  1.8030
 3410SOL     OW21862   3.109   3.033  11.925  0.3128 -0.7248  0.3606
 3410SOL    HW121863   3.073   2.984  11.852  0.7784  2.1747 -1.8323
 3410SOL    HW221864   3.200   3.052  11.899  0.4103 -0.1693  1.1102
 3411SOL     OW21865   1.533   4.674   8.326 -0.2603  0.1982  0.6624
 3411SOL    HW121866   1.530   4.727   8.247 -1.4422 -0.0839  0.5275
 3411SOL    HW221867   1.587   4.727   8.385  0.0017 -0.5244  1.0673
 3412SOL     OW21868   0.829   0.320   8.748  0.8049  0.0424 -0.3243
 3412SOL    HW121869   0.881   0.243   8.772 -0.0388 -0.6479 -0.7321
 3412SOL    HW221870   0.789   0.296   8.665  0.4801 -3.5315  0.8962
 3413SOL     OW21871   3.951   0.164  10.828  0.2705  0.3198 -0.1309
 3413SOL    HW121872   3.926   0.201  10.913 -0.7539 -1.5502  0.3833
 3413SOL    HW221873   4.021   0.100  10.845 -0.0450  0.6051  2.2109
 3414SOL     OW21874   3.577   0.782   7.490  0.1457  0.1610 -0.0748
 3414SOL    HW121875   3.584   0.834   7.410  1.5703 -0.5257 -0.3876
 3414SOL    HW221876   3.609   0.837   7.562  0.1910 -0.8364  0.6829
 3415SOL     OW21877   2.843   4.494   2.684  0.4181 -0.2325 -0.2536
 3415SOL    HW121878   2.822   4.584   2.711 -0.2351 -0.7344  0.9124
 3415SOL    HW221879   2.762   4.473   2.638  0.9092  0.3039 -1.3590
 3416SOL     OW21880   0.859   3.356   8.730  0.7645  0.2393 -0.1602
 3416SOL    HW121881   0.909   3.275   8.742 -0.9385 -0.7852  0.0162
 3416SOL    HW221882   0.929   3.420   8.720  2.4231 -1.3089  1.5063
 3417SOL     OW21883   2.701   1.577   8.380  0.0532 -0.6548  0.6358
 3417SOL    HW121884   2.721   1.660   8.423  1.4771 -0.4352 -0.4451
 3417SOL    HW221885   2.735   1.510   8.439  1.2068 -0.5271  0.1145
 3418SOL     OW21886   0.771   1.807   8.563  0.2626  0.2763  0.0290
 3418SOL    HW121887   0.689   1.851   8.539  0.1877  0.9508  1.4656
 3418SOL    HW221888   0.810   1.879   8.613  1.0939 -0.3325  0.2561
 3419SOL     OW21889   3.566   2.772   0.624  0.7101  0.2885 -0.1632
 3419SOL    HW121890   3.587   2.825   0.701 -1.2918  0.5218  0.2010
 3419SOL    HW221891   3.605   2.830   0.558  0.4620  0.4036 -0.2063
 3420SOL     OW21892   4.295   1.031   6.275  0.5845  0.5449 -0.1689
 3420SOL    HW121893   4.201   1.011   6.278  1.3577 -2.4894  3.9656
 3420SOL    HW221894   4.305   1.078   6.192 -1.4409  1.1310 -0.0790
 3421SOL     OW21895   1.786   4.436  17.594 -0.0412 -0.7775  0.5012
 3421SOL    HW121896   1.763   4.344  17.580 -1.8415 -0.4306  1.2054
 3421SOL    HW221897   1.701   4.472  17.571  0.5837  2.2415  2.8323
 3422SOL     OW21898   0.167   4.626   5.285 -0.6286  0.8133  0.6516
 3422SOL    HW121899   0.171   4.716   5.319 -1.3564  1.3760 -0.7157
 3422SOL    HW221900   0.237   4.583   5.334 -1.4425 -0.5789  0.5982
 3423SOL     OW21901   1.516   4.118   9.543  0.6477  0.1012 -0.4003
 3423SOL    HW121902   1.513   4.181   9.615  0.2588 -0.7370  0.3288
 3423SOL    HW221903   1.609   4.107   9.525  0.6706  1.2782 -0.9798
 3424SOL     OW21904   1.445   2.448   5.084  0.0998 -0.3692 -0.5296
 3424SOL    HW121905   1.356   2.461   5.117  0.5814  0.5389  0.3933
 3424SOL    HW221906   1.428   2.362   5.047  0.4280 -1.9848  3.1141
 3425SOL     OW21907   3.875   4.448   3.028 -0.6792 -0.6266  0.5691
 3425SOL    HW121908   3.907   4.447   2.938 -0.5511 -0.7431  0.6158
 3425SOL    HW221909   3.788   4.409   3.018 -1.1288  0.5617 -0.1730
 3426SOL     OW21910   4.695   0.475   7.064 -0.1317 -0.2967 -0.0142
 3426SOL    HW121911   4.659   0.426   6.990 -0.0875 -2.1476  1.1760
 3426SOL    HW221912   4.643   0.555   7.068  1.1126  0.4338  1.6222
 3427SOL     OW21913   0.737   0.584   3.418 -0.2019  0.4641  0.6972
 3427SOL    HW121914   0.752   0.490   3.427  1.9868  1.1724  4.3977
 3427SOL    HW221915   0.828   0.612   3.407 -0.1319  0.4286  1.1657
 3428SOL     OW21916   2.571   2.963   7.172 -0.3900  0.1635 -0.4130
 3428SOL    HW121917   2.575   3.057   7.154  1.0837  0.0052 -0.9483
 3428SOL    HW221918   2.660   2.939   7.146 -0.3402 -0.0466 -0.0382
 3429SOL     OW21919   0.731   2.140   8.234 -0.1322  0.1755 -0.1414
 3429SOL    HW121920   0.718   2.095   8.151 -3.0140  1.9683 -0.6592
 3429SOL    HW221921   0.675   2.215   8.216 -1.2158 -0.0183  2.3865
 3430SOL     OW21922   3.589   3.714   8.019 -0.1878  0.2071  0.1577
 3430SOL    HW121923   3.592   3.639   8.079  1.0533 -0.3459 -0.5946
 3430SOL    HW221924   3.656   3.764   8.065  0.5666  0.1069 -0.8369
 3431SOL     OW21925   2.664   3.123   5.965  0.4730  0.7509  0.4162
 3431SOL    HW121926   2.634   3.063   6.034  0.9291 -1.3992 -1.2671
 3431SOL    HW221927   2.640   3.214   5.986 -0.6689 -0.0418  2.5950
 3432SOL     OW21928   3.490   0.958   1.657  0.6287  0.1804  0.3667
 3432SOL    HW121929   3.497   0.949   1.752  0.1436 -2.4250  0.1497
 3432SOL    HW221930   3.575   0.932   1.623  0.3568 -1.7810  1.2112
 3433SOL     OW21931   1.339   1.423   9.309  0.4820 -0.5092 -1.0375
 3433SOL    HW121932   1.405   1.375   9.359 -0.6373 -0.8175  0.1777
 3433SOL    HW221933   1.322   1.360   9.239  1.4568 -0.9539 -0.8711
 3434SOL     OW21934   3.216   0.472   9.945 -0.3678  0.8793 -0.4140
 3434SOL    HW121935   3.127   0.441   9.929  0.2151 -1.0613  0.0398
 3434SOL    HW221936   3.266   0.390   9.948 -0.8522  0.5662 -0.8693
 3435SOL     OW21937   1.267   4.226   9.452  0.4608 -0.4245  0.0148
 3435SOL    HW121938   1.315   4.302   9.419 -0.2938  0.0759  0.0819
 3435SOL    HW221939   1.312   4.219   9.536  1.2699 -0.6998 -0.4400
 3436SOL     OW21940   3.267   2.172   2.715  0.2297 -0.6336  0.0583
 3436SOL    HW121941   3.311   2.226   2.649 -0.2838 -0.6660 -0.3116
 3436SOL    HW221942   3.328   2.202   2.782 -0.1963 -0.3287  0.3058
 3437SOL     OW21943   1.401   0.016   9.290 -0.1322 -0.3187 -0.9526
 3437SOL    HW121944   1.497   0.015   9.286 -0.1434  1.2417 -1.6732
 3437SOL    HW221945   1.381   0.109   9.296 -0.5199 -0.3608 -1.5717
 3438SOL     OW21946   0.186   4.447   8.412  0.1319  0.5118  0.4366
 3438SOL    HW121947   0.215   4.359   8.436 -0.6567 -0.6112 -2.6706
 3438SOL    HW221948   0.240   4.504   8.466 -0.7246  1.3054  0.4464
 3439SOL     OW21949   0.251   2.954  14.580  0.1379  0.1167 -0.0919
 3439SOL    HW121950   0.231   3.040  14.615 -2.0137 -0.6752  0.6419
 3439SOL    HW221951   0.191   2.900  14.632  1.5788 -1.0683  0.3307
 3440SOL     OW21952   3.038   2.178   9.651  0.0964 -0.0152  0.1365
 3440SOL    HW121953   3.081   2.126   9.719 -0.6119 -1.5163 -0.5597
 3440SOL    HW221954   3.087   2.255   9.678 -1.0151  0.2467  1.4081
 3441SOL     OW21955   3.217   2.141   5.366 -0.4324 -0.1225 -0.1648
 3441SOL    HW121956   3.265   2.072   5.411 -3.0791 -0.5880  1.9098
 3441SOL    HW221957   3.267   2.142   5.284  0.3979  0.2990  0.3462
 3442SOL     OW21958   3.898   1.182   3.060  0.2992 -0.4296  0.0936
 3442SOL    HW121959   3.866   1.252   3.117  2.3380 -0.6975  1.5976
 3442SOL    HW221960   3.839   1.202   2.988  0.1419 -1.3035 -0.0242
 3443SOL     OW21961   2.470   0.929   7.678 -0.1204  0.3279  0.0827
 3443SOL    HW121962   2.541   0.865   7.668  0.1629  0.8711 -1.3454
 3443SOL    HW221963   2.496   0.987   7.607  3.5164  0.2786  1.3688
 3444SOL     OW21964   2.425   2.508  13.761 -0.1964  0.7286 -0.0660
 3444SOL    HW121965   2.445   2.593  13.723 -1.4510  1.4656  0.9255
 3444SOL    HW221966   2.372   2.541  13.834  1.1505  0.7382  0.8909
 3445SOL     OW21967   2.961   4.125   0.175 -0.1884  0.3237 -0.1528
 3445SOL    HW121968   2.866   4.127   0.191 -0.1013  2.4143  0.1139
 3445SOL    HW221969   2.996   4.153   0.260 -0.8617 -1.1853  0.6404
 3446SOL     OW21970   3.576   3.603   4.828 -0.4710  0.0710 -0.4451
 3446SOL    HW121971   3.592   3.509   4.824 -0.3249  0.0528  0.6916
 3446SOL    HW221972   3.492   3.603   4.781 -1.1939 -1.6145  0.8727
 3447SOL     OW21973   1.357   1.482   5.303  0.4516  0.0113  0.2511
 3447SOL    HW121974   1.331   1.570   5.277 -1.9172 -0.5274  0.7703
 3447SOL    HW221975   1.356   1.433   5.221 -0.2484 -0.7314  0.6992
 3448SOL     OW21976   0.836   2.072  12.130  0.3607  0.4990  0.0034
 3448SOL    HW121977   0.808   2.023  12.207 -0.9228 -0.1386 -0.8755
 3448SOL    HW221978   0.765   2.068  12.065  1.3064  0.3090 -1.0142
 3449SOL     OW21979   4.403   0.472   0.499  0.5135  0.4161 -0.0396
 3449SOL    HW121980   4.345   0.420   0.553  0.0475  0.4111 -0.5417
 3449SOL    HW221981   4.364   0.455   0.413  0.7025  1.2029 -0.2884
 3450SOL     OW21982   2.708   1.965   9.373  0.0244  0.6892 -0.4667
 3450SOL    HW121983   2.694   1.870   9.374 -0.5006  0.7552 -1.3161
 3450SOL    HW221984   2.639   1.988   9.311  1.2976  1.6758 -1.5083
 3451SOL     OW21985   2.385   0.793   0.028  0.4492 -0.5632  0.2537
 3451SOL    HW121986   2.312   0.827   0.079 -2.1379 -2.9010 -1.8853
 3451SOL    HW221987   2.400   0.717   0.085 -0.7090 -0.2399  0.9896
 3452SOL     OW21988   1.420   1.455  15.123  0.3389 -0.4301 -0.0591
 3452SOL    HW121989   1.472   1.375  15.137 -0.3338 -0.7793  0.3990
 3452SOL    HW221990   1.397   1.483  15.211  0.9332 -0.7073  0.1906
 3453SOL     OW21991   2.720   2.837   7.425  0.7516  0.8422  0.4253
 3453SOL    HW121992   2.632   2.814   7.394  1.1711  0.4567 -0.4850
 3453SOL    HW221993   2.721   2.927   7.391 -2.0925  0.3050 -1.1830
 3454SOL     OW21994   1.975   3.063   2.002 -0.1284 -0.0810  0.3102
 3454SOL    HW121995   2.000   3.068   1.910  2.0165  0.1565  0.9170
 3454SOL    HW221996   2.043   3.123   2.032 -0.2903  0.6801 -0.8697
 3455SOL     OW21997   0.474   4.274   5.122 -0.0868 -0.6620  0.4213
 3455SOL    HW121998   0.398   4.218   5.109 -0.7155 -0.0339  1.4220
 3455SOL    HW221999   0.519   4.218   5.185  2.2831  2.2129  1.2892
 3456SOL     OW22000   4.619   4.564   0.488 -0.2354  0.0032 -0.8414
 3456SOL    HW122001   4.665   4.640   0.524  1.2620 -1.2244 -0.1473
 3456SOL    HW222002   4.564   4.528   0.557 -0.9960  0.8320 -1.0139
 3457SOL     OW22003   4.380   3.726  12.572 -0.6848  0.5301 -0.2556
 3457SOL    HW122004   4.467   3.705  12.538  0.4771 -1.7432  4.0944
 3457SOL    HW222005   4.328   3.750  12.496 -1.2568 -3.1373 -1.0211
 3458SOL     OW22006   0.194   2.505   7.915  0.0216  0.0321  0.1576
 3458SOL    HW122007   0.280   2.524   7.952  0.4188 -2.1228  0.3640
 3458SOL    HW222008   0.191   2.409   7.912  0.0305  0.0755 -1.5830
 3459SOL     OW22009   3.849   3.621   2.402 -0.2055  0.2498 -0.0996
 3459SOL    HW122010   3.854   3.567   2.323 -1.4512 -1.3500  0.9125
 3459SOL    HW222011   3.909   3.695   2.391 -0.3596  0.3309 -0.3958
 3460SOL     OW22012   2.605   1.547  15.060 -0.1547  0.1929  0.0875
 3460SOL    HW122013   2.697   1.542  15.036 -0.0403 -0.8352  0.7436
 3460SOL    HW222014   2.581   1.613  14.995 -1.9144  1.3742  1.9323
 3461SOL     OW22015   1.247   2.503   3.766 -0.7583 -0.0902 -0.8667
 3461SOL    HW122016   1.252   2.408   3.760  0.2702 -0.2208  2.3330
 3461SOL    HW222017   1.254   2.542   3.678  0.3874  1.0763 -0.2593
 3462SOL     OW22018   1.312   1.663   3.028  0.2358 -0.2268  0.7566
 3462SOL    HW122019   1.231   1.632   3.068  1.2135 -0.5609  2.5210
 3462SOL    HW222020   1.326   1.751   3.063 -1.5037 -0.0076  0.8783
 3463SOL     OW22021   4.231   3.193   4.473  0.1609 -0.3782  0.1419
 3463SOL    HW122022   4.236   3.152   4.560  0.8366  0.4164  0.4811
 3463SOL    HW222023   4.211   3.280   4.505  2.1688 -0.5793  1.9672
 3464SOL     OW22024   3.002   2.157  15.140 -0.4207 -0.2776 -0.3811
 3464SOL    HW122025   3.089   2.125  15.119 -1.2967 -2.2485 -1.0047
 3464SOL    HW222026   3.016   2.207  15.221 -1.3505 -1.0426  0.2561
 3465SOL     OW22027   3.496   3.174  10.545  0.0904  0.3816  0.3714
 3465SOL    HW122028   3.499   3.241  10.476  0.0239 -0.2875 -0.2877
 3465SOL    HW222029   3.433   3.212  10.606  0.5770 -1.1836  1.8340
 3466SOL     OW22030   4.201   0.225   2.918  0.3269 -0.7444  0.2559
 3466SOL    HW122031   4.290   0.204   2.948  0.6046  0.7368  0.4675
 3466SOL    HW222032   4.204   0.321   2.926  1.3624 -0.9472  2.4589
 3467SOL     OW22033   4.431   3.126  17.482 -0.2408 -0.1331 -0.1162
 3467SOL    HW122034   4.493   3.141  17.554  1.5464 -3.2642 -1.0076
 3467SOL    HW222035   4.383   3.051  17.515  1.1154 -1.2934 -0.7671
 3468SOL     OW22036   4.129   1.996   6.213  0.3738  0.5956  0.1666
 3468SOL    HW122037   4.123   1.971   6.121 -2.6429  1.8774  0.0163
 3468SOL    HW222038   4.171   2.081   6.201 -0.4575  1.2232  1.6253
 3469SOL     OW22039   1.077   0.952   6.149  0.5971  0.1127 -0.4795
 3469SOL    HW122040   0.995   0.992   6.177  1.4143  0.9324  0.7716
 3469SOL    HW222041   1.106   1.034   6.109  1.1434 -1.5024 -3.3394
 3470SOL     OW22042   4.691   3.621   3.979  0.1965 -0.8556 -0.2221
 3470SOL    HW122043   4.693   3.706   4.023 -0.5674 -1.3005  0.6851
 3470SOL    HW222044   0.030   3.575   4.020  1.3833  1.4075  0.2139
 3471SOL     OW22045   0.543   0.971   5.164  0.4738 -0.3101  0.0241
 3471SOL    HW122046   0.473   0.912   5.189 -1.8412  1.7533 -1.5964
 3471SOL    HW222047   0.624   0.922   5.175  0.4871 -0.2246  0.3093
 3472SOL     OW22048   2.070   4.429   8.963 -0.7573 -0.3768  0.4136
 3472SOL    HW122049   2.156   4.453   8.928 -0.3329  0.2996  1.9454
 3472SOL    HW222050   2.018   4.433   8.883  1.0594 -2.0175 -0.8758
 3473SOL     OW22051   2.372   1.803   3.519  0.0282 -0.1631  0.1102
 3473SOL    HW122052   2.280   1.781   3.507  0.7772 -1.2985 -3.6429
 3473SOL    HW222053   2.391   1.801   3.425 -1.5231 -1.7158 -0.1593
 3474SOL     OW22054   3.831   2.014   5.825  0.3928  0.0370  0.6525
 3474SOL    HW122055   3.865   2.092   5.869  0.7096  0.3331 -0.1219
 3474SOL    HW222056   3.825   2.050   5.737  0.2521 -1.2469  0.1282
 3475SOL     OW22057   0.046   0.482   4.371  0.7563  0.0961  0.3782
 3475SOL    HW122058   0.087   0.412   4.421 -0.6811 -0.0424  1.3607
 3475SOL    HW222059   4.701   0.507   4.419 -0.7435 -2.6859 -0.6341
 3476SOL     OW22060   3.485   0.425   7.190  0.5264  0.0643  0.9709
 3476SOL    HW122061   3.552   0.461   7.248  0.2430 -1.1626  2.0757
 3476SOL    HW222062   3.528   0.347   7.156  0.6191  0.4871  0.1061
 3477SOL     OW22063   2.860   1.097   3.006 -0.1872 -0.4925 -0.4263
 3477SOL    HW122064   2.811   1.033   3.057 -0.4490 -0.7901 -1.0442
 3477SOL    HW222065   2.839   1.061   2.919  0.1061  0.0936 -0.7409
 3478SOL     OW22066   0.847   0.925   5.208  0.4488  0.2155  0.2148
 3478SOL    HW122067   0.909   0.870   5.256  1.0683  0.3229 -0.4588
 3478SOL    HW222068   0.866   1.012   5.245 -0.6602  1.4852 -2.2036
 3479SOL     OW22069   2.116   1.271   3.983 -0.0291 -0.0593 -0.2747
 3479SOL    HW122070   2.194   1.218   3.966  0.0151 -0.7977  2.1583
 3479SOL    HW222071   2.077   1.226   4.058 -2.4976  3.2841  0.4127
 3480SOL     OW22072   3.204   2.268  16.040 -0.1144  0.0669  0.3746
 3480SOL    HW122073   3.160   2.333  15.983  0.0146 -1.2639 -1.2417
 3480SOL    HW222074   3.240   2.320  16.112 -0.6452  1.6703 -0.5028
 3481SOL     OW22075   3.614   2.898  13.801 -0.1197  0.3654  0.3940
 3481SOL    HW122076   3.652   2.835  13.740  1.1049 -0.2064  1.7308
 3481SOL    HW222077   3.591   2.837  13.872 -0.1540 -1.1749 -0.9353
 3482SOL     OW22078   0.146   3.473   6.431  0.0967 -0.2579 -0.6133
 3482SOL    HW122079   0.115   3.391   6.392  2.0725  0.5343 -3.9170
 3482SOL    HW222080   0.122   3.536   6.363  0.7512  0.9211  0.2382
 3483SOL     OW22081   1.920   2.847   3.824  0.1335  0.5555 -0.3649
 3483SOL    HW122082   1.991   2.876   3.881  0.2789  1.7952 -1.1741
 3483SOL    HW222083   1.843   2.891   3.860  0.1562  1.4707 -1.4425
 3484SOL     OW22084   1.375   1.820   1.042  0.0192 -0.0576  0.4216
 3484SOL    HW122085   1.316   1.752   1.011 -0.4895 -0.2637  1.8433
 3484SOL    HW222086   1.337   1.830   1.129  0.5666  1.3332  0.5025
 3485SOL     OW22087   4.307   2.287   8.062 -0.2506 -0.5469 -0.6031
 3485SOL    HW122088   4.402   2.303   8.063 -0.4377  0.5549 -0.8856
 3485SOL    HW222089   4.279   2.288   8.153  1.3763  1.7545 -0.1207
 3486SOL     OW22090   3.955   0.005   4.703 -0.0377 -0.2354  0.5820
 3486SOL    HW122091   3.957   0.013   4.608  0.9352  2.6654  0.8466
 3486SOL    HW222092   3.986   0.090   4.734 -0.4452  0.2311 -0.2912
 3487SOL     OW22093   3.096   2.643   5.650 -0.1923  0.3705 -0.4260
 3487SOL    HW122094   3.056   2.559   5.675  1.2362  0.3311  1.7793
 3487SOL    HW222095   3.059   2.650   5.562 -1.3316 -0.9009 -0.0544
 3488SOL     OW22096   1.314   4.600   5.715 -0.0590  0.0764 -0.0720
 3488SOL    HW122097   1.259   4.529   5.682 -1.1636  1.4115 -1.0982
 3488SOL    HW222098   1.334   4.636   5.628 -0.7312  0.6788  0.0331
 3489SOL     OW22099   2.922   3.596   3.993 -0.6707  0.3481  0.1058
 3489SOL    HW122100   3.006   3.555   3.969  0.8124  1.3731  3.4496
 3489SOL    HW222101   2.945   3.689   4.002 -1.7774  0.6818 -0.5986
 3490SOL     OW22102   0.371   0.717  16.857 -0.9277 -0.0917  0.2999
 3490SOL    HW122103   0.323   0.726  16.939 -2.0127  0.5457 -0.3989
 3490SOL    HW222104   0.397   0.809  16.846 -3.7183  0.7345  0.6972
 3491SOL     OW22105   1.551   2.978  13.872  0.0072  0.0378 -0.1792
 3491SOL    HW122106   1.567   2.981  13.966  2.1160 -0.7685 -0.5108
 3491SOL    HW222107   1.510   2.892  13.863 -0.6269  0.3333 -0.1363
 3492SOL     OW22108   2.245   0.314  11.696  0.2749  0.1089 -0.2286
 3492SOL    HW122109   2.182   0.293  11.765  1.1750 -1.0777  0.2347
 3492SOL    HW222110   2.316   0.250  11.706 -0.2634 -0.4943 -0.2827
 3493SOL     OW22111   4.091   1.970  13.285 -0.4804  0.1115  0.2866
 3493SOL    HW122112   4.065   2.037  13.348 -1.5074 -1.4079  1.4616
 3493SOL    HW222113   4.182   1.999  13.278 -0.8936  0.7851 -2.1874
 3494SOL     OW22114   4.048   3.445   6.472  0.4893 -0.0900  0.1389
 3494SOL    HW122115   4.049   3.372   6.411 -0.2008 -1.0281  1.2523
 3494SOL    HW222116   3.980   3.499   6.431  1.2258  0.4524 -0.3705
 3495SOL     OW22117   2.412   1.431   4.864  0.0423 -0.4543 -0.3326
 3495SOL    HW122118   2.430   1.365   4.931  3.2238 -0.5736 -1.2886
 3495SOL    HW222119   2.336   1.389   4.824  0.4950 -2.1002  0.5564
 3496SOL     OW22120   1.657   1.629   1.791 -0.0384  0.6125  0.0640
 3496SOL    HW122121   1.678   1.617   1.698 -1.8332 -0.0355 -0.2493
 3496SOL    HW222122   1.723   1.695   1.812  1.4065 -1.0831  0.8519
 3497SOL     OW22123   0.420   2.234  17.436  0.1966 -0.1086 -0.3383
 3497SOL    HW122124   0.410   2.225  17.341 -3.9735  0.5187  0.0400
 3497SOL    HW222125   0.349   2.181  17.472 -0.5339  0.5473 -0.8193
 3498SOL     OW22126   3.685   2.499   7.562 -0.1276 -0.0738 -0.0085
 3498SOL    HW122127   3.728   2.419   7.532 -1.6337 -0.7437 -0.4292
 3498SOL    HW222128   3.728   2.503   7.647 -0.1803 -0.7579  0.0532
 3499SOL     OW22129   4.092   2.672   5.327  0.2834 -0.0316  0.4643
 3499SOL    HW122130   3.997   2.668   5.340  0.4022  1.3506  1.8858
 3499SOL    HW222131   4.109   2.756   5.371 -2.7490  0.6522  0.3690
 3500SOL     OW22132   0.052   3.645   3.292 -0.0092 -0.5614  0.1255
 3500SOL    HW122133   0.013   3.692   3.366 -0.0046  0.7510 -0.7126
 3500SOL    HW222134   0.058   3.563   3.341  0.0556 -0.9105 -0.4765
 3501SOL     OW22135   3.096   1.826   5.742  0.1279  0.1035 -0.7895
 3501SOL    HW122136   3.004   1.813   5.763  1.1018 -1.5108  2.4561
 3501SOL    HW222137   3.135   1.739   5.736  1.3407  0.4938  1.5117
 3502SOL     OW22138   4.163   3.632   4.166  0.0245 -0.2859  0.8079
 3502SOL    HW122139   4.254   3.619   4.139 -1.1200 -0.5930 -2.9399
 3502SOL    HW222140   4.139   3.719   4.134  0.9621 -0.2072  0.3056
 3503SOL     OW22141   4.039   2.300  12.264 -0.3324 -0.9586 -0.0696
 3503SOL    HW122142   4.120   2.252  12.248  0.1455  0.1785 -1.0863
 3503SOL    HW222143   3.987   2.238  12.315  0.0168 -0.8283  0.4560
 3504SOL     OW22144   2.025   0.792   8.532  0.1088 -0.1463 -0.1436
 3504SOL    HW122145   1.990   0.717   8.581  1.8091 -1.4053 -0.8906
 3504SOL    HW222146   2.021   0.749   8.447  0.2003  0.2623 -0.3556
 3505SOL     OW22147   4.205   3.364   0.586  0.2051  0.2005 -0.1105
 3505SOL    HW122148   4.270   3.343   0.519 -1.4261  0.4987 -1.7639
 3505SOL    HW222149   4.189   3.456   0.565 -1.8712 -0.2404 -0.3939
 3506SOL     OW22150   2.438   2.727   6.840  0.2030 -0.3624 -0.2233
 3506SOL    HW122151   2.389   2.659   6.794 -0.1547 -0.4448  0.2697
 3506SOL    HW222152   2.505   2.740   6.774  1.2144 -1.5190  0.5723
 3507SOL     OW22153   2.026   0.814   9.218  0.3625  0.3152 -0.5313
 3507SOL    HW122154   1.966   0.778   9.283  3.1619  0.9870  2.3807
 3507SOL    HW222155   2.092   0.855   9.274 -0.7127  1.4880 -0.1209
 3508SOL     OW22156   1.370   4.178   1.227  0.3894 -0.6657  0.6088
 3508SOL    HW122157   1.374   4.251   1.290 -2.9841 -0.4367  0.5128
 3508SOL    HW222158   1.380   4.220   1.142  2.7312 -2.2521  0.1178
 3509SOL     OW22159   4.230   2.209   9.095  0.5030 -0.4540 -0.2344
 3509SOL    HW122160   4.164   2.180   9.032 -0.1697  2.8030 -1.0270
 3509SOL    HW222161   4.250   2.124   9.133 -0.1823 -0.6078 -0.2211
 3510SOL     OW22162   1.338   1.143   9.809 -0.4623 -0.5090  0.5068
 3510SOL    HW122163   1.320   1.236   9.796  2.9657 -0.4025 -3.7039
 3510SOL    HW222164   1.293   1.110   9.732  1.7805 -2.9077  0.2109
 3511SOL     OW22165   2.056   3.570  10.272 -0.1098 -0.2376  0.2494
 3511SOL    HW122166   2.070   3.638  10.337  0.9589 -1.6549  1.5119
 3511SOL    HW222167   1.966   3.543  10.291 -1.1234  2.2579 -1.0894
 3512SOL     OW22168   0.335   0.334   9.242 -0.4030  0.3728 -0.2603
 3512SOL    HW122169   0.396   0.386   9.295 -0.4539  0.1725 -0.0013
 3512SOL    HW222170   0.274   0.402   9.212  1.1565  1.9167  0.0768
 3513SOL     OW22171   3.503   0.626   3.781 -0.0826 -0.3402 -0.0536
 3513SOL    HW122172   3.512   0.672   3.697  0.2008 -1.8025 -0.8181
 3513SOL    HW222173   3.492   0.535   3.752 -2.1418  0.5107 -1.8855
 3514SOL     OW22174   3.675   1.778   5.368  0.4828 -0.1748 -0.1789
 3514SOL    HW122175   3.632   1.787   5.453  1.5096  1.8756  0.1125
 3514SOL    HW222176   3.654   1.690   5.337 -1.5485  1.1806 -2.6342
 3515SOL     OW22177   1.976   0.936  11.796 -0.0717  0.1874 -0.1083
 3515SOL    HW122178   1.953   0.855  11.842  1.2220  0.9884  1.9479
 3515SOL    HW222179   2.069   0.929  11.773 -0.0960  1.5824 -0.6464
 3516SOL     OW22180   0.048   0.816   3.684  0.3478 -0.5083  0.3674
 3516SOL    HW122181   0.027   0.895   3.734  1.7030  0.2200 -0.2088
 3516SOL    HW222182   0.142   0.817   3.667  0.2963  0.3469  0.1172
 3517SOL     OW22183   3.255   2.821   5.875 -0.4214  0.5393 -0.1150
 3517SOL    HW122184   3.347   2.813   5.898 -0.9985 -1.4359  1.4919
 3517SOL    HW222185   3.214   2.829   5.961 -1.0339 -1.8332 -0.1857
 3518SOL     OW22186   3.919   0.179   6.101 -0.1105 -0.4480  0.0305
 3518SOL    HW122187   3.824   0.181   6.104 -0.0487  2.8954 -0.4757
 3518SOL    HW222188   3.937   0.152   6.011 -0.4289 -0.1044 -0.1333
 3519SOL     OW22189   1.067   3.575   8.747 -0.2375  0.0616 -0.0956
 3519SOL    HW122190   1.119   3.531   8.680  0.5060  1.2156 -0.2807
 3519SOL    HW222191   1.103   3.539   8.829  0.0316 -1.0427 -0.7060
 3520SOL     OW22192   3.086   4.302   1.510 -0.3465  0.3346 -0.2703
 3520SOL    HW122193   3.122   4.346   1.434  0.6144 -0.5668 -0.3441
 3520SOL    HW222194   3.111   4.367   1.576  0.0355  0.6083 -0.6814
 3521SOL     OW22195   4.239   0.126   8.513 -0.5751 -0.2025 -0.0068
 3521SOL    HW122196   4.194   0.155   8.434  1.4957 -2.2562 -1.9126
 3521SOL    HW222197   4.256   0.203   8.568 -0.2256  0.1303 -0.5905
 3522SOL     OW22198   4.549   4.279  14.202 -0.1205  0.3858  0.0838
 3522SOL    HW122199   4.535   4.239  14.116 -1.9040  1.2983 -0.0292
 3522SOL    HW222200   4.601   4.207  14.240 -1.7677 -0.1088  1.3966
 3523SOL     OW22201   4.280   0.180  15.020  0.3285  0.4039  0.1563
 3523SOL    HW122202   4.288   0.087  15.042 -0.4668  0.1339 -0.6887
 3523SOL    HW222203   4.358   0.211  15.067 -0.3847  2.0272  0.2737
 3524SOL     OW22204   0.927   4.428   2.437 -0.1396  0.3972 -0.1284
 3524SOL    HW122205   0.976   4.355   2.399 -0.2877  1.1542 -1.7813
 3524SOL    HW222206   0.874   4.443   2.358  0.3366 -0.8133 -0.6821
 3525SOL     OW22207   1.240   2.050  17.078  0.6394 -0.1599 -0.3530
 3525SOL    HW122208   1.336   2.044  17.075  0.7840  0.7257  2.4935
 3525SOL    HW222209   1.220   2.100  17.157 -0.1685 -0.3481 -0.4447
 3526SOL     OW22210   0.569   3.110   1.425  0.6762  0.1241 -0.7235
 3526SOL    HW122211   0.505   3.156   1.479  2.3708  0.7929  0.7014
 3526SOL    HW222212   0.533   3.025   1.449  0.1944  0.9427  1.4234
 3527SOL     OW22213   1.962   0.362  14.168 -0.2874 -0.4882 -0.0161
 3527SOL    HW122214   1.919   0.377  14.084 -0.7395 -3.0708 -0.2378
 3527SOL    HW222215   1.952   0.267  14.175 -0.3589 -0.2224  3.5036
 3528SOL     OW22216   0.387   2.669  17.285  0.6072  0.0704 -0.2304
 3528SOL    HW122217   0.353   2.710  17.364  2.2551  0.2442  0.3970
 3528SOL    HW222218   0.348   2.583  17.304 -0.5713  0.5415 -0.5587
 3529SOL     OW22219   3.838   3.099   7.069  0.4673  0.4347  0.4361
 3529SOL    HW122220   3.765   3.150   7.104 -0.9424 -0.4890 -1.1993
 3529SOL    HW222221   3.814   3.069   6.982  2.5045 -0.8859  0.3393
 3530SOL     OW22222   4.713   2.654   9.230  0.5045 -0.1039 -0.0065
 3530SOL    HW122223   4.714   2.611   9.316  3.6434  1.2981  0.6683
 3530SOL    HW222224   4.658   2.727   9.258  1.0254  0.1070  0.4631
 3531SOL     OW22225   2.256   2.062   4.849  0.2045 -0.4617 -0.0933
 3531SOL    HW122226   2.323   2.131   4.858 -0.6150  0.3839 -0.4340
 3531SOL    HW222227   2.198   2.112   4.791  0.7980  1.0905  0.6438
 3532SOL     OW22228   1.379   0.472   7.959  0.4371  0.5357 -0.1541
 3532SOL    HW122229   1.398   0.430   7.875 -0.6693 -0.9240  0.3216
 3532SOL    HW222230   1.323   0.407   8.001  0.8169  0.9989  1.0712
 3533SOL     OW22231   3.769   1.055   6.636  0.4177 -0.3686 -0.0329
 3533SOL    HW122232   3.730   1.110   6.568 -0.4935  0.0782  0.8407
 3533SOL    HW222233   3.708   1.064   6.709 -1.4017 -1.2501 -1.4561
 3534SOL     OW22234   0.630   1.360   8.829  0.2112 -0.8342  0.0265
 3534SOL    HW122235   0.673   1.375   8.745  0.7359 -0.1648  0.4147
 3534SOL    HW222236   0.627   1.265   8.840  0.5156 -1.0189 -1.5025
 3535SOL     OW22237   0.938   3.438   5.787 -0.1717 -0.8132 -0.0923
 3535SOL    HW122238   0.907   3.407   5.872 -2.5983  2.0615  0.0879
 3535SOL    HW222239   0.969   3.354   5.754  0.7216  0.3768 -2.3010
 3536SOL     OW22240   2.530   1.249  13.293 -0.3275  0.2160  0.7811
 3536SOL    HW122241   2.468   1.247  13.366 -0.3145  1.8930  0.8292
 3536SOL    HW222242   2.604   1.210  13.340 -0.2859  0.2057  0.7073
 3537SOL     OW22243   1.584   4.225   4.481 -0.4111  0.4610 -0.2282
 3537SOL    HW122244   1.605   4.183   4.397 -1.6093  1.8234 -1.2050
 3537SOL    HW222245   1.507   4.276   4.458 -1.6173 -0.7155  1.2019
 3538SOL     OW22246   3.561   0.935   2.786 -0.4420 -0.6961 -0.3440
 3538SOL    HW122247   3.509   0.945   2.706  0.2488 -1.3229 -0.8722
 3538SOL    HW222248   3.583   0.843   2.772 -1.3145 -1.0914  0.8928
 3539SOL     OW22249   4.185   4.345   1.134 -0.2905 -0.5158  0.5331
 3539SOL    HW122250   4.242   4.361   1.209  1.7318 -1.2621 -0.8390
 3539SOL    HW222251   4.188   4.426   1.084 -1.5296 -0.0133  1.2855
 3540SOL     OW22252   2.970   1.572  16.548 -0.6353  0.1008  0.1170
 3540SOL    HW122253   2.942   1.542  16.462 -1.2187  1.4585 -0.1580
 3540SOL    HW222254   3.057   1.605  16.526 -0.7307  0.0007 -0.4112
 3541SOL     OW22255   4.487   4.333   0.976 -0.1850  0.4239  0.0786
 3541SOL    HW122256   4.574   4.332   1.014  0.8449  2.5767 -2.2676
 3541SOL    HW222257   4.446   4.397   1.034  0.4763 -0.5807  1.6525
 3542SOL     OW22258   0.529   2.432   9.355 -0.1706  0.1733  0.3871
 3542SOL    HW122259   0.519   2.439   9.450 -0.7384 -1.7664  0.4752
 3542SOL    HW222260   0.541   2.523   9.328  1.5708 -0.1405  0.0779
 3543SOL     OW22261   2.651   1.001   2.558 -0.2744  0.0003  0.1882
 3543SOL    HW122262   2.679   0.930   2.500  0.8740  0.5979  0.0071
 3543SOL    HW222263   2.591   1.041   2.494  0.2820  1.3733  0.5289
 3544SOL     OW22264   1.818   2.525  15.641 -0.6888 -0.1979  0.2757
 3544SOL    HW122265   1.816   2.438  15.681 -2.1914  0.0113  0.6608
 3544SOL    HW222266   1.852   2.507  15.553  3.5066  1.0446  1.6341
 3545SOL     OW22267   4.304   0.689  15.890 -0.8069 -0.4183 -0.4869
 3545SOL    HW122268   4.263   0.701  15.805 -0.2186  1.4302 -0.5099
 3545SOL    HW222269   4.235   0.684  15.956 -0.7534 -0.0987 -0.4076
 3546SOL     OW22270   2.400   0.455   6.534  0.3421 -0.4876  0.3498
 3546SOL    HW122271   2.310   0.488   6.542  0.7216  0.7655 -0.6667
 3546SOL    HW222272   2.402   0.416   6.621 -2.0782  0.6105  0.9101
 3547SOL     OW22273   1.357   0.816   8.121 -0.3553 -0.1254 -0.3521
 3547SOL    HW122274   1.352   0.903   8.081 -1.8329  0.1567  0.4708
 3547SOL    HW222275   1.274   0.781   8.089 -0.0142 -0.8936 -0.3982
 3548SOL     OW22276   2.906   0.106   1.886 -0.1961 -0.0658 -0.1357
 3548SOL    HW122277   2.985   0.141   1.844  0.0624 -1.9757 -1.2885
 3548SOL    HW222278   2.939   0.084   1.973 -1.6964  0.6077  0.5819
 3549SOL     OW22279   4.341   4.044   6.952 -0.1049 -0.6171  0.1441
 3549SOL    HW122280   4.259   4.089   6.974  1.2873  1.8724  0.2181
 3549SOL    HW222281   4.389   4.030   7.034  2.2512  1.2635 -0.9304
 3550SOL     OW22282   2.539   2.096  15.910 -0.1146  0.0225 -0.0940
 3550SOL    HW122283   2.570   2.084  15.820 -1.4326 -1.6089 -0.3219
 3550SOL    HW222284   2.623   2.081  15.953  1.3046  0.1049 -2.8103
 3551SOL     OW22285   1.675   2.608   8.254  0.2587 -0.2987 -0.2359
 3551SOL    HW122286   1.630   2.528   8.227 -1.4965  1.3741 -2.2606
 3551SOL    HW222287   1.646   2.660   8.179 -1.4898  1.7324  1.8250
 3552SOL     OW22288   1.004   2.697  17.520  0.0152 -0.5237 -0.4151
 3552SOL    HW122289   0.964   2.689  17.606  1.7817  2.0232  0.6469
 3552SOL    HW222290   0.993   2.609  17.483 -1.0340 -0.4301 -0.2984
 3553SOL     OW22291   2.786   4.614   7.770 -0.2294 -0.7262  0.3590
 3553SOL    HW122292   2.744   4.601   7.855  2.1699 -2.1591  1.3148
 3553SOL    HW222293   2.759   4.532   7.728 -0.0176 -1.0466  0.8566
 3554SOL     OW22294   3.636   2.162   9.904  0.0786 -0.2923  0.2651
 3554SOL    HW122295   3.598   2.112   9.976 -1.7740  0.0299 -0.4772
 3554SOL    HW222296   3.575   2.234   9.887 -1.4967 -1.7392 -0.2967
 3555SOL     OW22297   1.285   2.317   6.708  0.2099  0.0288 -0.1973
 3555SOL    HW122298   1.203   2.290   6.749 -1.1867  1.7819 -1.8116
 3555SOL    HW222299   1.349   2.306   6.778  0.4633  1.4933 -0.1829
 3556SOL     OW22300   2.263   4.337   1.879 -0.5533 -0.1924 -0.4650
 3556SOL    HW122301   2.207   4.331   1.956  0.4904 -1.8067  0.1825
 3556SOL    HW222302   2.288   4.246   1.863 -2.5915 -0.7783 -0.2945
 3557SOL     OW22303   3.866   1.978   8.769  0.1685  0.3014 -0.1248
 3557SOL    HW122304   3.808   1.949   8.699  0.7085 -0.6141 -0.2003
 3557SOL    HW222305   3.847   1.901   8.823  0.9093  0.2385  0.0383
 3558SOL     OW22306   4.604   3.787   1.553  0.4400  0.1978  0.3412
 3558SOL    HW122307   4.592   3.706   1.601  0.6733 -0.0705 -0.0545
 3558SOL    HW222308   4.586   3.855   1.618  0.5603  0.5332  0.0251
 3559SOL     OW22309   2.423   1.335  16.324 -0.3143  0.2721 -0.5154
 3559SOL    HW122310   2.515   1.358  16.333  0.1318 -1.7507  0.0476
 3559SOL    HW222311   2.438   1.253  16.276  0.0324  0.1701 -0.2283
 3560SOL     OW22312   1.300   0.323   5.819  0.9209  0.7220  0.4080
 3560SOL    HW122313   1.222   0.271   5.802  0.4921  2.3425 -2.7884
 3560SOL    HW222314   1.352   0.303   5.741 -0.6909  0.0068 -0.4801
 3561SOL     OW22315   1.854   0.208   2.453 -0.5539  0.2411 -0.1481
 3561SOL    HW122316   1.796   0.133   2.465  1.3835 -1.0987  0.8708
 3561SOL    HW222317   1.818   0.253   2.376  0.7326  0.2702 -0.7490
 3562SOL     OW22318   1.377   1.642   9.518  0.5125 -0.9858 -0.1964
 3562SOL    HW122319   1.404   1.697   9.445  0.7669 -2.9712 -1.6067
 3562SOL    HW222320   1.321   1.577   9.475 -1.4061  0.5559 -0.0241
 3563SOL     OW22321   1.809   4.238   2.170  0.2891  0.0294  0.3555
 3563SOL    HW122322   1.728   4.257   2.123 -0.7471  0.3421  2.2341
 3563SOL    HW222323   1.766   4.236   2.255  0.8494  4.0616  0.7558
 3564SOL     OW22324   3.611   0.074   3.130 -0.1497  0.5461 -0.4554
 3564SOL    HW122325   3.520   0.081   3.099  0.0506 -1.1615 -1.4128
 3564SOL    HW222326   3.658   0.034   3.056 -0.5937 -0.8107 -0.0048
 3565SOL     OW22327   2.409   0.398  17.526 -0.0997 -0.5929  0.6982
 3565SOL    HW122328   2.383   0.458  17.456  1.1731  1.1212  1.6895
 3565SOL    HW222329   2.340   0.406  17.591 -2.2821 -1.7702 -1.4576
 3566SOL     OW22330   2.712   3.308   9.130  0.3311 -0.0402 -0.2573
 3566SOL    HW122331   2.799   3.297   9.169 -0.0546 -1.7326  0.1135
 3566SOL    HW222332   2.696   3.396   9.163  3.5580 -0.0622  1.3838
 3567SOL     OW22333   1.877   1.266   1.602 -0.5841  0.1692  0.1647
 3567SOL    HW122334   1.966   1.261   1.568  0.3153  0.8347  2.4521
 3567SOL    HW222335   1.886   1.312   1.685  0.3114 -0.7484  0.5633
 3568SOL     OW22336   0.401   4.065   8.601  0.0551  0.5897 -0.2436
 3568SOL    HW122337   0.477   4.012   8.625 -0.1315  0.8263  0.9064
 3568SOL    HW222338   0.334   4.024   8.656  1.5170  1.8967  2.5066
 3569SOL     OW22339   0.367   3.323   6.348 -0.9917 -0.4019  0.1989
 3569SOL    HW122340   0.287   3.270   6.349 -0.5517 -1.0108  1.6563
 3569SOL    HW222341   0.340   3.389   6.412 -0.3566 -0.3295  0.3935
 3570SOL     OW22342   0.459   2.278   2.631  0.0885  0.6297 -0.2371
 3570SOL    HW122343   0.455   2.192   2.589  1.3098 -0.0541  1.0559
 3570SOL    HW222344   0.413   2.256   2.712  0.2212 -0.4889 -0.4635
 3571SOL     OW22345   2.154   3.133  16.214  0.1043  0.0541  0.6233
 3571SOL    HW122346   2.125   3.145  16.304 -1.8606  2.4019 -0.3209
 3571SOL    HW222347   2.134   3.222  16.184  0.1789 -0.0907  0.1485
 3572SOL     OW22348   3.088   3.040  14.005  0.3444 -0.0282 -0.6003
 3572SOL    HW122349   3.020   3.013  13.944 -1.2457  2.7423 -0.0434
 3572SOL    HW222350   3.170   3.040  13.955  0.6027 -1.7440 -0.1873
 3573SOL     OW22351   2.458   2.728  16.584  0.6394 -0.6913  0.2785
 3573SOL    HW122352   2.437   2.655  16.643 -1.0280 -1.8202 -1.7198
 3573SOL    HW222353   2.380   2.727  16.529  0.3311  1.5647  0.6913
 3574SOL     OW22354   0.458   1.681  16.529 -0.4628  0.3041 -0.2771
 3574SOL    HW122355   0.477   1.591  16.501 -0.7716  0.2574 -0.3377
 3574SOL    HW222356   0.505   1.737  16.468  1.0414 -0.1962  0.4266
 3575SOL     OW22357   1.024   1.363   6.633  0.0836 -0.1794  0.0419
 3575SOL    HW122358   1.026   1.405   6.719  2.8972 -1.1020  0.4289
 3575SOL    HW222359   1.094   1.298   6.647  1.6736  1.2336 -1.3208
 3576SOL     OW22360   3.049   1.952   7.367  0.3191  0.0839  0.3307
 3576SOL    HW122361   3.056   2.002   7.286 -0.3218 -0.7025 -0.2088
 3576SOL    HW222362   3.015   2.022   7.424  1.1336  1.9033 -1.3978
 3577SOL     OW22363   4.136   4.341  15.277 -0.4388 -0.5534 -0.2102
 3577SOL    HW122364   4.058   4.370  15.325  0.1547  1.6756 -0.5752
 3577SOL    HW222365   4.110   4.249  15.270 -0.7334 -0.6509  2.0835
 3578SOL     OW22366   4.263   1.389   6.869  0.3485  0.1106 -0.3241
 3578SOL    HW122367   4.172   1.362   6.858 -0.3338  2.5346 -0.7522
 3578SOL    HW222368   4.266   1.485   6.862 -1.9181  0.2269  0.2580
 3579SOL     OW22369   2.798   0.139   8.468  0.1947 -0.3455 -0.3128
 3579SOL    HW122370   2.794   0.136   8.372 -0.1739 -0.1647 -0.3046
 3579SOL    HW222371   2.892   0.146   8.481  0.0707  0.5144  0.1046
 3580SOL     OW22372   3.413   1.514  15.006 -0.4124  0.1428  0.1149
 3580SOL    HW122373   3.363   1.579  14.958  1.2078  1.3865  0.1382
 3580SOL    HW222374   3.376   1.438  14.960  1.7641 -0.6854 -0.2787
 3581SOL     OW22375   1.916   1.990   4.545 -0.5876 -0.2669  0.4794
 3581SOL    HW122376   1.991   1.944   4.508  0.6466  0.8966  1.5308
 3581SOL    HW222377   1.963   2.065   4.583 -0.5588 -0.5008  0.8985
 3582SOL     OW22378   2.962   2.297   6.949 -0.4611 -0.1971 -0.2777
 3582SOL    HW122379   3.034   2.360   6.943  0.0023 -0.8149 -1.2833
 3582SOL    HW222380   2.956   2.283   6.854 -1.3870 -1.9480  0.0447
 3583SOL     OW22381   2.570   4.339  15.483  0.4319 -0.7645  0.3382
 3583SOL    HW122382   2.552   4.386  15.564 -0.9284  1.2214 -1.1464
 3583SOL    HW222383   2.478   4.320  15.467  0.9085 -2.3506 -0.5072
 3584SOL     OW22384   2.812   2.578   8.149  0.1117  0.1196  0.1896
 3584SOL    HW122385   2.888   2.635   8.156  0.1715 -0.0057  0.5543
 3584SOL    HW222386   2.746   2.611   8.210  0.9066  1.1472  0.4862
 3585SOL     OW22387   2.213   3.367  13.060  0.3337 -0.4840  0.7378
 3585SOL    HW122388   2.289   3.319  13.091  0.6720 -1.5995 -1.8619
 3585SOL    HW222389   2.170   3.298  13.010  0.2792  0.3880 -0.4221
 3586SOL     OW22390   1.414   1.940  11.242 -0.1525  0.0827 -0.0875
 3586SOL    HW122391   1.382   1.960  11.330  0.1182  1.1943 -0.2401
 3586SOL    HW222392   1.421   1.844  11.243 -2.6821 -0.0831  0.9281
 3587SOL     OW22393   1.205   3.118   3.004 -0.6050  0.2525 -0.4852
 3587SOL    HW122394   1.261   3.193   2.986 -0.3583 -0.1554 -1.4253
 3587SOL    HW222395   1.118   3.155   2.986  0.2038  2.3639 -0.0659
 3588SOL     OW22396   0.562   1.523   0.509 -0.2103 -0.1549  0.5322
 3588SOL    HW122397   0.510   1.580   0.566 -1.0341 -0.2740 -0.1003
 3588SOL    HW222398   0.593   1.450   0.563  0.2904  0.8357  1.5896
 3589SOL     OW22399   3.729   3.062   2.153 -0.7726 -0.5424 -0.1406
 3589SOL    HW122400   3.769   2.992   2.205  0.0811  0.6064  0.7410
 3589SOL    HW222401   3.802   3.095   2.101 -0.1430 -0.1257  1.0192
 3590SOL     OW22402   0.628   1.024  14.359  0.1455 -0.2196 -0.3241
 3590SOL    HW122403   0.676   0.954  14.316  0.3466 -0.6458  0.6012
 3590SOL    HW222404   0.655   1.012  14.450  0.0798 -0.9472 -0.3996
 3591SOL     OW22405   0.182   2.626   2.332  0.7796  0.2185 -0.1294
 3591SOL    HW122406   0.182   2.717   2.361  1.4717 -0.0933  0.8628
 3591SOL    HW222407   0.258   2.587   2.376 -1.4907 -1.3487  2.4128
 3592SOL     OW22408   0.956   1.630   6.988 -0.3009  0.5839  0.1420
 3592SOL    HW122409   0.867   1.622   7.023 -0.5632 -0.5536 -0.7777
 3592SOL    HW222410   0.998   1.664   7.067  0.2830 -0.8151  0.4144
 3593SOL     OW22411   1.362   0.487   9.632 -0.5747  0.8126 -0.5191
 3593SOL    HW122412   1.289   0.477   9.693 -2.1219 -1.4882 -2.7661
 3593SOL    HW222413   1.418   0.411   9.646 -0.2295  1.6992  3.0122
 3594SOL     OW22414   3.515   3.700   0.429  0.3800  0.4205  0.1888
 3594SOL    HW122415   3.512   3.604   0.434  0.4268  0.2811 -2.5638
 3594SOL    HW222416   3.595   3.708   0.377  1.2033 -0.4454  1.3093
 3595SOL     OW22417   1.731   0.362   0.925 -0.0594 -0.4376  0.4712
 3595SOL    HW122418   1.682   0.444   0.917  0.8772 -0.1024 -1.7617
 3595SOL    HW222419   1.773   0.353   0.839 -0.7330 -2.4595  0.3399
 3596SOL     OW22420   3.656   2.033   7.547 -0.3787  0.5299  0.1978
 3596SOL    HW122421   3.748   2.052   7.531  0.5411 -3.2691  0.8044
 3596SOL    HW222422   3.661   2.038   7.642 -0.7605  1.9711  0.1269
 3597SOL     OW22423   1.126   4.598   1.812 -0.4324  0.1307 -0.4006
 3597SOL    HW122424   1.151   4.655   1.885 -1.1080  1.1261 -0.9412
 3597SOL    HW222425   1.158   4.516   1.849 -0.7627  0.5778  0.8897
 3598SOL     OW22426   1.923   3.838   2.614  0.0556 -0.3870  0.0338
 3598SOL    HW122427   1.932   3.842   2.709  2.0039 -1.1995 -0.1170
 3598SOL    HW222428   1.879   3.921   2.598 -0.0672 -0.5877 -0.6784
 3599SOL     OW22429   0.006   3.813   6.377 -0.5938  0.0162  0.1907
 3599SOL    HW122430   4.662   3.788   6.427 -0.0122  1.3722  1.7742
 3599SOL    HW222431   0.010   3.739   6.317 -0.9495 -0.6012  0.9361
 3600SOL     OW22432   2.729   1.720  12.259 -0.0617  0.3325 -0.5197
 3600SOL    HW122433   2.699   1.634  12.229  0.6536  0.0687 -0.4644
 3600SOL    HW222434   2.645   1.743  12.300  1.1561  0.7161  1.7568
 3601SOL     OW22435   3.573   4.609   8.368 -0.1162 -0.5759  0.3282
 3601SOL    HW122436   3.583   4.542   8.436 -2.9317 -1.2946  0.0238
 3601SOL    HW222437   3.656   4.601   8.321 -0.8298 -0.6734 -0.9080
 3602SOL     OW22438   3.652   4.044  15.982 -0.7646 -0.3834  0.0706
 3602SOL    HW122439   3.600   3.964  15.996  0.4643 -1.4508 -1.3618
 3602SOL    HW222440   3.737   4.005  16.003 -0.4864  1.0243  1.4608
 3603SOL     OW22441   0.013   4.425   2.697  0.0831 -0.6159 -0.4511
 3603SOL    HW122442   0.010   4.492   2.629  0.7425 -0.7505 -0.6082
 3603SOL    HW222443   4.671   4.371   2.672 -0.9603  0.0532  1.3266
 3604SOL     OW22444   4.507   4.720   5.519  0.6340  0.4601 -0.3032
 3604SOL    HW122445   4.499   0.013   5.611 -1.1853  1.6472 -0.8108
 3604SOL    HW222446   4.581   4.660   5.532  0.6830  1.1384  2.6600
 3605SOL     OW22447   0.314   0.020  16.250  0.0057 -0.0354 -0.5566
 3605SOL    HW122448   0.381   4.687  16.235 -1.0895 -1.1756 -0.4157
 3605SOL    HW222449   0.298   0.039  16.158  0.7298 -0.3171 -0.7384
 3606SOL     OW22450   1.940   4.024  13.160  0.7718  0.6251  0.0350
 3606SOL    HW122451   1.999   4.037  13.085 -1.0930 -1.0938 -1.7185
 3606SOL    HW222452   1.930   4.113  13.194 -1.7198  0.2436  0.2925
 3607SOL     OW22453   0.921   4.369   9.868  0.1383 -0.4311 -0.2141
 3607SOL    HW122454   0.958   4.399   9.951  0.4525 -0.5986 -0.2934
 3607SOL    HW222455   0.834   4.347   9.902 -0.0284 -0.3821 -0.6089
 3608SOL     OW22456   3.714   3.051   1.552  0.3624 -0.0409  0.6693
 3608SOL    HW122457   3.678   3.139   1.540  0.0207 -0.0995  1.2426
 3608SOL    HW222458   3.680   3.001   1.478  1.8992 -0.0585 -0.0166
 3609SOL     OW22459   2.724   2.199   0.988  0.0588 -0.3266 -0.2840
 3609SOL    HW122460   2.816   2.171   0.993  0.5167  1.6490  2.4230
 3609SOL    HW222461   2.691   2.112   0.964 -2.0679  0.6013 -0.6277
 3610SOL     OW22462   2.829   0.075   6.043  0.3422 -0.1064  0.0006
 3610SOL    HW122463   2.814   0.161   6.083  2.0428 -0.7403  1.9981
 3610SOL    HW222464   2.817   0.099   5.951 -1.1172  1.0585  0.4825
 3611SOL     OW22465   2.195   1.201   1.020  0.2034 -0.0054  0.5275
 3611SOL    HW122466   2.149   1.259   0.959 -0.3787 -1.1570 -0.1292
 3611SOL    HW222467   2.118   1.173   1.069 -0.9996  0.7035 -0.9537
 3612SOL     OW22468   1.377   4.673  15.385  0.0696  0.0505 -0.6029
 3612SOL    HW122469   1.325   0.012  15.351 -2.2621 -1.7367 -0.9451
 3612SOL    HW222470   1.393   4.626  15.304 -0.5451 -1.9354  0.4168
 3613SOL     OW22471   1.335   3.204   4.415  0.6600  0.5676 -0.4972
 3613SOL    HW122472   1.291   3.142   4.472  0.4385  0.8024 -0.4119
 3613SOL    HW222473   1.262   3.227   4.358  0.6129  0.1407 -0.6074
 3614SOL     OW22474   3.872   1.804   5.093 -0.0682 -0.0894 -0.5430
 3614SOL    HW122475   3.895   1.731   5.151  0.4533  0.5531  0.0656
 3614SOL    HW222476   3.793   1.775   5.047  0.0316 -2.4355  0.7485
 3615SOL     OW22477   4.601   2.750   6.380 -0.0262  0.0672  0.0791
 3615SOL    HW122478   4.583   2.657   6.393  2.0120 -0.4470 -0.6653
 3615SOL    HW222479   4.558   2.799   6.450 -0.8100  1.0568 -1.0864
 3616SOL     OW22480   1.659   1.076   3.005 -0.4182  0.2957 -0.5619
 3616SOL    HW122481   1.746   1.117   3.007 -0.0138 -0.5520 -0.5151
 3616SOL    HW222482   1.678   0.995   3.052  1.2373  1.6689  1.1393
 3617SOL     OW22483   0.613   1.945   3.639 -0.3952  0.2701 -0.1016
 3617SOL    HW122484   0.678   1.992   3.587 -1.5472  1.7305 -0.2294
 3617SOL    HW222485   0.627   1.988   3.723  1.9139  1.2757 -0.9848
 3618SOL     OW22486   2.378   1.691  15.950 -0.1194  0.3483 -1.1848
 3618SOL    HW122487   2.368   1.759  16.016  0.3602  1.3015 -2.0923
 3618SOL    HW222488   2.359   1.616  16.006 -0.5703  1.0611 -0.3791
 3619SOL     OW22489   1.683   0.561   8.866 -0.3796 -0.0219  0.1803
 3619SOL    HW122490   1.744   0.632   8.843 -1.8287  1.0022 -0.4690
 3619SOL    HW222491   1.600   0.592   8.830 -0.2643  0.0962  0.0167
 3620SOL     OW22492   0.191   3.562   4.114 -0.5642  1.0018 -0.2255
 3620SOL    HW122493   0.163   3.506   4.187  0.9265  0.6044  0.0350
 3620SOL    HW222494   0.222   3.634   4.168 -0.2772  1.4566 -0.9961
 3621SOL     OW22495   2.432   0.298  17.241  0.8189  0.0865  0.1322
 3621SOL    HW122496   2.391   0.313  17.156 -0.1920 -0.4313  0.5246
 3621SOL    HW222497   2.367   0.239  17.279 -1.1810  1.3215 -1.3714
 3622SOL     OW22498   2.631   3.760   7.302  0.3147  0.5580 -0.0299
 3622SOL    HW122499   2.723   3.738   7.307 -0.4565 -2.0632  2.3777
 3622SOL    HW222500   2.634   3.853   7.324  0.6391  0.5905 -0.2217
 3623SOL     OW22501   4.135   3.734   8.113 -0.1827  0.2628  0.4342
 3623SOL    HW122502   4.226   3.705   8.113 -0.1958  0.2496  2.0011
 3623SOL    HW222503   4.119   3.775   8.197 -0.2234  0.9570  0.0877
 3624SOL     OW22504   2.810   4.252   3.293 -0.1562 -0.1968  0.2582
 3624SOL    HW122505   2.718   4.236   3.313 -0.6701  2.4256  0.1055
 3624SOL    HW222506   2.799   4.310   3.218 -0.8576 -2.4729 -1.3873
 3625SOL     OW22507   4.388   4.624  10.602 -0.0503 -0.1913 -0.2840
 3625SOL    HW122508   4.439   4.639  10.522 -1.3349  0.0095 -1.0650
 3625SOL    HW222509   4.346   4.541  10.581  0.3027 -1.5692  4.4008
 3626SOL     OW22510   1.214   2.105  15.177 -0.6540 -0.0094 -0.3015
 3626SOL    HW122511   1.205   2.088  15.083  0.1180 -2.1070  0.0062
 3626SOL    HW222512   1.131   2.071  15.211 -0.1654  0.2885  1.1799
 3627SOL     OW22513   2.589   0.649  14.872 -0.5435 -0.0184 -0.0064
 3627SOL    HW122514   2.512   0.595  14.892 -0.1805 -0.3598  0.4636
 3627SOL    HW222515   2.598   0.704  14.950 -2.6041 -1.3909  1.2117
 3628SOL     OW22516   2.862   0.686   2.915  0.1483 -0.2390  0.0427
 3628SOL    HW122517   2.881   0.757   2.853  3.4561  1.0829  2.4823
 3628SOL    HW222518   2.774   0.662   2.887 -0.3394  1.0477  0.4555
 3629SOL     OW22519   0.611   2.400   1.587 -0.1401 -0.8778  0.2931
 3629SOL    HW122520   0.660   2.361   1.659  1.9936  2.0817  0.4664
 3629SOL    HW222521   0.683   2.415   1.526  2.4115 -0.4253  3.4214
 3630SOL     OW22522   4.102   1.700   3.811  0.0094 -0.0704 -0.2158
 3630SOL    HW122523   4.082   1.739   3.726  2.0279 -0.3672 -0.8468
 3630SOL    HW222524   4.138   1.777   3.854  1.1081  0.3983 -1.9809
 3631SOL     OW22525   3.237   0.294   2.501  0.4188  0.3355 -0.3664
 3631SOL    HW122526   3.263   0.339   2.582  1.0957  0.9683 -0.9355
 3631SOL    HW222527   3.222   0.206   2.534 -0.8500  1.1632  1.2471
 3632SOL     OW22528   1.046   0.540   1.418 -0.1941 -0.2576  0.0412
 3632SOL    HW122529   1.093   0.585   1.489  0.6822 -0.0366 -0.6837
 3632SOL    HW222530   1.097   0.460   1.404 -2.2724 -0.8765 -3.8355
 3633SOL     OW22531   2.305   0.532   0.599  0.0228  0.9493  0.2552
 3633SOL    HW122532   2.312   0.445   0.560  0.0866  0.7214  0.7717
 3633SOL    HW222533   2.393   0.552   0.632  0.2363 -0.9149  0.8025
 3634SOL     OW22534   1.735   2.921  11.155  0.1543  0.3067  0.5034
 3634SOL    HW122535   1.800   2.853  11.142  0.1301  0.1203  1.3544
 3634SOL    HW222536   1.661   2.885  11.107 -1.3899  0.1297  2.9950
 3635SOL     OW22537   3.936   1.193   8.860 -0.4295  0.2321 -0.6167
 3635SOL    HW122538   3.935   1.279   8.901  3.3923  0.0372 -0.1292
 3635SOL    HW222539   3.851   1.153   8.879 -0.9647  2.1584  1.0061
 3636SOL     OW22540   0.704   2.198   9.570  0.4810  0.1350  0.6887
 3636SOL    HW122541   0.720   2.292   9.559  1.8385  0.0887  2.3043
 3636SOL    HW222542   0.710   2.172   9.478  0.5061  1.6543  0.2617
 3637SOL     OW22543   0.645   4.420   4.974  0.3146  0.3879 -0.0642
 3637SOL    HW122544   0.584   4.376   5.033  0.6436 -0.0991 -0.0873
 3637SOL    HW222545   0.729   4.397   5.015 -0.8260 -1.7568  1.0298
 3638SOL     OW22546   2.777   0.532   3.503  0.2144  0.3446 -0.0436
 3638SOL    HW122547   2.846   0.571   3.449 -1.4951  2.1172 -0.9394
 3638SOL    HW222548   2.708   0.598   3.511  0.1974  0.1654  1.2848
 3639SOL     OW22549   0.873   3.110   4.921 -0.0369 -0.4834 -0.3648
 3639SOL    HW122550   0.866   3.016   4.902  0.5605 -0.5389 -0.3035
 3639SOL    HW222551   0.786   3.144   4.900  0.0783  0.5974  0.8913
 3640SOL     OW22552   0.212   3.230  13.374  0.8700  0.1554 -0.2284
 3640SOL    HW122553   0.289   3.185  13.340  0.3699 -0.8836  0.0291
 3640SOL    HW222554   0.139   3.205  13.318 -0.2980  0.0125  1.3568
 3641SOL     OW22555   0.167   2.151  15.698 -0.3482  0.5433  0.1472
 3641SOL    HW122556   0.141   2.120  15.611 -4.2993  3.0938  0.4042
 3641SOL    HW222557   0.175   2.244  15.677  3.4228  0.0122 -0.7712
 3642SOL     OW22558   1.838   4.443  14.346 -0.3945 -0.1335 -0.1908
 3642SOL    HW122559   1.833   4.402  14.432  0.2806  1.0645  0.4216
 3642SOL    HW222560   1.925   4.414  14.319  1.2094  3.1942  1.3265
 3643SOL     OW22561   1.675   2.171   2.585  0.4042  0.0144  0.3596
 3643SOL    HW122562   1.725   2.089   2.580  2.2213  1.1868 -0.4692
 3643SOL    HW222563   1.585   2.151   2.560  2.0560 -1.2045 -4.4562
 3644SOL     OW22564   0.291   0.282   8.116 -0.3558  0.7009 -0.8530
 3644SOL    HW122565   0.258   0.196   8.141  0.8025  0.8018  1.0276
 3644SOL    HW222566   0.208   0.328   8.106 -0.6662  0.4549  0.6830
 3645SOL     OW22567   1.678   2.283   8.597  0.5510 -0.1241  0.1618
 3645SOL    HW122568   1.582   2.291   8.604  0.5677  0.4708 -0.2973
 3645SOL    HW222569   1.701   2.374   8.616 -0.7033 -0.3996  3.0376
 3646SOL     OW22570   1.795   0.238  10.478  0.2710 -0.2908 -0.1695
 3646SOL    HW122571   1.781   0.223  10.385 -2.4622  1.1731 -0.0024
 3646SOL    HW222572   1.751   0.323  10.481  2.5183  0.9387 -1.7060
 3647SOL     OW22573   3.925   0.279  15.012 -0.0882 -0.2625  0.0110
 3647SOL    HW122574   3.870   0.305  14.937 -1.6017 -0.4347  1.0677
 3647SOL    HW222575   4.014   0.275  14.976  0.2831 -0.0642  0.9268
 3648SOL     OW22576   2.310   0.360   5.831  0.2025  0.0626 -0.0875
 3648SOL    HW122577   2.317   0.267   5.851  1.3471  0.9385  3.6440
 3648SOL    HW222578   2.402   0.384   5.826 -0.2001  1.3897 -1.1758
 3649SOL     OW22579   1.694   0.555  11.594  0.2658 -0.5585 -0.4040
 3649SOL    HW122580   1.690   0.649  11.610  0.5583 -0.6072 -0.0436
 3649SOL    HW222581   1.733   0.552  11.506 -0.9650 -0.9732 -0.9323
 3650SOL     OW22582   3.400   0.142   4.655 -0.1582  0.0873  0.3561
 3650SOL    HW122583   3.488   0.106   4.665 -0.6547 -2.4095 -3.8321
 3650SOL    HW222584   3.413   0.236   4.647 -0.0062  0.2022  2.0311
 3651SOL     OW22585   4.309   1.969   5.954  0.3791 -0.3542 -0.0580
 3651SOL    HW122586   4.304   1.930   5.867  1.0188 -0.7070  0.0634
 3651SOL    HW222587   4.252   2.041   5.929 -0.8904 -0.6594  1.9749
 3652SOL     OW22588   2.807   0.756   3.766  0.1273 -0.2515 -0.0157
 3652SOL    HW122589   2.885   0.785   3.720 -0.8277  0.1069 -1.4190
 3652SOL    HW222590   2.834   0.680   3.817  2.5927 -0.2467 -1.3180
 3653SOL     OW22591   1.324   2.550  12.323  0.2919 -0.0818  0.2860
 3653SOL    HW122592   1.291   2.559  12.233 -1.8632  0.0180  1.0885
 3653SOL    HW222593   1.370   2.466  12.320  0.1759 -0.1341 -0.0829
 3654SOL     OW22594   0.429   0.592   8.849 -0.6503 -0.1422 -0.0810
 3654SOL    HW122595   0.339   0.562   8.860  0.0703 -2.0568  0.5426
 3654SOL    HW222596   0.467   0.509   8.879 -1.0155 -0.2300  0.1260
 3655SOL     OW22597   0.690   2.579   4.217  0.6169 -0.9846  0.1051
 3655SOL    HW122598   0.644   2.505   4.178 -0.6156  0.4900 -1.2028
 3655SOL    HW222599   0.736   2.532   4.287  0.7957 -0.4678  0.3337
 3656SOL     OW22600   3.156   0.046   2.057  0.1201  0.2679  0.2843
 3656SOL    HW122601   3.145   0.044   2.152  0.2575 -2.6792  0.2249
 3656SOL    HW222602   3.183   4.690   2.044  0.0956 -0.1053  2.7427
 3657SOL     OW22603   4.723   1.417   7.074 -0.4145 -0.1440 -0.0469
 3657SOL    HW122604   4.725   1.324   7.097  1.9230  0.2467  1.2785
 3657SOL    HW222605   0.051   1.426   7.002  3.6218 -0.4904  3.4065
 3658SOL     OW22606   1.973   0.151   4.382 -0.1691 -0.4432 -0.3858
 3658SOL    HW122607   1.928   0.079   4.425  0.2895  0.2932  1.3133
 3658SOL    HW222608   1.952   0.230   4.431  0.4657  0.9874 -2.3865
 3659SOL     OW22609   1.458   1.788  14.564  0.1916  0.4899 -0.0233
 3659SOL    HW122610   1.494   1.876  14.558 -0.1512  0.4785 -2.1296
 3659SOL    HW222611   1.376   1.811  14.520 -0.1323 -0.4686  0.0699
 3660SOL     OW22612   4.172   3.180  13.098  0.2136 -0.3647  0.5223
 3660SOL    HW122613   4.188   3.262  13.146  1.2619 -1.6415  2.3577
 3660SOL    HW222614   4.102   3.142  13.150 -0.0085 -1.6924 -0.7469
 3661SOL     OW22615   3.441   2.486   9.434  0.2468  0.2700 -0.5369
 3661SOL    HW122616   3.433   2.532   9.518  2.0286 -1.8260  0.8106
 3661SOL    HW222617   3.402   2.401   9.456  1.6433 -0.0429  0.7242
 3662SOL     OW22618   3.903   1.323   5.538 -0.5255  0.0049  0.0681
 3662SOL    HW122619   3.966   1.358   5.601  1.3872 -1.6769 -0.9250
 3662SOL    HW222620   3.878   1.403   5.491  3.5849  2.0832  1.4089
 3663SOL     OW22621   1.292   4.041   8.651 -0.3279  0.2252  0.3023
 3663SOL    HW122622   1.287   4.127   8.692 -1.5071  0.3756 -0.1511
 3663SOL    HW222623   1.229   4.050   8.579  0.2418 -0.1826 -0.2518
 3664SOL     OW22624   3.372   3.066   4.461  0.2375 -0.2435  0.2829
 3664SOL    HW122625   3.373   2.976   4.492 -0.3434  0.3452  1.9852
 3664SOL    HW222626   3.466   3.082   4.458  0.1241  0.2600 -0.8382
 3665SOL     OW22627   0.201   3.902   8.720  0.3549  0.4189 -0.2629
 3665SOL    HW122628   0.224   3.811   8.740 -0.0849  0.6369  1.2251
 3665SOL    HW222629   0.109   3.892   8.697  0.6130  1.5620 -1.8004
 3666SOL     OW22630   2.226   2.811   2.424 -0.0977 -0.2942  0.3707
 3666SOL    HW122631   2.248   2.782   2.335  0.6361  1.0113  0.1367
 3666SOL    HW222632   2.312   2.827   2.462  0.8599  0.1620 -1.9876
 3667SOL     OW22633   3.978   2.417  12.686 -0.7365 -0.3852 -0.1455
 3667SOL    HW122634   3.886   2.441  12.681 -0.6030  0.1780  0.1284
 3667SOL    HW222635   4.013   2.502  12.712  0.4453 -0.6493 -0.8515
 3668SOL     OW22636   2.320   1.726   6.259  0.3317 -0.4627 -0.3296
 3668SOL    HW122637   2.233   1.758   6.236  0.6202  1.6374  1.3996
 3668SOL    HW222638   2.368   1.758   6.183  1.0605 -1.9540 -0.4888
 3669SOL     OW22639   0.129   2.357   5.950  0.4684  0.1015  0.5486
 3669SOL    HW122640   0.088   2.319   6.027  1.7883 -3.3042 -0.3759
 3669SOL    HW222641   0.149   2.447   5.973  1.2999 -0.0657  0.5058
 3670SOL     OW22642   3.119   0.779  14.383  0.0556  0.3508 -0.3783
 3670SOL    HW122643   3.054   0.721  14.422 -1.1303  1.8630 -0.0919
 3670SOL    HW222644   3.072   0.805  14.303 -0.2576 -2.2617 -1.0454
 3671SOL     OW22645   0.104   4.541   6.801 -0.6393  0.2363 -0.0950
 3671SOL    HW122646   0.146   4.491   6.871 -0.6284  1.0096  0.4465
 3671SOL    HW222647   0.019   4.498   6.791 -0.6801  0.4303 -0.5711
 3672SOL     OW22648   3.002   3.901   9.605  0.1282 -0.0980 -0.3912
 3672SOL    HW122649   2.935   3.901   9.537 -0.3654 -0.2398  0.0895
 3672SOL    HW222650   2.970   3.824   9.652 -2.9148  0.9502 -0.7815
 3673SOL     OW22651   3.781   4.222   9.671  0.1229  0.8298 -0.0769
 3673SOL    HW122652   3.686   4.233   9.666  0.2714  2.3365  0.4581
 3673SOL    HW222653   3.803   4.280   9.744 -1.3250 -0.6116  1.5303
 3674SOL     OW22654   1.055   4.726   1.229 -0.1307 -0.0115  0.3460
 3674SOL    HW122655   1.111   0.035   1.294 -0.0979  0.1519  0.2111
 3674SOL    HW222656   0.972   0.040   1.226  0.0829  0.2959 -0.8872
 3675SOL     OW22657   2.212   1.989  17.011 -0.1924 -0.3155  0.2991
 3675SOL    HW122658   2.185   1.903  17.044  0.7697 -0.0307  1.8315
 3675SOL    HW222659   2.149   2.046  17.056 -1.7197 -2.3718  0.7712
 3676SOL     OW22660   3.050   4.451   6.762  0.3029 -0.3968 -0.1809
 3676SOL    HW122661   2.976   4.404   6.723 -1.3328  0.8966  1.3805
 3676SOL    HW222662   3.066   4.527   6.707 -1.4366 -1.7524 -2.5890
 3677SOL     OW22663   3.993   4.064  12.691  0.4566  0.0304 -0.1136
 3677SOL    HW122664   3.967   4.154  12.672  0.8685 -0.0432 -1.0487
 3677SOL    HW222665   4.053   4.050  12.618 -0.8324  1.2725 -1.3957
 3678SOL     OW22666   1.860   1.718  16.178  0.2547 -0.0417  0.1717
 3678SOL    HW122667   1.832   1.627  16.175 -2.5375  0.8764 -1.5685
 3678SOL    HW222668   1.948   1.710  16.215 -0.3306 -2.7912  0.8978
 3679SOL     OW22669   0.481   2.374   1.960 -0.4593  0.4831  0.5262
 3679SOL    HW122670   0.424   2.325   1.901 -0.6533  0.6461  0.5750
 3679SOL    HW222671   0.421   2.445   1.983  1.9593  2.5217  0.4404
 3680SOL     OW22672   1.311   0.520   2.286 -0.1218  0.4970 -0.1207
 3680SOL    HW122673   1.218   0.511   2.306  0.0119 -0.8799 -0.0813
 3680SOL    HW222674   1.352   0.534   2.371  0.8969 -0.5455 -0.4479
 3681SOL     OW22675   2.124   3.296   7.975 -1.1086  0.5702 -0.2777
 3681SOL    HW122676   2.207   3.335   8.002 -0.5683 -0.9191  0.2039
 3681SOL    HW222677   2.070   3.375   7.979 -1.1031  0.6604 -2.1415
 3682SOL     OW22678   2.937   2.647  12.213 -0.5500 -0.1963 -0.1085
 3682SOL    HW122679   3.015   2.593  12.215 -1.1331 -1.0669 -0.9203
 3682SOL    HW222680   2.886   2.591  12.154  0.5636  1.0782 -2.3043
 3683SOL     OW22681   2.622   3.500   3.039 -0.0640 -0.5484  0.0367
 3683SOL    HW122682   2.565   3.477   3.111  0.2786  0.6287  0.6941
 3683SOL    HW222683   2.701   3.466   3.081 -0.2122  0.9989  1.5821
 3684SOL     OW22684   3.830   4.436   5.803  0.8397 -0.1200 -0.1450
 3684SOL    HW122685   3.917   4.466   5.830 -0.1323  1.4021  1.2487
 3684SOL    HW222686   3.817   4.490   5.724 -0.1001 -0.7751 -0.4423
 3685SOL     OW22687   1.617   0.052   8.638 -0.4610  0.1007  0.2862
 3685SOL    HW122688   1.539   0.002   8.661  0.2781 -0.6207  1.2273
 3685SOL    HW222689   1.691   0.010   8.682  0.2574  0.4815 -0.5540
 3686SOL     OW22690   3.065   4.035   5.649  0.0556 -0.4433  0.1472
 3686SOL    HW122691   3.049   4.128   5.633  1.1578 -0.2177  0.3554
 3686SOL    HW222692   3.089   4.047   5.741  2.1219  0.2487 -0.4668
 3687SOL     OW22693   3.759   2.968   8.155  0.0935 -0.0458 -0.6672
 3687SOL    HW122694   3.699   2.898   8.131  0.6648 -0.6096 -0.4619
 3687SOL    HW222695   3.785   3.003   8.069  2.5519 -1.1484 -0.3816
 3688SOL     OW22696   3.923   1.476   2.580 -0.0029  0.4085 -0.5205
 3688SOL    HW122697   3.981   1.527   2.522  0.4056 -0.4649 -0.8735
 3688SOL    HW222698   3.990   1.434   2.633  1.4645  1.9516 -1.1478
 3689SOL     OW22699   2.370   1.014  14.969  0.4211 -0.0678 -0.1728
 3689SOL    HW122700   2.319   1.086  15.005 -0.6802 -1.0198  0.1533
 3689SOL    HW222701   2.311   0.941  14.981  1.3041 -0.5022  1.5542
 3690SOL     OW22702   3.078   2.437   2.678 -0.9310  0.0533 -0.5468
 3690SOL    HW122703   3.055   2.364   2.736  1.2635  1.8486  2.5467
 3690SOL    HW222704   3.146   2.386   2.632 -2.7287 -0.7035 -2.3308
 3691SOL     OW22705   0.147   1.039  17.076  0.2410 -0.1484 -0.4222
 3691SOL    HW122706   0.075   1.026  17.138  0.8500  2.5987  0.8427
 3691SOL    HW222707   0.185   1.120  17.110  0.8253 -0.9191  0.7844
 3692SOL     OW22708   0.745   2.601   0.528  0.3599 -0.6142  0.1461
 3692SOL    HW122709   0.832   2.579   0.561  0.7633  0.7386 -0.0037
 3692SOL    HW222710   0.697   2.521   0.547  1.7998 -0.7843  2.9943
 3693SOL     OW22711   1.984   0.443   2.544  0.0150 -0.0415 -0.6573
 3693SOL    HW122712   1.933   0.364   2.526 -2.1944  1.3524 -0.5054
 3693SOL    HW222713   1.954   0.462   2.633  0.1457 -2.0987 -0.1761
 3694SOL     OW22714   3.222   4.616   5.998 -0.2911 -0.4017  0.1481
 3694SOL    HW122715   3.272   4.552   6.050  1.3403 -0.4251 -1.4496
 3694SOL    HW222716   3.204   4.564   5.920 -0.9875 -0.4267  0.3227
 3695SOL     OW22717   2.526   0.391   1.689 -0.5024 -0.4588 -0.2669
 3695SOL    HW122718   2.546   0.383   1.595  1.0556 -0.3555  0.0526
 3695SOL    HW222719   2.567   0.311   1.723 -2.2233 -1.9873 -1.7798
 3696SOL     OW22720   2.065   3.225   2.766  0.0537 -0.0162  0.7124
 3696SOL    HW122721   2.026   3.148   2.806 -0.7505 -0.1212 -0.2698
 3696SOL    HW222722   2.159   3.207   2.758 -0.0733 -0.7731  0.9944
 3697SOL     OW22723   0.735   1.302   4.034 -0.0499 -0.0266  0.1258
 3697SOL    HW122724   0.711   1.227   3.979  1.3455 -0.0300 -0.4910
 3697SOL    HW222725   0.734   1.372   3.969 -0.4392 -0.9542 -0.8818
 3698SOL     OW22726   3.982   2.115   7.689  0.0613  0.8232  0.4122
 3698SOL    HW122727   3.974   2.103   7.784 -2.5874  1.9663  0.3199
 3698SOL    HW222728   3.938   2.199   7.693 -0.0493  0.8086 -0.6574
 3699SOL     OW22729   0.273   2.128   3.457 -0.0313  0.2552  1.0270
 3699SOL    HW122730   0.179   2.139   3.444  0.4330  1.1620 -1.7240
 3699SOL    HW222731   0.274   2.054   3.516 -3.4622 -0.2953  0.3669
 3700SOL     OW22732   1.781   0.266  12.208  0.5644 -0.1641  0.1034
 3700SOL    HW122733   1.863   0.219  12.193  0.9895  0.7693 -0.4827
 3700SOL    HW222734   1.727   0.234  12.136  0.1395 -0.4005  0.5192
 3701SOL     OW22735   0.736   1.339   8.566 -0.3719  0.0696 -0.3735
 3701SOL    HW122736   0.779   1.420   8.591  0.3318 -0.1010 -1.0266
 3701SOL    HW222737   0.751   1.339   8.471  1.1963  1.4232 -0.1127
 3702SOL     OW22738   0.840   1.893   2.274 -0.0737 -0.1520  0.4305
 3702SOL    HW122739   0.901   1.840   2.325 -1.0626 -3.0138 -1.3627
 3702SOL    HW222740   0.784   1.937   2.337 -0.3080 -0.8441  0.6969
 3703SOL     OW22741   4.583   4.074  13.445 -0.0544 -0.9970 -0.2551
 3703SOL    HW122742   4.652   4.129  13.408 -1.1321 -0.0740 -0.8611
 3703SOL    HW222743   4.568   4.005  13.380 -2.8774 -2.1761  1.6397
 3704SOL     OW22744   2.931   0.876   6.120  0.1994  0.2604  0.4493
 3704SOL    HW122745   2.865   0.873   6.051  1.0365 -0.7402 -0.3014
 3704SOL    HW222746   2.905   0.798   6.169 -0.0739  0.3827  0.4980
 3705SOL     OW22747   3.603   4.158  11.903  0.1152  0.0528  0.6849
 3705SOL    HW122748   3.695   4.136  11.917  0.3907 -0.0798 -1.3250
 3705SOL    HW222749   3.612   4.250  11.880 -1.1213 -0.3600 -1.4697
 3706SOL     OW22750   4.349   4.463   5.752  0.1687  0.2405 -0.1789
 3706SOL    HW122751   4.292   4.386   5.752  1.7343 -0.9044  0.3015
 3706SOL    HW222752   4.384   4.463   5.663 -1.9339  0.0787 -1.0059
 3707SOL     OW22753   0.365   4.080   8.095 -0.0273  0.1922 -0.1501
 3707SOL    HW122754   0.295   4.091   8.030  0.5933  1.1806 -0.6553
 3707SOL    HW222755   0.322   4.094   8.179  0.3375 -3.2810  0.5831
 3708SOL     OW22756   2.269   2.945   6.018  0.3500 -0.1683 -0.1390
 3708SOL    HW122757   2.238   2.870   5.967  1.4251 -0.8866  0.2516
 3708SOL    HW222758   2.323   2.984   5.950 -0.7694  1.8770  0.1736
 3709SOL     OW22759   2.146   3.812   6.904 -0.8909 -0.3327 -0.1005
 3709SOL    HW122760   2.060   3.848   6.883 -0.3821 -0.3336 -2.1874
 3709SOL    HW222761   2.179   3.873   6.970 -0.1617 -0.9376  0.0929
 3710SOL     OW22762   1.571   1.789   3.405 -0.2729 -0.0735 -0.0641
 3710SOL    HW122763   1.607   1.814   3.490 -2.4621  1.2889  0.4695
 3710SOL    HW222764   1.616   1.847   3.343  1.6892  0.8075  2.2109
 3711SOL     OW22765   2.174   4.640   7.426  0.2551 -0.1118  0.4707
 3711SOL    HW122766   2.219   4.570   7.474 -0.3810 -0.3244  0.7691
 3711SOL    HW222767   2.166   4.702   7.498 -0.2561 -0.2685  0.5505
 3712SOL     OW22768   2.146   2.495   1.650 -0.1737 -0.3043 -0.0307
 3712SOL    HW122769   2.206   2.536   1.588 -2.8142  0.7432 -1.9053
 3712SOL    HW222770   2.205   2.426   1.681 -0.1110 -0.1918  0.1022
 3713SOL     OW22771   2.388   1.741  15.529 -0.1581  0.2545  0.1465
 3713SOL    HW122772   2.395   1.653  15.493 -3.8140  0.5779 -1.3394
 3713SOL    HW222773   2.418   1.790  15.452 -0.7886  2.4178  1.2953
 3714SOL     OW22774   0.645   4.501   4.725  0.3329  0.0195  0.1538
 3714SOL    HW122775   0.644   4.483   4.819 -1.0138 -0.1663  0.1144
 3714SOL    HW222776   0.724   4.548   4.700  1.6904 -1.2726  2.0383
 3715SOL     OW22777   4.290   1.517  12.251 -0.1889 -0.2005 -0.1955
 3715SOL    HW122778   4.352   1.580  12.289  1.1199 -0.7314 -1.4451
 3715SOL    HW222779   4.210   1.549  12.291  0.5154 -1.2987  2.0896
 3716SOL     OW22780   2.496   0.405  10.231 -0.2212 -0.0336  0.0251
 3716SOL    HW122781   2.470   0.471  10.296 -2.1300  0.2332 -1.0187
 3716SOL    HW222782   2.552   0.458  10.173  0.8896 -1.8982 -0.5937
 3717SOL     OW22783   0.844   4.280   3.703 -0.7485 -0.2824 -0.2425
 3717SOL    HW122784   0.931   4.261   3.737 -1.6500 -0.4186  1.9853
 3717SOL    HW222785   0.874   4.299   3.613 -0.3501  0.7659  0.1048
 3718SOL     OW22786   1.973   0.728   4.833 -0.1130  0.2566 -0.3376
 3718SOL    HW122787   1.955   0.820   4.854  0.4757 -0.0600  1.5026
 3718SOL    HW222788   1.898   0.687   4.876 -0.1002 -1.9341 -2.3384
 3719SOL     OW22789   0.395   0.725   5.223 -0.3621 -0.7494 -0.4739
 3719SOL    HW122790   0.463   0.665   5.194  0.4576  0.5051 -1.1626
 3719SOL    HW222791   0.366   0.674   5.299 -1.2738 -0.7371 -0.8107
 3720SOL     OW22792   0.236   0.628   1.939  0.2893 -0.3190  0.2806
 3720SOL    HW122793   0.186   0.557   1.898 -0.4621  0.7695 -0.6683
 3720SOL    HW222794   0.200   0.708   1.901 -2.5353 -1.3516  0.7685
 3721SOL     OW22795   2.251   4.376   5.147 -0.5828 -0.4009 -0.2235
 3721SOL    HW122796   2.336   4.418   5.162 -1.4440  0.7453  1.3385
 3721SOL    HW222797   2.209   4.391   5.231  2.4224 -2.2241  1.5947
 3722SOL     OW22798   1.638   0.621   2.357 -0.1544 -0.1766  0.4893
 3722SOL    HW122799   1.695   0.692   2.326  0.5446 -1.2875 -0.7858
 3722SOL    HW222800   1.571   0.674   2.401 -0.8273 -1.1721  0.6390
 3723SOL     OW22801   2.164   0.760   0.654  0.3458  0.5897  0.1484
 3723SOL    HW122802   2.213   0.770   0.736  1.7893  1.6183 -0.8456
 3723SOL    HW222803   2.201   0.674   0.630  0.3459  0.5212  0.3946
 3724SOL     OW22804   3.766   0.642   3.959 -0.0536  0.3746  0.3397
 3724SOL    HW122805   3.804   0.582   3.895 -0.7302 -0.1488  0.4313
 3724SOL    HW222806   3.674   0.643   3.932  0.1578 -0.0167 -0.3931
 3725SOL     OW22807   4.439   0.963  15.305  0.0266 -0.3939  0.0032
 3725SOL    HW122808   4.472   1.006  15.385 -1.7033 -2.0345  1.6003
 3725SOL    HW222809   4.383   1.031  15.269 -0.1504  0.9845  2.8860
 3726SOL     OW22810   1.769   3.985   9.135  0.1127  0.1417  0.2583
 3726SOL    HW122811   1.838   4.049   9.155 -0.8020  1.2822 -0.1995
 3726SOL    HW222812   1.766   3.986   9.039  1.3311 -1.0926  0.1973
 3727SOL     OW22813   0.416   0.455  13.962  0.7566  0.7313 -0.2038
 3727SOL    HW122814   0.411   0.503  14.045  1.4566 -0.7635  0.7119
 3727SOL    HW222815   0.485   0.389  13.973 -0.5748 -0.7399 -0.7936
 3728SOL     OW22816   3.856   3.819   7.070 -0.7328  0.1326  0.1658
 3728SOL    HW122817   3.766   3.836   7.099 -0.6942 -0.5758  0.6881
 3728SOL    HW222818   3.846   3.835   6.976 -2.9455  1.8387  0.6885
 3729SOL     OW22819   0.244   4.347   3.384 -0.4946  0.4965  0.0938
 3729SOL    HW122820   0.187   4.300   3.322 -0.7481  0.4168  0.3833
 3729SOL    HW222821   0.323   4.360   3.332 -0.3751  0.0167  0.1536
 3730SOL     OW22822   4.408   1.001   8.021 -0.2000  0.1466 -0.4878
 3730SOL    HW122823   4.428   0.909   8.004  0.7109  0.1944  0.3436
 3730SOL    HW222824   4.436   1.012   8.111 -0.2234 -0.7778 -0.3633
 3731SOL     OW22825   2.749   2.803   5.485 -0.2896  0.1915  0.1752
 3731SOL    HW122826   2.780   2.715   5.505 -0.8828 -0.0626  0.0024
 3731SOL    HW222827   2.667   2.809   5.534 -0.5004 -0.0256 -0.1477
 3732SOL     OW22828   4.028   2.355   2.922  0.1263 -0.4034  0.0502
 3732SOL    HW122829   4.053   2.359   2.829 -1.4742  1.5640 -0.2868
 3732SOL    HW222830   4.000   2.264   2.921 -2.9506  0.5422  0.9718
 3733SOL     OW22831   1.355   3.793  12.997 -0.0167  0.1348  0.1588
 3733SOL    HW122832   1.379   3.711  13.039 -0.3373  0.0036  0.0854
 3733SOL    HW222833   1.325   3.841  13.074 -0.3024 -0.7491  0.5863
 3734SOL     OW22834   2.414   2.621   6.167 -0.4701 -0.3236 -0.1752
 3734SOL    HW122835   2.498   2.661   6.144 -0.1441 -0.0428  1.5215
 3734SOL    HW222836   2.399   2.653   6.256 -1.9327 -2.3439  0.2991
 3735SOL     OW22837   1.896   2.621   5.070  0.3079  0.3470 -0.3415
 3735SOL    HW122838   1.929   2.601   5.157  1.8171  2.0237 -0.5401
 3735SOL    HW222839   1.948   2.560   5.017 -2.5186 -2.7918  0.4783
 3736SOL     OW22840   4.096   1.885   4.955  0.0751  0.0101  0.3709
 3736SOL    HW122841   4.014   1.857   4.995  0.1066 -1.4424 -0.6094
 3736SOL    HW222842   4.097   1.976   4.986  0.6666  0.0204  0.3233
 3737SOL     OW22843   0.726   4.590   8.940  0.2777 -0.3120 -0.3424
 3737SOL    HW122844   0.748   4.634   9.022  2.6417  2.2768 -2.3746
 3737SOL    HW222845   0.637   4.562   8.960  0.7464 -0.0015  2.1248
 3738SOL     OW22846   2.840   1.965  11.373  0.2759 -0.2954 -0.3598
 3738SOL    HW122847   2.810   2.030  11.437 -1.4062 -1.6831  0.2431
 3738SOL    HW222848   2.778   1.977  11.301 -0.2215 -1.3917 -0.1062
 3739SOL     OW22849   0.816   0.674   2.753 -0.0332  0.2502 -0.0035
 3739SOL    HW122850   0.810   0.738   2.683 -1.4002 -0.5871 -0.6498
 3739SOL    HW222851   0.724   0.649   2.758  0.1121 -0.6807 -1.8432
 3740SOL     OW22852   0.870   3.564   1.089 -0.3398 -0.2219  0.2390
 3740SOL    HW122853   0.789   3.514   1.104 -0.6688  0.2453  0.0452
 3740SOL    HW222854   0.829   3.648   1.067  1.2970  0.0503 -1.7344
 3741SOL     OW22855   4.062   1.496  12.545 -0.0843 -0.4143  0.3960
 3741SOL    HW122856   4.061   1.556  12.471  2.5202  1.3546  1.7629
 3741SOL    HW222857   4.156   1.500  12.565  0.1065 -1.7040 -0.2098
 3742SOL     OW22858   3.520   3.024   5.515 -0.3707  0.1593 -0.6959
 3742SOL    HW122859   3.449   2.962   5.533  2.2062 -2.9972 -1.4718
 3742SOL    HW222860   3.588   2.978   5.562 -0.4998  1.0745  0.3793
 3743SOL     OW22861   0.968   0.665   1.985  0.3259 -0.5568 -0.3033
 3743SOL    HW122862   1.020   0.745   1.991  0.6067 -0.8115  0.7156
 3743SOL    HW222863   0.962   0.654   1.890  0.6312 -0.3839 -0.3409
 3744SOL     OW22864   3.232   4.527   2.108  0.2595  0.0010  0.0162
 3744SOL    HW122865   3.289   4.475   2.165 -0.3017 -1.0041 -0.3338
 3744SOL    HW222866   3.223   4.464   2.037  1.3463 -0.0184 -0.1154
 3745SOL     OW22867   3.505   0.402   4.716 -0.2957  0.2923 -0.1078
 3745SOL    HW122868   3.469   0.481   4.755 -1.3025 -0.3570  0.2713
 3745SOL    HW222869   3.595   0.409   4.749  0.5165 -1.3854 -1.9410
 3746SOL     OW22870   1.953   0.026   1.354 -0.0628  0.0499  0.3114
 3746SOL    HW122871   1.890   4.689   1.344 -0.0900  0.1017  0.1074
 3746SOL    HW222872   1.886   0.091   1.376 -0.2204  0.6178 -1.8893
 3747SOL     OW22873   1.016   0.722   3.223  0.2712  0.2717 -0.4517
 3747SOL    HW122874   1.060   0.769   3.294  0.7526  0.6554 -1.0085
 3747SOL    HW222875   0.948   0.781   3.191 -0.6413 -1.3174 -1.4804
 3748SOL     OW22876   1.880   0.075   4.821 -0.2577  0.3690 -0.4332
 3748SOL    HW122877   1.881   0.128   4.901  1.2538 -0.8643  0.3615
 3748SOL    HW222878   1.794   0.035   4.812  0.3196 -1.1056  0.4860
 3749SOL     OW22879   0.025   1.178   7.814 -0.5639 -0.1363 -0.6299
 3749SOL    HW122880   4.695   1.201   7.882 -1.7235 -1.1172 -1.3746
 3749SOL    HW222881   0.110   1.207   7.847  0.3025 -2.1099 -1.1113
 3750SOL     OW22882   3.225   3.373  15.858 -0.7724 -0.4420 -0.1103
 3750SOL    HW122883   3.239   3.456  15.813 -0.3964  0.1883  1.1853
 3750SOL    HW222884   3.248   3.299  15.801  3.4029  0.8039  0.0035
 3751SOL     OW22885   2.297   4.420   8.128 -0.1112 -0.1419 -0.1333
 3751SOL    HW122886   2.290   4.326   8.108 -1.7311 -0.4930  2.0709
 3751SOL    HW222887   2.367   4.440   8.065  0.2082  0.9662  0.5740
 3752SOL     OW22888   3.813   0.285   1.892  0.1961 -0.2760  0.7034
 3752SOL    HW122889   3.789   0.374   1.918  1.4788  0.6115 -1.1449
 3752SOL    HW222890   3.735   0.235   1.917  0.4073 -0.4726  0.9685
 3753SOL     OW22891   2.628   4.189   5.559 -0.0698 -0.4593 -0.7964
 3753SOL    HW122892   2.681   4.122   5.514 -3.2298 -1.8484 -2.4726
 3753SOL    HW222893   2.630   4.147   5.644  0.3898 -1.4155 -1.2781
 3754SOL     OW22894   3.311   2.784  10.004  0.0709  0.1737 -0.4415
 3754SOL    HW122895   3.256   2.710   9.980 -1.7806  1.5481 -0.4013
 3754SOL    HW222896   3.385   2.775   9.944  0.6640 -0.4668  0.3808
 3755SOL     OW22897   1.141   2.353  13.692  0.1915  0.2177 -0.2395
 3755SOL    HW122898   1.121   2.443  13.667  0.1825  0.1823 -0.3601
 3755SOL    HW222899   1.172   2.329  13.605  0.3470  2.8268 -0.9042
 3756SOL     OW22900   1.158   4.513   7.931  0.0825  0.0155 -1.0209
 3756SOL    HW122901   1.242   4.500   7.887  0.2715 -0.8456 -0.4068
 3756SOL    HW222902   1.110   4.441   7.891 -1.2302  0.8211 -0.9156
 3757SOL     OW22903   0.405   1.327   5.245 -0.0812 -0.4857 -0.0923
 3757SOL    HW122904   0.353   1.274   5.306 -0.0580 -1.4681 -0.9263
 3757SOL    HW222905   0.487   1.330   5.293 -0.1241 -0.6577 -0.0087
 3758SOL     OW22906   0.652   0.575   8.129 -0.0035  0.0946 -0.1408
 3758SOL    HW122907   0.559   0.580   8.152  0.5371  0.0104  1.9840
 3758SOL    HW222908   0.656   0.493   8.081  0.3881 -0.9068  1.6078
 3759SOL     OW22909   2.093   0.817   6.524 -0.4927 -0.0516  0.5306
 3759SOL    HW122910   2.146   0.870   6.465  0.9480 -2.2487 -0.1867
 3759SOL    HW222911   2.101   0.732   6.479  0.2416 -0.8479  2.1401
 3760SOL     OW22912   1.370   0.492   1.588 -0.2912 -0.3341  0.4053
 3760SOL    HW122913   1.444   0.550   1.572 -1.2009  0.7131  0.0481
 3760SOL    HW222914   1.423   0.415   1.610  0.2761 -0.0839 -0.0909
 3761SOL     OW22915   0.013   1.713   6.490 -0.1176 -0.3108  0.4280
 3761SOL    HW122916   0.090   1.716   6.432 -1.1524  0.1732 -0.9105
 3761SOL    HW222917   0.026   1.626   6.528 -3.1693 -0.7101  0.5225
 3762SOL     OW22918   0.619   2.110   2.826  0.2669  0.2683  0.1989
 3762SOL    HW122919   0.529   2.119   2.858  0.1596  0.9702 -0.3024
 3762SOL    HW222920   0.652   2.191   2.866  1.3476 -0.6646  1.1975
 3763SOL     OW22921   2.051   2.408   2.764  0.0210 -0.1521 -0.0124
 3763SOL    HW122922   2.042   2.356   2.684 -0.1314  1.1601 -0.8497
 3763SOL    HW222923   2.022   2.489   2.722 -0.8895 -0.4830 -0.0283
 3764SOL     OW22924   2.123   3.983   3.295 -0.2496  0.6020 -0.0764
 3764SOL    HW122925   2.168   3.899   3.301 -0.0227  0.6091 -1.7181
 3764SOL    HW222926   2.192   4.048   3.305  0.7267 -0.8976  2.8380
 3765SOL     OW22927   4.104   2.942  11.495 -0.1505  1.0450  0.7824
 3765SOL    HW122928   4.115   2.962  11.588  2.2277  2.7187  0.1346
 3765SOL    HW222929   4.033   2.879  11.507 -0.9375  1.2597 -2.8428
 3766SOL     OW22930   2.415   3.739   3.031  0.2929 -0.8287  0.2281
 3766SOL    HW122931   2.510   3.736   3.044  0.2365 -0.3224  0.7795
 3766SOL    HW222932   2.395   3.660   2.981 -3.7174 -1.0707  2.2145
 3767SOL     OW22933   1.070   2.310  15.834 -0.2352 -0.1312  0.1977
 3767SOL    HW122934   1.095   2.261  15.755 -2.9661  0.8391 -1.2588
 3767SOL    HW222935   1.007   2.261  15.886 -1.2110 -1.5898 -2.3207
 3768SOL     OW22936   1.486   0.841   6.587 -0.3537  0.2771 -0.3773
 3768SOL    HW122937   1.508   0.776   6.654 -0.6931  2.0799  1.4980
 3768SOL    HW222938   1.392   0.848   6.601 -0.6021 -0.0256 -1.8855
 3769SOL     OW22939   1.495   3.408  11.223 -0.5142  0.1073  0.5753
 3769SOL    HW122940   1.405   3.432  11.200 -0.1985 -0.3528 -1.1301
 3769SOL    HW222941   1.508   3.471  11.294 -3.0925 -0.6411  1.7304
 3770SOL     OW22942   2.139   4.222   8.666  0.0093 -0.0912  0.1979
 3770SOL    HW122943   2.227   4.189   8.645 -0.1513 -0.2656 -0.2191
 3770SOL    HW222944   2.113   4.167   8.740 -0.2992 -0.3950 -0.1328
 3771SOL     OW22945   0.293   2.703   9.351  0.3010 -0.1356 -0.3941
 3771SOL    HW122946   0.249   2.619   9.346 -0.4325  0.1019  1.7949
 3771SOL    HW222947   0.239   2.734   9.278  0.8795  1.9429  0.0344
 3772SOL     OW22948   1.395   2.992   8.694  0.1947  0.1635 -0.4090
 3772SOL    HW122949   1.392   2.991   8.789 -0.9320 -2.4244 -0.4724
 3772SOL    HW222950   1.468   2.931   8.682  0.6367  0.6709 -0.2875
 3773SOL     OW22951   1.739   2.500   7.208 -0.1560  0.4917  0.3579
 3773SOL    HW122952   1.725   2.469   7.118 -0.1680  1.5687 -0.0120
 3773SOL    HW222953   1.832   2.477   7.210 -0.0685  0.8155 -0.0176
 3774SOL     OW22954   3.303   4.353   0.177 -0.3718  0.0310  0.1423
 3774SOL    HW122955   3.278   4.274   0.128 -1.0097  1.3355 -1.6313
 3774SOL    HW222956   3.221   4.400   0.162  1.2096  2.9742  0.8988
 3775SOL     OW22957   0.314   3.692   3.293 -0.1311 -0.2821 -0.4225
 3775SOL    HW122958   0.219   3.691   3.285 -0.3254 -1.5656  1.9865
 3775SOL    HW222959   0.332   3.598   3.301 -1.6120 -0.5734 -0.6073
 3776SOL     OW22960   0.988   3.773   7.979  0.1792 -0.4313  0.1355
 3776SOL    HW122961   0.939   3.854   7.962  1.6165  0.2235 -0.8901
 3776SOL    HW222962   0.912   3.716   7.987  1.5618 -2.3599 -0.5147
 3777SOL     OW22963   1.066   1.407   7.415  0.0065  0.7222  0.0996
 3777SOL    HW122964   1.116   1.466   7.358  1.2147 -0.9106 -0.5255
 3777SOL    HW222965   0.982   1.451   7.403 -0.7120 -0.1575  1.8988
 3778SOL     OW22966   2.682   2.040   1.677  0.0516 -0.5585 -0.3671
 3778SOL    HW122967   2.620   2.103   1.641  0.2831  0.0852  0.3719
 3778SOL    HW222968   2.755   2.100   1.690  0.4343 -1.2077  0.4496
 3779SOL     OW22969   0.913   4.144  16.549  0.1013  0.3650  0.1860
 3779SOL    HW122970   0.969   4.083  16.597  1.6457 -0.5771 -2.8055
 3779SOL    HW222971   0.831   4.156  16.598 -0.8223  1.5634 -1.6533
 3780SOL     OW22972   2.705   1.324   2.269  0.2633  0.6011 -0.5162
 3780SOL    HW122973   2.741   1.344   2.183  1.7093 -0.2189 -0.0919
 3780SOL    HW222974   2.659   1.405   2.290 -3.3899 -1.3642 -0.7464
 3781SOL     OW22975   3.052   2.097   7.157  0.1884  0.0351  0.1175
 3781SOL    HW122976   2.984   2.102   7.090  0.0512 -1.1087  0.1664
 3781SOL    HW222977   3.132   2.094   7.104  0.1063 -1.4499  0.0618
 3782SOL     OW22978   3.688   4.428   6.518 -0.2226 -0.8319 -0.5195
 3782SOL    HW122979   3.769   4.388   6.551  1.1366  0.0647 -2.7049
 3782SOL    HW222980   3.658   4.355   6.464  1.1484 -1.3602 -0.5630
 3783SOL     OW22981   2.822   3.057   9.025 -0.0399  0.2986 -1.0501
 3783SOL    HW122982   2.878   3.114   9.078 -1.7656  1.3155 -0.3443
 3783SOL    HW222983   2.741   3.108   9.025  0.3621  0.9344 -0.9125
 3784SOL     OW22984   0.704   0.931   4.450  0.3458  0.3033  0.4619
 3784SOL    HW122985   0.620   0.966   4.479  0.2780  0.4242  0.1133
 3784SOL    HW222986   0.750   1.014   4.436  1.2107 -0.0640  1.1537
 3785SOL     OW22987   1.493   4.483   5.078 -0.1652 -0.1726 -0.2691
 3785SOL    HW122988   1.536   4.400   5.101 -1.9254 -1.7887 -2.8576
 3785SOL    HW222989   1.555   4.538   5.125 -1.0744 -1.3577  2.3299
 3786SOL     OW22990   2.215   0.426  17.719 -0.2429 -0.3690  0.1273
 3786SOL    HW122991   2.174   0.490  17.662  1.5109  1.1229  0.5460
 3786SOL    HW222992   2.146   0.375   0.027 -0.0936 -0.4582  0.2622
 3787SOL     OW22993   0.495   1.041  17.151  0.4764 -0.2603 -0.8010
 3787SOL    HW122994   0.581   1.075  17.175 -0.3526  0.5091  1.0267
 3787SOL    HW222995   0.447   1.115  17.186  0.4226 -0.6740  0.0041
 3788SOL     OW22996   2.533   4.363   8.639 -0.4490 -0.6841  0.0810
 3788SOL    HW122997   2.527   4.457   8.625  0.1784 -1.1775 -3.5819
 3788SOL    HW222998   2.567   4.322   8.559 -3.0320 -3.5014  0.3924
 3789SOL     OW22999   1.711   4.164  16.915 -0.4399 -0.1518 -0.2090
 3789SOL    HW123000   1.721   4.164  17.010 -1.8999  0.0375 -0.0433
 3789SOL    HW223001   1.658   4.242  16.895 -1.7154 -0.6259  1.2120
 3790SOL     OW23002   1.408   0.540   7.588  0.0947 -0.4006  0.0338
 3790SOL    HW123003   1.365   0.487   7.656 -0.1072 -1.5773 -1.0103
 3790SOL    HW223004   1.502   0.536   7.608 -0.3661 -2.7818  1.7957
 3791SOL     OW23005   0.211   3.651   2.669 -0.4540 -0.1076 -0.7902
 3791SOL    HW123006   0.240   3.667   2.579 -2.3692 -0.2292 -1.4324
 3791SOL    HW223007   0.121   3.684   2.670 -0.5697 -0.3706 -2.2725
 3792SOL     OW23008   1.184   2.722   7.759 -0.1026 -0.3388  0.6730
 3792SOL    HW123009   1.190   2.729   7.855 -0.2851  1.9650  0.5065
 3792SOL    HW223010   1.198   2.814   7.741 -1.9532 -0.0361  0.7640
 3793SOL     OW23011   0.765   3.678   5.032  0.1213 -0.1772 -0.2962
 3793SOL    HW123012   0.840   3.634   5.073  1.0875  2.8097  1.1313
 3793SOL    HW223013   0.798   3.683   4.942 -0.2835 -1.0132 -0.4862
 3794SOL     OW23014   1.911   3.402   6.816 -0.3552  0.3600  0.2386
 3794SOL    HW123015   1.824   3.369   6.791  1.3925 -1.4917 -3.4503
 3794SOL    HW223016   1.914   3.365   6.904 -1.9490 -1.9936 -0.6752
 3795SOL     OW23017   3.659   3.247   5.893 -0.1328 -0.1536  0.1215
 3795SOL    HW123018   3.677   3.174   5.834 -0.0188 -1.2394  1.4908
 3795SOL    HW223019   3.564   3.232   5.899  0.0606 -0.6603  2.0644
 3796SOL     OW23020   2.340   1.498   8.563 -0.1277 -0.0318 -0.4695
 3796SOL    HW123021   2.302   1.425   8.514 -2.4354  1.1445 -0.4097
 3796SOL    HW223022   2.268   1.522   8.620 -0.1870 -1.4443  0.0625
 3797SOL     OW23023   1.844   1.011   5.778 -0.0071  0.0362 -0.2910
 3797SOL    HW123024   1.846   0.915   5.781 -0.1555  0.0592  0.5997
 3797SOL    HW223025   1.766   1.032   5.830  0.6418 -0.1319  0.7428
 3798SOL     OW23026   1.984   4.226  14.042  0.1412 -0.4948  0.1809
 3798SOL    HW123027   1.921   4.189  14.103  0.0474 -1.4415 -0.4842
 3798SOL    HW223028   2.045   4.268  14.102  0.4501  2.3043 -2.0855
 3799SOL     OW23029   2.610   2.002   3.363  0.4044 -0.8793  0.0265
 3799SOL    HW123030   2.596   1.915   3.326  1.4034 -1.3865  0.8235
 3799SOL    HW223031   2.531   2.051   3.342  1.4689  0.7932 -0.1321
 3800SOL     OW23032   2.103   1.425   2.944 -0.5731  0.9913  0.2787
 3800SOL    HW123033   2.105   1.510   2.988 -2.4318  0.3832  1.5391
 3800SOL    HW223034   2.192   1.424   2.910 -0.9553 -1.0255 -0.6406
 3801SOL     OW23035   1.624   4.377   7.652  0.0913  0.3184 -0.4739
 3801SOL    HW123036   1.590   4.355   7.565 -1.8015 -0.9307  0.5864
 3801SOL    HW223037   1.710   4.420   7.644  0.7413 -0.8962 -0.0073
 3802SOL     OW23038   0.153   0.751   4.527  0.2742  0.0308  0.2455
 3802SOL    HW123039   0.088   0.681   4.535 -1.5687  1.8113  0.5400
 3802SOL    HW223040   0.218   0.710   4.585  1.4823 -0.9162 -1.7650
 3803SOL     OW23041   1.733   1.288  11.564 -0.4103  0.2059 -0.3914
 3803SOL    HW123042   1.823   1.319  11.571 -0.6456  0.6778  0.6456
 3803SOL    HW223043   1.725   1.244  11.649  0.3130  2.1748  0.7042
 3804SOL     OW23044   4.493   0.999   7.059  0.6260  0.1710  0.1858
 3804SOL    HW123045   4.413   1.002   7.111  0.4129 -3.1292 -0.0101
 3804SOL    HW223046   4.454   0.949   6.988 -3.6927  2.0243  1.2403
 3805SOL     OW23047   4.549   1.160   3.214  0.0073  0.0095 -0.5999
 3805SOL    HW123048   4.512   1.108   3.142  2.1949 -0.4369 -1.3898
 3805SOL    HW223049   4.493   1.236   3.226 -1.0115 -1.0326  1.4325
 3806SOL     OW23050   3.412   1.203  12.297  0.1407  0.2358  0.2696
 3806SOL    HW123051   3.443   1.134  12.239 -1.5236  0.7421 -1.2089
 3806SOL    HW223052   3.494   1.248  12.317  0.4527 -0.2821  0.1360
 3807SOL     OW23053   4.653   2.751   6.987 -0.2410  0.0027  0.5319
 3807SOL    HW123054   4.642   2.843   6.963 -0.2440 -0.1493 -0.0664
 3807SOL    HW223055   4.582   2.741   7.050  0.7772 -0.3881  1.6017
 3808SOL     OW23056   2.846   2.026   5.580 -0.4013  0.0515  0.0663
 3808SOL    HW123057   2.834   1.951   5.638  0.3153  0.4719  0.7535
 3808SOL    HW223058   2.901   2.080   5.636  0.6425  0.1401 -1.0372
 3809SOL     OW23059   1.139   1.100   5.525  0.0423  0.4459  0.2180
 3809SOL    HW123060   1.191   1.180   5.530  0.8593  0.1324 -3.2394
 3809SOL    HW223061   1.195   1.051   5.464  1.6386 -1.2929  3.1065
 3810SOL     OW23062   4.640   1.391   6.334  0.3878 -0.6669  0.2739
 3810SOL    HW123063   4.678   1.304   6.348 -0.3437 -0.9966  0.2229
 3810SOL    HW223064   4.701   1.445   6.384  0.8563 -0.7291 -0.2340
 3811SOL     OW23065   1.044   2.866  16.202  0.1698  0.3765  0.7317
 3811SOL    HW123066   1.012   2.777  16.185  1.1996  0.1771 -0.1803
 3811SOL    HW223067   1.016   2.916  16.125 -0.8764 -0.5545  0.5072
 3812SOL     OW23068   0.495   4.389   8.344  0.1965 -0.0384 -0.0086
 3812SOL    HW123069   0.450   4.337   8.411  2.0690  2.2107  2.9988
 3812SOL    HW223070   0.419   4.394   8.286  1.8052  2.2666 -1.9483
 3813SOL     OW23071   1.435   2.002   3.750  0.1149  0.2087 -0.0204
 3813SOL    HW123072   1.471   1.917   3.774  1.0479  1.5141  3.2949
 3813SOL    HW223073   1.453   2.052   3.830  1.6430 -1.5476  0.7232
 3814SOL     OW23074   2.041   4.442   9.403 -0.0014 -0.2657 -0.2111
 3814SOL    HW123075   1.969   4.381   9.393  1.1229 -1.7172  0.5630
 3814SOL    HW223076   2.043   4.462   9.496  2.2597  1.4243 -0.6137
 3815SOL     OW23077   2.879   1.850   0.759  0.2174 -0.3802 -0.3644
 3815SOL    HW123078   2.904   1.922   0.701 -4.4687  0.8171 -0.9283
 3815SOL    HW223079   2.831   1.907   0.821 -0.7982 -2.8879  1.1609
 3816SOL     OW23080   4.492   3.656   7.714 -0.6120 -0.0969  0.6413
 3816SOL    HW123081   4.526   3.620   7.796 -0.7315 -0.0144  0.7263
 3816SOL    HW223082   4.577   3.659   7.670 -1.6174  1.4833 -1.1308
 3817SOL     OW23083   4.292   3.467  11.315  0.6881 -0.3507  0.2839
 3817SOL    HW123084   4.257   3.380  11.333  1.5362 -0.5383  1.0370
 3817SOL    HW223085   4.325   3.494  11.401 -2.6020  1.3768  1.0168
 3818SOL     OW23086   2.887   4.041   7.132  0.3903  0.5841 -0.6114
 3818SOL    HW123087   2.965   4.025   7.080  2.2661 -0.5692  2.5515
 3818SOL    HW223088   2.866   3.950   7.152  0.7510  0.6488  0.0757
 3819SOL     OW23089   3.081   1.483   4.342  0.0124  0.6495 -0.2933
 3819SOL    HW123090   3.157   1.456   4.394  0.0627 -0.6713 -1.0601
 3819SOL    HW223091   3.026   1.407   4.328 -1.0907  1.3407  0.2921
 3820SOL     OW23092   0.011   2.159   3.383 -0.3933  0.0807  0.1029
 3820SOL    HW123093   4.667   2.202   3.419  0.3532  0.8754  0.7830
 3820SOL    HW223094   0.026   2.228   3.320 -1.2505 -0.7659 -1.0273
 3821SOL     OW23095   4.677   0.785  13.588 -0.5788  0.2615  0.1117
 3821SOL    HW123096   4.680   0.742  13.503  0.0985  0.4881  0.0156
 3821SOL    HW223097   0.015   0.848  13.581  1.6842 -2.1350  1.9430
 3822SOL     OW23098   4.145   0.950  12.943 -0.7882  0.1015  0.1803
 3822SOL    HW123099   4.199   0.994  13.008  0.7759 -1.8590  0.2131
 3822SOL    HW223100   4.068   0.927  12.996 -1.6029  0.7283 -0.7432
 3823SOL     OW23101   0.734   2.177   4.127 -0.3207  0.3494 -0.0159
 3823SOL    HW123102   0.731   2.262   4.083 -1.7732 -0.5959 -1.7034
 3823SOL    HW223103   0.791   2.133   4.065 -0.4264 -1.9559  1.5140
 3824SOL     OW23104   1.299   4.493   2.728 -0.2608  0.1063  0.4944
 3824SOL    HW123105   1.216   4.494   2.775 -0.9749  1.4661 -0.7966
 3824SOL    HW223106   1.365   4.514   2.794  0.6544  1.0159 -0.7021
 3825SOL     OW23107   3.412   0.118   5.520  0.2790 -0.0504 -0.4907
 3825SOL    HW123108   3.325   0.130   5.559 -0.1080 -2.7644 -0.4833
 3825SOL    HW223109   3.455   0.199   5.547  2.4256 -0.5052 -2.5655
 3826SOL     OW23110   4.227   2.760   2.648 -0.6036  0.2046 -0.7382
 3826SOL    HW123111   4.311   2.803   2.664 -0.0755 -0.5132 -1.6002
 3826SOL    HW223112   4.177   2.793   2.723  1.8848  0.9029  0.6240
 3827SOL     OW23113   2.060   1.582  14.561  0.2244 -0.0500  0.4123
 3827SOL    HW123114   2.018   1.661  14.526  1.7132  0.2263 -0.7567
 3827SOL    HW223115   1.989   1.519  14.552  0.6435 -0.7631  2.1707
 3828SOL     OW23116   4.200   3.783  14.572  0.4206 -0.1580 -0.2981
 3828SOL    HW123117   4.209   3.692  14.545  2.5338 -0.0891  0.1681
 3828SOL    HW223118   4.120   3.819  14.535  1.0819  0.7285 -0.8465
 3829SOL     OW23119   4.485   1.189   4.639  0.4178  0.4034 -0.0508
 3829SOL    HW123120   4.525   1.133   4.573  0.4822  1.0937 -0.6035
 3829SOL    HW223121   4.542   1.266   4.630 -3.1950  2.9526 -1.1930
 3830SOL     OW23122   2.124   0.898  10.029 -0.2200 -0.6203 -0.6711
 3830SOL    HW123123   2.046   0.901   9.973  0.0959  1.1393 -1.0009
 3830SOL    HW223124   2.117   0.818  10.081  2.9699 -0.8477 -0.5726
 3831SOL     OW23125   1.085   4.618   6.621  0.6639  0.2445 -0.6472
 3831SOL    HW123126   1.175   4.623   6.591  1.4780  0.2509  1.7471
 3831SOL    HW223127   1.048   4.692   6.573  0.2449  1.3119  1.3035
 3832SOL     OW23128   2.145   1.156  11.632 -0.0393  0.3949 -0.3389
 3832SOL    HW123129   2.091   1.095  11.581  1.5371 -0.5941 -0.7939
 3832SOL    HW223130   2.231   1.127  11.602 -1.7467 -0.6592 -4.1708
 3833SOL     OW23131   3.887   3.970  13.588  0.2160 -0.3178 -0.3249
 3833SOL    HW123132   3.896   4.041  13.650  0.0044  0.7432 -1.5165
 3833SOL    HW223133   3.969   3.968  13.539 -0.3055 -0.5816 -1.2083
 3834SOL     OW23134   3.585   4.084  10.402 -0.6013  0.1439 -0.0155
 3834SOL    HW123135   3.553   4.039  10.480  0.8480 -1.9121 -0.5972
 3834SOL    HW223136   3.507   4.137  10.383 -0.8900 -0.1803  0.2718
 3835SOL     OW23137   2.019   0.254   6.786 -0.5998 -0.3618  0.1753
 3835SOL    HW123138   2.021   0.299   6.870 -0.2232 -0.4640  0.2209
 3835SOL    HW223139   1.928   0.229   6.800 -0.3723 -0.4199  1.5031
 3836SOL     OW23140   1.535   2.837   4.868 -0.2545 -0.7120 -0.2396
 3836SOL    HW123141   1.586   2.794   4.937  0.1545 -1.2505 -0.8718
 3836SOL    HW223142   1.522   2.765   4.806 -2.6347 -0.4009 -0.0901
 3837SOL     OW23143   1.191   0.613   5.368 -0.5481  0.2304 -0.3797
 3837SOL    HW123144   1.212   0.612   5.461  0.2951 -0.5864 -0.5762
 3837SOL    HW223145   1.275   0.619   5.322  0.5272 -1.5173  1.3897
 3838SOL     OW23146   3.482   0.387   1.918  0.0294  0.3791 -0.1243
 3838SOL    HW123147   3.391   0.360   1.935  0.5232 -1.0875  0.1976
 3838SOL    HW223148   3.515   0.297   1.925  0.9159  0.7058 -0.1635
 3839SOL     OW23149   1.414   4.470   8.459  0.5868 -0.2628 -0.2237
 3839SOL    HW123150   1.352   4.419   8.408 -0.4807  0.4637  0.3580
 3839SOL    HW223151   1.444   4.538   8.398  0.7856 -0.5400 -0.4357
 3840SOL     OW23152   0.403   3.288   7.187 -0.3174 -0.0182 -0.1693
 3840SOL    HW123153   0.431   3.373   7.221  0.7083 -0.0882 -0.8068
 3840SOL    HW223154   0.308   3.295   7.187 -0.4986 -2.6546  0.3262
 3841SOL     OW23155   1.377   4.034  16.648  0.1158 -0.4092  0.1665
 3841SOL    HW123156   1.305   4.005  16.592 -0.4190  1.3893 -0.0617
 3841SOL    HW223157   1.391   4.120  16.610  0.7331 -0.4247  0.3604
 3842SOL     OW23158   0.378   2.260   9.058  0.5976 -0.1286  0.1401
 3842SOL    HW123159   0.318   2.199   9.101  0.4961 -0.0611  0.0939
 3842SOL    HW223160   0.336   2.264   8.972 -1.8763  2.0619  1.4437
 3843SOL     OW23161   1.761   0.653   8.493  0.0744 -0.0192  0.4020
 3843SOL    HW123162   1.751   0.748   8.493 -1.4609 -0.1951 -1.1551
 3843SOL    HW223163   1.755   0.641   8.399 -2.2357 -2.0118  0.8086
 3844SOL     OW23164   0.893   4.616   9.420 -0.2295  0.3519 -0.0277
 3844SOL    HW123165   0.903   4.574   9.505  0.7530  0.8535  0.1039
 3844SOL    HW223166   0.958   4.564   9.373 -1.5370 -2.5609  1.4008
 3845SOL     OW23167   0.590   4.152   6.168  0.3617 -0.4450  0.2495
 3845SOL    HW123168   0.506   4.195   6.184  0.3092  0.0055 -1.2430
 3845SOL    HW223169   0.620   4.111   6.249 -2.1953 -1.7751  0.5303
 3846SOL     OW23170   2.332   2.656   2.211 -0.3085  0.0971  0.0271
 3846SOL    HW123171   2.299   2.705   2.136  1.5226 -1.6585 -1.9223
 3846SOL    HW223172   2.408   2.620   2.165 -0.0268 -0.4592  0.9269
 3847SOL     OW23173   3.816   2.281   8.982 -0.0808  0.0672 -0.0254
 3847SOL    HW123174   3.894   2.226   8.977 -0.3885 -0.3953  0.2847
 3847SOL    HW223175   3.747   2.215   8.981  1.7157 -1.8286 -0.4042
 3848SOL     OW23176   3.586   1.713   4.570  0.6638 -0.0911  0.1042
 3848SOL    HW123177   3.498   1.703   4.533  0.2670  0.9679  0.7610
 3848SOL    HW223178   3.626   1.756   4.495  0.2881 -0.7569 -0.4744
 3849SOL     OW23179   3.071   4.693   8.477  0.2049 -0.1916  0.1010
 3849SOL    HW123180   3.031   4.676   8.392 -1.4077  0.1289  0.7984
 3849SOL    HW223181   3.162   4.668   8.460 -1.0061 -2.3637 -3.1748
 3850SOL     OW23182   4.629   1.013   3.811 -0.0035 -0.5497  0.3193
 3850SOL    HW123183   4.652   1.093   3.858  0.5124  0.2519 -1.2719
 3850SOL    HW223184   4.547   1.039   3.767  0.2605 -0.6351 -0.2261
 3851SOL     OW23185   1.724   3.999   0.607 -0.3579 -0.6701  0.2113
 3851SOL    HW123186   1.660   4.035   0.668  1.9258 -0.1434  2.2951
 3851SOL    HW223187   1.692   4.052   0.534  4.3917  0.5280 -1.0186
 3852SOL     OW23188   0.857   1.138  14.108 -0.2372  0.2108  0.7203
 3852SOL    HW123189   0.874   1.231  14.095 -0.7521  0.0027 -1.3705
 3852SOL    HW223190   0.765   1.145  14.132 -0.4437 -1.6877  0.4435
 3853SOL     OW23191   4.389   4.623   2.743 -0.5934 -0.0949 -0.1535
 3853SOL    HW123192   4.469   4.672   2.726 -0.8217  0.4859  0.4345
 3853SOL    HW223193   4.428   4.567   2.810  1.3337  3.2445  1.4930
 3854SOL     OW23194   3.081   2.181   3.805 -1.0489  0.0927 -0.2214
 3854SOL    HW123195   2.995   2.174   3.845 -0.7971 -1.1555  0.0916
 3854SOL    HW223196   3.060   2.212   3.716 -3.1475 -0.0385  0.2368
 3855SOL     OW23197   2.977   2.799   7.323  0.5894 -0.3610  0.0170
 3855SOL    HW123198   2.904   2.800   7.385 -0.6627 -2.2560 -1.4388
 3855SOL    HW223199   2.940   2.835   7.243 -1.1029 -0.2654  0.8295
 3856SOL     OW23200   1.401   1.868   7.967  0.1523 -0.0030  0.4047
 3856SOL    HW123201   1.359   1.827   7.892  0.1454  2.6969 -1.0381
 3856SOL    HW223202   1.350   1.948   7.974  1.1661  0.8408 -2.0169
 3857SOL     OW23203   1.083   4.098   2.051 -0.0254 -0.2031 -0.0110
 3857SOL    HW123204   0.998   4.055   2.060  0.9666 -2.0724  0.4111
 3857SOL    HW223205   1.144   4.029   2.026 -2.1722 -1.0245 -3.0287
 3858SOL     OW23206   0.366   4.057   4.813 -0.1884  0.0563 -0.5982
 3858SOL    HW123207   0.449   4.011   4.806  0.1109  0.5340 -0.1489
 3858SOL    HW223208   0.390   4.137   4.767  1.7156 -0.2480 -0.1146
 3859SOL     OW23209   4.620   1.907   7.118  0.3321  0.3989  0.2921
 3859SOL    HW123210   4.527   1.920   7.103  0.6000 -1.5324 -2.9053
 3859SOL    HW223211   4.626   1.812   7.132 -0.0281  0.3405  0.0261
 3860SOL     OW23212   1.612   3.917   9.375 -0.4261  0.3865 -0.4813
 3860SOL    HW123213   1.540   3.876   9.327  0.6594  1.3661 -2.9336
 3860SOL    HW223214   1.668   3.961   9.311 -0.9491 -0.5092 -1.5519
 3861SOL     OW23215   4.663   1.957   6.282  0.4982 -0.4975 -0.1401
 3861SOL    HW123216   4.693   1.877   6.325 -0.4680 -1.7634 -1.8171
 3861SOL    HW223217   4.592   1.919   6.230 -0.1817 -0.3389  0.6805
 3862SOL     OW23218   0.691   3.299   6.426 -0.2828 -0.2909 -0.2344
 3862SOL    HW123219   0.662   3.280   6.337  0.6555  0.8530 -0.7752
 3862SOL    HW223220   0.725   3.217   6.462  0.3761  0.6032  1.1870
 3863SOL     OW23221   2.618   1.094  16.462  0.0961  0.3287  0.3651
 3863SOL    HW123222   2.573   1.128  16.385 -1.2029  0.7435  1.2921
 3863SOL    HW223223   2.671   1.023  16.427  0.0088  0.8676 -0.8647
 3864SOL     OW23224   3.992   2.197  13.412 -0.4837  0.9176  0.4963
 3864SOL    HW123225   4.022   2.246  13.489  2.4301 -1.3724  0.8074
 3864SOL    HW223226   4.007   2.270  13.352  0.1257  1.8469  1.7565
 3865SOL     OW23227   3.388   1.016  11.896 -0.5263 -0.5700  0.0046
 3865SOL    HW123228   3.422   0.997  11.984 -0.6512 -1.1302 -0.0634
 3865SOL    HW223229   3.380   1.111  11.902 -0.0792 -0.6181  1.4936
 3866SOL     OW23230   3.394   0.519   7.763 -0.8790 -0.2113  0.1515
 3866SOL    HW123231   3.365   0.535   7.673 -0.2114 -1.1612 -0.2335
 3866SOL    HW223232   3.484   0.550   7.756 -1.3951  0.9045 -1.6547
 3867SOL     OW23233   4.643   4.527   4.898 -0.0334 -0.1090  0.5409
 3867SOL    HW123234   4.706   4.529   4.970 -1.0545  2.5475  1.3344
 3867SOL    HW223235   4.614   4.618   4.896 -1.0026 -0.3760  2.5718
 3868SOL     OW23236   2.256   3.999   9.441  0.5844 -0.0053 -0.7602
 3868SOL    HW123237   2.246   3.954   9.357 -1.0670  1.4276 -1.3343
 3868SOL    HW223238   2.333   4.054   9.427  0.0386  0.6565 -1.2271
 3869SOL     OW23239   3.922   3.448   0.989  0.1521 -0.0989 -0.0848
 3869SOL    HW123240   3.949   3.478   0.902 -0.9075  1.7121  0.2105
 3869SOL    HW223241   3.870   3.516   1.031  0.1021  0.7042 -1.4505
 3870SOL     OW23242   2.726   0.485   8.876 -0.9746  0.0963 -0.1854
 3870SOL    HW123243   2.772   0.519   8.799  0.4992  0.6865  0.9450
 3870SOL    HW223244   2.635   0.510   8.867 -1.1230 -0.3233  0.1405
 3871SOL     OW23245   4.111   4.496   3.145 -0.0199 -0.0353 -0.0358
 3871SOL    HW123246   4.039   4.510   3.084  1.1884 -0.6050 -1.5875
 3871SOL    HW223247   4.089   4.408   3.176 -2.9978  0.3692 -1.0296
 3872SOL     OW23248   1.623   0.345   1.547 -0.7951 -0.1064  0.1685
 3872SOL    HW123249   1.688   0.312   1.484  0.0401  1.9858 -0.0777
 3872SOL    HW223250   1.549   0.290   1.522 -0.6955  0.2905 -1.0236
 3873SOL     OW23251   0.014   3.263  14.911 -0.1175  0.0803 -0.2702
 3873SOL    HW123252   4.655   3.245  14.919  0.1118 -0.5800  0.9378
 3873SOL    HW223253   0.049   3.187  14.958 -1.2785 -0.5813 -0.4860
 3874SOL     OW23254   2.622   1.313  16.637 -0.1683 -0.3925 -0.3560
 3874SOL    HW123255   2.651   1.389  16.587  0.6328 -0.9221 -0.6999
 3874SOL    HW223256   2.644   1.239  16.581 -1.7934  0.0774 -1.6081
 3875SOL     OW23257   1.117   0.564  13.102  0.2380 -0.6046 -0.2216
 3875SOL    HW123258   1.192   0.622  13.087 -0.9853  1.0857  0.1160
 3875SOL    HW223259   1.048   0.629  13.117 -0.2953 -1.5476  1.3601
 3876SOL     OW23260   0.387   4.464   5.447  0.1676 -0.0932 -0.6146
 3876SOL    HW123261   0.320   4.399   5.430 -0.0668 -0.7106  2.5633
 3876SOL    HW223262   0.398   4.447   5.541  0.1816  3.5715  0.0813
 3877SOL     OW23263   0.752   0.098  16.065 -0.3207 -0.1782  0.1504
 3877SOL    HW123264   0.690   0.145  16.120 -0.3868  1.9336 -1.7493
 3877SOL    HW223265   0.779   0.031  16.128  0.5040 -0.2121 -0.2473
 3878SOL     OW23266   0.485   1.190   8.493 -0.4421 -0.0136  0.3366
 3878SOL    HW123267   0.553   1.157   8.435 -1.8700 -0.5651 -1.0106
 3878SOL    HW223268   0.531   1.227   8.568  0.2295  0.2753 -0.2196
 3879SOL     OW23269   0.848   2.204   9.806 -0.0147 -0.3529  0.2658
 3879SOL    HW123270   0.933   2.227   9.767 -0.4395  0.1947 -0.3326
 3879SOL    HW223271   0.798   2.175   9.730 -0.2027 -2.0707  1.0395
 3880SOL     OW23272   0.085   3.305   8.368  0.3898 -0.2406  0.2722
 3880SOL    HW123273   0.031   3.246   8.316 -1.5475  1.2515  0.6071
 3880SOL    HW223274   0.051   3.390   8.341 -0.9140 -1.0023 -0.4968
 3881SOL     OW23275   1.876   2.932  10.722  0.6078 -0.1197  0.2951
 3881SOL    HW123276   1.806   2.885  10.769  1.4574 -0.6091  1.0606
 3881SOL    HW223277   1.918   2.973  10.797  1.1079 -0.5267  0.2351
 3882SOL     OW23278   0.429   4.636   3.418  0.1165  0.0803  0.3205
 3882SOL    HW123279   0.447   4.729   3.403 -3.1198  0.7032  0.2485
 3882SOL    HW223280   0.507   4.615   3.468 -0.2220  1.1901  1.3324
 3883SOL     OW23281   1.962   1.768  14.385  0.4473 -0.1474  0.5763
 3883SOL    HW123282   1.869   1.748  14.381  0.7742 -0.6776 -4.1281
 3883SOL    HW223283   1.965   1.856  14.346 -0.3004  1.3796  3.9732
 3884SOL     OW23284   0.060   0.630   6.760  0.0724  0.0857 -0.4024
 3884SOL    HW123285   0.095   0.673   6.838  0.8487  0.2838 -0.8635
 3884SOL    HW223286   4.700   0.622   6.776 -0.3644 -1.2767 -3.5955
 3885SOL     OW23287   2.640   0.165   1.069 -0.1923  0.0818  0.2219
 3885SOL    HW123288   2.563   0.122   1.107  0.2901  0.0462  1.1617
 3885SOL    HW223289   2.644   0.127   0.981  0.7896 -0.7274  0.6266
 3886SOL     OW23290   1.019   3.332   5.018 -0.0933  0.2718 -0.1778
 3886SOL    HW123291   0.974   3.262   4.971  0.8660 -0.1675 -0.4498
 3886SOL    HW223292   1.006   3.287   5.101  2.0932  2.7397  1.4911
 3887SOL     OW23293   3.928   2.893  10.536  0.2936 -0.7960  0.0234
 3887SOL    HW123294   3.980   2.963  10.576  2.2827 -2.5170  0.4556
 3887SOL    HW223295   3.838   2.911  10.563  0.5401  3.6394 -2.2247
 3888SOL     OW23296   2.734   0.523   5.249 -0.1754 -0.2987 -0.4909
 3888SOL    HW123297   2.768   0.483   5.329 -1.0787  1.4037  0.7293
 3888SOL    HW223298   2.784   0.604   5.250 -2.5263  1.1669  0.0873
 3889SOL     OW23299   0.515   2.665   1.738  0.1910 -0.2914 -0.9690
 3889SOL    HW123300   0.516   2.587   1.682 -2.5013 -1.0167  0.0022
 3889SOL    HW223301   0.431   2.707   1.722  1.4420  2.1219 -1.0699
 3890SOL     OW23302   1.053   1.752   2.847  0.4201 -0.0606  0.5053
 3890SOL    HW123303   1.050   1.728   2.940 -3.3953 -0.4186  0.3170
 3890SOL    HW223304   1.131   1.711   2.812 -0.3869 -1.1831  0.0108
 3891SOL     OW23305   2.073   1.627   3.130 -0.2890 -0.1031  0.3554
 3891SOL    HW123306   2.067   1.721   3.147 -2.5350 -0.0587 -0.7344
 3891SOL    HW223307   1.979   1.608   3.126 -0.0412 -1.6100  1.8324
 3892SOL     OW23308   4.302   3.802   1.710 -0.4101  0.2177  0.0482
 3892SOL    HW123309   4.373   3.841   1.659  1.1918 -1.9748  0.5691
 3892SOL    HW223310   4.300   3.875   1.772 -3.0940  0.0191  0.1961
 3893SOL     OW23311   4.556   0.261  15.684 -0.4727 -0.2506  0.0905
 3893SOL    HW123312   4.588   0.218  15.763 -0.7757  0.9238  0.8584
 3893SOL    HW223313   4.596   0.348  15.690  0.5683 -0.6467 -1.1924
 3894SOL     OW23314   3.911   0.049  11.747  0.3780 -0.2378  0.8156
 3894SOL    HW123315   4.000   0.018  11.733  0.4486 -0.6982  2.3005
 3894SOL    HW223316   3.879   4.732  11.822  3.9258 -5.0340 -0.9384
 3895SOL     OW23317   3.182   3.102   5.494  0.9560 -0.0304  0.1035
 3895SOL    HW123318   3.240   3.033   5.525  1.0559  0.5118  1.0922
 3895SOL    HW223319   3.175   3.082   5.400 -0.6784 -1.3640  0.5000
 3896SOL     OW23320   2.869   1.956  16.383 -0.0202 -0.7455 -0.4074
 3896SOL    HW123321   2.896   1.905  16.306  0.0714  0.4680 -1.1666
 3896SOL    HW223322   2.863   2.042  16.342  0.1325 -2.1125 -3.3288
 3897SOL     OW23323   3.677   0.330   3.793  0.0046  0.6813  0.0669
 3897SOL    HW123324   3.731   0.399   3.753 -0.9506  1.8354  0.7759
 3897SOL    HW223325   3.599   0.352   3.742  0.2290  2.2086  0.3709
 3898SOL     OW23326   4.352   3.327   3.813  0.4344  1.0302 -0.1754
 3898SOL    HW123327   4.270   3.291   3.849  0.4274  2.1260  0.9013
 3898SOL    HW223328   4.416   3.286   3.871  0.0036 -0.2325 -0.6114
 3899SOL     OW23329   3.418   2.793   6.325 -0.0610  1.4310  0.5393
 3899SOL    HW123330   3.344   2.819   6.270 -2.3582 -2.4887  1.7883
 3899SOL    HW223331   3.385   2.712   6.364  1.4482 -0.0154 -1.1781
 3900SOL     OW23332   3.758   1.200   3.399  0.1655  0.0088  0.8355
 3900SOL    HW123333   3.680   1.160   3.362 -0.2866  2.1641 -0.4838
 3900SOL    HW223334   3.782   1.131   3.462  1.4845 -1.1099 -0.8834
 3901SOL     OW23335   3.511   3.615   7.342 -0.2159  0.2113 -0.5156
 3901SOL    HW123336   3.442   3.647   7.399  2.0367  1.4802  1.4707
 3901SOL    HW223337   3.591   3.648   7.384  1.9429 -3.7258 -1.4956
 3902SOL     OW23338   3.163   0.703   2.364 -0.1843 -0.0353  0.1004
 3902SOL    HW123339   3.197   0.691   2.453  1.1543 -3.2317 -0.8571
 3902SOL    HW223340   3.233   0.668   2.309  1.8369  0.8540  2.0807
 3903SOL     OW23341   2.504   0.951   3.326 -0.1935 -0.4387 -0.1571
 3903SOL    HW123342   2.487   0.857   3.320 -2.7956 -0.0223  0.5068
 3903SOL    HW223343   2.567   0.950   3.398  1.5788  0.4813 -1.7146
 3904SOL     OW23344   1.926   0.485   7.499  0.1523  0.0738  0.0652
 3904SOL    HW123345   1.948   0.577   7.485 -0.1787  0.2572  0.7801
 3904SOL    HW223346   1.868   0.478   7.423  0.0560 -0.2763  0.1729
 3905SOL     OW23347   0.524   3.344   2.678  0.0853  0.0815  0.3496
 3905SOL    HW123348   0.561   3.431   2.666 -1.2688  0.5841 -0.1097
 3905SOL    HW223349   0.533   3.322   2.771 -0.0973 -2.0367 -0.1171
 3906SOL     OW23350   1.496   3.905   8.768 -0.0460  0.8570 -0.0634
 3906SOL    HW123351   1.433   3.916   8.696  2.1643 -0.9520 -2.2935
 3906SOL    HW223352   1.477   3.975   8.830  0.0567  0.1659  0.7486
 3907SOL     OW23353   2.295   2.495   9.952 -0.0337  0.2019  0.0202
 3907SOL    HW123354   2.213   2.488  10.000 -0.4357  0.7578 -0.5818
 3907SOL    HW223355   2.298   2.590   9.939  1.8355  0.1791  0.2273
 3908SOL     OW23356   0.123   3.617   4.581 -0.0283 -0.0746 -0.3661
 3908SOL    HW123357   0.131   3.663   4.664  2.2048  0.1714 -0.7071
 3908SOL    HW223358   0.109   3.694   4.526 -1.6232  0.1611  0.3790
 3909SOL     OW23359   4.205   1.971  10.257  0.1199 -0.6551  0.4523
 3909SOL    HW123360   4.215   2.063  10.281  4.0477 -0.0936 -3.3016
 3909SOL    HW223361   4.168   1.981  10.169 -1.3165 -0.7567  1.0434
 3910SOL     OW23362   0.774   2.963   9.303  0.2169 -0.4069  0.2030
 3910SOL    HW123363   0.864   2.930   9.306  0.3829 -0.0884 -1.1454
 3910SOL    HW223364   0.778   2.995   9.393  0.8527  0.1320 -0.0057
 3911SOL     OW23365   4.305   2.556   2.500  0.0150  0.1369  0.0205
 3911SOL    HW123366   4.386   2.600   2.474  0.6799 -1.1669 -0.1338
 3911SOL    HW223367   4.270   2.620   2.561 -0.1274  0.8201 -0.7777
 3912SOL     OW23368   1.939   0.193   8.768  0.2808  0.4672  0.3254
 3912SOL    HW123369   1.925   0.282   8.801 -0.4622  1.0388 -1.5306
 3912SOL    HW223370   1.952   0.216   8.676  0.1757 -0.9578 -0.0354
 3913SOL     OW23371   1.290   2.987   5.898 -0.2496 -0.3173 -0.2628
 3913SOL    HW123372   1.360   2.932   5.934  0.8567  1.9880  1.1132
 3913SOL    HW223373   1.218   2.925   5.907  1.5881 -2.2708  1.1771
 3914SOL     OW23374   3.506   0.497  14.597  0.1232  0.2915  0.0890
 3914SOL    HW123375   3.413   0.510  14.614  0.5454  1.0687  1.8449
 3914SOL    HW223376   3.539   0.551  14.669 -1.1554  0.1259  0.7921
 3915SOL     OW23377   1.705   0.671   4.939  0.6883  0.1168  0.0084
 3915SOL    HW123378   1.733   0.724   5.013  1.6702  0.9575 -0.9640
 3915SOL    HW223379   1.632   0.728   4.915 -0.2239 -0.9199  0.2984
 3916SOL     OW23380   1.365   4.377  12.029 -0.0006 -0.1622 -0.1072
 3916SOL    HW123381   1.446   4.389  11.979 -0.9159  2.1918 -1.0154
 3916SOL    HW223382   1.301   4.387  11.959  1.9862 -0.2346 -1.9082
 3917SOL     OW23383   4.530   2.080   5.349  0.0742  0.2314 -0.3299
 3917SOL    HW123384   4.468   2.152   5.342 -2.2873 -1.9192 -1.8521
 3917SOL    HW223385   4.564   2.063   5.261  1.3930  2.0403 -0.1562
 3918SOL     OW23386   2.899   2.287   9.106  0.4823  0.9238  0.9897
 3918SOL    HW123387   2.985   2.302   9.146  0.9779  0.3658  0.1247
 3918SOL    HW223388   2.870   2.376   9.086  1.1215  0.3056 -2.6489
 3919SOL     OW23389   3.825   3.827   4.365  0.7388 -0.7092 -0.0364
 3919SOL    HW123390   3.908   3.788   4.339  0.9729  0.5942 -1.2289
 3919SOL    HW223391   3.801   3.762   4.432 -0.8006 -0.6417 -0.5159
 3920SOL     OW23392   4.454   2.866   8.503  0.4158  0.1830  0.2230
 3920SOL    HW123393   4.386   2.847   8.439  0.0609 -1.0686  0.9670
 3920SOL    HW223394   4.413   2.939   8.551 -0.5567 -1.3524  1.7297
 3921SOL     OW23395   2.568   1.888  16.176  0.3155  0.1600 -0.5962
 3921SOL    HW123396   2.631   1.844  16.233  0.5944  2.3781  0.8207
 3921SOL    HW223397   2.598   1.978  16.190  0.9079 -0.0726 -0.3603
 3922SOL     OW23398   0.984   0.209   4.709 -0.2649  0.3123  0.0917
 3922SOL    HW123399   1.022   0.190   4.624 -0.7807  1.9103 -0.4872
 3922SOL    HW223400   1.043   0.175   4.776 -1.7917 -0.2208  1.1853
 3923SOL     OW23401   1.928   0.366   4.049  0.3456 -0.6709  0.0359
 3923SOL    HW123402   1.905   0.392   3.960  1.0660  0.2830  0.1292
 3923SOL    HW223403   1.863   0.296   4.062  0.6045 -1.2252 -1.6498
 3924SOL     OW23404   2.650   0.260   2.076  0.2248  0.9181 -0.2131
 3924SOL    HW123405   2.586   0.190   2.086  1.9624 -0.3104  2.3654
 3924SOL    HW223406   2.730   0.217   2.108  0.3521  0.9219 -0.5247
 3925SOL     OW23407   2.186   3.881   2.970 -0.4019  0.4888 -0.6554
 3925SOL    HW123408   2.207   3.788   2.978 -0.8651  0.5224  0.8517
 3925SOL    HW223409   2.091   3.872   2.960 -0.2039 -0.5588 -1.6272
 3926SOL     OW23410   1.462   0.071   6.168  0.3320 -0.3355  0.3862
 3926SOL    HW123411   1.406   0.134   6.122 -1.5116 -1.6834  0.7810
 3926SOL    HW223412   1.414   4.724   6.183  0.1185 -0.2047  0.4152
 3927SOL     OW23413   0.837   3.550   6.438 -0.1786  0.8064  0.5830
 3927SOL    HW123414   0.804   3.462   6.456 -0.5122  0.4214 -1.8682
 3927SOL    HW223415   0.855   3.541   6.344 -0.6821  0.8279  0.4840
 3928SOL     OW23416   0.793   0.052   3.156  0.3375 -0.0044 -0.7130
 3928SOL    HW123417   0.780   0.147   3.159  0.4099 -0.0826  1.5727
 3928SOL    HW223418   0.878   0.034   3.116  1.3029  1.0801  0.8435
 3929SOL     OW23419   1.187   4.369   1.911 -0.4293 -0.2637  0.6235
 3929SOL    HW123420   1.280   4.346   1.909 -0.4899 -0.1998 -2.6236
 3929SOL    HW223421   1.164   4.340   2.000  2.1920  0.8061  1.6402
 3930SOL     OW23422   1.357   2.523   6.523 -0.2296  0.4586  0.7558
 3930SOL    HW123423   1.275   2.571   6.510 -1.1114 -1.0017  0.9394
 3930SOL    HW223424   1.345   2.462   6.595  0.2427 -0.5666 -0.0347
 3931SOL     OW23425   4.684   0.408   3.464  0.6522 -0.0968  0.0449
 3931SOL    HW123426   4.590   0.419   3.479  1.0246  2.5779  0.5325
 3931SOL    HW223427   4.696   0.316   3.440 -0.4796  0.4933 -2.7380
 3932SOL     OW23428   3.208   1.183   8.039 -0.0239 -0.6103  0.5208
 3932SOL    HW123429   3.271   1.248   8.009 -0.3777 -0.9496 -0.9773
 3932SOL    HW223430   3.131   1.228   8.006  0.3775  0.2549  0.7722
 3933SOL     OW23431   2.381   1.998   8.383  0.2665 -0.2442  0.0196
 3933SOL    HW123432   2.469   2.032   8.402  0.3249 -2.1673  3.2184
 3933SOL    HW223433   2.329   2.069   8.420  1.0825  0.5700 -0.3967
 3934SOL     OW23434   2.716   0.175   0.232  0.1848  0.2203  0.5157
 3934SOL    HW123435   2.662   0.216   0.164  1.9720  1.5512 -0.0847
 3934SOL    HW223436   2.711   0.239   0.303  0.5420  0.2312  0.5274
 3935SOL     OW23437   0.234   2.216   3.778 -0.4524 -0.3371 -0.3053
 3935SOL    HW123438   0.235   2.264   3.861  1.3072  1.6798 -1.4781
 3935SOL    HW223439   0.290   2.278   3.730  0.7473 -1.0309  0.2079
 3936SOL     OW23440   2.658   4.122   3.674  0.1476  0.2855  0.0650
 3936SOL    HW123441   2.718   4.197   3.671  1.1706 -0.4680  1.7691
 3936SOL    HW223442   2.716   4.049   3.657  1.0401  1.1614 -0.6550
 3937SOL     OW23443   0.147   1.041  16.802  0.3177 -0.1773  0.4581
 3937SOL    HW123444   0.169   1.025  16.894 -2.1381 -1.0878  0.8991
 3937SOL    HW223445   0.052   1.042  16.814  0.1039  1.1892 -1.5013
 3938SOL     OW23446   1.571   3.863   6.442 -0.1999  0.0741  0.6383
 3938SOL    HW123447   1.572   3.885   6.535  0.1401 -2.9301  1.3509
 3938SOL    HW223448   1.551   3.948   6.404  0.2847  0.7380  1.8753
 3939SOL     OW23449   4.244   4.075  16.824  0.2688 -0.0087  0.2244
 3939SOL    HW123450   4.279   4.093  16.737  1.1642  1.6716  0.9289
 3939SOL    HW223451   4.149   4.079  16.810  0.3814  3.7342  0.6155
 3940SOL     OW23452   2.410   4.094   3.770  0.1972  0.4009  0.0541
 3940SOL    HW123453   2.499   4.116   3.744 -0.3787  2.2875 -0.3349
 3940SOL    HW223454   2.406   4.139   3.854  3.3483 -2.2814  1.6495
 3941SOL     OW23455   2.330   1.856  15.761 -0.0213  0.2398 -0.2407
 3941SOL    HW123456   2.374   1.816  15.686  1.5565 -0.3801  1.0090
 3941SOL    HW223457   2.324   1.787  15.828  1.0166  0.5620  0.1765
 3942SOL     OW23458   3.238   4.460   7.388  0.1033 -0.3062 -0.4348
 3942SOL    HW123459   3.201   4.540   7.351 -2.2366 -0.7632  0.9694
 3942SOL    HW223460   3.292   4.424   7.318 -0.9840 -2.5675 -0.1204
 3943SOL     OW23461   3.939   3.166  11.324 -0.5166  0.4500 -0.2217
 3943SOL    HW123462   3.885   3.090  11.345 -0.2350  0.6635  1.2643
 3943SOL    HW223463   3.963   3.189  11.413 -1.3796 -0.3275  0.2062
 3944SOL     OW23464   1.598   2.055   4.270  0.2762  0.4661  0.2272
 3944SOL    HW123465   1.610   1.969   4.310  2.2524  0.8763  0.4751
 3944SOL    HW223466   1.524   2.035   4.212  1.8719  0.9385 -1.9613
 3945SOL     OW23467   3.060   0.008   3.751  0.1693  0.1014  0.1629
 3945SOL    HW123468   3.145   0.049   3.767  2.7370 -4.0734 -2.8267
 3945SOL    HW223469   3.008   0.046   3.822  0.0003 -0.5607  0.3936
 3946SOL     OW23470   4.012   3.163   1.669  0.2242 -0.0329  0.1435
 3946SOL    HW123471   4.107   3.150   1.675  0.5895  2.4617 -0.3860
 3946SOL    HW223472   4.013   3.228   1.599  1.2046 -0.5643 -0.3360
 3947SOL     OW23473   1.872   1.334   0.460  0.0201  0.6596  0.0421
 3947SOL    HW123474   1.908   1.419   0.435 -0.5395  0.9059  0.0725
 3947SOL    HW223475   1.951   1.283   0.479 -1.0932 -1.7918 -1.7677
 3948SOL     OW23476   0.729   1.796   6.533  0.4087 -0.3432 -0.0320
 3948SOL    HW123477   0.733   1.888   6.506  0.0885 -0.9774 -2.1827
 3948SOL    HW223478   0.766   1.801   6.621 -1.4002 -0.6702  0.7539
 3949SOL     OW23479   3.793   3.122   7.628  0.2196 -0.4883 -0.0799
 3949SOL    HW123480   3.777   3.170   7.547 -2.0823 -0.5962  0.3177
 3949SOL    HW223481   3.819   3.190   7.691  2.7449 -0.4191 -1.1926
 3950SOL     OW23482   4.320   4.288   3.034  0.1369 -0.1689 -0.1009
 3950SOL    HW123483   4.370   4.363   3.069  1.2526 -0.9349 -0.0542
 3950SOL    HW223484   4.236   4.295   3.080 -0.7578 -0.9197 -1.6312
 3951SOL     OW23485   0.890   2.686   3.221  0.4262 -0.1729 -0.6568
 3951SOL    HW123486   0.850   2.706   3.137 -2.3807  0.9729  0.9236
 3951SOL    HW223487   0.835   2.622   3.266 -1.6523  0.6836 -2.0204
 3952SOL     OW23488   0.657   0.211   4.626 -0.6436  0.3325 -0.1119
 3952SOL    HW123489   0.719   0.208   4.553 -1.5694  2.6195 -0.9743
 3952SOL    HW223490   0.630   0.119   4.635  2.2364 -0.2315  3.0197
 3953SOL     OW23491   2.041   1.097   7.017  0.1799  0.0044  0.0414
 3953SOL    HW123492   2.060   1.079   6.925  2.4789  1.8377  0.1816
 3953SOL    HW223493   2.127   1.077   7.053 -0.9896  0.9351  3.3314
 3954SOL     OW23494   3.735   3.725   7.405 -0.5565 -0.1237  1.0714
 3954SOL    HW123495   3.782   3.801   7.370  0.3765 -1.3179 -0.2294
 3954SOL    HW223496   3.800   3.685   7.463  0.1170 -2.4284 -1.2483
 3955SOL     OW23497   4.473   1.689   4.384  0.2871 -0.3253 -0.8717
 3955SOL    HW123498   4.467   1.689   4.289  0.9602  1.8521 -0.9135
 3955SOL    HW223499   4.567   1.678   4.400  0.2530  0.3599 -0.1685
 3956SOL     OW23500   0.254   2.262   8.820 -0.0296  0.6123 -0.0760
 3956SOL    HW123501   0.197   2.207   8.766 -0.7411  0.1596  1.1481
 3956SOL    HW223502   0.205   2.341   8.795 -1.0098  0.1598  0.4058
 3957SOL     OW23503   1.730   3.021   1.084  0.1439 -0.4806 -0.2527
 3957SOL    HW123504   1.800   3.072   1.124 -1.2152 -0.7871  2.5280
 3957SOL    HW223505   1.660   3.076   1.120 -0.6450 -1.7303  0.1209
 3958SOL     OW23506   1.869   0.518   3.753  0.1221  0.0921  0.3243
 3958SOL    HW123507   1.950   0.564   3.775  1.1109 -1.1288 -0.8366
 3958SOL    HW223508   1.810   0.594   3.747 -1.2516 -1.1315 -1.6171
 3959SOL     OW23509   4.041   1.424   1.503  0.0939  0.5430  0.5083
 3959SOL    HW123510   4.078   1.512   1.506 -1.8130  1.4018 -0.6638
 3959SOL    HW223511   4.051   1.395   1.594  0.1431  0.9429  0.6301
 3960SOL     OW23512   3.481   3.786   6.834 -0.0354  0.8275  0.5785
 3960SOL    HW123513   3.437   3.864   6.801 -1.4623  0.7674  2.3170
 3960SOL    HW223514   3.440   3.709   6.793 -0.8162  2.7730 -2.3241
 3961SOL     OW23515   2.107   1.630   0.629  0.4964 -0.3853  0.2692
 3961SOL    HW123516   2.172   1.684   0.586 -1.6335  0.2880 -2.0890
 3961SOL    HW223517   2.075   1.682   0.703  0.8012  0.9620 -0.5511
 3962SOL     OW23518   0.997   0.775   9.089 -0.0501 -0.0370 -0.0181
 3962SOL    HW123519   0.932   0.796   9.021 -0.3633 -1.7839 -0.2622
 3962SOL    HW223520   1.080   0.807   9.054 -1.1428  0.9978 -1.6914
 3963SOL     OW23521   4.503   1.390   3.595  0.2354  0.3515  0.3549
 3963SOL    HW123522   4.532   1.386   3.686 -0.1377 -2.7397  0.3426
 3963SOL    HW223523   4.450   1.470   3.593 -0.1792  0.0828  0.8153
 3964SOL     OW23524   2.757   0.645  14.430  0.2948 -0.0713 -0.2490
 3964SOL    HW123525   2.730   0.705  14.500  1.4096 -0.9148  0.8982
 3964SOL    HW223526   2.820   0.594  14.481  3.1553  2.0902 -1.5762
 3965SOL     OW23527   0.892   3.021   4.612  0.2796 -0.5542  0.2508
 3965SOL    HW123528   0.846   3.094   4.654  1.8732 -0.5133  1.9075
 3965SOL    HW223529   0.878   2.955   4.680  1.8891 -2.1673 -1.0075
 3966SOL     OW23530   2.616   0.516   1.400  0.0683  0.0370  0.2378
 3966SOL    HW123531   2.632   0.422   1.398 -1.7044 -0.2297 -0.6441
 3966SOL    HW223532   2.702   0.558   1.394 -0.9173  2.2666  1.7422
 3967SOL     OW23533   3.942   2.838   4.385  0.3359  0.1468  0.5877
 3967SOL    HW123534   3.996   2.917   4.382  1.4810 -0.5676  2.0857
 3967SOL    HW223535   3.933   2.825   4.291 -0.1164 -0.2150  0.6816
 3968SOL     OW23536   1.445   2.108   8.317 -0.3105 -0.0699  0.2655
 3968SOL    HW123537   1.460   2.190   8.364 -0.5630  0.9215 -1.3597
 3968SOL    HW223538   1.530   2.067   8.299 -0.9591 -1.5727  0.7030
 3969SOL     OW23539   1.157   1.824  16.869  0.2030  0.2358 -0.3532
 3969SOL    HW123540   1.186   1.881  16.798  1.1915  0.7597  0.4797
 3969SOL    HW223541   1.240   1.794  16.904 -0.2406 -1.5966 -0.9107
 3970SOL     OW23542   1.042   1.335   5.211  0.8790  0.4742 -0.4715
 3970SOL    HW123543   1.095   1.323   5.132  1.5273  1.2361 -0.1604
 3970SOL    HW223544   1.104   1.300   5.275 -0.5738  2.3506  1.9773
 3971SOL     OW23545   2.647   3.675   8.029  0.2689 -0.3892  0.0225
 3971SOL    HW123546   2.631   3.620   8.106  1.6014  0.9185  1.2354
 3971SOL    HW223547   2.740   3.690   8.045  0.5311 -0.7998 -1.0973
 3972SOL     OW23548   3.166   4.341   8.122  0.1721 -0.5708  0.2748
 3972SOL    HW123549   3.175   4.264   8.066 -4.2823 -1.2742  0.5202
 3972SOL    HW223550   3.240   4.399   8.105 -3.0775  3.0433 -1.5487
 3973SOL     OW23551   1.220   0.809   3.406 -0.3673  0.1253  0.1232
 3973SOL    HW123552   1.262   0.892   3.430 -0.8067  0.6392 -0.8699
 3973SOL    HW223553   1.274   0.780   3.333 -1.8401 -2.3940  0.0282
 3974SOL     OW23554   0.596   2.706   9.197 -0.1371 -0.5936  0.7699
 3974SOL    HW123555   0.690   2.721   9.206 -0.3621  0.3923  1.5066
 3974SOL    HW223556   0.573   2.714   9.105 -2.6560  1.1776  1.5499
 3975SOL     OW23557   0.776   0.630   7.513 -0.5969 -0.1369 -0.1260
 3975SOL    HW123558   0.865   0.633   7.478 -1.1833 -2.0369 -1.8150
 3975SOL    HW223559   0.741   0.704   7.465  1.0545  0.3188 -0.6080
 3976SOL     OW23560   0.409   3.098   0.077 -0.8742 -0.0627 -0.0750
 3976SOL    HW123561   0.468   3.075   0.149  3.0187 -0.6002 -3.4463
 3976SOL    HW223562   0.390   3.191   0.067  2.0969  0.5742  0.1940
 3977SOL     OW23563   0.020   3.434   3.449 -0.0717  0.3539  0.1043
 3977SOL    HW123564   0.084   3.461   3.514 -0.5396  0.3733  0.5591
 3977SOL    HW223565   4.710   3.357   3.485  2.0582 -0.9413 -0.0514
 3978SOL     OW23566   2.917   2.719   3.885  0.0570  0.5103 -0.1086
 3978SOL    HW123567   2.892   2.628   3.872 -0.1321  0.2527  2.0339
 3978SOL    HW223568   2.860   2.766   3.824  0.5119 -1.7475 -2.2690
 3979SOL     OW23569   3.161   3.700   6.873 -0.4798  0.7277 -0.0668
 3979SOL    HW123570   3.189   3.624   6.924  0.5831  0.2048 -1.4328
 3979SOL    HW223571   3.245   3.742   6.859 -0.7911  1.1345 -0.7152
 3980SOL     OW23572   3.495   4.635   4.205  0.3797 -0.3960 -0.2267
 3980SOL    HW123573   3.535   4.664   4.286 -0.7453  1.1380 -0.2297
 3980SOL    HW223574   3.558   4.649   4.135 -0.1215  1.6316 -0.2508
 3981SOL     OW23575   1.515   4.203   9.265 -0.0711  0.6219 -0.3188
 3981SOL    HW123576   1.507   4.153   9.347 -0.7953  0.0983 -0.7019
 3981SOL    HW223577   1.539   4.139   9.199 -0.5815 -0.1213  0.2108
 3982SOL     OW23578   3.202   1.538   6.305 -0.1640 -0.3463  0.0424
 3982SOL    HW123579   3.187   1.444   6.318 -0.1759 -0.3707 -0.1444
 3982SOL    HW223580   3.198   1.573   6.394  1.2788  1.9057 -0.7798
 3983SOL     OW23581   1.783   3.098   7.624 -0.8774  0.2854 -0.7955
 3983SOL    HW123582   1.841   3.124   7.695 -1.2085 -1.5475  0.1424
 3983SOL    HW223583   1.781   3.002   7.630 -1.3060  0.2336 -1.7874
 3984SOL     OW23584   1.132   2.572   8.913 -0.7209  0.2705 -0.0214
 3984SOL    HW123585   1.190   2.596   8.985  1.6923 -1.3733 -1.3942
 3984SOL    HW223586   1.080   2.505   8.955 -0.3095 -0.2756 -0.3778
 3985SOL     OW23587   2.932   3.178   4.508 -0.1722  0.2661 -0.1633
 3985SOL    HW123588   2.975   3.243   4.563 -2.3305  0.1935  1.6122
 3985SOL    HW223589   3.007   3.135   4.466  0.3101  0.1051  0.8579
 3986SOL     OW23590   0.152   0.901  10.210 -0.3517 -0.1150 -0.2056
 3986SOL    HW123591   0.149   0.915  10.305 -0.3594  0.3637 -0.2741
 3986SOL    HW223592   0.207   0.823  10.203 -1.3818 -0.7296 -1.3482
 3987SOL     OW23593   2.762   1.868   6.497  0.0340 -0.2247  0.5903
 3987SOL    HW123594   2.791   1.938   6.438 -3.4954 -0.0133 -0.8665
 3987SOL    HW223595   2.671   1.855   6.472  0.2819  2.2963 -1.7118
 3988SOL     OW23596   3.928   0.306  14.488 -0.2897 -0.5096 -0.0315
 3988SOL    HW123597   3.901   0.249  14.561 -2.2910 -1.4915 -1.5304
 3988SOL    HW223598   3.973   0.372  14.541 -0.2678 -0.6013  0.0651
 3989SOL     OW23599   2.820   1.058  11.201 -0.0568 -0.4264 -0.5167
 3989SOL    HW123600   2.882   1.112  11.152 -1.8844  0.5312 -1.8055
 3989SOL    HW223601   2.816   1.102  11.286  0.2499 -2.6409  0.6425
 3990SOL     OW23602   3.575   1.544  12.146  0.2873 -0.0090  0.6192
 3990SOL    HW123603   3.480   1.544  12.138  0.5070  1.1217 -1.9375
 3990SOL    HW223604   3.602   1.596  12.071 -0.1220  0.2861  0.6798
 3991SOL     OW23605   2.574   2.219  12.083 -0.1916  0.3023 -0.4196
 3991SOL    HW123606   2.540   2.308  12.073  0.0696  0.5297  0.7983
 3991SOL    HW223607   2.624   2.219  12.164  1.9830 -1.2969 -1.7440
 3992SOL     OW23608   3.300   0.939   1.292  0.3607 -0.1093 -0.2144
 3992SOL    HW123609   3.369   0.875   1.307 -1.3947 -2.4307 -2.1264
 3992SOL    HW223610   3.226   0.881   1.278  0.4541  0.0568 -1.3952
 3993SOL     OW23611   1.272   0.117   1.979 -0.5332 -0.3855 -0.5543
 3993SOL    HW123612   1.318   0.194   1.944 -0.9822  0.9974  1.8869
 3993SOL    HW223613   1.199   0.162   2.022  0.0907  0.3827 -0.3041
 3994SOL     OW23614   0.191   3.373   2.723 -0.1831  0.3183 -0.4646
 3994SOL    HW123615   0.208   3.377   2.817 -1.4873  1.3986 -0.2682
 3994SOL    HW223616   0.186   3.466   2.700 -0.1369 -0.3303 -3.0917
 3995SOL     OW23617   1.662   2.030   4.638  0.1597  0.4602 -0.0076
 3995SOL    HW123618   1.677   2.008   4.730 -0.0357 -2.5689 -0.6883
 3995SOL    HW223619   1.747   2.008   4.599 -1.1869 -0.5695 -2.3908
 3996SOL     OW23620   3.242   4.151   2.706 -0.1705 -0.6590  0.0616
 3996SOL    HW123621   3.285   4.066   2.705  0.9145 -0.1451  2.9453
 3996SOL    HW223622   3.148   4.139   2.720 -0.2735 -1.2980 -1.1913
 3997SOL     OW23623   3.696   1.693   4.929 -0.0664 -0.3812  0.1299
 3997SOL    HW123624   3.718   1.775   4.885  1.7312 -0.5623  0.6904
 3997SOL    HW223625   3.695   1.634   4.853  4.2507  0.8116 -0.8570
 3998SOL     OW23626   0.005   2.786   6.149 -0.7844  0.6056  0.5824
 3998SOL    HW123627   4.685   2.778   6.228  0.2242  2.4377  1.4452
 3998SOL    HW223628   0.034   2.697   6.129 -0.2640  1.0665 -0.7388
 3999SOL     OW23629   1.712   2.456   7.529  0.3041 -0.0238 -0.6648
 3999SOL    HW123630   1.743   2.483   7.443  0.5251 -1.3023 -0.9873
 3999SOL    HW223631   1.681   2.368   7.507  2.1288 -0.6806 -0.5568
 4000SOL     OW23632   4.169   2.412   5.247 -0.1476 -0.1876 -0.3018
 4000SOL    HW123633   4.146   2.481   5.309 -2.2639  0.4169 -1.7314
 4000SOL    HW223634   4.109   2.418   5.173 -1.4647 -2.9582  0.4976
 4001SOL     OW23635   4.371   2.617   4.967 -0.8775  0.2677  0.0053
 4001SOL    HW123636   4.419   2.534   4.961 -1.1473  0.3803 -3.6399
 4001SOL    HW223637   4.394   2.623   5.060  0.6515  2.4746 -0.5138
 4002SOL     OW23638   4.552   4.266   2.597  0.0338  0.1239  0.3935
 4002SOL    HW123639   4.460   4.274   2.623  0.9097  0.2207  3.4694
 4002SOL    HW223640   4.561   4.298   2.508  3.1649  0.7801  0.9584
 4003SOL     OW23641   3.071   1.861  14.492 -0.3062 -0.3615 -0.0461
 4003SOL    HW123642   2.979   1.838  14.490 -0.5817  0.7858 -0.8948
 4003SOL    HW223643   3.068   1.956  14.479 -0.1233 -0.3769 -0.2031
 4004SOL     OW23644   3.649   1.347  12.924  0.5795  0.0110 -0.1349
 4004SOL    HW123645   3.566   1.375  12.885  0.0129 -0.6347  0.6078
 4004SOL    HW223646   3.672   1.290  12.851 -0.6554 -4.4136  2.9053
 4005SOL     OW23647   0.222   1.961   3.071 -0.0594 -0.2107 -0.6231
 4005SOL    HW123648   0.159   1.966   3.143  0.3758  0.0584 -0.2711
 4005SOL    HW223649   0.220   1.872   3.036 -2.5549  0.8597 -3.2504
 4006SOL     OW23650   0.252   1.246  16.417  0.1551 -0.4320  0.3117
 4006SOL    HW123651   0.280   1.212  16.502 -0.1262  0.5960  0.8215
 4006SOL    HW223652   0.311   1.316  16.388 -0.0187 -0.2565  0.3787
 4007SOL     OW23653   3.421   3.294   5.587  0.2643 -0.2278  0.6910
 4007SOL    HW123654   3.472   3.222   5.551 -2.7337 -1.3721 -1.1948
 4007SOL    HW223655   3.333   3.259   5.597  1.5349 -3.1907  1.4469
 4008SOL     OW23656   1.739   3.817   4.220 -0.6666 -0.1873  0.4615
 4008SOL    HW123657   1.820   3.801   4.171 -0.1552 -0.2644  1.3305
 4008SOL    HW223658   1.773   3.802   4.308 -2.7131 -0.4346  1.2042
 4009SOL     OW23659   3.805   1.001   3.647 -0.1831  0.2009  0.0063
 4009SOL    HW123660   3.807   0.908   3.622 -1.1061 -0.0748  0.9560
 4009SOL    HW223661   3.879   1.010   3.706  0.2330 -1.2522 -0.2905
 4010SOL     OW23662   2.682   3.276   4.795  0.2921 -0.4298  0.1523
 4010SOL    HW123663   2.588   3.267   4.807  0.6192 -2.2601  1.3939
 4010SOL    HW223664   2.689   3.283   4.699  1.2186 -2.0106  0.1065
 4011SOL     OW23665   3.939   3.565   9.151 -0.0617  0.5874 -0.3092
 4011SOL    HW123666   4.011   3.546   9.091 -1.1572 -3.7203 -0.2922
 4011SOL    HW223667   3.875   3.499   9.123  0.2088 -0.8640  2.5379
 4012SOL     OW23668   4.501   0.332   1.711 -0.3680  0.4114 -0.0586
 4012SOL    HW123669   4.430   0.310   1.771  0.6628 -0.8594  0.6807
 4012SOL    HW223670   4.436   0.372   1.653 -1.5573 -0.3880  0.7136
 4013SOL     OW23671   1.509   0.577   6.135 -0.1720  0.1738  0.4298
 4013SOL    HW123672   1.540   0.629   6.209  0.1265  1.0126 -0.2873
 4013SOL    HW223673   1.580   0.513   6.132  0.9780  1.4146  1.4763
 4014SOL     OW23674   1.296   2.511   3.485  0.2531  0.3900  0.2692
 4014SOL    HW123675   1.287   2.449   3.413  1.4181  1.9078 -1.1813
 4014SOL    HW223676   1.388   2.512   3.511  0.4677  0.1167 -0.4692
 4015SOL     OW23677   0.122   3.838  12.057  0.2100  0.7198  0.6976
 4015SOL    HW123678   0.172   3.915  12.031 -0.5622  0.2108 -2.2046
 4015SOL    HW223679   0.182   3.791  12.115  0.5477  0.1560 -0.1235
 4016SOL     OW23680   1.589   0.348   6.662 -0.3494 -0.1077  0.1242
 4016SOL    HW123681   1.593   0.362   6.568 -0.5361 -0.3406  0.0803
 4016SOL    HW223682   1.507   0.298   6.658 -1.5412  1.8968 -0.8329
 4017SOL     OW23683   4.670   4.077   1.330 -0.4044 -0.0428 -0.0228
 4017SOL    HW123684   4.643   3.996   1.286 -3.1102  3.0880 -4.1300
 4017SOL    HW223685   4.590   4.127   1.314  1.1257  2.8680  1.4025
 4018SOL     OW23686   3.246   2.695   4.312  0.5008 -0.4001 -0.0825
 4018SOL    HW123687   3.278   2.637   4.242 -0.2658  2.7928 -3.1123
 4018SOL    HW223688   3.160   2.657   4.328  0.8774 -1.0808  0.3171
 4019SOL     OW23689   2.126   0.400   9.877 -0.0964 -0.5459  0.4993
 4019SOL    HW123690   2.099   0.337   9.943 -1.7057  1.3391  1.6094
 4019SOL    HW223691   2.178   0.349   9.814 -0.8487  0.1040 -0.6420
 4020SOL     OW23692   1.604   3.559   8.592 -0.1331  0.0677  0.1307
 4020SOL    HW123693   1.644   3.533   8.675 -1.8944 -0.8745  0.6885
 4020SOL    HW223694   1.562   3.641   8.618  0.3615  0.5491 -0.6006
 4021SOL     OW23695   3.343   1.773   4.461  0.2740  0.7037 -0.2375
 4021SOL    HW123696   3.279   1.801   4.525  1.6031 -1.2028  1.9355
 4021SOL    HW223697   3.358   1.861   4.426  0.0891  0.1958 -1.6107
 4022SOL     OW23698   3.622   1.277   6.529  0.4083  0.0950 -0.0898
 4022SOL    HW123699   3.692   1.340   6.515  2.0160 -1.8147 -0.6381
 4022SOL    HW223700   3.552   1.334   6.562  1.6731  1.3287  0.4888
 4023SOL     OW23701   0.475   2.877  10.017  0.1333  0.0580 -0.2645
 4023SOL    HW123702   0.483   2.927   9.936  0.1620  0.5235  0.0277
 4023SOL    HW223703   0.391   2.839   9.991 -0.2346 -0.0666  1.1286
 4024SOL     OW23704   2.715   3.051  10.617 -0.6070 -0.3576 -0.3517
 4024SOL    HW123705   2.711   3.044  10.521  0.9653  1.7770 -0.5734
 4024SOL    HW223706   2.730   3.144  10.634  0.4316 -0.9663  2.0604
 4025SOL     OW23707   0.789   0.361   6.984  0.1986  0.2455  0.1395
 4025SOL    HW123708   0.849   0.301   7.029 -2.2105 -3.1080 -1.1312
 4025SOL    HW223709   0.852   0.414   6.935  1.5182 -2.1056 -0.6974
 4026SOL     OW23710   0.729   1.394   4.529 -0.1501 -0.0937 -0.1766
 4026SOL    HW123711   0.780   1.385   4.449  2.1771  0.0558  1.2855
 4026SOL    HW223712   0.795   1.372   4.595  0.3486  1.7016 -0.0821
 4027SOL     OW23713   1.486   1.692   6.356  0.3764 -0.0293 -0.3676
 4027SOL    HW123714   1.466   1.605   6.389 -0.9608  0.7873  0.9703
 4027SOL    HW223715   1.578   1.706   6.375  0.3223  1.8631 -1.4800
 4028SOL     OW23716   3.716   4.677   8.011 -0.4701  0.0569  0.1001
 4028SOL    HW123717   3.671   4.619   7.949  0.4482 -0.7743  0.2073
 4028SOL    HW223718   3.773   4.730   7.955  0.1353  0.3464  0.9894
 4029SOL     OW23719   3.898   0.652  16.371  0.4287  0.0289  0.4451
 4029SOL    HW123720   3.813   0.664  16.327  0.6512 -2.2123 -0.5406
 4029SOL    HW223721   3.871   0.646  16.463 -0.9071 -1.0200 -0.0161
 4030SOL     OW23722   1.892   4.191  15.163 -0.3943  0.2326 -0.2152
 4030SOL    HW123723   1.926   4.267  15.210 -1.5433 -0.3845  1.6030
 4030SOL    HW223724   1.905   4.218  15.072 -1.4915  0.5066 -0.2990
 4031SOL     OW23725   1.870   0.632   6.086  0.4675 -0.1271  0.2696
 4031SOL    HW123726   1.960   0.602   6.076  1.0446  1.0972  2.0434
 4031SOL    HW223727   1.843   0.590   6.167 -0.6165  0.8072  0.3814
 4032SOL     OW23728   2.873   1.608   3.053  0.5725  0.5128  0.7190
 4032SOL    HW123729   2.872   1.514   3.035  0.0128  0.7115 -0.2426
 4032SOL    HW223730   2.902   1.645   2.970  1.3046  1.6127  1.4705
 4033SOL     OW23731   1.225   4.284  16.910 -0.0138  0.2199  0.7882
 4033SOL    HW123732   1.312   4.272  16.871 -0.5975  1.7705 -0.9741
 4033SOL    HW223733   1.194   4.336  16.835 -0.8986  0.7221  1.5018
 4034SOL     OW23734   1.879   2.576  15.188  0.0257  0.4546 -0.4642
 4034SOL    HW123735   1.920   2.609  15.108  0.6770 -0.5750 -0.5553
 4034SOL    HW223736   1.802   2.534  15.150 -0.7408 -0.1303  1.7222
 4035SOL     OW23737   0.476   3.207   2.932  0.2920 -0.8699  0.6321
 4035SOL    HW123738   0.426   3.214   3.014 -1.1389  1.0466 -0.3994
 4035SOL    HW223739   0.569   3.200   2.950  0.6144  1.2528 -0.2522
 4036SOL     OW23740   1.117   0.354   2.391 -0.1065 -0.1623 -0.1167
 4036SOL    HW123741   1.154   0.292   2.454  0.7001 -1.7622 -2.1515
 4036SOL    HW223742   1.043   0.402   2.428  0.7926  0.2111  1.2099
 4037SOL     OW23743   3.795   0.768   3.318  0.1210  0.8572  0.6916
 4037SOL    HW123744   3.710   0.766   3.273  1.4708  1.0565 -1.8557
 4037SOL    HW223745   3.835   0.845   3.277  0.9234  1.7500  3.1113
 4038SOL     OW23746   0.012   3.856   8.382  0.7333 -0.1221  0.1159
 4038SOL    HW123747   4.729   3.873   8.475  0.6826  1.6634 -0.2234
 4038SOL    HW223748   0.065   3.778   8.397  1.5640  1.0672  3.3929
 4039SOL     OW23749   3.162   2.824   7.070 -0.3003  0.9167  0.2901
 4039SOL    HW123750   3.188   2.739   7.104 -1.7919 -0.7141 -2.7210
 4039SOL    HW223751   3.220   2.831   6.994 -1.8716 -0.9325 -1.0679
 4040SOL     OW23752   3.222   3.273   7.588 -0.7381  0.3594  0.0723
 4040SOL    HW123753   3.215   3.296   7.495  0.0859  1.7473  0.3671
 4040SOL    HW223754   3.261   3.186   7.598 -2.0161  0.1970  3.7398
 4041SOL     OW23755   2.505   2.651  16.277  0.4003  0.2310 -0.1734
 4041SOL    HW123756   2.466   2.625  16.361 -1.7683 -1.2219 -1.6258
 4041SOL    HW223757   2.521   2.560  16.250 -0.6147  0.3903 -1.3067
 4042SOL     OW23758   2.228   2.808  16.452  0.3373 -0.2497  1.1379
 4042SOL    HW123759   2.161   2.867  16.487 -0.9538  0.3850 -2.3216
 4042SOL    HW223760   2.180   2.725  16.444  1.9202 -0.8504 -2.1556
 4043SOL     OW23761   0.854   3.070   7.048 -0.2163 -0.1324 -0.3124
 4043SOL    HW123762   0.846   3.162   7.024 -1.1807  0.5659  2.6980
 4043SOL    HW223763   0.922   3.039   6.988 -2.0779 -0.2619 -2.3672
 4044SOL     OW23764   2.234   0.053   8.600 -0.0425  0.3079  0.3606
 4044SOL    HW123765   2.230   0.047   8.696  0.2828 -2.8337  0.1759
 4044SOL    HW223766   2.324   0.053   8.568 -1.0408 -0.8455 -2.4099
 4045SOL     OW23767   0.213   1.777   5.065 -0.2591  0.4095 -0.1268
 4045SOL    HW123768   0.283   1.716   5.088 -0.9996  0.2036  1.5198
 4045SOL    HW223769   0.260   1.820   4.993  0.5645 -0.4146 -0.0812
 4046SOL     OW23770   0.452   3.108   3.234  0.6028  0.1315 -0.7496
 4046SOL    HW123771   0.404   3.037   3.191 -1.4254  1.3122 -0.4887
 4046SOL    HW223772   0.383   3.141   3.291  0.6027  1.1623 -1.3316
 4047SOL     OW23773   3.533   4.129   6.960  0.7385 -0.4957  0.6846
 4047SOL    HW123774   3.520   4.215   6.919 -3.7458 -0.5028  2.0584
 4047SOL    HW223775   3.621   4.146   6.992  1.1890 -1.2500 -0.1793
 4048SOL     OW23776   0.602   3.525   8.586  0.2001  0.2956 -0.1581
 4048SOL    HW123777   0.642   3.440   8.601 -0.4336  0.4342  2.4418
 4048SOL    HW223778   0.640   3.591   8.644  0.2606 -1.3981  1.7227
 4049SOL     OW23779   1.907   1.489   6.579  0.1747  0.5137 -0.0593
 4049SOL    HW123780   1.982   1.501   6.521 -0.3537 -1.1192 -1.0732
 4049SOL    HW223781   1.943   1.488   6.668 -1.5064 -0.0935  0.6378
 4050SOL     OW23782   1.609   1.728   8.310 -0.4706 -0.3888 -0.1917
 4050SOL    HW123783   1.524   1.709   8.270 -0.0756 -1.9421 -0.3034
 4050SOL    HW223784   1.583   1.781   8.385  1.3349 -0.6696  0.6376
 4051SOL     OW23785   4.402   0.298   4.415 -0.0777  0.0694 -0.1766
 4051SOL    HW123786   4.415   0.282   4.322 -1.0085 -1.8517  0.0211
 4051SOL    HW223787   4.435   0.386   4.435  0.3816 -0.4292  1.2817
 4052SOL     OW23788   1.615   1.146   2.097 -0.5980  0.1340 -0.0807
 4052SOL    HW123789   1.529   1.181   2.071  0.1967  2.7783  0.8878
 4052SOL    HW223790   1.660   1.130   2.014  2.8738  1.2236  1.6374
 4053SOL     OW23791   1.696   0.243   5.585  0.0177 -0.2631 -0.1132
 4053SOL    HW123792   1.771   0.265   5.528 -2.1170  2.9551 -1.6813
 4053SOL    HW223793   1.721   0.295   5.662 -0.3651  1.3053 -1.0368
 4054SOL     OW23794   1.900   0.111   7.148  0.2309  0.0668 -0.2941
 4054SOL    HW123795   1.928   0.073   7.065  1.9589  0.9708 -0.1407
 4054SOL    HW223796   1.873   0.199   7.120  2.5967  0.8316 -0.1738
 4055SOL     OW23797   0.244   4.693   7.603 -0.2029 -0.1426 -0.1441
 4055SOL    HW123798   0.178   4.633   7.569 -0.9765  0.8640 -0.4028
 4055SOL    HW223799   0.183   0.024   7.636  1.2407  0.5310  1.2101
 4056SOL     OW23800   1.951   4.524  13.266 -0.3719 -0.2854 -0.6342
 4056SOL    HW123801   1.869   4.478  13.280 -0.2679  0.1172  1.2253
 4056SOL    HW223802   1.958   4.576  13.346 -2.1604 -0.8254 -0.1398
 4057SOL     OW23803   1.895   0.801   1.755 -0.8735 -0.1552 -0.4517
 4057SOL    HW123804   1.986   0.784   1.734 -1.4350 -0.3644 -2.6698
 4057SOL    HW223805   1.870   0.710   1.771 -0.7106 -0.0022  0.7208
 4058SOL     OW23806   3.147   3.630   7.145 -0.1094  0.1173 -0.4738
 4058SOL    HW123807   3.056   3.634   7.115  0.0361 -2.7042 -1.3082
 4058SOL    HW223808   3.170   3.722   7.151 -0.3486  0.2957 -2.2573
 4059SOL     OW23809   0.279   4.602   4.605 -0.4068 -0.8166 -0.1924
 4059SOL    HW123810   0.332   4.541   4.554  0.3731 -1.0083  0.8471
 4059SOL    HW223811   0.215   4.546   4.649  0.8023 -2.4838 -0.5738
 4060SOL     OW23812   3.764   1.222   9.421  0.2168  0.5670  0.1766
 4060SOL    HW123813   3.757   1.127   9.414 -1.3221  0.8559 -1.9638
 4060SOL    HW223814   3.682   1.242   9.375  0.2357  1.8911  0.7129
 4061SOL     OW23815   2.091   4.094   6.347  0.2842  0.5432 -0.7400
 4061SOL    HW123816   2.168   4.149   6.332  1.3209 -0.6616  0.1152
 4061SOL    HW223817   2.099   4.083   6.441  0.7345  3.9549 -0.3770
 4062SOL     OW23818   0.075   0.744   4.225 -0.4276 -0.8469  0.2087
 4062SOL    HW123819   0.083   0.664   4.276 -0.1020 -0.4566  0.7630
 4062SOL    HW223820   4.714   0.756   4.229 -0.4308 -0.9379  0.3611
 4063SOL     OW23821   0.875   3.972  15.457  0.7337  0.4017 -0.1780
 4063SOL    HW123822   0.836   3.970  15.370  0.4851 -0.7735 -0.0271
 4063SOL    HW223823   0.887   4.067  15.457 -1.3099  0.6494  0.6495
 4064SOL     OW23824   0.385   2.274  12.623 -0.3093 -0.8756 -0.4971
 4064SOL    HW123825   0.401   2.359  12.583 -0.9384 -0.5650 -0.0775
 4064SOL    HW223826   0.417   2.211  12.557 -0.9010 -1.5359 -0.1500
 4065SOL     OW23827   0.606   4.164   9.373 -0.4351  0.0314 -0.2520
 4065SOL    HW123828   0.644   4.082   9.342  0.7007 -0.4452  2.4068
 4065SOL    HW223829   0.536   4.168   9.307 -0.8120 -0.9329  0.0982
 4066SOL     OW23830   0.143   1.600   6.895  0.2162 -0.3440  0.5221
 4066SOL    HW123831   0.210   1.588   6.828  1.7217  1.0789  1.7673
 4066SOL    HW223832   0.109   1.685   6.866  0.9528 -0.4374 -0.6202
 4067SOL     OW23833   3.149   1.108   5.091 -0.3719  0.3806  0.1944
 4067SOL    HW123834   3.174   1.081   5.003  1.0828  0.2065  0.6611
 4067SOL    HW223835   3.079   1.170   5.068 -1.3421 -0.2440  1.5125
 4068SOL     OW23836   3.395   3.772  15.055  0.1211  0.0192  0.4569
 4068SOL    HW123837   3.323   3.829  15.080  0.8141  0.6046  1.1349
 4068SOL    HW223838   3.351   3.702  15.007  0.1822  0.6993 -0.5961
 4069SOL     OW23839   1.233   2.256  13.449  0.2952 -0.3048  0.0933
 4069SOL    HW123840   1.228   2.277  13.356 -0.6172  1.1098  0.4681
 4069SOL    HW223841   1.274   2.170  13.453 -1.7701 -1.2224  1.6810
 4070SOL     OW23842   2.758   2.863   8.725 -0.3471 -0.1272  0.0157
 4070SOL    HW123843   2.791   2.801   8.790 -0.2285 -0.5502 -0.4505
 4070SOL    HW223844   2.833   2.921   8.707 -1.4566  1.2446 -0.2398
 4071SOL     OW23845   4.238   2.373  12.954  0.2713  0.5805 -0.5167
 4071SOL    HW123846   4.253   2.465  12.930  1.2696  0.7204  0.6628
 4071SOL    HW223847   4.285   2.373  13.037  0.9851 -1.1535 -0.9209
 4072SOL     OW23848   1.297   0.866   5.185 -0.3890  0.4203 -0.2615
 4072SOL    HW123849   1.366   0.868   5.118 -0.7570 -1.8041 -0.7136
 4072SOL    HW223850   1.240   0.802   5.142 -0.9822  1.4267 -0.9657
 4073SOL     OW23851   3.273   4.045   1.282 -0.3616 -0.0671  0.0711
 4073SOL    HW123852   3.189   4.046   1.236  0.3585 -1.0297 -1.2656
 4073SOL    HW223853   3.311   3.965   1.245  0.9083  0.8357 -0.5804
 4074SOL     OW23854   2.038   4.371  17.180  0.5140  0.2597 -0.5359
 4074SOL    HW123855   2.031   4.421  17.262  0.7302  0.2622 -0.5205
 4074SOL    HW223856   1.951   4.333  17.164  0.6501 -0.8244  1.3270
 4075SOL     OW23857   2.199   2.353  16.619  0.3151 -0.3712  0.0869
 4075SOL    HW123858   2.245   2.348  16.702 -1.0655 -2.0976  0.7405
 4075SOL    HW223859   2.168   2.266  16.593 -1.4146  0.5941 -1.0640
 4076SOL     OW23860   3.655   3.125  12.975  0.2817 -0.1455  0.2470
 4076SOL    HW123861   3.735   3.089  13.013  0.0459  0.1815  1.0520
 4076SOL    HW223862   3.619   3.171  13.050  0.0109 -1.3409  0.8397
 4077SOL     OW23863   2.726   1.124  14.501  0.2694 -0.4454 -0.2374
 4077SOL    HW123864   2.664   1.102  14.570  1.2076 -0.2995  0.6609
 4077SOL    HW223865   2.717   1.219  14.494 -0.8811 -0.6277 -1.2019
 4078SOL     OW23866   0.672   1.182   9.612 -0.0698  0.0286 -0.3083
 4078SOL    HW123867   0.726   1.103   9.617 -1.1953 -0.7181 -0.0613
 4078SOL    HW223868   0.737   1.249   9.588 -0.5612  0.2046 -1.1475
 4079SOL     OW23869   2.813   4.547   7.251  0.7568  0.4313  0.1250
 4079SOL    HW123870   2.777   4.575   7.335  0.0163  1.7953 -0.6463
 4079SOL    HW223871   2.746   4.488   7.219 -0.8979  1.9618  0.7543
 4080SOL     OW23872   4.180   0.791  10.396 -0.1620  0.2352 -0.0031
 4080SOL    HW123873   4.140   0.723  10.449  0.8778 -1.1554 -0.9985
 4080SOL    HW223874   4.220   0.852  10.458  1.4407  2.1878 -2.9450
 4081SOL     OW23875   1.982   2.647   4.581 -0.1437 -0.8872  0.5153
 4081SOL    HW123876   2.074   2.654   4.606  0.2765  0.7430 -1.5287
 4081SOL    HW223877   1.949   2.594   4.654 -1.2260 -1.3085 -0.2732
 4082SOL     OW23878   2.460   1.228   7.452 -0.1872 -0.0621  0.2593
 4082SOL    HW123879   2.537   1.171   7.459 -0.2854 -0.0425  1.6156
 4082SOL    HW223880   2.449   1.267   7.539 -0.1698 -2.2534  1.2391
 4083SOL     OW23881   3.370   3.088   3.898  0.5414 -0.1767  0.1986
 4083SOL    HW123882   3.364   3.013   3.957 -0.9208 -0.8459 -0.7973
 4083SOL    HW223883   3.463   3.107   3.885  0.3881  0.7208  0.3915
 4084SOL     OW23884   2.828   4.504   9.299  0.5982 -0.3570 -0.3749
 4084SOL    HW123885   2.873   4.474   9.377  0.5733  0.8923  0.1194
 4084SOL    HW223886   2.891   4.571   9.272  1.4352 -0.8226  0.4230
 4085SOL     OW23887   3.779   2.619   6.582  0.4882  0.0746 -0.7479
 4085SOL    HW123888   3.765   2.537   6.631  0.8093 -2.3911 -4.7667
 4085SOL    HW223889   3.858   2.599   6.532  0.7608  0.0435 -0.3074
 4086SOL     OW23890   3.574   0.196   7.729  0.0796  0.2952 -0.1620
 4086SOL    HW123891   3.516   0.183   7.804  0.5226 -0.2121  0.0943
 4086SOL    HW223892   3.597   0.109   7.694 -0.6050  0.2334 -0.4655
 4087SOL     OW23893   2.087   1.246   3.201 -0.1703 -0.1044 -0.4415
 4087SOL    HW123894   2.129   1.166   3.171  1.8183  1.8889 -2.9662
 4087SOL    HW223895   2.065   1.279   3.114  0.2118  1.5793  0.1056
 4088SOL     OW23896   1.459   1.909   4.066  0.1013  0.0399  0.4653
 4088SOL    HW123897   1.529   1.869   4.015  0.1446  0.3285  0.2949
 4088SOL    HW223898   1.386   1.853   4.042  0.5652  0.1618 -1.2768
 4089SOL     OW23899   2.445   1.880  10.306  0.0657 -0.2990 -0.1029
 4089SOL    HW123900   2.415   1.818  10.373 -0.2563 -0.2045 -0.1601
 4089SOL    HW223901   2.508   1.838  10.248  0.5074  0.6931 -0.3408
 4090SOL     OW23902   0.060   1.346   2.765  0.1261  0.2072  0.0337
 4090SOL    HW123903   4.718   1.378   2.814  1.3829 -0.0610  2.1167
 4090SOL    HW223904   0.078   1.421   2.707 -0.8477  1.5293  1.4691
 4091SOL     OW23905   4.699   4.337   1.113 -0.1853  0.3753 -0.2667
 4091SOL    HW123906   4.726   4.318   1.203  1.5331 -0.2347 -0.9097
 4091SOL    HW223907   0.050   4.341   1.069 -0.4897 -0.3694 -0.9155
 4092SOL     OW23908   3.110   3.277   6.877 -0.0989 -0.3918  0.5608
 4092SOL    HW123909   3.065   3.360   6.861 -0.8100 -0.8581  0.1607
 4092SOL    HW223910   3.038   3.227   6.914 -2.2269  1.6602 -0.7687
 4093SOL     OW23911   4.101   3.450   2.862 -0.3668 -0.2577  0.5363
 4093SOL    HW123912   4.178   3.435   2.806 -0.8360 -0.4801 -0.0413
 4093SOL    HW223913   4.047   3.499   2.800  1.1981 -1.1001 -1.4982
 4094SOL     OW23914   2.964   4.248   5.159  0.5891 -0.3249 -0.1955
 4094SOL    HW123915   2.884   4.292   5.132  0.3884  0.0347  0.9844
 4094SOL    HW223916   2.998   4.203   5.081  1.2722 -0.1016 -0.0282
 4095SOL     OW23917   0.562   2.460  16.254  0.1837  0.5241  0.4120
 4095SOL    HW123918   0.519   2.544  16.238 -1.8944 -0.7929 -0.7937
 4095SOL    HW223919   0.653   2.476  16.228  0.4399  0.8865  1.5439
 4096SOL     OW23920   3.899   4.395   3.727 -1.0246  0.4280  0.1324
 4096SOL    HW123921   3.909   4.459   3.657  2.9326  1.7035  1.8640
 4096SOL    HW223922   3.876   4.318   3.676 -2.7001  0.4326  0.8671
 4097SOL     OW23923   4.416   2.490   5.491  0.0837 -0.0088  0.1285
 4097SOL    HW123924   4.375   2.507   5.576 -0.1292 -1.2135  0.2707
 4097SOL    HW223925   4.495   2.447   5.524  0.4192 -0.6332 -1.4808
 4098SOL     OW23926   2.563   1.723   6.785  0.6066 -0.1983  0.1057
 4098SOL    HW123927   2.516   1.668   6.723  1.8276  0.4522 -1.3975
 4098SOL    HW223928   2.653   1.706   6.759 -0.2487  1.2201 -3.7336
 4099SOL     OW23929   4.417   4.160  14.953 -0.3578 -0.1159  0.5954
 4099SOL    HW123930   4.499   4.191  14.991  0.3267 -0.4198 -0.6243
 4099SOL    HW223931   4.415   4.066  14.973  1.6232 -0.7258 -2.1326
 4100SOL     OW23932   3.955   1.454   4.392  0.8240  0.7341  0.4324
 4100SOL    HW123933   3.930   1.514   4.321  0.4133  1.5104  1.2426
 4100SOL    HW223934   4.049   1.466   4.399  0.4063  2.7402  2.4408
 4101SOL     OW23935   2.990   2.108   5.089 -0.5834  0.4085  0.4413
 4101SOL    HW123936   3.060   2.172   5.075 -0.7314  0.7592  1.2818
 4101SOL    HW223937   3.032   2.036   5.043  0.2396  1.3380 -0.2805
 4102SOL     OW23938   2.744   0.448  17.048 -0.4308  0.2196  0.3371
 4102SOL    HW123939   2.761   0.364  17.005  2.2262  1.0199 -0.1578
 4102SOL    HW223940   2.706   0.497  16.976 -1.2094 -0.8747  0.0075
 4103SOL     OW23941   0.302   1.068   4.816 -0.4306 -0.0423 -0.2779
 4103SOL    HW123942   0.287   0.996   4.877  0.1287 -0.5628 -0.7556
 4103SOL    HW223943   0.373   1.030   4.765 -0.5575 -2.0298  1.0180
 4104SOL     OW23944   0.317   2.928   4.768 -0.0228 -0.1476 -0.6515
 4104SOL    HW123945   0.376   2.889   4.704  0.7819 -0.4329  0.2678
 4104SOL    HW223946   0.339   3.021   4.761 -0.6439  0.1767  1.8553
 4105SOL     OW23947   1.723   1.289   6.141  0.0199  0.7022  0.4405
 4105SOL    HW123948   1.815   1.265   6.152 -0.3148 -0.6545  0.2768
 4105SOL    HW223949   1.688   1.294   6.229 -2.6423 -0.6127 -0.5654
 4106SOL     OW23950   4.607   1.895   3.650 -0.1877  0.4458  0.1477
 4106SOL    HW123951   4.662   1.817   3.659  0.2559  0.9061  1.4455
 4106SOL    HW223952   4.672   1.963   3.632  0.6819 -0.7628 -1.3021
 4107SOL     OW23953   1.360   2.948  17.077 -0.7134  0.1686 -0.1758
 4107SOL    HW123954   1.309   3.017  17.035 -0.4824  0.2633 -0.2969
 4107SOL    HW223955   1.416   2.917  17.006  0.9919 -0.3957  1.4230
 4108SOL     OW23956   0.031   3.435   9.181  0.1954 -0.3722 -0.3252
 4108SOL    HW123957   0.085   3.510   9.155  1.4631 -1.2543 -0.2505
 4108SOL    HW223958   0.007   3.475   9.265  2.3849  0.7368 -0.2168
 4109SOL     OW23959   4.168   1.366   8.214  0.1018  0.0581 -0.3002
 4109SOL    HW123960   4.231   1.335   8.279  1.7667  0.6896 -1.6257
 4109SOL    HW223961   4.108   1.292   8.207  2.1458 -1.8157  1.9423
 4110SOL     OW23962   4.455   4.188   4.470 -0.0126 -0.2942 -0.1557
 4110SOL    HW123963   4.428   4.234   4.390 -3.2987 -0.7106  0.7271
 4110SOL    HW223964   4.549   4.176   4.458  0.2244  2.1841 -0.7636
 4111SOL     OW23965   4.541   3.310   4.009  0.0874  0.1423 -0.3298
 4111SOL    HW123966   4.517   3.217   4.010  3.4594 -0.7023 -0.3394
 4111SOL    HW223967   4.633   3.320   4.033 -0.0994  2.5082 -0.5785
 4112SOL     OW23968   3.139   1.931   4.556 -0.0523  0.0035 -0.4554
 4112SOL    HW123969   3.108   2.005   4.607  0.1030 -1.1499  1.2942
 4112SOL    HW223970   3.092   1.859   4.597  0.6604  0.0615  0.4434
 4113SOL     OW23971   4.276   4.188   1.639  1.1618  0.3001 -0.0323
 4113SOL    HW123972   4.262   4.119   1.575 -0.8399  1.0495 -0.3813
 4113SOL    HW223973   4.356   4.228   1.604  0.9273 -0.1923 -1.1298
 4114SOL     OW23974   0.716   4.093   6.405 -0.4255  0.4053 -0.4944
 4114SOL    HW123975   0.722   4.186   6.428  0.9373  0.5348 -1.4172
 4114SOL    HW223976   0.639   4.056   6.449  0.6261 -2.0374 -0.7188
 4115SOL     OW23977   3.983   1.898   6.445 -0.0712 -0.5116  0.0171
 4115SOL    HW123978   4.040   1.904   6.521 -1.0254  1.6906  0.5642
 4115SOL    HW223979   4.032   1.897   6.362 -0.5876  1.0645 -0.2950
 4116SOL     OW23980   4.142   2.688   3.292  0.1037  0.5691 -0.3823
 4116SOL    HW123981   4.204   2.731   3.232  0.2753 -0.5083 -0.9687
 4116SOL    HW223982   4.056   2.724   3.270 -0.6171  0.6551  2.5485
 4117SOL     OW23983   1.368   2.983   5.171 -0.0364  0.5371 -0.1762
 4117SOL    HW123984   1.354   2.894   5.138 -0.9790  1.0597 -1.1787
 4117SOL    HW223985   1.289   3.024   5.135 -1.5821 -0.1287  2.4029
 4118SOL     OW23986   1.306   0.874   1.526  0.5184  0.0747 -0.0993
 4118SOL    HW123987   1.278   0.954   1.570  0.1423 -1.3174  2.1698
 4118SOL    HW223988   1.392   0.904   1.494  0.1930  1.4410  0.2863
 4119SOL     OW23989   0.939   3.637   7.099 -0.1852  0.2485  0.3925
 4119SOL    HW123990   0.928   3.633   7.194 -0.5447 -0.5161  0.3156
 4119SOL    HW223991   0.908   3.554   7.065  0.2950  0.1115  0.2896
 4120SOL     OW23992   1.993   2.849  17.221 -0.3872 -0.0357 -0.0401
 4120SOL    HW123993   1.934   2.792  17.271 -0.9892  0.5595 -0.0774
 4120SOL    HW223994   1.941   2.862  17.142  1.6448  2.5251 -0.9522
 4121SOL     OW23995   0.498   2.775   6.671 -0.4758 -0.1019 -0.2291
 4121SOL    HW123996   0.424   2.778   6.733  1.4317  2.2588  1.9592
 4121SOL    HW223997   0.448   2.749   6.594 -1.9848 -0.7192  0.9502
 4122SOL     OW23998   0.805   3.220   4.248 -0.1147  0.0317  0.4205
 4122SOL    HW123999   0.849   3.141   4.278 -0.9766 -0.6753 -0.1930
 4122SOL    HW224000   0.857   3.292   4.284 -1.4903  0.1339  2.2232
 4123SOL     OW24001   1.801   3.435   5.408 -0.4318 -0.1464  0.0023
 4123SOL    HW124002   1.820   3.406   5.318 -0.5743  0.8987 -0.3570
 4123SOL    HW224003   1.707   3.420   5.405 -0.2654 -0.9940 -1.3714
 4124SOL     OW24004   3.436   2.396   7.605 -0.3749 -0.3205  0.0923
 4124SOL    HW124005   3.510   2.457   7.597 -0.2638 -0.1372  2.4647
 4124SOL    HW224006   3.412   2.408   7.513 -1.5190 -1.4288  0.2557
 4125SOL     OW24007   0.848   1.375   4.279 -0.4851  0.0352 -0.0392
 4125SOL    HW124008   0.884   1.462   4.264  0.0778  0.1364  1.8082
 4125SOL    HW224009   0.818   1.354   4.191  0.1418  1.1632 -0.5254
 4126SOL     OW24010   4.400   2.311   2.756  0.4760 -0.3466 -0.1646
 4126SOL    HW124011   4.316   2.331   2.714  0.6689 -0.7188 -0.7170
 4126SOL    HW224012   4.439   2.398   2.754 -0.9554  0.3013  0.0880
 4127SOL     OW24013   2.623   3.700   9.468  0.1946 -0.2941  0.0295
 4127SOL    HW124014   2.614   3.705   9.563  1.0493  2.0400 -0.0247
 4127SOL    HW224015   2.533   3.677   9.444  1.0056  0.0653 -3.4754
 4128SOL     OW24016   4.400   3.300   6.924  0.9167 -0.4233 -0.8659
 4128SOL    HW124017   4.408   3.315   6.829 -0.7199  1.6306 -0.6951
 4128SOL    HW224018   4.451   3.378   6.948 -0.8085 -0.1132  1.7926
 4129SOL     OW24019   2.656   2.772   6.127 -0.2849 -0.1262 -0.3425
 4129SOL    HW124020   2.610   2.855   6.138 -1.9007 -0.8496 -1.5716
 4129SOL    HW224021   2.720   2.788   6.196 -1.3242 -0.0476  0.6074
 4130SOL     OW24022   4.262   2.083   8.649  0.2578  0.5443  0.1009
 4130SOL    HW124023   4.186   2.124   8.608  0.3126 -0.8682 -1.3766
 4130SOL    HW224024   4.293   2.015   8.589 -0.7595  2.1015 -2.1603
 4131SOL     OW24025   2.684   0.363  13.944 -0.0535 -0.4050 -0.2935
 4131SOL    HW124026   2.704   0.385  14.035 -2.1062 -0.0088  0.0532
 4131SOL    HW224027   2.590   0.377  13.946 -0.5763 -3.7136 -2.0173
 4132SOL     OW24028   0.267   3.810  14.950  0.3736 -0.5203 -0.0632
 4132SOL    HW124029   0.307   3.742  14.895 -0.9337  0.3870 -2.1512
 4132SOL    HW224030   0.278   3.891  14.900 -0.2838  0.8688  2.0729
 4133SOL     OW24031   1.214   2.003   8.234  0.2905  0.3371  0.0573
 4133SOL    HW124032   1.150   2.048   8.288  2.0971  1.0318  1.5969
 4133SOL    HW224033   1.301   2.027   8.265 -1.0336  3.9585  0.9323
 4134SOL     OW24034   1.419   1.306  17.129  0.2827  0.2990  0.7199
 4134SOL    HW124035   1.481   1.292  17.057 -2.5875  1.7637 -2.0448
 4134SOL    HW224036   1.378   1.220  17.130  0.5237  0.2120  2.3062
 4135SOL     OW24037   1.636   3.264   6.539  0.5538 -0.1702 -0.4212
 4135SOL    HW124038   1.699   3.218   6.594 -1.0115 -1.3170  0.4345
 4135SOL    HW224039   1.674   3.246   6.453  0.0177 -0.0961 -0.6743
 4136SOL     OW24040   0.708   3.467   3.615 -0.3104  0.1493  0.0968
 4136SOL    HW124041   0.673   3.490   3.701  0.3509 -0.2544  0.4762
 4136SOL    HW224042   0.718   3.553   3.574  2.3496  0.3488  1.1181
 4137SOL     OW24043   0.657   1.763   3.253  0.0948 -0.5740  0.3967
 4137SOL    HW124044   0.625   1.775   3.164 -2.3665  0.7609  1.4332
 4137SOL    HW224045   0.579   1.799   3.296  0.8468 -0.2784  1.5150
 4138SOL     OW24046   1.044   1.590   5.016 -0.2700 -0.0240 -0.0933
 4138SOL    HW124047   0.954   1.566   5.037 -0.9478  1.7326 -1.0168
 4138SOL    HW224048   1.083   1.505   4.996  1.9591  0.7335  0.9873
 4139SOL     OW24049   4.533   2.476  16.941 -0.0156 -0.1688 -0.6156
 4139SOL    HW124050   4.453   2.492  16.992  1.3043 -0.9734  1.6869
 4139SOL    HW224051   4.489   2.465  16.856 -0.9834 -1.5158  0.0653
 4140SOL     OW24052   3.403   4.221   8.444 -0.1130 -0.4049 -0.7111
 4140SOL    HW124053   3.386   4.156   8.376 -0.4740  0.7709 -1.7545
 4140SOL    HW224054   3.346   4.187   8.513  1.2726  0.4374  0.8449
 4141SOL     OW24055   2.709   1.937   0.947  0.4813  0.2359  0.5454
 4141SOL    HW124056   2.739   1.850   0.971  0.9408  0.9459  2.5547
 4141SOL    HW224057   2.641   1.948   1.014  1.0409 -0.1866  1.1772
 4142SOL     OW24058   2.084   0.616   5.061 -0.2094  0.4689  0.6914
 4142SOL    HW124059   2.096   0.680   5.132 -0.1244  2.4416 -1.1145
 4142SOL    HW224060   2.080   0.657   4.975 -2.2765 -0.2277  0.4613
 4143SOL     OW24061   0.119   2.801  14.798  0.4671 -0.0341  0.4482
 4143SOL    HW124062   0.156   2.745  14.867 -2.3111  0.9527  2.7319
 4143SOL    HW224063   0.080   2.877  14.841 -1.2645  1.4574 -3.7959
 4144SOL     OW24064   4.720   2.935   8.381 -0.1407 -0.3234 -0.0129
 4144SOL    HW124065   4.690   2.991   8.310 -0.8023 -1.5739 -0.7083
 4144SOL    HW224066   4.642   2.892   8.414 -0.0897  0.1242  0.7135
 4145SOL     OW24067   0.688   2.034   5.326 -0.2311  0.4058 -0.3763
 4145SOL    HW124068   0.758   2.030   5.391  0.5339  1.3561 -1.1383
 4145SOL    HW224069   0.610   2.037   5.381  0.2525  1.8754  0.2422
 4146SOL     OW24070   0.201   0.097   8.402 -0.2162 -0.8360 -0.0273
 4146SOL    HW124071   0.198   0.147   8.484 -0.0672  0.7426 -0.9937
 4146SOL    HW224072   0.275   0.038   8.418  0.6438 -0.3287 -2.2604
 4147SOL     OW24073   3.230   4.326   1.036 -0.1937 -0.0224  0.2910
 4147SOL    HW124074   3.313   4.278   1.031 -1.4231 -2.0742 -0.2231
 4147SOL    HW224075   3.168   4.259   1.006 -0.4047 -0.7017  2.2248
 4148SOL     OW24076   1.236   2.077   6.075 -0.7027  0.7757 -0.0367
 4148SOL    HW124077   1.246   2.172   6.083  0.2908  0.6978 -0.3668
 4148SOL    HW224078   1.271   2.043   6.158 -3.1988  0.0369  0.7152
 4149SOL     OW24079   1.635   2.309   3.301  0.1843 -0.3403 -0.0147
 4149SOL    HW124080   1.674   2.256   3.369 -3.2272 -1.5468  1.0240
 4149SOL    HW224081   1.717   2.328   3.257 -1.4649  2.0595 -2.1048
 4150SOL     OW24082   4.225   4.696   3.311 -0.0921  0.2409 -0.5619
 4150SOL    HW124083   4.281   4.727   3.240  0.9447 -1.4834 -0.5138
 4150SOL    HW224084   4.181   4.620   3.271  0.1942  0.7513 -1.8433
 4151SOL     OW24085   1.047   1.024   4.189 -0.3220 -0.3132 -0.2728
 4151SOL    HW124086   0.977   0.972   4.150 -0.2563 -0.8832  0.3628
 4151SOL    HW224087   1.123   0.966   4.184 -0.6494 -0.9823  2.3339
 4152SOL     OW24088   1.009   1.083   3.232 -0.4209 -0.0769 -0.4676
 4152SOL    HW124089   0.954   1.078   3.153 -2.8589 -0.8886  1.2693
 4152SOL    HW224090   1.063   1.011   3.201  0.5909  0.5728 -0.2109
 4153SOL     OW24091   4.351   2.970   0.200 -0.4930 -0.0280 -0.2045
 4153SOL    HW124092   4.320   2.959   0.110 -2.4905 -0.5469  0.5535
 4153SOL    HW224093   4.348   2.885   0.243  1.4292 -0.1268 -0.2948
 4154SOL     OW24094   3.677   3.573   5.815  0.5622 -0.5472  0.1669
 4154SOL    HW124095   3.659   3.571   5.721 -0.1008 -1.8569  0.3258
 4154SOL    HW224096   3.662   3.482   5.841 -1.5859 -0.4433 -0.6602
 4155SOL     OW24097   1.606   3.260   4.533  0.5060  0.1097 -0.0998
 4155SOL    HW124098   1.641   3.306   4.456  1.6991  1.7203  1.3909
 4155SOL    HW224099   1.515   3.251   4.506  1.0827 -0.7799 -1.8087
 4156SOL     OW24100   1.102   4.528   2.914 -0.1379  0.6913 -0.1223
 4156SOL    HW124101   1.065   4.440   2.925  1.2490  0.0958 -0.2293
 4156SOL    HW224102   1.089   4.572   2.998 -1.5051 -1.0726  0.6014
 4157SOL     OW24103   3.342   2.156   1.992 -0.0025 -0.1616 -0.2162
 4157SOL    HW124104   3.306   2.174   2.079 -0.1426 -0.2491 -0.2556
 4157SOL    HW224105   3.406   2.227   1.996 -0.3095  0.1548 -1.1968
 4158SOL     OW24106   1.999   3.930   3.549  0.7632 -0.1288 -0.3568
 4158SOL    HW124107   2.055   3.981   3.607  0.0179  0.6708 -0.3342
 4158SOL    HW224108   2.066   3.921   3.481  0.0475  0.6636 -1.1822
 4159SOL     OW24109   1.264   1.670   2.665  0.3810 -0.0318  0.3139
 4159SOL    HW124110   1.309   1.737   2.614 -0.2622  0.2233  0.0846
 4159SOL    HW224111   1.336   1.647   2.724  0.2638 -1.3781 -0.0566
 4160SOL     OW24112   4.705   2.476   0.979 -0.1943  0.5532  0.4496
 4160SOL    HW124113   0.052   2.464   0.931  0.6290  0.2507  1.9054
 4160SOL    HW224114   4.688   2.567   0.956  0.0037  0.0134 -1.7932
 4161SOL     OW24115   1.504   2.413  12.022 -0.0406 -0.3738 -0.2236
 4161SOL    HW124116   1.595   2.384  12.016  0.6418  2.1226 -1.6997
 4161SOL    HW224117   1.477   2.367  12.102 -1.1206  0.0704 -0.3429
 4162SOL     OW24118   2.629   2.964   5.267  0.2835  0.0922  0.3505
 4162SOL    HW124119   2.539   2.935   5.252  0.0776  0.4658  0.8743
 4162SOL    HW224120   2.662   2.894   5.324 -0.0662  1.0280  1.6823
 4163SOL     OW24121   0.593   1.208  14.151 -0.0159 -0.3209  0.4006
 4163SOL    HW124122   0.611   1.185  14.242 -0.8068 -0.4689  0.5184
 4163SOL    HW224123   0.545   1.291  14.157  1.5840  0.4830  2.1098
 4164SOL     OW24124   4.222   0.813   4.177  0.1852  0.6848 -0.2664
 4164SOL    HW124125   4.268   0.896   4.165  1.3280  0.2490  1.0759
 4164SOL    HW224126   4.251   0.774   4.094 -0.3216 -0.7917  0.2507
 4165SOL     OW24127   1.644   1.456   5.928 -0.1097  1.0603 -0.3353
 4165SOL    HW124128   1.558   1.481   5.960 -0.4674  0.9044 -1.1927
 4165SOL    HW224129   1.663   1.382   5.987 -0.1806  1.1615 -0.1851
 4166SOL     OW24130   4.494   1.129   7.701  0.5506 -0.2588 -0.1586
 4166SOL    HW124131   4.488   1.035   7.722  1.1335 -0.4823 -0.9885
 4166SOL    HW224132   4.590   1.132   7.700  0.4978  1.1105 -0.5852
 4167SOL     OW24133   0.980   2.586   6.078 -0.0161 -0.2490  0.3412
 4167SOL    HW124134   0.902   2.562   6.027  0.2711  1.7541 -1.0746
 4167SOL    HW224135   0.948   2.572   6.167 -4.1361  1.2162 -0.8862
 4168SOL     OW24136   3.384   0.098   2.987 -0.2122 -0.1228 -0.7162
 4168SOL    HW124137   3.372   0.075   2.894 -1.4457  2.9873 -1.3142
 4168SOL    HW224138   3.310   0.054   3.029  1.7894 -1.0197  1.8375
 4169SOL     OW24139   4.655   2.925  17.140 -0.1569 -0.0312 -0.0034
 4169SOL    HW124140   0.003   2.893  17.179  0.0759  1.4177  0.6786
 4169SOL    HW224141   4.669   3.019  17.140  0.9767 -0.1932  0.7208
 4170SOL     OW24142   2.660   2.742   8.326 -0.0394  0.5226  0.0000
 4170SOL    HW124143   2.712   2.823   8.326  2.4844 -1.0855 -2.0077
 4170SOL    HW224144   2.577   2.786   8.312 -0.3762  0.4001  1.5986
 4171SOL     OW24145   2.410   4.362   1.498 -0.2302 -0.2672 -0.3146
 4171SOL    HW124146   2.419   4.296   1.567  2.1471  1.8647  1.4110
 4171SOL    HW224147   2.374   4.315   1.423 -0.8860  0.1010 -0.2280
 4172SOL     OW24148   0.867   0.597   2.238 -0.1047  0.0444  0.1618
 4172SOL    HW124149   0.847   0.511   2.200  1.1348  0.0042 -0.4062
 4172SOL    HW224150   0.898   0.645   2.162 -0.9127  1.6265  0.8267
 4173SOL     OW24151   3.750   0.759  14.643  0.4736  0.2629  0.2070
 4173SOL    HW124152   3.732   0.767  14.550  0.4018 -3.4179 -0.0667
 4173SOL    HW224153   3.842   0.785  14.649 -0.0122  2.1120 -0.4378
 4174SOL     OW24154   3.762   3.434   3.340  0.3330  0.3207  0.4088
 4174SOL    HW124155   3.777   3.481   3.258  1.1497  0.0401  0.3937
 4174SOL    HW224156   3.670   3.409   3.331  0.3933 -0.3774  1.8956
 4175SOL     OW24157   3.866   3.540  15.843 -0.8811 -0.4772 -0.1613
 4175SOL    HW124158   3.877   3.532  15.748 -2.6066  0.5808 -0.4400
 4175SOL    HW224159   3.956   3.545  15.876 -0.4752 -1.0489 -1.1928
 4176SOL     OW24160   0.202   0.698   7.859  0.2062  0.9444 -0.1862
 4176SOL    HW124161   0.266   0.659   7.800  1.4143  0.9664  1.1107
 4176SOL    HW224162   0.139   0.739   7.800 -1.2978  1.2021  1.5852
 4177SOL     OW24163   0.015   0.317   3.717  0.3506  0.2608  0.0162
 4177SOL    HW124164   4.671   0.350   3.762  0.9043  2.3408 -0.5440
 4177SOL    HW224165   4.730   0.329   3.624  0.5922  1.0844  0.0695
 4178SOL     OW24166   2.877   1.681   7.005  0.2468  0.4569 -0.1215
 4178SOL    HW124167   2.827   1.762   6.999  0.3166  0.5001 -0.1108
 4178SOL    HW224168   2.907   1.685   7.096 -1.0303 -2.4595  0.4426
 4179SOL     OW24169   3.322   1.300  14.883  0.2144 -0.1369  0.4954
 4179SOL    HW124170   3.369   1.312  14.800 -0.8950  0.6440 -0.0292
 4179SOL    HW224171   3.354   1.215  14.912  1.0439 -0.2514 -0.7539
 4180SOL     OW24172   2.980   4.350  16.375  0.2634  0.6728 -0.1207
 4180SOL    HW124173   2.930   4.387  16.302  0.2809  0.0157 -0.4578
 4180SOL    HW224174   3.008   4.266  16.340 -1.4299  0.2522 -0.4721
 4181SOL     OW24175   2.024   4.444   7.837 -0.0764 -0.5497 -0.5560
 4181SOL    HW124176   2.003   4.379   7.903 -0.8882  0.4054  0.1340
 4181SOL    HW224177   1.952   4.507   7.833  1.1877  0.7899 -2.8198
 4182SOL     OW24178   3.397   3.681   2.444 -0.1581  0.5393  0.0662
 4182SOL    HW124179   3.382   3.642   2.357  0.2726  1.4417 -0.4121
 4182SOL    HW224180   3.386   3.598   2.491 -0.6944 -0.6673 -2.1809
 4183SOL     OW24181   3.763   4.363  10.721 -0.5125 -0.4912 -0.1078
 4183SOL    HW124182   3.722   4.389  10.804  1.0636  0.6913  0.2938
 4183SOL    HW224183   3.746   4.269  10.723 -1.7965 -0.3062 -2.2746
 4184SOL     OW24184   4.288   3.199   5.809 -0.3109  0.2532 -0.0983
 4184SOL    HW124185   4.218   3.134   5.803 -1.8960  2.0441 -1.1273
 4184SOL    HW224186   4.289   3.226   5.717 -1.0866  2.3120  0.5095
 4185SOL     OW24187   1.658   4.119  12.145 -0.2107 -0.4689  0.2734
 4185SOL    HW124188   1.563   4.109  12.152 -0.1763 -0.5553  0.6118
 4185SOL    HW224189   1.673   4.049  12.082 -2.0193  1.8557 -2.7298
 4186SOL     OW24190   2.443   0.792   5.822  0.8775 -0.6016  0.2114
 4186SOL    HW124191   2.496   0.753   5.752 -1.8787 -1.3403 -1.4748
 4186SOL    HW224192   2.415   0.710   5.864 -2.0950 -1.1396 -2.8565
 4187SOL     OW24193   2.235   0.079   6.741  0.0732  0.5302 -0.6236
 4187SOL    HW124194   2.170   0.148   6.756 -2.7086 -2.0478 -0.7913
 4187SOL    HW224195   2.296   0.097   6.812  1.4806  0.1891 -1.7461
 4188SOL     OW24196   0.387   1.790   4.854 -0.2395 -0.0002  0.1001
 4188SOL    HW124197   0.367   1.725   4.786  0.8214  0.4630 -0.6612
 4188SOL    HW224198   0.367   1.872   4.808 -0.1782 -0.6845 -1.1652
 4189SOL     OW24199   2.140   2.443   5.836 -0.4558 -0.2676  0.6639
 4189SOL    HW124200   2.214   2.449   5.776 -0.5563  0.4527  0.6064
 4189SOL    HW224201   2.073   2.419   5.771  1.5491 -0.3468 -1.3741
 4190SOL     OW24202   3.348   2.169   3.306  0.5823 -0.2049  0.3028
 4190SOL    HW124203   3.402   2.247   3.290 -2.1423  1.3620 -1.1873
 4190SOL    HW224204   3.305   2.191   3.389 -1.6084 -1.4618 -0.4920
 4191SOL     OW24205   0.953   2.522   7.245  0.8329  0.4906  0.1015
 4191SOL    HW124206   0.959   2.607   7.287  0.7777  0.1092  0.8823
 4191SOL    HW224207   0.858   2.507   7.249  0.7231  1.0785 -0.2742
 4192SOL     OW24208   2.117   3.881   7.920 -0.2832 -0.3523 -0.4081
 4192SOL    HW124209   2.067   3.938   7.862 -1.3038 -0.3688  0.4650
 4192SOL    HW224210   2.098   3.922   8.004 -2.0707 -2.2038  0.1103
 4193SOL     OW24211   3.193   4.407   8.619  0.1797  0.1814 -0.0218
 4193SOL    HW124212   3.171   4.408   8.526  1.1556  1.3380 -0.2492
 4193SOL    HW224213   3.137   4.333   8.642 -0.8884  2.2745  4.0040
 4194SOL     OW24214   0.972   3.760  15.586  0.1643 -0.0063 -0.0888
 4194SOL    HW124215   1.019   3.712  15.518 -3.0416 -3.7158  0.2812
 4194SOL    HW224216   0.934   3.824  15.527  0.5147  0.7327  0.4898
 4195SOL     OW24217   4.455   4.029   4.739  0.0347 -0.1799 -0.1231
 4195SOL    HW124218   4.479   4.104   4.793 -0.0868  0.0588 -0.4015
 4195SOL    HW224219   4.395   4.066   4.674  0.9683 -1.4709 -1.7113
 4196SOL     OW24220   1.480   2.711  13.868  0.2254 -0.7097  0.0477
 4196SOL    HW124221   1.386   2.706  13.888 -0.1326 -0.9639 -1.6726
 4196SOL    HW224222   1.471   2.685  13.776 -0.1227 -0.3738 -0.0135
 4197SOL     OW24223   3.344   1.324   3.283  0.0778 -0.2496 -0.5680
 4197SOL    HW124224   3.250   1.344   3.287 -0.4026 -2.1018 -2.4124
 4197SOL    HW224225   3.375   1.330   3.373 -2.6976 -0.8784  0.4078
 4198SOL     OW24226   0.844   3.722   8.653  0.0035  0.3542 -0.5781
 4198SOL    HW124227   0.879   3.670   8.581 -0.7588 -0.6424 -0.2245
 4198SOL    HW224228   0.888   3.685   8.729 -0.1825 -0.6554 -0.9669
 4199SOL     OW24229   2.548   2.527   3.242  0.1741  0.2753  0.2202
 4199SOL    HW124230   2.617   2.563   3.188  0.5372  0.9914  1.1647
 4199SOL    HW224231   2.587   2.543   3.328  0.7350  0.6899 -0.1125
 4200SOL     OW24232   0.105   3.667   5.513  0.1178 -0.6304 -0.0650
 4200SOL    HW124233   0.121   3.621   5.431  1.9731 -0.8207  0.4180
 4200SOL    HW224234   0.154   3.611   5.573  2.9101  0.0477 -1.7187
 4201SOL     OW24235   1.143   0.480   9.083 -0.0584 -0.5204  0.6003
 4201SOL    HW124236   1.192   0.509   9.160  0.2000  1.2204 -0.2159
 4201SOL    HW224237   1.071   0.544   9.087  1.7641  1.5220  0.4909
 4202SOL     OW24238   0.304   1.352  11.099  0.6446  0.4028 -0.3707
 4202SOL    HW124239   0.320   1.446  11.092 -2.4223  0.9353 -0.1716
 4202SOL    HW224240   0.348   1.310  11.025  0.8436  1.2816 -0.7510
 4203SOL     OW24241   1.882   0.161   3.265  0.2110 -0.0108 -0.0724
 4203SOL    HW124242   1.954   0.202   3.312  1.8045 -2.6624 -0.1919
 4203SOL    HW224243   1.817   0.231   3.271  0.0642 -0.0894 -0.7219
 4204SOL     OW24244   4.379   4.417   9.679  0.0891  0.1829 -0.1533
 4204SOL    HW124245   4.420   4.414   9.593  0.1323  0.1516 -0.1318
 4204SOL    HW224246   4.371   4.323   9.696  3.6153  0.1435  1.4792
 4205SOL     OW24247   2.797   2.570   7.168 -0.0134  0.4397 -0.5059
 4205SOL    HW124248   2.773   2.528   7.251  2.1930 -0.6541 -0.4408
 4205SOL    HW224249   2.755   2.503   7.114  1.3078  0.1912 -1.2074
 4206SOL     OW24250   0.466   1.695   7.247  0.0305  0.0565  0.2174
 4206SOL    HW124251   0.495   1.770   7.298  4.0036 -0.4714 -1.2314
 4206SOL    HW224252   0.388   1.729   7.204 -1.2480 -0.4458  2.1227
 4207SOL     OW24253   0.394   4.660   1.925 -0.5100  0.1376  0.4218
 4207SOL    HW124254   0.368   4.572   1.952 -2.4830  0.8605  0.8872
 4207SOL    HW224255   0.439   4.691   2.003  0.0311 -1.2116  0.6406
 4208SOL     OW24256   2.107   0.412  11.290 -0.4255  0.0963 -0.2707
 4208SOL    HW124257   2.136   0.500  11.267  0.8504 -0.3218 -0.2396
 4208SOL    HW224258   2.187   0.364  11.311 -1.4505 -1.8962 -0.8056
 4209SOL     OW24259   0.652   1.856  17.689  0.4556 -0.4273 -0.3228
 4209SOL    HW124260   0.709   1.887   0.024  0.3450  1.6280 -1.1445
 4209SOL    HW224261   0.607   1.789   0.006  3.3072 -0.7791  1.6712
 4210SOL     OW24262   2.691   0.346  15.823 -0.1649 -0.3621  0.2992
 4210SOL    HW124263   2.783   0.329  15.839  0.2639  0.9147 -0.7993
 4210SOL    HW224264   2.648   0.289  15.887 -3.4519  3.0856  1.1821
 4211SOL     OW24265   1.853   0.415  13.941 -1.0203 -0.4098 -0.4066
 4211SOL    HW124266   1.915   0.391  13.871  1.0446  1.7825  0.6451
 4211SOL    HW224267   1.778   0.368  13.905 -2.9434  1.1362  1.6513
 4212SOL     OW24268   0.780   3.998   6.040 -0.5545  0.3664  0.1484
 4212SOL    HW124269   0.842   4.060   6.001 -0.6933 -1.1576 -2.4993
 4212SOL    HW224270   0.709   4.058   6.063  0.6572  2.5293 -1.7627
 4213SOL     OW24271   1.817   4.056   6.102 -0.0457 -0.4138  0.1233
 4213SOL    HW124272   1.867   3.984   6.140 -0.8214 -0.4645  1.0500
 4213SOL    HW224273   1.732   4.015   6.084 -1.1344  0.9862  1.9850
 4214SOL     OW24274   2.574   4.086   4.398 -0.0128  0.6735  0.1033
 4214SOL    HW124275   2.521   4.047   4.329  2.0733 -0.0968 -1.0632
 4214SOL    HW224276   2.591   4.172   4.360  1.2179 -0.1019 -1.0915
 4215SOL     OW24277   1.840   4.684   0.228 -0.2428  0.4072  0.0796
 4215SOL    HW124278   1.876   0.031   0.265 -1.2564  0.7792  0.2616
 4215SOL    HW224279   1.770   4.718   0.172 -0.3981  0.7661  0.4890
 4216SOL     OW24280   0.800   1.622   6.276 -0.5175 -0.2607 -0.2646
 4216SOL    HW124281   0.849   1.649   6.354 -1.2681 -0.3388  0.2305
 4216SOL    HW224282   0.809   1.527   6.288  2.9570  0.3870  2.3659
 4217SOL     OW24283   4.573   3.434   7.200 -0.3649 -0.1965 -1.0058
 4217SOL    HW124284   4.615   3.507   7.156 -1.4125  0.9466 -0.0960
 4217SOL    HW224285   4.546   3.468   7.285  1.0359  0.5311 -0.8661
 4218SOL     OW24286   0.545   2.735   3.176 -0.1570  0.1466 -0.3896
 4218SOL    HW124287   0.456   2.755   3.147 -0.1587  0.8058  0.0544
 4218SOL    HW224288   0.598   2.770   3.104  0.1463  0.5224  0.0085
 4219SOL     OW24289   3.565   3.523   6.508 -0.1527 -0.0214 -0.1441
 4219SOL    HW124290   3.620   3.468   6.564  1.0782 -1.0292 -2.3404
 4219SOL    HW224291   3.630   3.587   6.479 -1.3374  0.8407 -0.8885
 4220SOL     OW24292   3.302   4.711   9.051  0.6599  0.2303  0.2522
 4220SOL    HW124293   3.359   0.042   9.012 -0.4130  0.1885 -1.3971
 4220SOL    HW224294   3.336   4.629   9.014 -0.8473 -0.4191  0.2962
 4221SOL     OW24295   1.918   2.434  15.404  0.5517 -0.1712  0.1199
 4221SOL    HW124296   1.906   2.492  15.330 -1.0667  0.0482  0.5542
 4221SOL    HW224297   1.940   2.350  15.365  0.8415  0.3154 -0.7523
 4222SOL     OW24298   3.617   0.348   2.972  0.0798 -0.0815 -0.0746
 4222SOL    HW124299   3.607   0.335   2.877  2.0256 -1.2175 -0.1175
 4222SOL    HW224300   3.660   0.269   3.003 -0.1414 -0.0252  0.3735
 4223SOL     OW24301   4.659   2.595   3.515 -0.5394  0.7184 -0.0413
 4223SOL    HW124302   4.730   2.647   3.477  0.3948 -1.5160 -1.4067
 4223SOL    HW224303   4.671   2.613   3.608  1.9903 -3.8458  0.5207
 4224SOL     OW24304   0.214   3.082   8.483  0.3841 -0.3472  0.0814
 4224SOL    HW124305   0.154   3.011   8.460 -1.2988  0.6297  1.4115
 4224SOL    HW224306   0.177   3.162   8.446  0.3799 -0.4436 -0.1210
 4225SOL     OW24307   2.899   0.391   3.705 -0.3137 -0.6461  0.0880
 4225SOL    HW124308   2.841   0.432   3.641 -0.3570 -0.8467 -0.0041
 4225SOL    HW224309   2.862   0.404   3.793 -1.3420 -1.7202 -0.1686
 4226SOL     OW24310   4.584   1.313   7.990  0.0500  0.0093  0.2770
 4226SOL    HW124311   4.539   1.267   8.061  0.7530 -2.8547 -1.1646
 4226SOL    HW224312   4.523   1.315   7.917 -0.6141 -0.7455  0.8176
 4227SOL     OW24313   1.022   0.667   7.240  0.6516 -0.0344  0.2482
 4227SOL    HW124314   1.007   0.582   7.198  0.3411  0.0998  0.0877
 4227SOL    HW224315   1.085   0.637   7.305  0.7028 -0.8508 -0.1764
 4228SOL     OW24316   3.404   0.111   7.936 -0.4062 -0.4160  0.5489
 4228SOL    HW124317   3.374   0.111   8.027  0.9728 -1.0865  1.0003
 4228SOL    HW224318   3.347   0.038   7.911 -0.1503 -1.3598  2.8009
 4229SOL     OW24319   2.273   0.254   3.195 -0.3273 -0.1846  0.5444
 4229SOL    HW124320   2.292   0.347   3.181  0.0787 -0.3777 -0.1777
 4229SOL    HW224321   2.219   0.253   3.274 -0.4595 -1.5526  0.4479
 4230SOL     OW24322   1.418   2.858  12.378 -0.1362  0.2091  0.1420
 4230SOL    HW124323   1.429   2.843  12.473 -3.3003  2.6081  0.8711
 4230SOL    HW224324   1.375   2.784  12.336 -0.5658 -0.3148  1.4872
 4231SOL     OW24325   1.281   2.220   3.665  0.0088 -0.1612  0.1940
 4231SOL    HW124326   1.328   2.158   3.721  1.1558 -0.9838 -1.6975
 4231SOL    HW224327   1.352   2.265   3.621 -0.5427 -0.3108 -0.8590
 4232SOL     OW24328   1.826   0.327   0.679  0.5104  0.1847  0.6352
 4232SOL    HW124329   1.813   0.275   0.600 -1.6339  1.4182  0.1717
 4232SOL    HW224330   1.866   0.405   0.640  3.0690 -0.8954  1.1026
 4233SOL     OW24331   1.341   1.966   6.345  0.2023 -0.6351 -0.1793
 4233SOL    HW124332   1.361   2.013   6.426  0.7782  0.1151 -0.7497
 4233SOL    HW224333   1.359   1.875   6.366 -1.2327 -0.9470 -0.3048
 4234SOL     OW24334   4.307   1.638  11.207 -0.3941  0.1172  0.5011
 4234SOL    HW124335   4.392   1.593  11.209 -0.9407 -0.9879 -1.6998
 4234SOL    HW224336   4.295   1.652  11.114 -0.1414 -3.6270 -0.0816
 4235SOL     OW24337   4.284   3.487   6.132  0.8013  0.1566  0.5347
 4235SOL    HW124338   4.279   3.583   6.133  0.0098  0.1085  0.7955
 4235SOL    HW224339   4.245   3.461   6.048  1.5688 -1.3842  0.6463
 4236SOL     OW24340   4.438   4.452   5.265 -0.8060  0.0487  0.1809
 4236SOL    HW124341   4.499   4.520   5.239 -2.0261  0.0619 -2.7006
 4236SOL    HW224342   4.382   4.495   5.329 -1.3471  0.4073 -0.5301
 4237SOL     OW24343   3.907   0.555   5.275  0.4041 -0.5213 -0.1573
 4237SOL    HW124344   4.000   0.553   5.253  0.2601 -2.4027 -0.5846
 4237SOL    HW224345   3.891   0.642   5.311 -0.4661 -0.4284 -0.7483
 4238SOL     OW24346   4.123   0.689   3.244 -0.4037 -0.3037 -0.2808
 4238SOL    HW124347   4.072   0.748   3.299 -0.5414  0.5437 -1.3254
 4238SOL    HW224348   4.216   0.712   3.254  0.2241 -1.8125 -2.5855
 4239SOL     OW24349   2.377   4.302  13.174 -0.1996  0.5157 -0.2374
 4239SOL    HW124350   2.423   4.344  13.246 -1.9605  0.2628  1.0325
 4239SOL    HW224351   2.340   4.227  13.220 -1.3329  0.5935 -1.0214
 4240SOL     OW24352   0.068   0.380   5.728  0.5302  0.0268  0.7011
 4240SOL    HW124353   0.078   0.314   5.797  3.7163  0.3229  0.4831
 4240SOL    HW224354   0.003   0.338   5.671  0.8219 -0.0657  0.4386
 4241SOL     OW24355   2.424   0.226   7.588  0.5159 -0.7411  0.1998
 4241SOL    HW124356   2.471   0.202   7.508  0.9908  0.5024  0.0935
 4241SOL    HW224357   2.501   0.229   7.645 -0.2979  2.1446  1.1526
 4242SOL     OW24358   4.121   1.456  16.011  0.2937  0.3240  0.6292
 4242SOL    HW124359   4.184   1.442  15.941  0.0824  2.1447  0.0801
 4242SOL    HW224360   4.046   1.465  15.953 -0.3297 -2.7468  0.9450
 4243SOL     OW24361   2.586   0.196   3.341 -0.0661 -0.4507 -0.0686
 4243SOL    HW124362   2.492   0.201   3.320  0.4736  1.5655 -1.9309
 4243SOL    HW224363   2.583   0.247   3.422 -0.5575  0.0122 -0.3786
 4244SOL     OW24364   2.971   0.549   4.493  0.1242  0.1015  0.1480
 4244SOL    HW124365   2.972   0.641   4.517  0.0665  0.3464 -0.7610
 4244SOL    HW224366   3.065   0.537   4.479  0.0886 -1.0730  0.8714
 4245SOL     OW24367   4.123   4.382   7.798  0.3357  0.2409 -0.3194
 4245SOL    HW124368   4.127   4.420   7.710 -1.1546 -0.0322 -0.5123
 4245SOL    HW224369   4.032   4.405   7.817  0.2303 -0.2553 -0.2152
 4246SOL     OW24370   3.620   4.608   1.949  0.0452  0.3394 -0.4017
 4246SOL    HW124371   3.533   4.591   1.913 -0.9015  0.4339  1.8554
 4246SOL    HW224372   3.646   4.518   1.966 -0.3303  0.0459 -1.3686
 4247SOL     OW24373   3.308   0.184   4.372 -0.7853 -0.2219 -0.2546
 4247SOL    HW124374   3.392   0.155   4.407  0.3709  1.9434 -1.1808
 4247SOL    HW224375   3.311   0.138   4.288 -0.0841  1.2570 -1.0398
 4248SOL     OW24376   0.118   2.530   4.781 -0.2725 -0.6402  0.4090
 4248SOL    HW124377   0.148   2.446   4.746 -0.7070 -0.2804 -0.8514
 4248SOL    HW224378   0.024   2.518   4.786 -0.5965  1.0090 -1.6474
 4249SOL     OW24379   1.408   1.578   1.712  0.2651 -0.5024 -0.4154
 4249SOL    HW124380   1.500   1.594   1.732  0.3872 -0.9046 -0.6605
 4249SOL    HW224381   1.423   1.533   1.629  2.6597  1.1574 -0.8628
 4250SOL     OW24382   1.188   3.797   6.373  1.0664 -0.8074 -0.7300
 4250SOL    HW124383   1.156   3.750   6.451 -0.1808 -0.8642 -1.2742
 4250SOL    HW224384   1.113   3.782   6.315 -0.9658  0.5054  1.5398
 4251SOL     OW24385   0.512   1.455   9.255 -0.3602  0.1666 -0.1034
 4251SOL    HW124386   0.512   1.369   9.214 -2.9115  0.4696 -0.7274
 4251SOL    HW224387   0.475   1.428   9.339 -1.5444  0.9653 -0.3661
 4252SOL     OW24388   1.157   4.621   4.572 -0.3790  0.2202 -0.3092
 4252SOL    HW124389   1.202   4.538   4.586 -2.4072 -0.4615  2.1766
 4252SOL    HW224390   1.181   4.655   4.658 -0.2757 -0.5051 -0.0562
 4253SOL     OW24391   4.592   2.221  14.997  0.4158  0.0027 -0.2549
 4253SOL    HW124392   4.609   2.302  14.948 -0.5304 -0.2304 -0.9552
 4253SOL    HW224393   4.573   2.156  14.930  3.6860 -1.8920  0.6402
 4254SOL     OW24394   4.260   4.207  17.065  0.3801 -0.1425  0.2614
 4254SOL    HW124395   4.166   4.216  17.083  0.1685  0.7618 -1.2965
 4254SOL    HW224396   4.259   4.155  16.984  0.6413  2.8084 -1.6389
 4255SOL     OW24397   1.759   2.899  16.745  0.5644  0.2107 -0.1961
 4255SOL    HW124398   1.778   2.988  16.715 -4.3751  0.5574 -2.3755
 4255SOL    HW224399   1.798   2.852  16.671  1.4490 -3.0958  2.3854
 4256SOL     OW24400   1.664   4.527   8.114  0.1549 -0.2899  0.1366
 4256SOL    HW124401   1.600   4.578   8.163  1.5991  0.8513  0.8559
 4256SOL    HW224402   1.701   4.482   8.190 -2.5908  0.3493  1.8131
 4257SOL     OW24403   0.399   3.227   9.101 -0.2436  0.2734  0.0937
 4257SOL    HW124404   0.330   3.160   9.100 -0.0535  0.0651  1.1446
 4257SOL    HW224405   0.472   3.166   9.096 -1.2081 -1.1442  2.9301
 4258SOL     OW24406   1.304   2.715  14.738  0.4482 -0.4570  0.2337
 4258SOL    HW124407   1.264   2.802  14.739 -0.7685 -1.0176 -0.1934
 4258SOL    HW224408   1.320   2.706  14.645  0.9639  0.1706  0.2645
 4259SOL     OW24409   2.785   1.421  12.427 -0.1498 -0.1530  0.0708
 4259SOL    HW124410   2.775   1.429  12.332  1.2806 -1.8277 -0.2259
 4259SOL    HW224411   2.867   1.374  12.443  1.3591  2.0966 -1.0177
 4260SOL     OW24412   1.864   4.283   0.129  0.3835 -0.1881 -0.3366
 4260SOL    HW124413   1.955   4.307   0.145  0.2746 -0.0685  0.0920
 4260SOL    HW224414   1.829   4.352   0.072  0.7686 -0.8310 -1.3566
 4261SOL     OW24415   4.072   4.021   4.747 -0.4454 -0.0068  0.0793
 4261SOL    HW124416   4.103   4.098   4.699  1.5314 -1.9104 -1.7543
 4261SOL    HW224417   3.986   4.044   4.782  0.2769 -0.7291  2.3686
 4262SOL     OW24418   0.351   1.001   3.084  0.1815 -0.2893  0.1645
 4262SOL    HW124419   0.327   0.911   3.062  0.5294 -0.6261  1.1555
 4262SOL    HW224420   0.437   1.020   3.047 -0.1276 -0.0462 -0.4482
 4263SOL     OW24421   0.457   1.665   3.413 -0.4505  0.2252 -0.9975
 4263SOL    HW124422   0.377   1.615   3.423  0.3675 -1.1624 -1.4538
 4263SOL    HW224423   0.503   1.652   3.496 -2.0163 -0.3123 -0.2303
 4264SOL     OW24424   3.298   0.497   6.276 -0.2508 -0.4770 -0.4839
 4264SOL    HW124425   3.322   0.429   6.339 -3.2101  2.6478  3.9430
 4264SOL    HW224426   3.301   0.570   6.337 -0.4370 -0.1075 -0.9180
 4265SOL     OW24427   0.602   2.950   7.077  0.3106 -0.2464 -0.8086
 4265SOL    HW124428   0.686   2.995   7.075 -0.0540  0.4090 -1.6589
 4265SOL    HW224429   0.624   2.857   7.081  0.0501 -0.3468 -1.6738
 4266SOL     OW24430   2.282   2.614   8.251  0.4695  0.4054  0.0082
 4266SOL    HW124431   2.280   2.579   8.162 -0.2449 -0.9110  0.5330
 4266SOL    HW224432   2.342   2.688   8.245  3.1811 -1.5390  3.2804
 4267SOL     OW24433   1.284   1.274   9.087  0.0348  0.2876 -0.0889
 4267SOL    HW124434   1.226   1.231   9.025  0.1636 -2.4309  1.6509
 4267SOL    HW224435   1.362   1.217   9.089 -0.6584 -0.7613 -2.9129
 4268SOL     OW24436   0.889   1.682   9.672  0.1295 -0.4233  0.4065
 4268SOL    HW124437   0.980   1.713   9.664 -0.0677 -0.0063 -0.1528
 4268SOL    HW224438   0.848   1.764   9.647  0.8747  0.0288  0.6505
 4269SOL     OW24439   1.900   1.744  16.938 -0.0697  0.4075 -0.1218
 4269SOL    HW124440   1.867   1.682  17.004 -0.7206  2.1619  1.1835
 4269SOL    HW224441   1.991   1.753  16.967  1.1383 -1.6489 -3.2409
 4270SOL     OW24442   2.585   1.153   6.752 -0.6830  0.3037 -0.7551
 4270SOL    HW124443   2.617   1.120   6.669  2.1797 -1.7643  1.1748
 4270SOL    HW224444   2.671   1.142   6.793 -1.3520  0.0994  0.5904
 4271SOL     OW24445   4.177   3.693  11.245 -0.5102  0.0759 -0.5833
 4271SOL    HW124446   4.231   3.621  11.278 -0.7987  0.0391 -0.1993
 4271SOL    HW224447   4.192   3.689  11.150 -0.4826 -1.1392 -0.5287
 4272SOL     OW24448   0.632   3.194   3.532  0.2086  0.5843  0.0349
 4272SOL    HW124449   0.663   3.279   3.562  1.1330 -0.6046  2.4323
 4272SOL    HW224450   0.539   3.191   3.553  0.2091 -1.0603 -0.1821
 4273SOL     OW24451   1.960   2.030  15.436  0.5459 -0.0099 -0.1316
 4273SOL    HW124452   2.028   1.972  15.470 -0.6063 -1.0164  0.4557
 4273SOL    HW224453   1.937   1.989  15.353  1.3478  0.8694 -0.7914
 4274SOL     OW24454   2.082   3.066   7.499  0.2512 -0.1121 -0.3268
 4274SOL    HW124455   2.131   2.984   7.490  0.7904  0.0562  1.1668
 4274SOL    HW224456   2.062   3.073   7.592 -0.3568 -0.1495 -0.4539
 4275SOL     OW24457   1.276   2.970   8.328  0.0705  0.5457  0.7096
 4275SOL    HW124458   1.259   2.909   8.399  0.0654  0.0513  0.2867
 4275SOL    HW224459   1.352   2.934   8.281  0.4614  1.5115  0.5821
 4276SOL     OW24460   0.677   3.374   4.955  0.3238  0.2947 -0.0792
 4276SOL    HW124461   0.732   3.452   4.963 -0.5186  0.6833  1.9741
 4276SOL    HW224462   0.629   3.381   5.037 -0.0905  1.1070 -0.3947
 4277SOL     OW24463   3.810   1.409   8.351  0.1375 -0.0156  0.0881
 4277SOL    HW124464   3.804   1.382   8.259 -1.8688  0.8209 -0.0281
 4277SOL    HW224465   3.856   1.334   8.388  2.2609  1.5149  0.5407
 4278SOL     OW24466   4.006   3.231   8.876 -0.4368  0.5830 -0.1237
 4278SOL    HW124467   3.978   3.193   8.960  2.1224  1.2902  1.0714
 4278SOL    HW224468   4.055   3.310   8.900  0.2114 -0.4589  2.0340
 4279SOL     OW24469   0.023   2.356   4.453 -0.4925 -0.6755  0.2657
 4279SOL    HW124470   4.682   2.359   4.512  0.4007 -0.2197  1.3788
 4279SOL    HW224471   0.039   2.449   4.436 -0.7432 -0.2872  2.1685
 4280SOL     OW24472   2.330   0.913   0.861 -0.1379 -0.0910  0.2543
 4280SOL    HW124473   2.327   1.007   0.877 -1.8474 -0.0789 -0.1702
 4280SOL    HW224474   2.345   0.932   0.769  0.5781 -1.7438  0.0284
 4281SOL     OW24475   1.626   3.636  16.169  0.0841 -0.2582  0.3022
 4281SOL    HW124476   1.574   3.665  16.094 -0.3944 -1.0391  0.3344
 4281SOL    HW224477   1.679   3.715  16.178 -0.4146  0.3160 -1.9531
 4282SOL     OW24478   2.533   4.138  10.189  0.1665 -0.6025  0.1672
 4282SOL    HW124479   2.578   4.079  10.129  0.9651  2.2018 -2.0025
 4282SOL    HW224480   2.536   4.226  10.151  0.1484  0.6564  3.0896
 4283SOL     OW24481   3.634   2.659  17.462  0.4604  0.4879  0.2634
 4283SOL    HW124482   3.637   2.665  17.366  1.0826  1.1148  0.3177
 4283SOL    HW224483   3.667   2.571  17.477 -0.4647 -0.0647 -0.9073
 4284SOL     OW24484   2.500   0.086   2.673 -0.5100 -0.4776  0.4327
 4284SOL    HW124485   2.410   0.092   2.703 -0.3091 -1.2684  1.1814
 4284SOL    HW224486   2.483   0.094   2.579  0.7006  1.5557  0.3774
 4285SOL     OW24487   0.457   0.958  16.878  0.3692  0.0602  0.1395
 4285SOL    HW124488   0.535   1.002  16.844  0.9005 -1.1778 -0.2470
 4285SOL    HW224489   0.452   0.983  16.970  0.7429 -0.8756  0.4204
 4286SOL     OW24490   1.913   4.230   7.522 -0.3379 -0.0172  0.4979
 4286SOL    HW124491   1.994   4.184   7.501  0.2268  1.4758 -0.6277
 4286SOL    HW224492   1.940   4.321   7.534 -0.8601  0.4932 -2.2133
 4287SOL     OW24493   3.176   3.456   8.440  0.1156 -0.1109 -0.5838
 4287SOL    HW124494   3.256   3.508   8.436 -1.1401  1.7937 -0.9203
 4287SOL    HW224495   3.116   3.517   8.483 -0.0366  0.0352 -1.0088
 4288SOL     OW24496   1.694   2.308  17.326  0.5031 -0.2361 -0.1515
 4288SOL    HW124497   1.672   2.305  17.233 -1.1540  0.9375  0.1778
 4288SOL    HW224498   1.701   2.216  17.349  2.7520  0.3786  1.5641
 4289SOL     OW24499   2.914   0.649  10.020 -0.1148  0.3595 -0.1284
 4289SOL    HW124500   2.971   0.631   9.945 -1.9572 -2.0099 -0.9841
 4289SOL    HW224501   2.948   0.735  10.040  0.1625  0.9517 -3.0493
 4290SOL     OW24502   3.748   3.568   3.073  0.5193  0.0571 -0.5833
 4290SOL    HW124503   3.769   3.615   2.992  2.5860  0.6756  0.3307
 4290SOL    HW224504   3.738   3.482   3.031 -2.7408 -0.0459  0.4349
 4291SOL     OW24505   2.829   3.762  12.974  0.4113  0.5191  1.4342
 4291SOL    HW124506   2.908   3.713  12.997  0.0659 -0.5260  0.3599
 4291SOL    HW224507   2.825   3.835  13.036 -1.4330  0.4396  1.4030
 4292SOL     OW24508   2.753   1.752   2.332 -0.1742  0.4118  0.2893
 4292SOL    HW124509   2.747   1.797   2.248  0.2637  1.1618  0.6633
 4292SOL    HW224510   2.662   1.751   2.361 -0.9168 -1.8362 -2.0593
 4293SOL     OW24511   4.401   3.495   2.402  0.0757 -0.6110  0.1200
 4293SOL    HW124512   4.484   3.542   2.413 -0.4141 -0.7922  4.7149
 4293SOL    HW224513   4.344   3.566   2.372  1.4655 -0.6167 -2.5067
 4294SOL     OW24514   0.753   4.282  10.093 -0.1807  0.0443 -0.2431
 4294SOL    HW124515   0.667   4.282  10.050 -0.1425 -0.6954 -0.3180
 4294SOL    HW224516   0.753   4.189  10.112 -0.1032  0.2714  0.8565
 4295SOL     OW24517   3.906   2.244   5.925  0.2742 -0.5627 -0.0878
 4295SOL    HW124518   3.902   2.305   5.998 -2.1629 -0.3890 -0.3817
 4295SOL    HW224519   3.838   2.282   5.869  0.0630 -0.1483  0.4560
 4296SOL     OW24520   3.747   2.369   4.941  0.5381  0.1802  0.0339
 4296SOL    HW124521   3.760   2.299   5.005 -1.6730  0.5892  0.9195
 4296SOL    HW224522   3.722   2.322   4.862  0.6773 -0.6217  0.4607
 4297SOL     OW24523   3.803   2.742  10.910  0.5374 -0.1950  0.2620
 4297SOL    HW124524   3.840   2.686  10.978  0.4206 -0.9495 -0.3018
 4297SOL    HW224525   3.826   2.693  10.831  1.2666 -4.0532  2.8931
 4298SOL     OW24526   2.719   3.925   6.032 -0.1033  0.9421  1.3207
 4298SOL    HW124527   2.707   3.973   6.114  1.2926  0.7911  1.6129
 4298SOL    HW224528   2.707   3.837   6.066 -0.0433  1.1221  1.8092
 4299SOL     OW24529   0.058   0.951  10.474 -0.2608  0.3746  0.1198
 4299SOL    HW124530   0.043   1.038  10.512 -2.1608 -1.3976  3.3534
 4299SOL    HW224531   4.724   0.907  10.525  0.6901  0.2419  1.2476
 4300SOL     OW24532   2.597   0.535  11.800 -0.2243 -0.1837 -0.2026
 4300SOL    HW124533   2.598   0.469  11.870  1.6309 -0.2687 -0.3142
 4300SOL    HW224534   2.678   0.510  11.755 -0.5028  2.1313 -1.9914
 4301SOL     OW24535   0.847   4.321   1.348  0.3345 -0.5610  0.1513
 4301SOL    HW124536   0.866   4.343   1.257 -1.4930  4.6646  1.0254
 4301SOL    HW224537   0.868   4.405   1.389  0.3362 -0.6342  0.2997
 4302SOL     OW24538   4.422   3.743   0.242  0.7087  0.6799  0.2376
 4302SOL    HW124539   4.470   3.697   0.311  0.4916 -0.4938 -0.4057
 4302SOL    HW224540   4.340   3.695   0.235  0.8701  0.3331  0.7356
 4303SOL     OW24541   2.119   1.088  16.188 -0.1649 -0.0987  0.8447
 4303SOL    HW124542   2.108   1.182  16.198  0.4049 -0.1902  2.3547
 4303SOL    HW224543   2.187   1.087  16.121  0.8583 -0.8784  1.8901
 4304SOL     OW24544   0.888   0.213   0.383 -0.1288  0.4933  0.0837
 4304SOL    HW124545   0.804   0.171   0.362 -0.0645 -0.2584  1.3164
 4304SOL    HW224546   0.858   0.297   0.418  0.7125  0.4338  0.9338
 4305SOL     OW24547   1.168   1.316   4.960 -0.5961  0.6328  0.1961
 4305SOL    HW124548   1.263   1.318   4.953 -0.5964 -2.2818 -0.3737
 4305SOL    HW224549   1.146   1.227   4.934  0.1183  1.0124 -1.7038
 4306SOL     OW24550   0.702   0.085   6.343  0.7034  0.3458 -0.1373
 4306SOL    HW124551   0.709   0.147   6.416 -1.0564  0.3302  0.0439
 4306SOL    HW224552   0.711   0.142   6.267 -1.9291  1.6916  0.5466
 4307SOL     OW24553   3.864   0.036   7.604 -0.0542 -0.6232  0.1833
 4307SOL    HW124554   3.838   0.122   7.572  1.7142  0.2801  1.1630
 4307SOL    HW224555   3.785   4.717   7.609 -0.3497 -0.2667 -0.8452
 4308SOL     OW24556   0.678   1.349   7.851  0.2537  0.2363  0.3649
 4308SOL    HW124557   0.605   1.288   7.864 -0.6782  1.1863 -0.4805
 4308SOL    HW224558   0.758   1.308   7.885  0.0104  0.3012  1.0066
 4309SOL     OW24559   3.679   1.298  10.579  0.6080  0.0055  0.0086
 4309SOL    HW124560   3.674   1.213  10.536  1.6584 -1.2384  2.3520
 4309SOL    HW224561   3.672   1.362  10.508 -0.9150  1.2283  1.2401
 4310SOL     OW24562   2.796   1.946  14.811 -0.0870  0.2991  0.0065
 4310SOL    HW124563   2.789   2.008  14.883 -0.4527  1.0159 -0.6399
 4310SOL    HW224564   2.710   1.950  14.770 -0.9834  1.0328  1.9640
 4311SOL     OW24565   1.479   1.496   7.676  0.2178  0.1956 -0.1134
 4311SOL    HW124566   1.439   1.503   7.763  1.0560  3.0765  0.0089
 4311SOL    HW224567   1.408   1.469   7.618  0.5985  0.8165 -0.8591
 4312SOL     OW24568   0.978   3.494   9.542 -0.5591 -0.0960 -0.3043
 4312SOL    HW124569   1.043   3.501   9.612 -1.1276  0.5306  0.1604
 4312SOL    HW224570   0.998   3.572   9.489  1.0462 -1.2505 -1.3719
 4313SOL     OW24571   1.012   1.673  13.118 -0.2468  0.4518 -0.1089
 4313SOL    HW124572   0.935   1.621  13.140  0.7309 -0.6003  0.7926
 4313SOL    HW224573   1.047   1.683  13.206  0.3249 -1.1393 -0.1470
 4314SOL     OW24574   2.675   3.069   4.577 -0.2659 -0.0230  0.2083
 4314SOL    HW124575   2.764   3.101   4.566 -1.0987  1.6608 -1.6669
 4314SOL    HW224576   2.675   3.024   4.492  0.1501  0.0924  0.1501
 4315SOL     OW24577   2.389   1.606   9.568 -0.3040  0.1212  0.0848
 4315SOL    HW124578   2.424   1.542   9.506  0.7267  0.8183 -0.0684
 4315SOL    HW224579   2.366   1.671   9.501  0.2707  0.6393  0.3827
 4316SOL     OW24580   1.092   4.255   3.829  0.5955  0.1931 -0.2640
 4316SOL    HW124581   1.119   4.339   3.792  0.4275  0.0845 -0.6276
 4316SOL    HW224582   1.167   4.246   3.888 -0.6489  0.2047  1.3113
 4317SOL     OW24583   2.568   4.467  12.388 -0.5761  0.2402  0.0891
 4317SOL    HW124584   2.601   4.388  12.346 -1.9153 -0.3478  0.1460
 4317SOL    HW224585   2.483   4.433  12.416 -1.8167  4.0690  0.9507
 4318SOL     OW24586   0.911   3.730   9.994  0.3020 -0.2737  0.4488
 4318SOL    HW124587   0.933   3.763   9.907  2.1055 -0.0010  1.0178
 4318SOL    HW224588   0.998   3.720  10.032 -0.4837 -2.3754  1.6645
 4319SOL     OW24589   3.451   2.126   5.764  0.0846  0.2677 -0.1687
 4319SOL    HW124590   3.453   2.034   5.788  1.0981  0.6651  1.3112
 4319SOL    HW224591   3.360   2.122   5.735  0.4295  0.8799 -1.3251
 4320SOL     OW24592   0.900   4.268   4.828  0.2303 -0.3191  0.4906
 4320SOL    HW124593   0.909   4.219   4.910 -2.9287 -0.2522  0.8974
 4320SOL    HW224594   0.893   4.361   4.849  2.0036 -0.1504  0.3352
 4321SOL     OW24595   4.136   0.697  12.036  0.0900 -0.0885  0.6578
 4321SOL    HW124596   4.040   0.691  12.031  0.2324 -0.7566 -1.0425
 4321SOL    HW224597   4.148   0.750  11.958 -0.7015 -2.1001 -0.8110
 4322SOL     OW24598   1.231   0.227   4.376  0.4194  0.3970 -0.1493
 4322SOL    HW124599   1.321   0.223   4.406  0.4670  0.8705 -0.2334
 4322SOL    HW224600   1.212   0.135   4.355  1.3639  0.5340 -1.6078
 4323SOL     OW24601   2.023   1.784   1.651  0.0451 -0.0554  0.1398
 4323SOL    HW124602   2.036   1.879   1.652  0.4720 -0.0753 -3.0153
 4323SOL    HW224603   1.969   1.771   1.729  1.5419  0.1832  1.2280
 4324SOL     OW24604   2.368   2.806   9.647  0.2412 -0.0013 -0.0160
 4324SOL    HW124605   2.420   2.873   9.691 -1.7579  1.3618  0.2829
 4324SOL    HW224606   2.427   2.730   9.650  0.5233  0.2263  0.1530
 4325SOL     OW24607   3.281   4.333   6.154 -0.3041  0.5454  0.5007
 4325SOL    HW124608   3.372   4.363   6.155 -0.4944  1.1739 -1.8434
 4325SOL    HW224609   3.302   4.243   6.131 -0.8356  0.9676 -1.5532
 4326SOL     OW24610   0.595   3.682   2.353  0.0654 -0.2356  0.1067
 4326SOL    HW124611   0.527   3.617   2.370 -1.5511  1.1439 -1.1438
 4326SOL    HW224612   0.653   3.684   2.429  0.9632 -2.7970 -0.5379
 4327SOL     OW24613   3.003   2.546   5.432  0.3654  0.3219 -0.4341
 4327SOL    HW124614   3.010   2.450   5.426  0.7341  0.2229  1.5271
 4327SOL    HW224615   2.984   2.569   5.342  2.3554  4.2302  0.1493
 4328SOL     OW24616   1.853   4.222   5.214 -0.2217 -0.6971 -0.3129
 4328SOL    HW124617   1.871   4.129   5.201  0.6078 -0.4028 -1.2189
 4328SOL    HW224618   1.768   4.218   5.259 -0.6624  0.6228 -1.0278
 4329SOL     OW24619   0.181   3.635   8.409  0.7721  0.0234 -0.2353
 4329SOL    HW124620   0.269   3.659   8.438  0.6606 -2.5308  2.2095
 4329SOL    HW224621   0.170   3.574   8.482  1.2482 -0.3006 -0.4322
 4330SOL     OW24622   4.431   3.248   8.363 -0.2636 -0.5279  0.2765
 4330SOL    HW124623   4.349   3.198   8.363 -0.3025 -0.4992 -1.7739
 4330SOL    HW224624   4.458   3.260   8.454  0.8793  0.0001 -0.1387
 4331SOL     OW24625   1.993   3.371  12.825 -0.3602  0.3154  0.3667
 4331SOL    HW124626   1.976   3.286  12.864  1.4221 -0.0187  0.4236
 4331SOL    HW224627   1.961   3.369  12.734  2.1164 -1.3850 -0.4766
 4332SOL     OW24628   4.659   4.474  13.771 -0.0398  0.1359  0.6487
 4332SOL    HW124629   4.716   4.398  13.786 -0.2047 -0.0406  0.3808
 4332SOL    HW224630   4.701   4.516  13.696  1.3953  0.0100  1.3841
 4333SOL     OW24631   3.845   2.639   2.755 -0.5168  0.1485  0.3536
 4333SOL    HW124632   3.807   2.552   2.763  0.3688 -0.2599  0.1366
 4333SOL    HW224633   3.785   2.690   2.700  1.1262 -0.5257 -2.0716
 4334SOL     OW24634   4.607   3.389  11.368 -0.1421 -0.3129  0.1141
 4334SOL    HW124635   4.681   3.370  11.426 -0.6739 -0.9923  0.5602
 4334SOL    HW224636   4.567   3.470  11.399 -0.8261  0.6104 -3.0883
 4335SOL     OW24637   3.652   2.957  10.659  0.4732 -0.2294 -0.7300
 4335SOL    HW124638   3.623   2.958  10.750 -0.3220 -0.5959 -0.9778
 4335SOL    HW224639   3.599   3.029  10.624  1.7942  1.0571 -0.0832
 4336SOL     OW24640   0.473   1.532  13.166  0.0828  0.5677 -0.5916
 4336SOL    HW124641   0.469   1.626  13.179 -3.6666  0.2512  0.3319
 4336SOL    HW224642   0.382   1.503  13.156  0.1726  0.4587 -1.1222
 4337SOL     OW24643   3.426   2.868   8.782 -0.1939 -0.0931  0.6989
 4337SOL    HW124644   3.425   2.963   8.772 -0.3601 -0.0972  0.6625
 4337SOL    HW224645   3.450   2.836   8.695  0.6950 -1.3464  1.4095
 4338SOL     OW24646   1.894   1.650   4.504  0.1240  0.2710  0.0813
 4338SOL    HW124647   1.914   1.665   4.411  0.8932  0.1828  0.2349
 4338SOL    HW224648   1.971   1.603   4.537  0.6435  1.0902  0.0491
 4339SOL     OW24649   2.552   4.663  11.706  0.7788  0.0223  0.1490
 4339SOL    HW124650   2.592   4.594  11.759 -3.1450 -2.4220 -0.0730
 4339SOL    HW224651   2.629   4.700  11.663  0.4456  1.2542  0.5970
 4340SOL     OW24652   2.412   4.436  15.777  0.2468  0.0551  0.2179
 4340SOL    HW124653   2.380   4.518  15.741  1.0674  2.7597  5.5812
 4340SOL    HW224654   2.350   4.365  15.758  0.6012 -0.2740  0.2823
 4341SOL     OW24655   3.056   2.813   2.068  0.0500  0.2023 -0.1259
 4341SOL    HW124656   3.105   2.861   2.135 -0.2353 -1.1973  1.0876
 4341SOL    HW224657   3.006   2.887   2.034  0.8239  1.0164  0.5174
 4342SOL     OW24658   3.251   2.533   2.362 -0.5561 -0.1742  0.1518
 4342SOL    HW124659   3.254   2.620   2.401 -0.4053  0.9080 -2.2531
 4342SOL    HW224660   3.236   2.558   2.271  0.6288  1.0881  0.3050
 4343SOL     OW24661   1.197   3.448   6.729 -0.0473  0.8811  0.1953
 4343SOL    HW124662   1.116   3.420   6.686  0.1221  1.8855 -0.7981
 4343SOL    HW224663   1.248   3.402   6.662  1.2759 -0.2413  1.9829
 4344SOL     OW24664   2.601   4.658   3.053 -0.2042  0.0922  0.1747
 4344SOL    HW124665   2.523   4.612   3.084  0.5006 -0.7470  0.6979
 4344SOL    HW224666   2.634   4.705   3.129  0.6331  0.2503 -0.2924
 4345SOL     OW24667   0.366   2.296   1.733  0.0091  0.2481  0.5803
 4345SOL    HW124668   0.446   2.268   1.689  0.8950 -0.2358  2.5431
 4345SOL    HW224669   0.337   2.370   1.679  2.0460  0.7184  0.1223
 4346SOL     OW24670   4.354   4.034  14.646 -0.5242  0.1326 -0.2090
 4346SOL    HW124671   4.269   4.000  14.616 -0.0649  0.0731 -1.4542
 4346SOL    HW224672   4.403   3.952  14.650 -1.0428 -0.1121  1.1737
 4347SOL     OW24673   4.097   1.241   4.065  0.2349 -0.3966  0.3404
 4347SOL    HW124674   4.041   1.237   3.987  0.9645 -2.4072 -0.0735
 4347SOL    HW224675   4.038   1.263   4.137 -0.2550  0.2825 -0.2611
 4348SOL     OW24676   1.335   1.802   1.891  0.0431  0.1770  0.5781
 4348SOL    HW124677   1.338   1.708   1.873  1.9228  0.3221  0.1862
 4348SOL    HW224678   1.410   1.828   1.837 -0.1117 -0.4456  0.0701
 4349SOL     OW24679   1.924   1.860   2.357 -0.2963 -0.4002  0.1034
 4349SOL    HW124680   1.867   1.800   2.309 -0.9368  1.2600 -1.2255
 4349SOL    HW224681   1.890   1.940   2.317  0.4412  0.4731  1.2320
 4350SOL     OW24682   3.514   1.894  12.967 -0.4196 -0.0223  0.1857
 4350SOL    HW124683   3.521   1.985  12.937 -0.6540  0.5350  1.8235
 4350SOL    HW224684   3.599   1.882  13.010 -0.5475  0.2674  0.5159
 4351SOL     OW24685   4.204   1.506   6.237  0.6040  0.3622  0.0106
 4351SOL    HW124686   4.292   1.490   6.201 -1.1496 -0.5513 -3.8846
 4351SOL    HW224687   4.153   1.535   6.162  0.5760 -0.5463 -0.3236
 4352SOL     OW24688   1.864   0.179   5.077  0.7198  0.5455 -0.0769
 4352SOL    HW124689   1.805   0.254   5.069  2.7524  2.1383 -0.4258
 4352SOL    HW224690   1.925   0.234   5.127 -0.2065  0.4043  1.2257
 4353SOL     OW24691   1.042   2.684  14.898 -0.0314  0.9166  0.0377
 4353SOL    HW124692   0.990   2.710  14.821 -1.8943  1.3052  1.4186
 4353SOL    HW224693   1.128   2.678  14.857 -0.0747 -0.0960  0.0799
 4354SOL     OW24694   2.306   4.300  15.538 -0.0135 -0.4377  0.0660
 4354SOL    HW124695   2.280   4.391  15.551  1.0531  0.0482 -1.2584
 4354SOL    HW224696   2.236   4.274  15.478 -1.3705 -0.8029  1.7905
 4355SOL     OW24697   1.124   3.811   4.415  0.2941  0.4674  0.3149
 4355SOL    HW124698   1.188   3.865   4.461  1.0086  2.1138 -2.6496
 4355SOL    HW224699   1.101   3.857   4.334 -0.7791  1.4312  1.1751
 4356SOL     OW24700   3.405   2.745   6.589 -0.2061  0.3738 -0.2196
 4356SOL    HW124701   3.459   2.795   6.527  1.4245 -1.2639 -0.1189
 4356SOL    HW224702   3.345   2.816   6.612 -0.7687  0.2998 -1.4539
 4357SOL     OW24703   3.120   1.048   3.139 -0.0999 -0.0627 -0.2289
 4357SOL    HW124704   3.028   1.038   3.117 -0.5047  1.4281  0.8059
 4357SOL    HW224705   3.111   1.110   3.211 -0.1451 -2.1285  1.5674
 4358SOL     OW24706   3.895   4.613   7.382  0.2733 -0.1683  0.1357
 4358SOL    HW124707   3.953   4.629   7.307 -0.0661  0.0587 -0.0779
 4358SOL    HW224708   3.925   4.670   7.452  0.1372  1.2937 -0.9802
 4359SOL     OW24709   0.479   3.024   4.266 -0.3430  0.3195 -0.1532
 4359SOL    HW124710   0.429   3.087   4.213 -1.2170  1.5408  2.1524
 4359SOL    HW224711   0.476   3.062   4.353 -0.6855 -0.6459  0.2618
 4360SOL     OW24712   3.334   4.090  15.692 -0.0390 -0.2976  0.2238
 4360SOL    HW124713   3.352   4.162  15.631 -1.0645 -1.1041 -1.0466
 4360SOL    HW224714   3.280   4.136  15.756  0.0966  1.2839 -0.8013
 4361SOL     OW24715   4.261   0.969   5.276  0.0858  0.0607 -0.1785
 4361SOL    HW124716   4.277   1.055   5.236 -0.1556  1.3457  2.5058
 4361SOL    HW224717   4.331   0.975   5.341  1.0195 -0.5895 -1.1330
 4362SOL     OW24718   1.715   4.120   7.763  0.0584 -0.1623  0.1948
 4362SOL    HW124719   1.645   4.071   7.720  0.1587 -0.8772  0.8545
 4362SOL    HW224720   1.703   4.212   7.739 -2.2443 -0.4537  0.2073
 4363SOL     OW24721   4.369   2.309   4.254  0.4877  0.1290  0.1416
 4363SOL    HW124722   4.389   2.303   4.347  1.5568  0.0893 -0.0929
 4363SOL    HW224723   4.453   2.339   4.220 -0.1224  0.3668 -1.1848
 4364SOL     OW24724   0.135   2.241   7.805  0.0335  0.1201 -0.5383
 4364SOL    HW124725   0.045   2.213   7.821  0.7148 -2.3184 -0.9555
 4364SOL    HW224726   0.114   2.270   7.716  0.7648 -0.7817 -1.0173
 4365SOL     OW24727   0.848   4.275   5.162  0.2338 -0.1505 -0.8607
 4365SOL    HW124728   0.904   4.198   5.160  2.6655  1.5813  1.0255
 4365SOL    HW224729   0.874   4.315   5.245  0.2999 -1.8427 -0.0592
 4366SOL     OW24730   3.751   2.112  13.550  0.6506 -0.0203  0.4626
 4366SOL    HW124731   3.804   2.058  13.608  1.9727 -0.3313 -1.0304
 4366SOL    HW224732   3.821   2.135  13.489 -0.2241 -1.1706 -0.9691
 4367SOL     OW24733   3.323   2.671   0.466 -0.6381 -0.2216  0.3255
 4367SOL    HW124734   3.394   2.701   0.524  0.0044  1.0135 -1.0987
 4367SOL    HW224735   3.271   2.752   0.465 -1.1298 -0.5592 -1.1347
 4368SOL     OW24736   4.400   1.347   4.159 -0.3515  0.5536  0.2443
 4368SOL    HW124737   4.325   1.370   4.214 -1.1609  1.1975 -1.1220
 4368SOL    HW224738   4.466   1.341   4.228  0.4602 -3.0547 -0.8245
 4369SOL     OW24739   4.536   3.405   6.253  0.3132 -0.1474 -0.2881
 4369SOL    HW124740   4.529   3.313   6.231 -0.6448 -0.0121 -0.5224
 4369SOL    HW224741   4.455   3.437   6.214 -0.9776 -1.1624  1.6312
 4370SOL     OW24742   1.681   0.160  11.294  0.4287  0.6703  0.6951
 4370SOL    HW124743   1.776   0.153  11.289  0.0714 -4.5234  1.3815
 4370SOL    HW224744   1.661   0.245  11.253  0.0792  0.2332 -0.0448
 4371SOL     OW24745   1.790   1.391   7.195 -0.2876  0.0511  0.5504
 4371SOL    HW124746   1.876   1.382   7.235 -0.1875 -0.6279  0.1800
 4371SOL    HW224747   1.744   1.309   7.214  1.1991 -0.8544  0.1990
 4372SOL     OW24748   0.077   2.827   9.457 -0.4842 -0.6405 -0.2797
 4372SOL    HW124749   0.034   2.755   9.502  0.6317 -0.3455  1.2371
 4372SOL    HW224750   0.161   2.790   9.430 -0.0769 -1.0056  1.5441
 4373SOL     OW24751   1.114   1.823  13.465  0.0516  0.2772  0.1052
 4373SOL    HW124752   1.085   1.831  13.556 -1.2308 -2.1641 -0.0954
 4373SOL    HW224753   1.047   1.757  13.445 -1.2345  1.7303 -0.4512
 4374SOL     OW24754   2.502   1.498   5.713 -0.1924 -0.1213  0.2236
 4374SOL    HW124755   2.422   1.509   5.764 -1.5569 -0.9764 -1.7421
 4374SOL    HW224756   2.544   1.429   5.765 -0.6910  0.8563  1.9408
 4375SOL     OW24757   3.183   0.151   6.400  0.2280 -0.3728  0.3412
 4375SOL    HW124758   3.275   0.150   6.375  0.1027  0.1977 -0.1687
 4375SOL    HW224759   3.140   0.121   6.319  0.0985  0.1761  0.2089
 4376SOL     OW24760   4.557   3.594   4.998 -0.5969  0.1036 -0.1888
 4376SOL    HW124761   4.555   3.685   5.029 -3.2459  0.0235 -0.1826
 4376SOL    HW224762   4.649   3.585   4.971 -0.3785  0.5485  0.3768
 4377SOL     OW24763   3.597   0.284  12.102  0.1257  0.0273  0.1801
 4377SOL    HW124764   3.510   0.325  12.103  0.8583  1.6115 -0.7808
 4377SOL    HW224765   3.648   0.365  12.106  0.2190 -0.0061 -0.3298
 4378SOL     OW24766   3.969   2.286   3.194  0.6571  0.3673 -0.4004
 4378SOL    HW124767   3.931   2.199   3.184 -0.5160  0.6888  1.3802
 4378SOL    HW224768   3.982   2.325   3.108 -0.7234 -0.8858 -1.1617
 4379SOL     OW24769   1.932   0.766   1.130 -0.1241  0.4319  0.4308
 4379SOL    HW124770   1.910   0.850   1.172 -1.1829 -0.0389  0.8211
 4379SOL    HW224771   2.021   0.786   1.099 -0.1081 -1.6607 -0.8425
 4380SOL     OW24772   0.620   4.716   2.717 -0.4252 -0.3004  0.0143
 4380SOL    HW124773   0.618   4.721   2.621 -3.2417  1.7686  0.1800
 4380SOL    HW224774   0.701   4.666   2.723  0.9969  1.8230 -1.3427
 4381SOL     OW24775   4.669   3.929   2.013 -0.2556 -0.0815  0.0179
 4381SOL    HW124776   4.641   3.969   2.095  0.5495  0.1245  0.1975
 4381SOL    HW224777   4.589   3.880   1.997  0.6891 -0.4741 -3.4728
 4382SOL     OW24778   2.460   2.515   7.047 -0.0377 -0.1683 -0.0544
 4382SOL    HW124779   2.521   2.559   6.987 -0.1747 -1.2653 -0.9991
 4382SOL    HW224780   2.433   2.442   6.991  1.4047  0.1066 -1.1280
 4383SOL     OW24781   2.722   0.573   0.363 -0.0816  0.2462  0.2201
 4383SOL    HW124782   2.759   0.655   0.397  0.6232 -0.5629  1.3859
 4383SOL    HW224783   2.794   0.550   0.305 -2.2374 -0.6252 -2.1282
 4384SOL     OW24784   1.545   0.974   9.839  0.5743  0.2589 -0.4398
 4384SOL    HW124785   1.588   0.998   9.757  0.1375  1.2557 -0.3773
 4384SOL    HW224786   1.466   1.028   9.836 -0.2186 -0.9912 -2.1991
 4385SOL     OW24787   1.356   3.955   7.958  0.0820  0.3539  0.0992
 4385SOL    HW124788   1.289   4.022   7.974  0.7117  0.7967  0.8722
 4385SOL    HW224789   1.388   3.982   7.872 -0.6649 -0.4082 -0.4309
 4386SOL     OW24790   1.061   0.499   5.942  0.0922  0.4829 -0.4175
 4386SOL    HW124791   1.152   0.493   5.913  0.1976  1.3214 -0.2538
 4386SOL    HW224792   1.040   0.585   5.906  2.0809  1.5222  0.8856
 4387SOL     OW24793   0.915   2.741  15.134  0.8403 -0.0658  0.1042
 4387SOL    HW124794   0.832   2.695  15.147  1.3341 -0.8800  0.3829
 4387SOL    HW224795   0.947   2.718  15.046 -0.5414  0.1682 -0.4656
 4388SOL     OW24796   4.448   1.454   4.868 -0.1550 -0.2261  0.4361
 4388SOL    HW124797   4.510   1.384   4.890 -0.4895 -0.3997  0.8164
 4388SOL    HW224798   4.486   1.501   4.793 -0.8137 -1.9867 -0.9891
 4389SOL     OW24799   1.377   2.873   9.689 -0.0766  0.8866  0.2017
 4389SOL    HW124800   1.452   2.863   9.630  0.9388  0.7857  1.5124
 4389SOL    HW224801   1.394   2.957   9.731  1.1087  0.2861  0.9293
 4390SOL     OW24802   2.908   3.117   6.952  0.1092 -0.0580  0.4835
 4390SOL    HW124803   2.825   3.165   6.954  0.7265  1.1441 -2.3555
 4390SOL    HW224804   2.905   3.067   7.033  0.6330 -1.7932 -0.5669
 4391SOL     OW24805   3.103   0.611   1.576  0.2185 -0.3122  0.6351
 4391SOL    HW124806   3.164   0.649   1.639  1.3247 -0.8001 -0.1460
 4391SOL    HW224807   3.044   0.565   1.637 -0.1696 -0.6368  0.0131
 4392SOL     OW24808   2.678   1.260   1.894 -0.6432 -0.3771  0.2136
 4392SOL    HW124809   2.612   1.216   1.947 -0.9894  0.3234  0.3676
 4392SOL    HW224810   2.700   1.339   1.945 -2.2728 -0.1273  0.5169
 4393SOL     OW24811   1.977   0.146  16.662  0.1852 -0.3304 -0.4701
 4393SOL    HW124812   1.983   0.167  16.569  0.2144 -0.9718 -0.6073
 4393SOL    HW224813   1.981   0.235  16.699 -0.5304 -0.3856 -0.2674
 4394SOL     OW24814   1.881   0.747   8.785 -0.0088  0.2066 -0.5901
 4394SOL    HW124815   1.897   0.837   8.810  1.6081  0.1377 -1.4056
 4394SOL    HW224816   1.959   0.707   8.822 -0.1279  0.6024  0.0898
 4395SOL     OW24817   3.275   2.887  10.262  0.3927 -0.3993  1.0164
 4395SOL    HW124818   3.297   2.811  10.315 -1.3618  0.4104  2.9082
 4395SOL    HW224819   3.258   2.842  10.180  1.2593  0.4255  0.3742
 4396SOL     OW24820   2.304   0.229   9.601 -0.1270  0.3581  0.2348
 4396SOL    HW124821   2.378   0.234   9.540  0.3874 -0.7414  0.7705
 4396SOL    HW224822   2.352   0.226   9.684 -0.3961  1.7594  0.4449
 4397SOL     OW24823   2.381   1.967   6.596  0.2502 -1.0034  0.6272
 4397SOL    HW124824   2.332   1.900   6.644 -0.2314 -0.3223  1.0808
 4397SOL    HW224825   2.434   1.912   6.539 -1.8452  1.0901 -3.3546
 4398SOL     OW24826   0.756   1.143   1.678 -0.4516 -0.3098  0.8678
 4398SOL    HW124827   0.814   1.159   1.753 -0.0902 -0.1630  0.5580
 4398SOL    HW224828   0.710   1.065   1.709 -0.7579 -1.0240 -1.3944
 4399SOL     OW24829   4.558   0.557  14.797 -0.0949 -0.4933 -0.3709
 4399SOL    HW124830   4.617   0.486  14.771  1.1081  0.5807 -0.5834
 4399SOL    HW224831   4.621   0.617  14.838  0.4658 -0.4721 -1.2643
 4400SOL     OW24832   4.137   0.359  16.790 -0.0945  0.2700  0.0423
 4400SOL    HW124833   4.105   0.448  16.777  1.2812  0.8993  1.0122
 4400SOL    HW224834   4.218   0.373  16.840  0.4650  1.2900 -1.1334
 4401SOL     OW24835   1.191   4.316   8.363 -0.6526 -0.3953  0.1826
 4401SOL    HW124836   1.231   4.230   8.350  0.0278 -0.0168 -0.1828
 4401SOL    HW224837   1.099   4.297   8.381 -0.6221  0.9647  1.7000
 4402SOL     OW24838   1.459   3.121   9.379 -0.5298 -0.0332  0.3090
 4402SOL    HW124839   1.488   3.110   9.470 -1.0476  0.0735  0.4863
 4402SOL    HW224840   1.406   3.201   9.386  0.3059  0.5281  0.2631
 4403SOL     OW24841   2.857   3.075  10.124 -0.2051  0.3698  0.3788
 4403SOL    HW124842   2.917   3.105  10.192 -0.2236 -0.7337  0.8890
 4403SOL    HW224843   2.912   3.005  10.089 -1.3343 -1.2128  1.6987
 4404SOL     OW24844   3.084   1.833   1.145 -0.0341 -0.0082  0.1031
 4404SOL    HW124845   3.113   1.889   1.216  0.5200  2.4203 -2.0233
 4404SOL    HW224846   3.152   1.854   1.080  0.4126  0.8719  0.8563
 4405SOL     OW24847   4.304   2.191  16.112 -0.0978  0.4728 -0.2921
 4405SOL    HW124848   4.220   2.217  16.074 -0.6429 -1.4890 -0.4286
 4405SOL    HW224849   4.284   2.112  16.163 -0.5722  2.4109  2.5372
 4406SOL     OW24850   0.502   4.412   6.844  0.6561 -0.0145  0.5415
 4406SOL    HW124851   0.518   4.503   6.821  0.3840 -0.6897 -2.3930
 4406SOL    HW224852   0.411   4.410   6.873  1.7622 -3.8198  3.7818
 4407SOL     OW24853   4.598   1.594   6.022  0.2576  0.0147  0.5723
 4407SOL    HW124854   4.592   1.651   6.099 -1.1473  1.2564 -0.4476
 4407SOL    HW224855   4.597   1.659   5.952 -0.4839 -1.2385 -0.5627
 4408SOL     OW24856   3.548   2.064   6.824  0.4571  0.2148  0.1187
 4408SOL    HW124857   3.627   2.056   6.769  0.1683 -3.7129  0.2547
 4408SOL    HW224858   3.535   1.984   6.874 -1.5929  0.8691  0.6159
 4409SOL     OW24859   1.449   2.857  15.749 -0.1400 -0.0167  0.0273
 4409SOL    HW124860   1.378   2.805  15.710  0.7175  0.6726 -2.4414
 4409SOL    HW224861   1.413   2.862  15.838 -1.3452 -0.5023 -0.4312
 4410SOL     OW24862   4.199   3.533   5.397 -0.1075 -0.6398  0.4558
 4410SOL    HW124863   4.213   3.624   5.372  3.2686 -0.7331  1.9151
 4410SOL    HW224864   4.146   3.502   5.324 -1.5247  3.7407 -0.3849
 4411SOL     OW24865   4.660   2.740   4.170 -0.1687 -0.0098 -0.5538
 4411SOL    HW124866   4.649   2.821   4.220 -0.2642  0.1565 -0.8380
 4411SOL    HW224867   4.648   2.777   4.082 -1.8365 -0.9279 -0.6981
 4412SOL     OW24868   1.694   0.345   2.291 -0.0975 -0.1813  0.0306
 4412SOL    HW124869   1.672   0.435   2.313 -1.9213 -0.4162 -0.7965
 4412SOL    HW224870   1.607   0.309   2.307 -0.4498  0.7483  0.1674
 4413SOL     OW24871   4.102   0.938   2.922 -0.4949 -0.0117 -0.5542
 4413SOL    HW124872   4.057   0.946   2.838 -1.2317  1.2127 -0.0379
 4413SOL    HW224873   4.162   0.863   2.918 -1.1782 -0.7408  2.4570
 4414SOL     OW24874   4.725   2.860   8.015  0.2040 -0.1213  0.5763
 4414SOL    HW124875   4.679   2.926   7.964 -0.3991 -0.3374  0.8515
 4414SOL    HW224876   0.065   2.836   7.959  0.0000  1.1913 -0.2643
 4415SOL     OW24877   4.476   1.025   8.655  1.0033  0.4612  0.5004
 4415SOL    HW124878   4.564   1.051   8.630  1.4600  0.5183  2.1634
 4415SOL    HW224879   4.489   1.030   8.750  0.1684 -0.7114  0.6757
 4416SOL     OW24880   1.805   2.368   3.545  0.1855  0.4299 -0.2216
 4416SOL    HW124881   1.739   2.345   3.610  3.2444  1.4047  3.2193
 4416SOL    HW224882   1.800   2.463   3.558 -0.7979  0.2045  0.9551
 4417SOL     OW24883   2.351   0.923  11.030 -0.5376  0.1171 -0.4963
 4417SOL    HW124884   2.443   0.909  11.051 -0.1384  4.2739  0.4611
 4417SOL    HW224885   2.337   0.873  10.949 -0.0130  1.3945 -1.3759
 4418SOL     OW24886   0.720   3.111   9.719 -0.6008  0.3789  0.1420
 4418SOL    HW124887   0.746   3.119   9.810 -0.7002 -0.4701  0.2481
 4418SOL    HW224888   0.626   3.100   9.734 -0.3582 -0.3794  1.0814
 4419SOL     OW24889   2.527   0.121  16.916  0.2362  0.7121  0.7871
 4419SOL    HW124890   2.608   0.165  16.889  1.5216 -1.4600  1.0550
 4419SOL    HW224891   2.466   0.194  16.912  1.0329  1.3641  0.5242
 4420SOL     OW24892   1.342   1.261   8.694  0.1792 -0.3439 -0.6170
 4420SOL    HW124893   1.333   1.217   8.779 -0.4578 -1.5081 -1.2876
 4420SOL    HW224894   1.387   1.340   8.723  1.7779 -1.6319  0.3991
 4421SOL     OW24895   2.975   2.976   8.589  0.2029 -0.1363  0.2208
 4421SOL    HW124896   3.031   2.905   8.560  0.6304  0.2904  0.0026
 4421SOL    HW224897   3.032   3.052   8.579  0.0076  0.2080  1.7698
 4422SOL     OW24898   0.095   1.562  11.286 -0.6080  0.2727 -0.0261
 4422SOL    HW124899   0.167   1.617  11.316 -1.2691  2.2695 -2.0915
 4422SOL    HW224900   0.137   1.476  11.285 -0.1824  0.4758  0.2719
 4423SOL     OW24901   3.784   3.180   7.363 -0.1346 -0.5625 -0.3152
 4423SOL    HW124902   3.740   3.229   7.293  0.5869  0.8597  0.2159
 4423SOL    HW224903   3.826   3.104   7.323  0.7972 -0.4477  0.4358
 4424SOL     OW24904   2.526   4.429   3.363  0.1155 -0.3972 -0.6850
 4424SOL    HW124905   2.534   4.338   3.392 -1.3921 -0.5479 -0.7278
 4424SOL    HW224906   2.555   4.468   3.446 -0.1682  1.6595 -1.5601
 4425SOL     OW24907   1.634   3.058   5.197 -0.1457 -0.4557  0.2456
 4425SOL    HW124908   1.539   3.054   5.185 -0.3267 -0.4717  1.7092
 4425SOL    HW224909   1.660   2.973   5.161 -1.2577 -1.8661  2.8101
 4426SOL     OW24910   1.903   2.019  16.920 -0.2355  0.5855 -0.3142
 4426SOL    HW124911   1.906   1.924  16.923 -1.0927  0.4930 -2.3395
 4426SOL    HW224912   1.943   2.047  17.002  2.4661 -2.1169 -0.7085
 4427SOL     OW24913   0.695   1.899  13.654 -0.2851 -0.0481 -0.3639
 4427SOL    HW124914   0.666   1.989  13.645 -0.7156 -0.2122 -0.6412
 4427SOL    HW224915   0.729   1.890  13.565  1.5911  1.1793  0.2400
 4428SOL     OW24916   1.032   4.117   5.044  0.0486  0.3286  0.4574
 4428SOL    HW124917   1.106   4.172   5.071  0.5230 -0.1006  0.0389
 4428SOL    HW224918   1.090   4.055   4.999 -1.4732 -2.6242  2.5452
 4429SOL     OW24919   3.949   4.606  13.898 -0.1137  0.0988 -0.1961
 4429SOL    HW124920   3.901   4.526  13.877  1.5424 -0.2273 -2.6735
 4429SOL    HW224921   3.925   4.611  13.991 -2.0721  0.8221 -0.7454
 4430SOL     OW24922   0.627   2.565  10.112 -0.3241  0.1680 -0.5429
 4430SOL    HW124923   0.657   2.583  10.023 -1.7273  2.1022 -0.6368
 4430SOL    HW224924   0.576   2.641  10.139 -1.4335 -0.6433 -0.3439
 4431SOL     OW24925   2.244   3.438   8.272 -0.0860  0.2557 -0.3590
 4431SOL    HW124926   2.284   3.411   8.190 -0.6649  0.3242 -0.6645
 4431SOL    HW224927   2.220   3.525   8.241 -1.9707  0.1782  0.8415
 4432SOL     OW24928   3.651   3.305  11.583  0.7023 -0.1459 -0.2352
 4432SOL    HW124929   3.737   3.348  11.592  1.4500 -1.9355  1.4372
 4432SOL    HW224930   3.602   3.357  11.646 -1.4313 -2.8118  0.2970
 4433SOL     OW24931   1.583   1.145   5.196  0.3432 -1.0161 -0.1272
 4433SOL    HW124932   1.626   1.189   5.270  1.2587 -1.6596 -0.2778
 4433SOL    HW224933   1.646   1.145   5.124  0.5732  1.7672  0.0515
 4434SOL     OW24934   2.522   1.314   3.298 -0.2618 -0.3811  0.2729
 4434SOL    HW124935   2.598   1.285   3.350 -0.7199  0.1426  1.2493
 4434SOL    HW224936   2.567   1.361   3.228 -2.5931  0.9651 -0.3296
 4435SOL     OW24937   2.075   0.499   5.781 -0.7880  0.0410  0.4172
 4435SOL    HW124938   1.999   0.441   5.785  1.2303 -2.5433  1.3770
 4435SOL    HW224939   2.139   0.455   5.836  0.7829 -2.3571 -3.3557
 4436SOL     OW24940   1.831   1.607   5.089 -0.7211 -0.0877 -0.6412
 4436SOL    HW124941   1.818   1.569   5.176 -0.7949 -0.0814 -0.6494
 4436SOL    HW224942   1.891   1.677   5.116  0.9952 -1.4920 -0.8339
 4437SOL     OW24943   0.792   3.622   4.437  0.4778  0.2427  0.0662
 4437SOL    HW124944   0.864   3.560   4.451 -1.1549 -2.0544 -1.8957
 4437SOL    HW224945   0.749   3.607   4.521 -0.6196 -0.3986 -0.6149
 4438SOL     OW24946   0.235   2.991   5.082 -0.1216 -0.1030 -0.1209
 4438SOL    HW124947   0.328   2.987   5.105 -0.0271 -1.5284 -0.7832
 4438SOL    HW224948   0.226   2.927   5.012  1.7660 -2.0878  1.4574
 4439SOL     OW24949   3.493   2.621   2.921 -0.2591  0.0500  0.4949
 4439SOL    HW124950   3.566   2.566   2.951 -0.9034 -0.4430  1.1668
 4439SOL    HW224951   3.536   2.679   2.859 -0.2573 -0.0419  0.4101
 4440SOL     OW24952   2.752   3.583   8.545  0.7432  0.4858  0.3500
 4440SOL    HW124953   2.741   3.492   8.516 -1.0718  1.8265 -3.1203
 4440SOL    HW224954   2.658   3.603   8.548  0.3898 -0.8837 -1.4987
 4441SOL     OW24955   2.418   0.592  10.441  0.3460 -0.2241 -0.3428
 4441SOL    HW124956   2.327   0.609  10.464  0.6282  0.5280  0.2137
 4441SOL    HW224957   2.463   0.625  10.518  0.3472 -3.0558  0.8868
 4442SOL     OW24958   1.230   2.943  12.140  0.4542  0.0034 -0.5732
 4442SOL    HW124959   1.319   2.969  12.167 -0.4660  2.8079 -0.2041
 4442SOL    HW224960   1.263   2.889  12.068  0.2147 -1.2421  0.2724
 4443SOL     OW24961   0.944   2.300   2.671 -0.3799 -0.2736 -0.4252
 4443SOL    HW124962   1.037   2.307   2.692 -0.7616  0.9683  0.8230
 4443SOL    HW224963   0.935   2.210   2.703  0.3040  0.4069  1.6592
 4444SOL     OW24964   4.195   2.803   6.998  0.4352  0.3256  0.3145
 4444SOL    HW124965   4.129   2.735   7.012 -0.2336  1.1737  1.2324
 4444SOL    HW224966   4.166   2.882   7.044  1.1018  0.3866  0.6355
 4445SOL     OW24967   3.183   4.060   1.563  0.3997  0.3118 -0.0260
 4445SOL    HW124968   3.151   4.137   1.516 -0.1962  0.2195  0.2275
 4445SOL    HW224969   3.249   4.034   1.499  0.1877  0.1903 -0.1967
 4446SOL     OW24970   0.640   3.107   4.051 -0.2222 -0.6541 -0.2503
 4446SOL    HW124971   0.715   3.141   4.099  1.1945  1.0931 -3.6832
 4446SOL    HW224972   0.592   3.063   4.121  0.3465 -2.1665 -0.8036
 4447SOL     OW24973   1.497   2.591   5.874 -0.6594  0.1582  0.0971
 4447SOL    HW124974   1.549   2.665   5.905 -0.1870 -0.2703  0.3289
 4447SOL    HW224975   1.563   2.534   5.834 -0.9546 -0.5452  0.6093
 4448SOL     OW24976   0.818   0.797   4.711 -0.3175  0.1696  0.0226
 4448SOL    HW124977   0.771   0.727   4.756  2.8040  0.0653  3.2072
 4448SOL    HW224978   0.751   0.823   4.649 -2.4232  3.5598  3.6753
 4449SOL     OW24979   1.131   2.631  10.026  0.3847 -0.1578  0.2500
 4449SOL    HW124980   1.210   2.584  10.053  1.5315  1.1868 -0.7392
 4449SOL    HW224981   1.126   2.609   9.933 -0.5418  2.1459 -0.2362
 4450SOL     OW24982   3.413   0.454   1.290  0.2789  0.0506 -0.3370
 4450SOL    HW124983   3.411   0.471   1.384  1.8882  0.3170 -0.3504
 4450SOL    HW224984   3.506   0.475   1.280  0.4410 -1.3009 -1.6410
 4451SOL     OW24985   2.403   4.238   3.994  0.0899  0.6370  0.2776
 4451SOL    HW124986   2.339   4.305   4.017 -1.7747 -0.4673 -1.6654
 4451SOL    HW224987   2.400   4.180   4.070  0.1678  0.8016  0.4039
 4452SOL     OW24988   1.832   2.100   3.468  0.1078 -0.3976 -0.0485
 4452SOL    HW124989   1.740   2.087   3.491  0.6004  2.0348  3.3297
 4452SOL    HW224990   1.843   2.189   3.502 -1.2842 -1.5512  3.3811
 4453SOL     OW24991   4.569   3.268   7.475 -0.0144 -0.1324  0.1978
 4453SOL    HW124992   4.589   3.223   7.393  0.9131  0.4531  0.1107
 4453SOL    HW224993   4.595   3.359   7.462 -1.9999  0.7532  2.4140
 4454SOL     OW24994   1.362   3.126   2.603  0.0202 -0.2682 -0.2204
 4454SOL    HW124995   1.291   3.062   2.610 -0.3875  0.3757  1.4713
 4454SOL    HW224996   1.406   3.115   2.687  0.0511 -1.8153 -0.4373
 4455SOL     OW24997   4.442   4.291  11.689 -0.6160 -0.1552  0.1470
 4455SOL    HW124998   4.506   4.235  11.733  2.6479  2.7156 -0.9576
 4455SOL    HW224999   4.357   4.247  11.685  0.5280 -2.1415 -2.1495
 4456SOL     OW25000   0.820   1.510   7.351  0.5385 -0.3123  0.1934
 4456SOL    HW125001   0.762   1.488   7.424 -0.9656  2.8597 -0.0789
 4456SOL    HW225002   0.761   1.535   7.280  3.1976  1.3843 -1.3985
 4457SOL     OW25003   0.225   3.400  14.514 -0.1491  0.4190 -0.1728
 4457SOL    HW125004   0.276   3.477  14.538  1.1205  0.1713 -2.0229
 4457SOL    HW225005   0.142   3.445  14.503 -0.0936 -0.3336 -3.7234
 4458SOL     OW25006   1.732   4.045   4.604  0.1839  0.2747 -0.4267
 4458SOL    HW125007   1.694   4.106   4.542 -1.3616 -0.2776 -0.0265
 4458SOL    HW225008   1.665   3.977   4.617  0.2256  0.6189  1.6617
 4459SOL     OW25009   1.815   3.569   0.817  0.1875  0.2119 -0.2591
 4459SOL    HW125010   1.888   3.529   0.771  0.5318 -0.8829  1.2440
 4459SOL    HW225011   1.790   3.634   0.750  0.8174 -0.9029 -1.5804
 4460SOL     OW25012   2.072   2.445   8.379  0.6345 -0.0250  0.0917
 4460SOL    HW125013   2.093   2.385   8.450  0.2076 -1.5105 -1.0330
 4460SOL    HW225014   2.156   2.482   8.354 -0.6220  2.2285 -0.8794
 4461SOL     OW25015   1.375   1.213   1.165  0.2858 -0.1935 -0.2763
 4461SOL    HW125016   1.451   1.156   1.153 -0.3745 -1.1801  0.2421
 4461SOL    HW225017   1.406   1.266   1.239  1.0045  0.6417 -1.1679
 4462SOL     OW25018   1.592   3.589   9.217  0.3766 -0.0373 -0.4156
 4462SOL    HW125019   1.682   3.620   9.211  0.8318 -0.8555  2.0455
 4462SOL    HW225020   1.558   3.615   9.132 -0.3778  0.4091  0.0257
 4463SOL     OW25021   4.358   1.680  15.525  0.2140 -0.1577  0.0618
 4463SOL    HW125022   4.386   1.635  15.445  2.5978  0.8335  0.3434
 4463SOL    HW225023   4.419   1.754  15.522 -0.4192  0.2882 -2.0321
 4464SOL     OW25024   2.935   3.491  11.355  0.2981 -0.0020 -0.0050
 4464SOL    HW125025   2.853   3.446  11.376  1.0444 -0.9405  0.8834
 4464SOL    HW225026   2.986   3.483  11.435  1.2950  2.2746 -0.4227
 4465SOL     OW25027   3.571   1.962  12.190  0.0096 -0.4538 -0.5285
 4465SOL    HW125028   3.583   1.895  12.258 -0.2972  2.9410  2.8317
 4465SOL    HW225029   3.494   2.015  12.212 -0.7571 -1.6792 -0.2210
 4466SOL     OW25030   1.540   0.632   9.771 -0.7622 -0.1280  0.1684
 4466SOL    HW125031   1.470   0.580   9.729 -0.1096 -2.1322  1.5390
 4466SOL    HW225032   1.555   0.688   9.695 -1.0267  0.8938  0.8648
 4467SOL     OW25033   2.840   2.440   4.872 -0.7658  0.7801 -0.3429
 4467SOL    HW125034   2.866   2.505   4.807 -0.8456  0.6036 -0.5495
 4467SOL    HW225035   2.767   2.488   4.911 -1.8246 -0.3631 -0.9525
 4468SOL     OW25036   3.136   3.589   1.800  0.3969  0.2856 -0.4626
 4468SOL    HW125037   3.076   3.571   1.873 -0.1209 -0.1672 -1.0019
 4468SOL    HW225038   3.117   3.682   1.786 -1.5252  0.3895  2.6277
 4469SOL     OW25039   2.970   0.745   0.703 -0.0075  0.1665  0.0453
 4469SOL    HW125040   3.034   0.673   0.705 -1.3364 -0.9697  1.6153
 4469SOL    HW225041   3.017   0.806   0.759  0.9420 -0.2664 -0.2786
 4470SOL     OW25042   2.065   0.385   9.190 -0.2559 -0.2339 -0.0563
 4470SOL    HW125043   2.118   0.333   9.128  1.3905  0.6409  0.6063
 4470SOL    HW225044   2.096   0.357   9.276  3.0749  0.5684 -0.9674
 4471SOL     OW25045   4.033   2.521   7.418  0.0302  0.3483 -0.0718
 4471SOL    HW125046   3.997   2.604   7.386  0.3612 -0.0317 -1.4340
 4471SOL    HW225047   4.080   2.554   7.495 -1.2808  1.0801  0.4105
 4472SOL     OW25048   4.627   3.832   0.060  0.0953 -0.6432 -1.2801
 4472SOL    HW125049   4.566   3.872  17.734  0.2597 -0.8301 -1.5676
 4472SOL    HW225050   4.559   3.796   0.117  0.4815 -0.3945 -0.6525
 4473SOL     OW25051   0.382   0.488   5.860 -0.0181 -0.3857 -0.3746
 4473SOL    HW125052   0.476   0.470   5.858 -0.0401 -0.4364 -1.0757
 4473SOL    HW225053   0.360   0.510   5.769 -0.4588 -1.8726 -0.6425
 4474SOL     OW25054   1.321   4.643  17.670 -0.0092  0.4743  0.0820
 4474SOL    HW125055   1.244   4.587  17.663  0.9416 -0.7207 -0.8287
 4474SOL    HW225056   1.318   4.700   0.012 -0.1619 -0.6775  0.9267
 4475SOL     OW25057   2.214   0.797   6.949  0.3090  0.7930 -0.0584
 4475SOL    HW125058   2.253   0.882   6.971 -0.9275  0.8579  1.7861
 4475SOL    HW225059   2.257   0.778   6.865  1.5197  1.4835  0.4104
 4476SOL     OW25060   4.484   2.320  12.778  0.5903 -0.9615  0.3975
 4476SOL    HW125061   4.514   2.335  12.868  4.2982  0.3686 -1.0349
 4476SOL    HW225062   4.395   2.295  12.803 -0.1385  1.0737 -0.1262
 4477SOL     OW25063   3.949   2.343   8.413 -0.2177 -0.8628  0.2709
 4477SOL    HW125064   4.017   2.406   8.435 -0.6928 -0.4693  0.6118
 4477SOL    HW225065   3.971   2.263   8.460  1.4601 -1.3420 -1.3197
 4478SOL     OW25066   1.453   1.854   7.135  0.2460  0.2958 -0.2108
 4478SOL    HW125067   1.466   1.760   7.144  0.3846  0.1998 -1.4539
 4478SOL    HW225068   1.543   1.884   7.119 -0.3964  1.8390 -0.9694
 4479SOL     OW25069   1.563   3.409   7.177  0.3522 -0.2765 -0.2882
 4479SOL    HW125070   1.614   3.377   7.250  2.8591  2.4649 -0.8239
 4479SOL    HW225071   1.475   3.395   7.211 -0.2478 -0.0556 -1.7147
 4480SOL     OW25072   2.393   0.987  10.034 -0.0402 -0.5328 -0.2869
 4480SOL    HW125073   2.299   0.976  10.016  0.3423 -0.3707 -2.4379
 4480SOL    HW225074   2.401   0.922  10.104  0.8484  0.9371  0.9499
 4481SOL     OW25075   1.383   0.932   2.173  0.2928  0.4065  0.2587
 4481SOL    HW125076   1.454   0.995   2.167  0.7485  0.0060  1.4842
 4481SOL    HW225077   1.315   0.985   2.131  0.6130 -0.3303 -1.1998
 4482SOL     OW25078   1.946   3.829   8.282 -0.0224  0.2965 -0.5752
 4482SOL    HW125079   1.973   3.817   8.373 -0.1741  0.2855 -0.5325
 4482SOL    HW225080   1.872   3.769   8.276  1.2540 -1.3051 -0.4329
 4483SOL     OW25081   2.022   4.204   9.183 -0.1853  0.4138  0.0673
 4483SOL    HW125082   1.953   4.269   9.196 -0.7485 -0.3459  0.8608
 4483SOL    HW225083   2.103   4.253   9.200  1.5117 -2.2816 -0.2765
 4484SOL     OW25084   3.017   0.513  12.926 -0.2137 -0.2501  0.7697
 4484SOL    HW125085   3.090   0.519  12.986 -0.0212  0.9373  0.4144
 4484SOL    HW225086   2.963   0.586  12.957  1.5231  0.7954  1.2725
 4485SOL     OW25087   0.029   1.491  13.404  0.0343 -0.1893 -0.2234
 4485SOL    HW125088   4.697   1.510  13.470  0.9845  0.3463  0.5630
 4485SOL    HW225089   0.021   1.398  13.385  0.5059 -0.4213  0.7085
 4486SOL     OW25090   2.833   3.908  14.055  0.8312  0.2499 -0.2831
 4486SOL    HW125091   2.783   3.873  13.981 -1.8716  2.7049  0.3502
 4486SOL    HW225092   2.885   3.977  14.016  2.7177 -0.8097  0.3454
 4487SOL     OW25093   4.155   0.861   3.517  0.5169 -0.0502  0.2890
 4487SOL    HW125094   4.149   0.868   3.612 -3.0360  0.4620  0.0028
 4487SOL    HW225095   4.173   0.951   3.489 -2.0574  0.4485  0.2379
 4488SOL     OW25096   2.866   1.665   8.082  0.2771 -0.5845  0.1197
 4488SOL    HW125097   2.792   1.655   8.141 -0.7311  1.1147 -0.8568
 4488SOL    HW225098   2.908   1.748   8.102  1.1340 -0.7715 -0.8891
 4489SOL     OW25099   3.119   4.187   4.381 -0.2254  0.3397  0.4101
 4489SOL    HW125100   3.187   4.247   4.351 -0.4239  0.0342 -0.6537
 4489SOL    HW225101   3.051   4.201   4.316 -0.1411 -0.6668  0.1071
 4490SOL     OW25102   4.079   3.373  13.280 -0.6396 -0.2982 -0.3820
 4490SOL    HW125103   4.095   3.395  13.372 -0.4499  0.6763 -0.6590
 4490SOL    HW225104   4.001   3.426  13.261  0.2890  1.1657 -0.0579
 4491SOL     OW25105   1.867   2.805  15.608 -0.1028  0.3882 -0.6863
 4491SOL    HW125106   1.843   2.712  15.611  1.2359  0.1342  1.7517
 4491SOL    HW225107   1.782   2.844  15.628 -0.2167  0.7490 -1.8396
 4492SOL     OW25108   4.348   2.645  10.939 -0.4536  0.3596  0.5782
 4492SOL    HW125109   4.416   2.667  11.002 -0.1949  2.8812 -0.6071
 4492SOL    HW225110   4.296   2.725  10.935 -1.4072 -0.3086 -0.7137
 4493SOL     OW25111   2.098   3.289   5.402  1.0261  0.1350 -0.4114
 4493SOL    HW125112   2.011   3.321   5.379  0.0332 -1.9657  0.4312
 4493SOL    HW225113   2.139   3.327   5.324  2.2734  0.9824  0.6538
 4494SOL     OW25114   1.788   0.970   0.244 -0.7652  0.2542  0.1941
 4494SOL    HW125115   1.873   1.006   0.218 -0.7927 -0.5874 -1.0656
 4494SOL    HW225116   1.741   1.054   0.245  4.1974  3.0840 -0.1690
 4495SOL     OW25117   4.496   3.872   4.021  0.1231 -0.1895  0.0669
 4495SOL    HW125118   4.565   3.881   4.086 -1.2675 -1.2735  1.7204
 4495SOL    HW225119   4.479   3.961   3.989 -0.5972  0.5456  2.4860
 4496SOL     OW25120   4.564   0.722   2.045  0.1448  0.2470 -0.0682
 4496SOL    HW125121   4.593   0.733   2.135 -1.0669 -0.1987  0.3853
 4496SOL    HW225122   4.495   0.656   2.058  0.3668  0.3544  1.5863
 4497SOL     OW25123   4.120   0.977   3.789 -0.2881  0.1169  0.1807
 4497SOL    HW125124   4.072   0.910   3.837 -0.5510 -0.5116 -0.9527
 4497SOL    HW225125   4.176   1.011   3.858  0.9348  0.0182 -0.7656
 4498SOL     OW25126   0.291   3.926   1.275 -0.0089 -0.5774 -0.0861
 4498SOL    HW125127   0.232   3.874   1.330 -1.0607  1.1031  0.3569
 4498SOL    HW225128   0.360   3.927   1.342 -0.1964  0.7030  0.0781
 4499SOL     OW25129   1.722   0.092   8.149 -0.0742  0.0806  0.1141
 4499SOL    HW125130   1.729   0.151   8.225  1.7373  1.2951 -0.9940
 4499SOL    HW225131   1.813   0.087   8.122 -0.3128 -0.2837 -0.6154
 4500SOL     OW25132   0.910   0.939   7.216 -0.7478 -0.2141  0.3525
 4500SOL    HW125133   0.941   0.999   7.284 -0.6312 -0.1026  0.2006
 4500SOL    HW225134   0.938   0.850   7.238  0.9967  0.5077  1.0671
 4501SOL     OW25135   1.297   2.818   2.382 -0.8499  0.3493  0.3186
 4501SOL    HW125136   1.270   2.877   2.453  1.0358  0.7941  0.6869
 4501SOL    HW225137   1.234   2.748   2.395 -1.3396  0.5581 -0.9499
 4502SOL     OW25138   1.343   1.925   3.112  0.3083 -0.6026  0.2016
 4502SOL    HW125139   1.284   2.000   3.108  0.2144 -0.6878  0.0139
 4502SOL    HW225140   1.418   1.961   3.161  0.7620 -0.3745 -0.6620
 4503SOL     OW25141   3.721   0.523   1.969 -0.4582  0.2173  0.0860
 4503SOL    HW125142   3.728   0.550   2.061 -0.0740  1.0182 -0.1778
 4503SOL    HW225143   3.633   0.487   1.961 -1.3337  2.1057  1.4031
 4504SOL     OW25144   0.882   3.618   4.782  0.5858  0.2094 -0.2526
 4504SOL    HW125145   0.953   3.556   4.764 -0.3560 -1.6810  2.4730
 4504SOL    HW225146   0.925   3.691   4.737  0.9954  1.4455  2.1681
 4505SOL     OW25147   1.103   0.620   6.520 -0.3433 -0.0029  0.0606
 4505SOL    HW125148   1.159   0.590   6.448 -0.3936 -2.5354  1.0799
 4505SOL    HW225149   1.026   0.653   6.473 -1.8754 -2.6721  0.6725
 4506SOL     OW25150   3.739   4.402  13.600  0.3092  0.4105  0.0276
 4506SOL    HW125151   3.729   4.428  13.692 -1.4104  1.0305 -0.3440
 4506SOL    HW225152   3.699   4.480  13.562 -0.1392 -0.0658 -0.4918
 4507SOL     OW25153   1.793   3.736   8.067  0.3018  0.2456  0.3992
 4507SOL    HW125154   1.729   3.695   8.125  0.9285 -1.0980  0.1364
 4507SOL    HW225155   1.748   3.820   8.056  0.5503  0.5226  1.4294
 4508SOL     OW25156   3.618   1.431  15.176  0.2967  0.3038  0.0645
 4508SOL    HW125157   3.557   1.479  15.119  0.3367 -0.2788 -0.4771
 4508SOL    HW225158   3.688   1.490  15.205  0.5951 -0.0739  0.1206
 4509SOL     OW25159   2.909   0.066   4.748 -0.1776 -0.4084 -0.2572
 4509SOL    HW125160   3.000   0.077   4.721 -0.2123 -0.1388 -0.2664
 4509SOL    HW225161   2.861   0.099   4.672 -1.3113 -2.8588 -0.6168
 4510SOL     OW25162   0.784   2.916  12.837 -0.2919  0.0688  0.2979
 4510SOL    HW125163   0.875   2.933  12.860  0.1823  1.5985 -2.7390
 4510SOL    HW225164   0.807   2.880  12.751 -2.4580 -1.6463  0.4446
 4511SOL     OW25165   3.790   0.781   6.906 -0.2910 -0.3384 -0.4418
 4511SOL    HW125166   3.884   0.776   6.924  0.3286  0.1165 -3.5717
 4511SOL    HW225167   3.787   0.765   6.812 -1.5199 -0.4126 -0.3850
 4512SOL     OW25168   2.138   1.519   1.886  0.1885 -0.2192  0.7811
 4512SOL    HW125169   2.200   1.565   1.829 -0.8816  0.5475  0.2364
 4512SOL    HW225170   2.107   1.586   1.947  1.9944  1.1939  0.1503
 4513SOL     OW25171   1.766   3.759   3.200  0.0815  0.0079 -0.1393
 4513SOL    HW125172   1.767   3.725   3.110 -0.0047  0.0310 -0.1487
 4513SOL    HW225173   1.795   3.848   3.181 -1.1928  0.4130 -0.1619
 4514SOL     OW25174   0.322   0.992  10.696  0.5893 -0.1221 -0.0857
 4514SOL    HW125175   0.235   1.029  10.713  0.6886  0.0739 -0.0059
 4514SOL    HW225176   0.339   0.930  10.767  0.2944 -2.1186 -1.7597
 4515SOL     OW25177   2.502   2.369  16.214  0.1132 -0.3477 -0.1230
 4515SOL    HW125178   2.448   2.329  16.147  1.6963 -0.6167 -1.2216
 4515SOL    HW225179   2.444   2.378  16.290  1.4170  0.0637  0.8241
 4516SOL     OW25180   4.509   1.376   6.763 -0.2402 -0.3364  0.4487
 4516SOL    HW125181   4.444   1.387   6.832 -0.0774  0.5825  0.4535
 4516SOL    HW225182   4.457   1.395   6.684  1.0434  0.4668 -0.2062
 4517SOL     OW25183   3.612   4.394   6.910 -0.1888 -0.0227 -0.1996
 4517SOL    HW125184   3.566   4.428   6.833  1.3010 -1.6467 -1.7975
 4517SOL    HW225185   3.604   4.466   6.973 -1.2523 -0.3136 -0.0095
 4518SOL     OW25186   0.809   0.515   4.488 -0.1002  0.0143  0.5738
 4518SOL    HW125187   0.877   0.471   4.437  0.5081 -1.4675  2.6878
 4518SOL    HW225188   0.729   0.521   4.436  2.1523  1.7290 -2.6745
 4519SOL     OW25189   2.566   2.670   3.485  0.2218 -0.0514  0.4291
 4519SOL    HW125190   2.560   2.742   3.422 -0.3090  0.1596  0.7162
 4519SOL    HW225191   2.595   2.705   3.569  1.9636  0.7156 -0.4977
 4520SOL     OW25192   3.256   4.317  15.456  0.0345 -0.1968  0.0241
 4520SOL    HW125193   3.270   4.396  15.403 -0.1372  0.5157  1.0451
 4520SOL    HW225194   3.178   4.342  15.506  1.3487  0.9906  1.4690
 4521SOL     OW25195   1.939   2.896  16.513  0.0274 -0.3416  0.5080
 4521SOL    HW125196   1.960   2.988  16.500 -1.6248  0.1048  0.9206
 4521SOL    HW225197   1.851   2.893  16.475  0.6459 -1.0213 -0.8673
 4522SOL     OW25198   1.786   2.784   8.923  0.4207 -0.1968  0.2037
 4522SOL    HW125199   1.759   2.706   8.971 -0.4542 -0.7678 -1.2197
 4522SOL    HW225200   1.817   2.831   9.001  0.2805  1.5763 -0.7976
 4523SOL     OW25201   2.278   4.422   7.538 -0.0542  0.6379 -0.1254
 4523SOL    HW125202   2.335   4.370   7.482 -1.7106 -3.6126  2.1540
 4523SOL    HW225203   2.257   4.357   7.605  2.8731  0.2487  0.4085
 4524SOL     OW25204   1.923   4.294  14.900  0.3329  0.6303 -0.6505
 4524SOL    HW125205   1.877   4.283  14.817 -1.8845  2.9764  0.2659
 4524SOL    HW225206   1.886   4.374  14.937 -1.0982 -1.0044  1.4361
 4525SOL     OW25207   2.135   0.846   6.062 -0.5444  0.3717 -0.6149
 4525SOL    HW125208   2.061   0.863   6.120 -0.6578 -0.5520 -0.4813
 4525SOL    HW225209   2.160   0.754   6.075  0.5709  0.8554  0.5839
 4526SOL     OW25210   4.458   0.160  14.765  0.1584 -0.3297 -0.3785
 4526SOL    HW125211   4.388   0.159  14.831  2.1696  0.4014  1.7399
 4526SOL    HW225212   4.519   0.100  14.808  1.2746  0.7700 -0.4602
 4527SOL     OW25213   0.407   3.113   6.602 -0.3571  0.2650 -0.4394
 4527SOL    HW125214   0.354   3.118   6.681  3.1011 -0.5390  1.9113
 4527SOL    HW225215   0.439   3.201   6.587 -0.9447  0.4889 -0.3853
 4528SOL     OW25216   3.428   4.309   2.505 -0.3631 -0.0997  0.4954
 4528SOL    HW125217   3.490   4.235   2.508 -0.0607  0.1892  1.2424
 4528SOL    HW225218   3.348   4.267   2.472  1.3459 -1.8141 -1.5304
 4529SOL     OW25219   1.024   2.973  12.924 -0.2727 -0.5913 -0.6516
 4529SOL    HW125220   1.035   3.068  12.932 -0.4670 -0.6974  1.0301
 4529SOL    HW225221   1.113   2.947  12.950 -0.3758  1.7368  2.0641
 4530SOL     OW25222   1.582   4.670   3.307  0.3117  0.3814  0.4227
 4530SOL    HW125223   1.598   4.730   3.380  0.0398  0.2507  0.5922
 4530SOL    HW225224   1.530   4.715   3.241 -1.6657 -0.9336  1.0917
 4531SOL     OW25225   1.299   2.961   3.893 -0.3104 -0.3056  0.5086
 4531SOL    HW125226   1.206   2.973   3.908 -0.7809 -1.5729 -1.4452
 4531SOL    HW225227   1.329   3.006   3.972  1.2999  0.8109 -0.7258
 4532SOL     OW25228   1.021   3.368   2.916 -0.0233  0.2697 -0.2799
 4532SOL    HW125229   0.960   3.405   2.980  0.3939  0.1889  0.1618
 4532SOL    HW225230   1.072   3.442   2.885 -0.8491  0.1734 -1.9105
 4533SOL     OW25231   1.638   0.589   2.631  0.2171 -0.1426  0.0116
 4533SOL    HW125232   1.721   0.572   2.675 -0.7208  0.9075  2.1867
 4533SOL    HW225233   1.670   0.595   2.541  1.0428  2.8093  0.5343
 4534SOL     OW25234   3.221   3.978   4.514 -0.0408  0.6984 -0.6359
 4534SOL    HW125235   3.188   4.051   4.462  0.2472  2.4822  1.6832
 4534SOL    HW225236   3.202   3.909   4.451  0.0751 -1.1507  1.3433
 4535SOL     OW25237   0.544   3.318   3.920 -0.5149 -0.1203 -0.0855
 4535SOL    HW125238   0.613   3.364   3.967 -1.5088  0.6991  0.5891
 4535SOL    HW225239   0.566   3.227   3.938 -1.7885 -0.7886 -1.8848
 4536SOL     OW25240   1.485   4.668   6.799 -0.6898 -0.1607  0.3766
 4536SOL    HW125241   1.572   4.692   6.830 -0.5019 -1.2699  0.7234
 4536SOL    HW225242   1.497   4.573   6.796  0.1620 -0.0209 -0.8994
 4537SOL     OW25243   4.592   3.773   6.012  0.0499 -0.0119 -1.0238
 4537SOL    HW125244   4.665   3.718   5.985 -1.8249 -2.0093 -2.0585
 4537SOL    HW225245   4.603   3.841   5.945  1.9555  0.5298 -0.1522
 4538SOL     OW25246   0.439   2.424  11.316  0.2225 -0.6939  0.1682
 4538SOL    HW125247   0.511   2.366  11.342  0.4637 -1.2090 -1.6645
 4538SOL    HW225248   0.440   2.415  11.221 -0.8037  0.0396  0.0889
 4539SOL     OW25249   1.444   4.620   1.169  0.0677 -0.3641  0.5150
 4539SOL    HW125250   1.441   4.529   1.197  0.8731 -0.2445  1.0197
 4539SOL    HW225251   1.375   4.608   1.105 -0.1817 -0.4687  0.8043
 4540SOL     OW25252   3.709   4.418   7.311  0.0821 -0.1717 -0.6149
 4540SOL    HW125253   3.787   4.371   7.284  1.3425  2.0952 -0.9606
 4540SOL    HW225254   3.756   4.498   7.334 -0.1500 -0.5143  1.0463
 4541SOL     OW25255   4.218   1.046   4.543  1.1566  0.3096 -0.0410
 4541SOL    HW125256   4.258   1.091   4.616  1.1321  1.9032 -1.0096
 4541SOL    HW225257   4.136   1.095   4.532  1.1070  0.7976  2.6707
 4542SOL     OW25258   0.216   3.592   7.588  0.1432  0.9274 -0.0181
 4542SOL    HW125259   0.256   3.553   7.510 -0.7079 -1.4646  0.7468
 4542SOL    HW225260   0.289   3.599   7.649 -1.3990  1.0209  1.8196
 4543SOL     OW25261   4.268   4.409  16.518 -0.3202  0.4918 -0.3784
 4543SOL    HW125262   4.283   4.439  16.608 -1.0181 -1.6284  0.4479
 4543SOL    HW225263   4.278   4.315  16.536 -2.5427  0.2799 -0.3197
 4544SOL     OW25264   2.468   3.669   3.869  0.1683  0.0548  0.1413
 4544SOL    HW125265   2.388   3.627   3.902  0.4515 -0.8594 -0.3359
 4544SOL    HW225266   2.487   3.616   3.792 -3.2901 -0.4123 -0.4133
 4545SOL     OW25267   2.305   2.185  12.659 -0.0987  0.3303  0.0746
 4545SOL    HW125268   2.225   2.134  12.665  0.0858  0.2684  1.9935
 4545SOL    HW225269   2.348   2.164  12.742 -0.1665 -2.0860 -0.5026
 4546SOL     OW25270   0.455   2.591   7.968 -0.3986  0.7443 -0.1080
 4546SOL    HW125271   0.511   2.514   7.979  0.3986  1.3139 -0.1554
 4546SOL    HW225272   0.481   2.655   8.034 -2.2033  0.6183  0.7225
 4547SOL     OW25273   2.067   4.598   8.460  0.3753 -0.4107  0.5047
 4547SOL    HW125274   2.039   4.627   8.373 -0.0425 -1.3026  0.3475
 4547SOL    HW225275   2.132   4.663   8.487  0.6208 -0.9483  1.2031
 4548SOL     OW25276   0.320   0.564   2.561  0.0911  0.0926 -0.1488
 4548SOL    HW125277   0.273   0.643   2.589 -1.7528  0.2007 -3.6367
 4548SOL    HW225278   0.256   0.493   2.557 -0.9124  0.9551  0.5320
 4549SOL     OW25279   2.926   1.034   0.007  0.1323 -0.3786 -0.2552
 4549SOL    HW125280   2.887   1.118   0.028 -0.3463 -1.4445  3.0782
 4549SOL    HW225281   2.844   0.985  17.732 -0.4184  0.9138 -2.0148
 4550SOL     OW25282   1.210   2.021   4.411  0.4513  0.0666  0.3434
 4550SOL    HW125283   1.256   2.046   4.491 -0.1116 -1.1308  1.0307
 4550SOL    HW225284   1.122   2.058   4.419 -0.7001 -2.0443 -2.6978
 4551SOL     OW25285   1.868   1.388   1.838 -0.0678 -0.6997  0.2362
 4551SOL    HW125286   1.939   1.446   1.865  1.2607 -2.3414  0.2055
 4551SOL    HW225287   1.806   1.437   1.892 -0.0516 -1.0316  0.5541
 4552SOL     OW25288   3.786   0.413   8.372  0.1421 -0.2130 -0.1222
 4552SOL    HW125289   3.847   0.435   8.301 -0.0167  1.6281  0.3392
 4552SOL    HW225290   3.829   0.333   8.403  0.2577 -0.0207  0.2022
 4553SOL     OW25291   0.695   1.512   3.852 -0.2306 -0.1399  0.0533
 4553SOL    HW125292   0.669   1.556   3.933  1.2761 -0.3601  0.6567
 4553SOL    HW225293   0.613   1.525   3.805  0.3090 -0.0957 -0.8654
 4554SOL     OW25294   1.785   0.981  15.636 -0.2716  0.4317  0.2780
 4554SOL    HW125295   1.767   1.007  15.726  0.5248  1.2934  0.1834
 4554SOL    HW225296   1.723   0.909  15.628 -1.9063  1.9105 -0.2774
 4555SOL     OW25297   4.121   2.438   7.926 -0.0086  0.0798 -0.4026
 4555SOL    HW125298   4.181   2.384   7.976 -0.1863 -0.6738 -1.0019
 4555SOL    HW225299   4.121   2.508   7.992 -2.5228  2.0968 -2.4981
 4556SOL     OW25300   0.250   3.583   3.590 -0.0378 -0.3691  0.6694
 4556SOL    HW125301   0.318   3.519   3.611 -2.1548 -2.5864  0.7246
 4556SOL    HW225302   0.299   3.664   3.608  0.7847 -0.5632 -0.7420
 4557SOL     OW25303   3.178   2.546   3.256  0.2976 -0.1289 -0.5182
 4557SOL    HW125304   3.269   2.571   3.267  0.6932 -0.4325 -3.0680
 4557SOL    HW225305   3.136   2.563   3.341  0.4151  3.0839 -1.1126
 4558SOL     OW25306   2.539   1.737   3.257 -0.1760  0.1196  0.0967
 4558SOL    HW125307   2.456   1.693   3.273  0.4342 -1.1608 -0.2049
 4558SOL    HW225308   2.608   1.685   3.299 -1.9935 -1.4207  1.1756
 4559SOL     OW25309   1.701   3.838  13.175 -0.4704  0.5139  1.0011
 4559SOL    HW125310   1.777   3.896  13.171  0.3096 -0.6630 -1.6285
 4559SOL    HW225311   1.720   3.784  13.098  0.6107  0.7735  1.0902
 4560SOL     OW25312   2.977   3.801   2.492  0.4226  0.3392 -0.3306
 4560SOL    HW125313   2.945   3.853   2.566 -0.2987 -0.8784  0.2054
 4560SOL    HW225314   2.923   3.825   2.416 -1.8024  0.6889  1.3618
 4561SOL     OW25315   2.554   3.781   1.816  0.3174  0.0157 -0.2824
 4561SOL    HW125316   2.559   3.837   1.894  2.3245 -0.5624 -0.0150
 4561SOL    HW225317   2.459   3.766   1.819  0.1755  0.7411 -1.1616
 4562SOL     OW25318   1.055   0.080   6.838 -0.0809 -0.3633 -0.3292
 4562SOL    HW125319   1.115   0.049   6.771 -1.3172 -0.4097 -1.4236
 4562SOL    HW225320   1.012   4.731   6.861  0.5735  0.1658  2.8658
 4563SOL     OW25321   2.948   1.566   5.628 -0.1720  0.3691  0.5931
 4563SOL    HW125322   3.021   1.606   5.581  0.7058 -0.0605  1.5713
 4563SOL    HW225323   2.991   1.541   5.710  1.5333  0.9820 -0.1121
 4564SOL     OW25324   3.484   1.955   4.074 -0.1732  0.6063  0.6960
 4564SOL    HW125325   3.461   1.873   4.030  0.4396  0.6064  0.3641
 4564SOL    HW225326   3.408   2.006   4.045 -1.2424 -0.7922  1.0705
 4565SOL     OW25327   4.032   0.010   3.582  0.0408  0.4055 -0.5783
 4565SOL    HW125328   4.031   4.663   3.531 -4.1094  0.4653 -0.5682
 4565SOL    HW225329   3.947   0.048   3.562 -2.0275 -3.7122  0.3422
 4566SOL     OW25330   3.087   2.310   6.542  0.2756 -0.5329  0.1665
 4566SOL    HW125331   3.181   2.297   6.535  0.5639  1.1451  0.9584
 4566SOL    HW225332   3.057   2.283   6.456  1.4652 -2.0070  0.2174
 4567SOL     OW25333   3.959   0.201   8.417 -0.1062  0.0031  0.1487
 4567SOL    HW125334   3.940   0.152   8.497  0.5339 -0.5426 -0.0429
 4567SOL    HW225335   3.932   0.141   8.348 -3.2591  0.8744  0.6030
 4568SOL     OW25336   0.367   3.365   8.850  0.5889 -0.1720 -0.0057
 4568SOL    HW125337   0.458   3.339   8.859  0.0310 -1.6366  1.4183
 4568SOL    HW225338   0.330   3.309   8.919  0.3494  0.5017  0.4131
 4569SOL     OW25339   0.313   1.243   2.383 -0.2402  0.3675  0.2612
 4569SOL    HW125340   0.263   1.186   2.442 -0.6697  1.1006  0.5942
 4569SOL    HW225341   0.295   1.205   2.296 -0.5886 -0.0838  0.5275
 4570SOL     OW25342   0.735   0.958  12.448  0.7420 -1.1366 -0.5504
 4570SOL    HW125343   0.673   1.017  12.404  0.3560 -0.0230  1.4758
 4570SOL    HW225344   0.690   0.949  12.532 -0.9659 -0.3444 -1.3844
 4571SOL     OW25345   3.030   1.492   9.915  0.4471  0.0669  0.5319
 4571SOL    HW125346   3.021   1.494  10.010  2.0129 -0.9075  0.7044
 4571SOL    HW225347   2.990   1.576   9.892  1.3549  0.2445 -0.3965
 4572SOL     OW25348   1.510   2.855   6.877  0.3684 -0.4640  0.3312
 4572SOL    HW125349   1.528   2.762   6.867  0.6947 -0.3452 -0.1804
 4572SOL    HW225350   1.425   2.840   6.919 -1.5263  1.9456 -2.6238
 4573SOL     OW25351   2.226   1.675  15.190 -0.2566  0.1317  0.7414
 4573SOL    HW125352   2.287   1.737  15.229 -0.3470 -0.3785  1.6937
 4573SOL    HW225353   2.203   1.717  15.108  1.4725  1.3376  0.8788
 4574SOL     OW25354   0.056   0.242  16.316 -0.4174  0.8191 -0.4407
 4574SOL    HW125355   0.126   0.203  16.262  1.4534  2.7638  0.5770
 4574SOL    HW225356   4.712   0.198  16.284  0.2895 -1.8775  1.5519
 4575SOL     OW25357   2.290   3.346   5.935 -0.7841 -0.3910 -0.4753
 4575SOL    HW125358   2.337   3.428   5.917  0.7475 -0.9712  0.9516
 4575SOL    HW225359   2.243   3.335   5.852  0.8561  0.6805 -1.5508
 4576SOL     OW25360   2.585   3.071   9.513  0.0614  0.0803 -0.5166
 4576SOL    HW125361   2.568   3.047   9.604 -0.6786  0.6511 -0.5067
 4576SOL    HW225362   2.505   3.043   9.468 -0.3344  0.2615  0.0758
 4577SOL     OW25363   1.197   0.769   8.712  0.7316 -0.4459  0.3216
 4577SOL    HW125364   1.150   0.691   8.741 -1.3976  0.4774 -0.6078
 4577SOL    HW225365   1.211   0.734   8.624 -1.0607 -1.6266  0.4899
 4578SOL     OW25366   3.716   0.428  15.246 -0.2273  0.2377  0.0962
 4578SOL    HW125367   3.669   0.409  15.164  0.8317 -4.6620  0.6065
 4578SOL    HW225368   3.785   0.363  15.252  0.9201  1.4805  0.3178
 4579SOL     OW25369   3.586   3.818   7.091 -0.2186 -0.7786  0.5974
 4579SOL    HW125370   3.536   3.752   7.139  1.3595 -1.8856  0.7014
 4579SOL    HW225371   3.555   3.802   7.002  0.2984  1.5161 -0.0114
 4580SOL     OW25372   0.073   3.217   7.687 -0.0704 -0.4217 -0.4813
 4580SOL    HW125373   0.082   3.198   7.593  1.3880  2.0407 -0.8454
 4580SOL    HW225374   0.137   3.153   7.718  0.4626  0.7409  0.8198
 4581SOL     OW25375   4.285   3.571   7.555  0.1117 -0.5703 -0.0203
 4581SOL    HW125376   4.210   3.623   7.583 -0.2685  0.5437 -3.0276
 4581SOL    HW225377   4.351   3.594   7.621  3.0440 -0.5328 -2.9480
 4582SOL     OW25378   2.655   2.630   4.975  0.1333  0.3991 -0.2389
 4582SOL    HW125379   2.635   2.719   4.946 -0.9861  0.0740 -0.4756
 4582SOL    HW225380   2.604   2.629   5.056 -0.5822  1.7226 -0.6713
 4583SOL     OW25381   2.519   2.518   4.732  0.1317 -0.0359  0.1900
 4583SOL    HW125382   2.567   2.535   4.651  2.4303 -0.8434  1.3879
 4583SOL    HW225383   2.584   2.550   4.794  0.4373 -1.0391  0.3832
 4584SOL     OW25384   3.410   4.296   1.389  0.0393 -0.2432  0.1428
 4584SOL    HW125385   3.363   4.217   1.361  2.4242 -1.0299 -1.6594
 4584SOL    HW225386   3.498   4.275   1.357 -0.5143 -3.0755  0.5168
 4585SOL     OW25387   1.625   3.401   6.130  0.0799 -0.2167  0.2667
 4585SOL    HW125388   1.708   3.352   6.131  0.2162  0.0514  2.0448
 4585SOL    HW225389   1.603   3.420   6.221  2.3645 -0.0642  0.7856
 4586SOL     OW25390   1.077   0.108  17.346 -0.0388 -0.3644  0.3732
 4586SOL    HW125391   1.104   0.030  17.298  3.0114  2.7238 -2.9566
 4586SOL    HW225392   1.105   0.078  17.432 -0.6817 -2.2739 -0.0851
 4587SOL     OW25393   4.149   0.170  15.503 -0.0047 -0.1514  0.2155
 4587SOL    HW125394   4.140   0.103  15.435  0.9899 -0.3355  0.2717
 4587SOL    HW225395   4.222   0.127  15.548  0.4236  1.3379  0.9501
 4588SOL     OW25396   3.579   0.147   1.988 -0.5364  0.0845  0.2297
 4588SOL    HW125397   3.544   0.102   2.065  1.1171 -0.1076  0.8706
 4588SOL    HW225398   3.598   0.065   1.944  0.6977  1.0871 -1.1237
 4589SOL     OW25399   0.041   3.236   4.098  0.3080 -0.2485  0.6262
 4589SOL    HW125400   0.024   3.200   4.185 -2.4963  1.3162  0.7215
 4589SOL    HW225401   0.107   3.179   4.058  1.7300  2.2592 -0.6421
 4590SOL     OW25402   4.673   0.799  16.897  0.6386 -0.1559 -0.0442
 4590SOL    HW125403   4.594   0.751  16.921 -0.1902  2.4811  2.5070
 4590SOL    HW225404   4.666   0.783  16.803 -0.6915 -1.5456  0.2907
 4591SOL     OW25405   2.831   0.561   8.575  0.6519  0.1302  0.5872
 4591SOL    HW125406   2.901   0.614   8.536  1.3779 -1.5370 -0.3763
 4591SOL    HW225407   2.810   0.512   8.496 -2.9285  0.6112  1.2570
 4592SOL     OW25408   3.015   1.382   5.362 -0.2021  0.1738 -0.5136
 4592SOL    HW125409   3.106   1.383   5.390 -0.0451 -1.2569 -0.9560
 4592SOL    HW225410   3.020   1.454   5.299 -0.1218  1.1991  0.6576
 4593SOL     OW25411   2.283   2.623   7.240 -0.4484 -0.1103  0.5318
 4593SOL    HW125412   2.327   2.612   7.156  0.4763 -1.1381  1.1539
 4593SOL    HW225413   2.364   2.613   7.290 -0.5612 -0.4022  0.6562
 4594SOL     OW25414   3.877   2.273   1.985 -0.2886 -0.0615  0.2670
 4594SOL    HW125415   3.927   2.229   1.917  0.7346  0.6772  0.5343
 4594SOL    HW225416   3.935   2.349   1.992  0.5002 -0.7463  1.1438
 4595SOL     OW25417   0.934   4.509   4.098 -0.0293 -0.1600  0.1314
 4595SOL    HW125418   0.842   4.484   4.089  0.0822 -0.2763 -0.6713
 4595SOL    HW225419   0.921   4.596   4.136 -0.5257  0.4618 -1.4536
 4596SOL     OW25420   3.214   1.581   1.227 -0.3058 -0.6534  0.0715
 4596SOL    HW125421   3.252   1.656   1.181 -0.2202 -0.1338  0.9985
 4596SOL    HW225422   3.164   1.616   1.300  0.3250 -2.1593  1.2365
 4597SOL     OW25423   1.062   0.029   3.085  0.2807 -0.1595 -0.2706
 4597SOL    HW125424   1.108   0.112   3.099 -1.9545  0.8363  1.2067
 4597SOL    HW225425   1.089   4.715   3.164  1.2228 -0.0876 -0.5409
 4598SOL     OW25426   2.525   3.130   3.397  0.1986  0.2448 -0.1491
 4598SOL    HW125427   2.482   3.046   3.380 -0.7678  0.6635  0.2441
 4598SOL    HW225428   2.492   3.160   3.482 -0.6869  0.5737 -0.6069
 4599SOL     OW25429   0.118   0.824   3.305  0.2692 -0.2561  0.1125
 4599SOL    HW125430   0.200   0.803   3.350 -0.1968  0.5529  1.3487
 4599SOL    HW225431   0.150   0.790   3.221 -1.5608  0.4827 -0.8988
 4600SOL     OW25432   1.220   1.429   3.419 -0.3306  0.3098  1.0397
 4600SOL    HW125433   1.250   1.440   3.510  1.3108  3.6185  0.0778
 4600SOL    HW225434   1.242   1.515   3.383  1.3081  0.2106  1.8169
 4601SOL     OW25435   4.253   0.031   6.276 -0.5468 -0.3154 -0.8185
 4601SOL    HW125436   4.273   0.125   6.274  3.0902 -0.9578  3.8256
 4601SOL    HW225437   4.212   0.017   6.191  0.1629 -1.4828 -0.9673
 4602SOL     OW25438   1.017   4.261   1.733  0.0710 -0.2905 -0.0396
 4602SOL    HW125439   1.081   4.311   1.784  0.7531 -1.8128  0.5811
 4602SOL    HW225440   0.964   4.330   1.693  0.8738  0.1622 -0.3248
 4603SOL     OW25441   3.519   3.494  11.740  0.2877  0.2773  0.4455
 4603SOL    HW125442   3.589   3.544  11.782  1.3926 -1.0337  0.1283
 4603SOL    HW225443   3.490   3.560  11.677  2.4777 -1.1063 -1.9826
 4604SOL     OW25444   1.702   1.444   2.084  0.1192 -0.8091  0.1925
 4604SOL    HW125445   1.621   1.490   2.106  0.7837  1.3000 -1.7759
 4604SOL    HW225446   1.707   1.387   2.162  0.9208  1.7844  2.0334
 4605SOL     OW25447   2.431   2.699   4.095 -0.0723  0.1118 -0.9089
 4605SOL    HW125448   2.470   2.778   4.130  0.1515 -0.5972  0.4476
 4605SOL    HW225449   2.496   2.634   4.121  0.8124  0.9711 -0.9827
 4606SOL     OW25450   0.923   1.877   5.084  0.6347  0.7914  0.1789
 4606SOL    HW125451   0.868   1.842   5.154  0.6348  0.1632 -0.1373
 4606SOL    HW225452   0.884   1.848   5.002 -0.1441  2.6628 -0.1055
 4607SOL     OW25453   2.848   0.678   6.361 -0.2881 -0.1701  0.0742
 4607SOL    HW125454   2.879   0.702   6.448  0.7930 -3.4246  0.5769
 4607SOL    HW225455   2.872   0.586   6.363 -2.8673 -0.8726 -2.2196
 4608SOL     OW25456   0.035   4.171   1.562  0.3457  0.3820 -0.0218
 4608SOL    HW125457   0.019   4.121   1.482  0.5424 -1.0856  0.8621
 4608SOL    HW225458   0.131   4.178   1.569  0.5247  0.1111 -2.1519
 4609SOL     OW25459   1.505   0.183  10.623  0.7593 -0.0462  0.2262
 4609SOL    HW125460   1.420   0.226  10.631  0.8180 -0.3227  2.3385
 4609SOL    HW225461   1.560   0.249  10.667 -0.0346  1.7452 -1.4721
 4610SOL     OW25462   4.107   3.166   2.548  0.5586  0.3006  0.2569
 4610SOL    HW125463   4.013   3.154   2.562  0.6588  0.6659  1.2366
 4610SOL    HW225464   4.096   3.180   2.454 -1.8846 -3.6902 -0.0789
 4611SOL     OW25465   4.690   4.039   2.622 -0.6973  0.2530  0.6693
 4611SOL    HW125466   4.624   4.108   2.627 -0.2079  0.8603 -1.5713
 4611SOL    HW225467   4.624   3.973   2.642  0.2896 -1.2750 -1.2174
 4612SOL     OW25468   1.301   2.179   4.150 -0.4656  0.3796 -0.0106
 4612SOL    HW125469   1.302   2.146   4.240  0.7748  0.1815 -0.0942
 4612SOL    HW225470   1.263   2.263   4.174 -2.3776 -0.3276 -0.5624
 4613SOL     OW25471   1.224   4.490   5.070  0.2441  0.1959  0.2340
 4613SOL    HW125472   1.320   4.497   5.077  0.1549  1.6533 -0.0134
 4613SOL    HW225473   1.213   4.397   5.087 -0.6041 -0.2558 -2.7402
 4614SOL     OW25474   0.027   2.867   1.221 -0.4205  0.2853 -0.6578
 4614SOL    HW125475   4.727   2.792   1.270  0.9786  0.3503  0.3971
 4614SOL    HW225476   0.070   2.830   1.144 -1.6273 -1.0400 -0.6917
 4615SOL     OW25477   2.910   0.338   3.037  0.1634  0.2014  0.1821
 4615SOL    HW125478   2.854   0.415   3.027 -0.8836 -0.2659  2.3705
 4615SOL    HW225479   2.944   0.349   3.125 -1.7544  1.8283  0.7237
 4616SOL     OW25480   3.168   3.333   5.167 -0.2602 -0.2782  0.2843
 4616SOL    HW125481   3.153   3.249   5.212 -1.8127  0.7039  1.6323
 4616SOL    HW225482   3.259   3.317   5.145 -0.1972  1.4830 -0.6691
 4617SOL     OW25483   4.472   0.209   2.937 -0.4083 -0.1252  0.0646
 4617SOL    HW125484   4.501   0.146   2.870 -1.8638 -0.1220 -0.5753
 4617SOL    HW225485   4.558   0.223   2.975 -1.1772  0.4841  1.6093
 4618SOL     OW25486   2.601   3.588   3.403  0.0033 -0.2583  0.9212
 4618SOL    HW125487   2.657   3.658   3.369  1.4703 -2.2358 -0.7360
 4618SOL    HW225488   2.566   3.543   3.327 -0.8022  3.0782 -0.6852
 4619SOL     OW25489   4.271   2.399  14.792  0.0880  0.2515  0.3394
 4619SOL    HW125490   4.359   2.403  14.753 -0.2378 -2.5861 -0.7087
 4619SOL    HW225491   4.237   2.311  14.775  1.0124 -0.3022  1.3782
 4620SOL     OW25492   2.623   4.201   6.137 -0.5214 -0.2119 -0.2225
 4620SOL    HW125493   2.603   4.192   6.230 -1.4975 -3.2205 -0.7176
 4620SOL    HW225494   2.609   4.294   6.122 -0.3709 -0.3509 -1.2165
 4621SOL     OW25495   4.199   4.375   5.097  0.4418 -0.0034  0.5591
 4621SOL    HW125496   4.166   4.305   5.153  0.1912 -1.7932 -1.7996
 4621SOL    HW225497   4.292   4.364   5.116  0.6825 -0.8717 -1.1373
 4622SOL     OW25498   3.591   4.688   4.744  0.6486  0.1147 -0.5941
 4622SOL    HW125499   3.662   4.697   4.680  0.0246  3.7285 -0.7876
 4622SOL    HW225500   3.524   4.629   4.709  1.5522 -0.7860 -0.7886
 4623SOL     OW25501   0.639   2.998   8.305 -0.0680  0.2528  0.3137
 4623SOL    HW125502   0.567   2.994   8.367 -1.5415 -0.8542 -1.4524
 4623SOL    HW225503   0.708   2.987   8.370  0.3662  2.0492  0.1437
 4624SOL     OW25504   4.233   0.792   4.975  0.1179 -0.2271  0.4249
 4624SOL    HW125505   4.269   0.880   4.981  1.1497 -0.7066  1.2535
 4624SOL    HW225506   4.302   0.733   4.941  1.1288  0.9216  0.4891
 4625SOL     OW25507   4.613   1.640   6.809 -0.5501  0.0251  0.1208
 4625SOL    HW125508   4.592   1.547   6.799 -1.1594  0.1670  0.0592
 4625SOL    HW225509   4.706   1.622   6.815 -0.3710 -0.1609 -3.2811
 4626SOL     OW25510   2.742   1.757   1.306  0.1455 -0.0887  0.1166
 4626SOL    HW125511   2.831   1.766   1.339  0.2048 -0.6806  0.1180
 4626SOL    HW225512   2.694   1.802   1.376 -1.2316 -0.8746 -0.3148
 4627SOL     OW25513   0.896   3.436   6.719 -0.2257 -0.3428 -0.6098
 4627SOL    HW125514   0.836   3.502   6.686  0.7208 -0.2265 -2.1330
 4627SOL    HW225515   0.921   3.389   6.639 -0.4506 -0.3926 -0.6502
 4628SOL     OW25516   1.828   1.417  14.584 -0.2307 -0.2461  0.6448
 4628SOL    HW125517   1.779   1.494  14.612 -1.0675  0.3115 -2.4725
 4628SOL    HW225518   1.862   1.381  14.666  0.0659 -0.7416  0.3027
 4629SOL     OW25519   0.617   3.926   4.773 -0.5318 -0.2339  0.1227
 4629SOL    HW125520   0.648   3.954   4.687  0.8826  0.6173  0.9169
 4629SOL    HW225521   0.696   3.945   4.823 -0.1534  0.6038 -0.7922
 4630SOL     OW25522   0.297   4.296   8.949 -0.2308 -0.5281 -0.0116
 4630SOL    HW125523   0.295   4.201   8.963 -0.0368 -0.5688 -0.2711
 4630SOL    HW225524   0.230   4.299   8.881 -0.8225 -1.6334  0.5115
 4631SOL     OW25525   0.211   4.312   1.009  0.2052 -0.3260  0.2800
 4631SOL    HW125526   0.291   4.361   0.990 -0.3580  0.4610 -0.0181
 4631SOL    HW225527   0.255   4.227   1.017 -0.5221 -0.7032  0.2911
 4632SOL     OW25528   2.029   1.950   4.051 -0.3452  0.6068 -0.3320
 4632SOL    HW125529   2.112   1.992   4.029  0.5482 -1.5250 -1.0338
 4632SOL    HW225530   1.962   2.015   4.069 -1.1690  0.0490 -1.3805
 4633SOL     OW25531   0.863   1.861  13.912 -0.9105 -0.1622 -0.1081
 4633SOL    HW125532   0.838   1.907  13.832  0.5510  0.4578 -0.2002
 4633SOL    HW225533   0.847   1.926  13.981  0.0346  0.2002 -0.2296
 4634SOL     OW25534   3.191   0.510   3.203  0.2765  0.0383 -0.2897
 4634SOL    HW125535   3.154   0.590   3.166  3.2171  1.3038 -0.5114
 4634SOL    HW225536   3.250   0.479   3.135  0.2019  0.5562 -0.5924
 4635SOL     OW25537   2.569   0.741   9.016  0.1999 -0.5981 -0.4630
 4635SOL    HW125538   2.652   0.697   9.036 -0.3479 -1.6226 -0.4094
 4635SOL    HW225539   2.580   0.774   8.926  3.6177 -3.3318 -1.0638
 4636SOL     OW25540   2.484   0.958   0.593 -0.0306  0.0612  0.6577
 4636SOL    HW125541   2.549   0.920   0.652 -0.4457 -3.9137 -1.4612
 4636SOL    HW225542   2.512   1.048   0.575  0.3843  0.1588  1.7834
 4637SOL     OW25543   1.047   0.804   5.024 -0.1100 -0.5855  0.7260
 4637SOL    HW125544   1.072   0.719   4.987 -1.1854 -0.9695  0.8959
 4637SOL    HW225545   0.960   0.790   5.061 -1.1708 -1.3566 -2.0643
 4638SOL     OW25546   3.776   0.277   7.425 -0.3826  0.1571  0.0388
 4638SOL    HW125547   3.825   0.348   7.467 -0.4301 -0.1569  0.6228
 4638SOL    HW225548   3.689   0.309   7.448 -0.3368 -0.8059  1.5428
 4639SOL     OW25549   1.291   3.200  16.979 -0.1549  0.6214 -0.0123
 4639SOL    HW125550   1.232   3.245  17.040  0.7917  3.3782 -1.1356
 4639SOL    HW225551   1.367   3.187  17.036  0.4520  1.1807 -0.7001
 4640SOL     OW25552   3.193   2.342   8.778 -0.3167  0.6396  0.3020
 4640SOL    HW125553   3.228   2.365   8.865  0.8098 -0.4007  0.1266
 4640SOL    HW225554   3.279   2.337   8.737  0.8482  0.3647  2.7237
 4641SOL     OW25555   0.018   1.079   8.650  0.1881 -0.3483  0.7067
 4641SOL    HW125556   0.083   1.039   8.709  0.5647  0.1271  0.6167
 4641SOL    HW225557   0.079   1.112   8.584  0.2703  1.7930  1.8534
 4642SOL     OW25558   2.539   1.201  16.962 -0.0896 -0.0017  0.4240
 4642SOL    HW125559   2.549   1.268  16.894  0.3450 -1.6871 -1.1787
 4642SOL    HW225560   2.592   1.135  16.917 -0.8596  1.1107 -2.1516
 4643SOL     OW25561   3.555   3.536   5.571  0.3231 -0.0901  0.0954
 4643SOL    HW125562   3.471   3.579   5.590 -0.6995 -1.6801 -0.8025
 4643SOL    HW225563   3.522   3.449   5.550  0.1088  0.4406 -1.7586
 4644SOL     OW25564   0.848   4.698   3.415  0.6843 -0.2858  0.3179
 4644SOL    HW125565   0.821   4.726   3.327  3.2026 -0.7741 -0.6211
 4644SOL    HW225566   0.942   4.714   3.410  0.8799 -1.4611  0.1809
 4645SOL     OW25567   3.061   0.815  14.875  0.3914  0.4335  0.6574
 4645SOL    HW125568   3.072   0.793  14.782  1.6831  1.5424  0.5388
 4645SOL    HW225569   2.982   0.767  14.901  0.9719 -0.1485  1.3345
 4646SOL     OW25570   2.860   4.365   8.805  0.0137  0.2512 -0.2274
 4646SOL    HW125571   2.783   4.313   8.830  0.1218 -0.7335 -1.9577
 4646SOL    HW225572   2.865   4.361   8.710  1.7696  0.7847 -0.1504
 4647SOL     OW25573   0.524   2.905   7.814 -0.3707  0.1829  0.1469
 4647SOL    HW125574   0.556   2.968   7.748  1.8201  0.6269  1.6497
 4647SOL    HW225575   0.507   2.956   7.893  1.5552  1.1213 -0.0427
 4648SOL     OW25576   4.343   1.128  16.694 -0.0045 -0.4838 -0.2145
 4648SOL    HW125577   4.343   1.192  16.622  0.4849 -0.9786 -0.6510
 4648SOL    HW225578   4.430   1.138  16.730 -0.2370 -2.3020  0.8505
 4649SOL     OW25579   2.610   0.730   8.324  0.0679  0.5615 -0.2872
 4649SOL    HW125580   2.642   0.749   8.413 -2.4161 -0.7019  0.8933
 4649SOL    HW225581   2.568   0.813   8.302  0.0525  0.3702 -0.9624
 4650SOL     OW25582   1.458   0.203   2.327  0.0027 -0.3195 -0.3285
 4650SOL    HW125583   1.407   0.133   2.285 -1.5846  1.5611 -1.5305
 4650SOL    HW225584   1.385   0.262   2.348  1.6369  1.0293  1.5171
 4651SOL     OW25585   0.497   2.312   5.420  0.4698  0.6726  0.5460
 4651SOL    HW125586   0.585   2.310   5.456  0.4933  0.9875  0.5091
 4651SOL    HW225587   0.513   2.392   5.370 -1.6156  1.6562  1.4549
 4652SOL     OW25588   2.176   0.156   8.263  0.1627 -0.2201  0.8172
 4652SOL    HW125589   2.210   0.207   8.189  2.6971 -3.3586 -0.1895
 4652SOL    HW225590   2.224   0.074   8.252 -0.5646 -0.4313 -0.7992
 4653SOL     OW25591   1.308   1.990  10.920  0.4653  0.7775  0.4312
 4653SOL    HW125592   1.343   1.902  10.908 -0.5758  0.2565  1.2455
 4653SOL    HW225593   1.239   1.957  10.976 -1.5348  0.0011 -2.4651
 4654SOL     OW25594   2.578   3.412   0.655  0.0901  0.7161  0.5510
 4654SOL    HW125595   2.597   3.493   0.607  2.4271  0.0312  0.3490
 4654SOL    HW225596   2.666   3.377   0.668 -0.7094 -1.9138 -1.0230
 4655SOL     OW25597   2.801   2.208  17.125  0.4489  0.3913  0.8167
 4655SOL    HW125598   2.845   2.127  17.152 -0.3312 -0.2797  0.0772
 4655SOL    HW225599   2.860   2.256  17.068  0.5484  0.6750  1.1628
 4656SOL     OW25600   4.374   2.411  14.005 -0.7001 -0.4205 -0.9287
 4656SOL    HW125601   4.430   2.418  13.929  0.0643 -0.3323 -0.3555
 4656SOL    HW225602   4.331   2.497  13.996 -0.5363 -0.5209 -2.5811
 4657SOL     OW25603   2.783   2.023   7.537 -0.2112 -0.9574 -0.3189
 4657SOL    HW125604   2.746   2.110   7.522  1.6738 -0.6343 -3.0895
 4657SOL    HW225605   2.751   2.012   7.626  1.5075  1.2236  0.5521
 4658SOL     OW25606   1.334   2.356   6.090 -0.2060  0.4742  0.7427
 4658SOL    HW125607   1.351   2.399   6.174  0.7641  0.8484  0.3479
 4658SOL    HW225608   1.403   2.395   6.037 -0.7508  0.5659  0.0907
 4659SOL     OW25609   4.238   3.367   6.659  0.1810 -0.1401 -0.3639
 4659SOL    HW125610   4.168   3.404   6.606  0.6579  1.6621  0.2860
 4659SOL    HW225611   4.181   3.340   6.731 -0.6636  0.2378 -0.8865
 4660SOL     OW25612   3.039   4.630   9.142 -0.3769  1.1569  0.1739
 4660SOL    HW125613   3.022   4.555   9.084 -1.3287  0.3783  1.4618
 4660SOL    HW225614   3.128   4.657   9.116  0.6426 -2.0250  0.3839
 4661SOL     OW25615   0.909   0.304   7.352 -0.2512 -0.2599  0.6700
 4661SOL    HW125616   0.939   0.229   7.405 -2.6521 -1.9278 -0.3360
 4661SOL    HW225617   0.931   0.377   7.410  1.5042  0.4797 -0.9601
 4662SOL     OW25618   1.042   4.268   3.043  0.2093 -0.2427  0.4757
 4662SOL    HW125619   0.969   4.300   3.096 -0.1879 -1.5230  0.7018
 4662SOL    HW225620   1.000   4.185   3.022 -0.7833  0.4415 -0.2858
 4663SOL     OW25621   2.322   0.106   5.915 -0.3092 -0.0700  0.0614
 4663SOL    HW125622   2.379   0.055   5.858  1.3430  1.0582  0.7077
 4663SOL    HW225623   2.308   0.048   5.989 -1.0470  0.8882  0.6817
 4664SOL     OW25624   0.016   4.543   7.556 -0.1100  0.3831  0.0578
 4664SOL    HW125625   4.724   4.505   7.472  4.4713 -2.0632 -0.2352
 4664SOL    HW225626   0.018   4.465   7.611  1.5059  1.0999  1.0223
 4665SOL     OW25627   2.641   4.241   6.896 -0.1446  0.4219 -0.7416
 4665SOL    HW125628   2.582   4.316   6.900  2.8917  2.7923 -0.8601
 4665SOL    HW225629   2.593   4.165   6.930  0.0738  1.8011  2.6191
 4666SOL     OW25630   0.543   0.744   3.263  0.0964  0.5472  0.1962
 4666SOL    HW125631   0.608   0.814   3.268 -0.6617  1.2683 -0.0222
 4666SOL    HW225632   0.594   0.671   3.297 -0.2084 -0.3729 -1.2995
 4667SOL     OW25633   4.502   1.069  17.069 -0.3613 -0.4042 -0.0223
 4667SOL    HW125634   4.563   1.063  16.996 -0.2303  0.2302  0.0429
 4667SOL    HW225635   4.570   1.075  17.137  0.4027  0.3191 -0.8633
 4668SOL     OW25636   3.917   3.611  16.335 -0.2923  0.6432  0.3817
 4668SOL    HW125637   3.831   3.595  16.372 -0.6050  0.0592 -0.5979
 4668SOL    HW225638   3.968   3.628  16.414 -1.3864 -0.7226  1.3885
 4669SOL     OW25639   1.712   3.226  15.417  0.4685 -0.3413 -0.2667
 4669SOL    HW125640   1.675   3.167  15.483  0.9934  0.9360  1.1740
 4669SOL    HW225641   1.796   3.239  15.462  1.5747 -1.3818 -2.0314
 4670SOL     OW25642   2.628   3.561   5.853 -0.2435 -0.0806 -0.3332
 4670SOL    HW125643   2.532   3.553   5.849 -0.3501 -0.0660  2.1581
 4670SOL    HW225644   2.659   3.589   5.767  2.8254  0.6771  1.0425
 4671SOL     OW25645   1.192   1.267   7.084 -0.5875  0.3662  0.4040
 4671SOL    HW125646   1.097   1.280   7.081 -0.6906  0.2722  2.5674
 4671SOL    HW225647   1.207   1.190   7.139 -1.2119 -1.0433 -1.4166
 4672SOL     OW25648   1.433   1.376   5.045 -0.2230  0.3090 -0.4566
 4672SOL    HW125649   1.483   1.451   5.013  0.3124  0.0331 -0.2675
 4672SOL    HW225650   1.468   1.298   5.003 -0.6261  0.5746 -1.2778
 4673SOL     OW25651   1.369   4.348   9.703  0.3015 -0.3315 -0.0937
 4673SOL    HW125652   1.431   4.369   9.772  0.3999 -0.4057 -0.1609
 4673SOL    HW225653   1.317   4.428   9.707  2.0618  0.7796  0.5147
 4674SOL     OW25654   0.864   1.464   5.343  0.4429 -0.3010  0.1496
 4674SOL    HW125655   0.946   1.442   5.298 -0.4744  2.2238 -2.7593
 4674SOL    HW225656   0.879   1.558   5.352  2.1174 -0.6368  0.8181
 4675SOL     OW25657   3.743   2.392   3.535 -0.0292 -0.1068  0.1486
 4675SOL    HW125658   3.831   2.424   3.518  0.0331 -0.0128  0.6518
 4675SOL    HW225659   3.757   2.301   3.560  1.3946  0.5615  1.7902
 4676SOL     OW25660   4.415   0.082   3.175 -0.3634 -0.4385  0.0693
 4676SOL    HW125661   4.397   0.156   3.233 -0.9012  0.8929 -1.8080
 4676SOL    HW225662   4.428   0.121   3.088  0.4561  1.9571  1.2667
 4677SOL     OW25663   3.389   1.504  11.847 -0.1845  0.0921 -0.1841
 4677SOL    HW125664   3.316   1.543  11.896 -0.8193 -0.2530 -0.8502
 4677SOL    HW225665   3.451   1.577  11.842  3.4249 -2.8761  1.1592
 4678SOL     OW25666   4.030   3.789  16.119  0.4071 -0.1777 -0.5769
 4678SOL    HW125667   4.003   3.749  16.202  0.3402 -0.5689 -0.7830
 4678SOL    HW225668   4.030   3.882  16.142  1.6460 -0.3178 -0.0399
 4679SOL     OW25669   0.438   0.407  12.570 -0.5991 -0.0547 -0.3857
 4679SOL    HW125670   0.467   0.484  12.520 -1.5270  0.5335 -0.0225
 4679SOL    HW225671   0.365   0.380  12.515 -0.0102 -2.0208 -0.1986
 4680SOL     OW25672   1.815   4.049   6.595  0.3490 -0.1067  0.1789
 4680SOL    HW125673   1.858   3.984   6.540 -1.0439 -0.8123 -0.0729
 4680SOL    HW225674   1.724   4.060   6.566  0.5361  0.5465 -0.1574
 4681SOL     OW25675   1.802   0.532   6.340  0.1471  0.2611 -0.3574
 4681SOL    HW125676   1.754   0.450   6.355  0.5140  0.2631  0.7421
 4681SOL    HW225677   1.746   0.598   6.381 -0.9168 -0.5754 -0.4433
 4682SOL     OW25678   0.783   1.323   0.423  0.0226 -0.0272 -0.2424
 4682SOL    HW125679   0.756   1.277   0.502  0.9854  0.0342  0.1151
 4682SOL    HW225680   0.793   1.412   0.458 -0.3530  0.5455 -1.5791
 4683SOL     OW25681   3.794   1.619   2.266  0.1887 -0.7798  0.1301
 4683SOL    HW125682   3.797   1.588   2.176 -0.1630 -0.6503  0.0749
 4683SOL    HW225683   3.869   1.679   2.266 -1.1078  0.8437 -0.1340
 4684SOL     OW25684   0.435   3.892   2.583 -0.4207  0.3069 -0.2362
 4684SOL    HW125685   0.497   3.947   2.535  0.3673 -0.3262  0.0583
 4684SOL    HW225686   0.497   3.851   2.644  0.6995  0.9914 -0.9159
 4685SOL     OW25687   3.091   4.682   6.616 -0.3077 -0.2579  0.1025
 4685SOL    HW125688   3.134   0.030   6.591 -2.5450  0.3733 -1.5637
 4685SOL    HW225689   2.998   4.702   6.613 -0.3237 -0.8276 -2.4698
 4686SOL     OW25690   3.308   1.641   2.134  0.1604 -0.2621  0.5671
 4686SOL    HW125691   3.245   1.621   2.065  0.5998 -0.0525  0.1138
 4686SOL    HW225692   3.331   1.730   2.107 -0.4032  0.0416  1.0592
 4687SOL     OW25693   0.760   2.917   6.747 -0.9562  0.0426 -0.4356
 4687SOL    HW125694   0.672   2.882   6.734 -0.5598 -1.0593 -0.1182
 4687SOL    HW225695   0.739   3.003   6.783  1.1844  0.6913 -0.7284
 4688SOL     OW25696   2.069   1.505   6.055 -0.2825  0.1260 -0.7030
 4688SOL    HW125697   2.041   1.510   5.964 -0.8511 -1.1108 -0.5918
 4688SOL    HW225698   2.108   1.592   6.064 -0.5852  0.1843  0.0528
 4689SOL     OW25699   0.649   1.591   9.798  0.3970  0.2146  0.3088
 4689SOL    HW125700   0.637   1.642   9.878  2.8861  1.4091 -0.0750
 4689SOL    HW225701   0.730   1.627   9.761  0.3080 -0.2744 -0.3594
 4690SOL     OW25702   2.161   0.521   1.288 -0.2164  0.1198 -0.5159
 4690SOL    HW125703   2.226   0.501   1.220 -0.7133  0.0980 -0.9875
 4690SOL    HW225704   2.203   0.600   1.323  0.6805 -0.7289  0.2972
 4691SOL     OW25705   0.223   4.355   4.234  0.1512  0.8748  0.2525
 4691SOL    HW125706   0.156   4.340   4.300  0.1604  2.1004  0.5465
 4691SOL    HW225707   0.176   4.416   4.177  0.2588  1.8277  1.1761
 4692SOL     OW25708   1.059   2.706   5.485  0.1757  0.0012 -0.2701
 4692SOL    HW125709   1.105   2.632   5.526 -1.7590 -1.7333 -1.2564
 4692SOL    HW225710   0.977   2.669   5.453  0.9192 -0.4467 -1.6482
 4693SOL     OW25711   3.824   0.801   7.689  0.1696  0.3493 -0.2404
 4693SOL    HW125712   3.858   0.891   7.688 -1.8845  1.1044 -1.5754
 4693SOL    HW225713   3.903   0.758   7.656  0.5731  0.0223  1.1491
 4694SOL     OW25714   1.688   0.647   4.190 -0.7695  0.2543  0.2487
 4694SOL    HW125715   1.668   0.558   4.162 -1.2710  0.8382 -1.2134
 4694SOL    HW225716   1.657   0.661   4.280  1.3900 -1.3163  1.2590
 4695SOL     OW25717   0.220   1.087   6.156  0.0386 -0.1272  0.1531
 4695SOL    HW125718   0.302   1.086   6.205  0.9559 -0.5667 -1.4006
 4695SOL    HW225719   0.239   1.167   6.106 -1.4459 -0.3442 -0.7427
 4696SOL     OW25720   1.727   2.723  10.833  0.2822  0.0615 -0.4733
 4696SOL    HW125721   1.648   2.706  10.886  1.5783 -0.3234  1.3454
 4696SOL    HW225722   1.791   2.738  10.903 -2.2054 -0.1690  1.8593
 4697SOL     OW25723   1.165   0.127   1.422 -0.0421  0.1245  0.5451
 4697SOL    HW125724   1.171   0.167   1.509  1.2532  0.3204  0.3628
 4697SOL    HW225725   1.160   0.210   1.375 -0.4839 -0.5174 -0.5368
 4698SOL     OW25726   2.568   2.164   3.730  0.8395  0.0105  0.0009
 4698SOL    HW125727   2.476   2.140   3.727  1.0116 -0.9592  2.5178
 4698SOL    HW225728   2.610   2.081   3.754 -1.6782 -1.0617  0.6696
 4699SOL     OW25729   1.107   2.397  11.112 -0.9083  0.0937 -0.4919
 4699SOL    HW125730   1.111   2.442  11.027 -0.3928 -0.4826 -0.7783
 4699SOL    HW225731   1.183   2.338  11.111 -2.2093 -1.5909 -0.6779
 4700SOL     OW25732   3.642   3.625   7.767 -0.2976  0.0318  0.3415
 4700SOL    HW125733   3.730   3.662   7.776 -0.0177 -0.9202  1.4196
 4700SOL    HW225734   3.599   3.657   7.847 -0.1227  0.4272  0.2788
 4701SOL     OW25735   4.690   1.380   8.339  0.3912  0.0167 -0.2967
 4701SOL    HW125736   4.618   1.402   8.399  0.4164 -1.3991  0.2445
 4701SOL    HW225737   0.021   1.420   8.397  0.0448 -0.3644  0.3542
 4702SOL     OW25738   3.295   0.151   5.902  1.0848  0.6930 -0.3781
 4702SOL    HW125739   3.256   0.064   5.912 -0.3864  1.4596  0.4716
 4702SOL    HW225740   3.258   0.165   5.814 -0.2293 -0.9778 -0.0976
 4703SOL     OW25741   2.948   1.718   7.261 -0.1915 -0.3811  1.1019
 4703SOL    HW125742   2.871   1.697   7.314 -0.5102  1.0971  1.2241
 4703SOL    HW225743   2.961   1.811   7.277 -2.1319 -0.0668  0.9117
 4704SOL     OW25744   2.142   1.997  12.370 -0.0611  0.0012 -0.1197
 4704SOL    HW125745   2.085   2.007  12.447  2.7052 -1.4643  2.1449
 4704SOL    HW225746   2.095   1.929  12.322 -1.3533  0.5172  0.4159
 4705SOL     OW25747   3.630   3.543   4.294 -0.0687  0.0115  0.0393
 4705SOL    HW125748   3.697   3.510   4.234  1.2007 -1.8629  2.5095
 4705SOL    HW225749   3.628   3.639   4.295  0.6164  0.0211  0.0759
 4706SOL     OW25750   4.695   0.540  11.577  0.5749 -0.2281  0.2647
 4706SOL    HW125751   4.702   0.490  11.495 -0.7980 -1.2944  0.7868
 4706SOL    HW225752   0.044   0.586  11.578  0.7050 -0.4834  1.3634
 4707SOL     OW25753   1.481   1.689   2.798 -0.3561  0.5372 -0.1805
 4707SOL    HW125754   1.526   1.773   2.796  0.3456  0.1857  0.6275
 4707SOL    HW225755   1.454   1.678   2.890  0.5720  1.4403  0.2020
 4708SOL     OW25756   0.703   3.822   1.147  0.0603 -0.0990 -0.2384
 4708SOL    HW125757   0.785   3.835   1.101 -2.2554  0.5614 -4.2260
 4708SOL    HW225758   0.658   3.903   1.124 -0.3526  0.0981  1.2576
 4709SOL     OW25759   2.684   3.151   7.403  0.1737 -0.4863  0.3719
 4709SOL    HW125760   2.617   3.104   7.454 -0.3672 -1.5675 -1.3095
 4709SOL    HW225761   2.650   3.240   7.413  2.2972  0.7503 -3.6817
 4710SOL     OW25762   0.926   3.817   4.047 -0.7274  0.2465  0.3201
 4710SOL    HW125763   0.885   3.799   4.132 -3.0508 -1.9265 -1.2784
 4710SOL    HW225764   0.847   3.837   3.996 -0.4668 -0.0284 -0.1872
 4711SOL     OW25765   2.053   4.297   2.078  0.4979 -0.5026 -0.0692
 4711SOL    HW125766   1.973   4.280   2.128 -0.2959  0.6671 -0.9597
 4711SOL    HW225767   2.121   4.261   2.136 -1.2369 -3.3312  0.1851
 4712SOL     OW25768   0.631   1.601  12.591 -0.1475 -0.7724  0.6895
 4712SOL    HW125769   0.574   1.664  12.635  1.4997 -1.0171  3.1970
 4712SOL    HW225770   0.567   1.566  12.529  2.2600 -2.4882 -0.8222
 4713SOL     OW25771   2.485   2.611   7.953 -0.5155 -0.1787  0.4210
 4713SOL    HW125772   2.414   2.549   7.970  0.7321 -1.4089  1.2164
 4713SOL    HW225773   2.486   2.664   8.033 -1.0344  0.5324 -0.0424
 4714SOL     OW25774   3.551   1.713   1.732  0.1005 -0.2052  0.4625
 4714SOL    HW125775   3.641   1.684   1.719 -0.2172 -1.8546  2.0155
 4714SOL    HW225776   3.555   1.806   1.707 -0.0249 -0.2771  0.1669
 4715SOL     OW25777   4.477   4.090  13.695  0.7349  0.3669 -0.1517
 4715SOL    HW125778   4.502   4.115  13.606 -0.9206 -1.0816 -1.0266
 4715SOL    HW225779   4.540   4.021  13.713 -0.2271 -0.9240 -1.7771
 4716SOL     OW25780   4.314   0.595  13.519 -0.0991 -0.1567 -0.1636
 4716SOL    HW125781   4.251   0.529  13.491  0.4548 -1.4078  1.5383
 4716SOL    HW225782   4.252   0.667  13.536  1.7143  1.4841 -0.5081
 4717SOL     OW25783   1.138   2.693   6.520  0.2065 -0.0954  0.8941
 4717SOL    HW125784   1.092   2.720   6.600 -3.3953 -1.5238 -0.6549
 4717SOL    HW225785   1.217   2.743   6.540  1.4557 -1.0178 -1.6571
 4718SOL     OW25786   0.639   0.340   1.180 -0.2687 -0.1448  0.0870
 4718SOL    HW125787   0.703   0.405   1.208 -0.2898  0.2804 -0.8577
 4718SOL    HW225788   0.559   0.390   1.163 -1.5847 -2.4005 -0.3900
 4719SOL     OW25789   2.419   3.121   3.082  0.3843 -0.2213  0.3214
 4719SOL    HW125790   2.466   3.102   3.163 -0.6576  0.4844  1.1010
 4719SOL    HW225791   2.340   3.066   3.087  1.6173 -1.7756  2.5642
 4720SOL     OW25792   1.042   3.119   1.190 -0.2952  0.1754  0.1679
 4720SOL    HW125793   1.132   3.135   1.219 -0.3017 -1.0816  0.9010
 4720SOL    HW225794   1.019   3.179   1.119 -1.8502 -0.8579 -0.2195
 4721SOL     OW25795   3.453   4.252   6.649  0.2248 -0.2498  0.0772
 4721SOL    HW125796   3.469   4.233   6.557  2.7912  0.0357  0.4710
 4721SOL    HW225797   3.401   4.332   6.637  1.8870  0.9313  0.6536
 4722SOL     OW25798   3.537   3.227  13.215 -0.3779 -0.2297  0.1605
 4722SOL    HW125799   3.483   3.154  13.187  0.7668 -1.3483  0.8798
 4722SOL    HW225800   3.492   3.240  13.299 -2.8269  3.1568 -1.6960
 4723SOL     OW25801   4.414   3.397   5.123 -0.1022 -0.5980  0.1412
 4723SOL    HW125802   4.428   3.393   5.217  3.8773  1.3119 -0.3930
 4723SOL    HW225803   4.468   3.470   5.092 -1.5602 -0.8664 -3.0830
 4724SOL     OW25804   4.067   4.115   7.892  0.6100  0.3515  0.5149
 4724SOL    HW125805   4.066   4.204   7.857  1.1014  0.1765  0.0626
 4724SOL    HW225806   4.070   4.143   7.983  1.0194 -0.4943  0.7579
 4725SOL     OW25807   1.566   4.509   6.196 -0.4979 -0.4975  0.1143
 4725SOL    HW125808   1.477   4.498   6.229 -0.1136 -0.4532  1.1667
 4725SOL    HW225809   1.549   4.543   6.108 -1.9086 -0.0757  0.5470
 4726SOL     OW25810   1.952   0.356   3.002 -0.3214  0.4010  0.1797
 4726SOL    HW125811   2.021   0.348   3.067  2.2512  2.3207 -2.2834
 4726SOL    HW225812   1.937   0.268   2.967 -0.3057 -0.0525  1.3221
 4727SOL     OW25813   2.063   4.330  15.321  0.3426 -0.2085  0.5621
 4727SOL    HW125814   2.137   4.387  15.302 -0.5450  0.6553 -0.3092
 4727SOL    HW225815   2.048   4.373  15.405 -0.6236 -0.3392  0.4547
 4728SOL     OW25816   0.035   0.268   8.176 -0.0127  0.0139  0.1000
 4728SOL    HW125817   4.723   0.349   8.198  0.0137  0.0178  0.1424
 4728SOL    HW225818   0.015   0.218   8.256  0.2485 -0.4021 -0.0930
 4729SOL     OW25819   4.260   1.621   6.483  0.3402 -0.7530  0.3752
 4729SOL    HW125820   4.215   1.609   6.400  1.3403  0.3195 -0.3154
 4729SOL    HW225821   4.290   1.531   6.495 -0.6902 -0.9769  1.2903
 4730SOL     OW25822   3.443   2.066  16.101 -0.6675 -0.0099  0.5119
 4730SOL    HW125823   3.531   2.032  16.119 -0.7288 -1.3752 -1.7939
 4730SOL    HW225824   3.448   2.160  16.117 -0.7060  0.3722 -1.8393
 4731SOL     OW25825   3.024   0.104   7.013  0.4082  0.1616 -0.0756
 4731SOL    HW125826   3.100   0.108   7.072  1.1423 -2.0853 -0.8592
 4731SOL    HW225827   3.016   0.008   7.009  0.4497  0.2496 -2.3335
 4732SOL     OW25828   0.436   1.093   9.539 -0.5272  0.0929  0.5602
 4732SOL    HW125829   0.406   1.092   9.630  1.7902  0.5462  1.3192
 4732SOL    HW225830   0.520   1.139   9.545 -0.5275  0.1031  0.4863
 4733SOL     OW25831   3.044   1.751  10.227 -0.0601  0.4320  0.0933
 4733SOL    HW125832   3.090   1.716  10.303  0.1808  0.8973  0.1619
 4733SOL    HW225833   2.980   1.682  10.210  2.5093 -1.7859 -0.5253
 4734SOL     OW25834   1.230   2.194   3.069 -0.5455  0.0103 -0.5299
 4734SOL    HW125835   1.234   2.250   2.991 -1.0936  0.9911  0.1435
 4734SOL    HW225836   1.138   2.166   3.068 -0.7645  0.5905  2.2095
 4735SOL     OW25837   3.886   4.258  11.881  0.4228  0.1150  0.0782
 4735SOL    HW125838   3.911   4.323  11.947  0.1709  1.0984 -0.7997
 4735SOL    HW225839   3.913   4.178  11.925  1.2815  0.4444  0.1407
 4736SOL     OW25840   0.165   2.838   6.414 -0.0927 -0.0052  0.2795
 4736SOL    HW125841   0.203   2.755   6.385  1.1694  0.0930  1.6282
 4736SOL    HW225842   0.074   2.808   6.420 -0.6892  1.5896 -0.9541
 4737SOL     OW25843   0.386   3.213   2.229  0.0467  0.0627 -0.1630
 4737SOL    HW125844   0.376   3.240   2.320 -0.3710 -2.6053  0.5741
 4737SOL    HW225845   0.403   3.296   2.184  0.8315  0.0121  0.0364
 4738SOL     OW25846   2.228   1.180   9.762 -0.6968 -0.1093 -0.7672
 4738SOL    HW125847   2.246   1.258   9.814  1.3366 -0.8310 -0.3890
 4738SOL    HW225848   2.133   1.173   9.753 -0.9232  0.9670  0.8071
 4739SOL     OW25849   1.757   1.999   7.558 -0.3642  0.0562  0.5025
 4739SOL    HW125850   1.721   1.934   7.499 -0.4225  2.4190 -2.0879
 4739SOL    HW225851   1.729   1.955   7.638  1.3924 -1.1945  0.4215
 4740SOL     OW25852   3.773   3.726   9.900  0.2869 -0.4941 -0.0586
 4740SOL    HW125853   3.771   3.794   9.833 -1.8831 -0.1637  0.3665
 4740SOL    HW225854   3.795   3.785   9.973  1.9454 -1.3351  0.1250
 4741SOL     OW25855   3.909   2.521  12.390 -0.2351 -0.0683 -0.0237
 4741SOL    HW125856   3.933   2.458  12.323  1.2179  0.6423 -0.1652
 4741SOL    HW225857   3.986   2.578  12.386 -0.2042 -0.3137 -2.8126
 4742SOL     OW25858   1.100   0.289  17.147  0.4447  0.6974  0.1871
 4742SOL    HW125859   1.078   0.222  17.212 -2.0947  0.7755 -0.5664
 4742SOL    HW225860   1.193   0.300  17.163  0.7257  0.5352 -1.3272
 4743SOL     OW25861   4.399   1.894   3.464 -0.0300  0.0046 -0.1483
 4743SOL    HW125862   4.420   1.872   3.373 -0.3170  2.4311 -0.8026
 4743SOL    HW225863   4.485   1.880   3.503 -1.0476 -1.3269  1.6262
 4744SOL     OW25864   0.623   0.738   6.224  0.6172 -0.3136 -0.0241
 4744SOL    HW125865   0.548   0.796   6.225  0.1123 -0.9725  0.0042
 4744SOL    HW225866   0.596   0.669   6.284 -0.7356  0.3729  0.1512
 4745SOL     OW25867   4.376   3.910   2.516  0.3275 -0.6051  0.7471
 4745SOL    HW125868   4.428   3.841   2.475  1.6967  0.5950  0.4923
 4745SOL    HW225869   4.416   3.917   2.602  0.3755 -2.5425  0.8894
 4746SOL     OW25870   2.823   2.038  14.560 -0.0481 -0.1131 -0.1723
 4746SOL    HW125871   2.756   1.970  14.562  1.4254 -1.5223  1.2150
 4746SOL    HW225872   2.834   2.057  14.653 -1.3165  0.0367 -0.0568
 4747SOL     OW25873   3.881   0.690   9.332  0.0194  0.0730  0.4222
 4747SOL    HW125874   3.930   0.608   9.326  0.5043  0.3920  0.0477
 4747SOL    HW225875   3.820   0.670   9.261  1.0253 -0.8095 -0.2034
 4748SOL     OW25876   1.172   3.190   7.012  0.3987  0.2052 -0.2218
 4748SOL    HW125877   1.200   3.280   6.995 -0.0315 -0.1115 -2.5130
 4748SOL    HW225878   1.239   3.154   7.071 -1.5785 -0.0381  1.8729
 4749SOL     OW25879   4.299   0.380   7.449  0.4018  0.3063  0.3591
 4749SOL    HW125880   4.276   0.289   7.433  1.7583  0.0263  0.0309
 4749SOL    HW225881   4.390   0.383   7.419 -0.5025  1.3705 -2.2645
 4750SOL     OW25882   0.592   2.397   8.208  0.5994 -0.0461  0.5210
 4750SOL    HW125883   0.534   2.457   8.255 -0.0370 -1.4886  1.5856
 4750SOL    HW225884   0.541   2.316   8.216 -0.0831  0.4498  1.1730
 4751SOL     OW25885   2.928   3.004   2.276 -0.5646  0.3332  0.5633
 4751SOL    HW125886   2.907   3.096   2.266 -0.2846  0.5807  2.1811
 4751SOL    HW225887   2.843   2.967   2.250 -0.6351 -0.8366  2.4577
 4752SOL     OW25888   1.828   3.468  13.425  0.0572 -0.3459  0.5477
 4752SOL    HW125889   1.771   3.545  13.425 -1.1054 -1.2053 -0.0396
 4752SOL    HW225890   1.777   3.407  13.479  0.3873  0.2297  1.5118
 4753SOL     OW25891   1.547   1.730  15.391 -0.5496  0.0407  0.3211
 4753SOL    HW125892   1.609   1.660  15.409 -0.1055  0.3518  0.0048
 4753SOL    HW225893   1.593   1.798  15.441  1.4820 -0.3572 -1.0190
 4754SOL     OW25894   4.034   2.425   8.841  0.2043 -0.0738  0.8094
 4754SOL    HW125895   4.038   2.344   8.894  1.0833 -0.6273 -0.1119
 4754SOL    HW225896   4.127   2.444   8.836  0.5268 -1.9898 -0.6449
 4755SOL     OW25897   3.581   3.819  16.963 -0.0692  0.0209  0.5176
 4755SOL    HW125898   3.593   3.813  16.868  1.1096  0.1099  0.6523
 4755SOL    HW225899   3.653   3.765  16.995 -2.1242 -2.6562  0.5749
 4756SOL     OW25900   1.301   4.263   4.007  0.6904 -0.2458 -0.1140
 4756SOL    HW125901   1.284   4.218   4.090  1.4842 -1.0591 -0.3950
 4756SOL    HW225902   1.383   4.216   3.993  0.4396 -0.9458  0.6865
 4757SOL     OW25903   4.335   3.748   3.620  0.4731 -0.1319  0.1453
 4757SOL    HW125904   4.347   3.731   3.713  0.6758  1.9151  0.4983
 4757SOL    HW225905   4.368   3.665   3.586 -0.1467  0.2205 -1.3192
 4758SOL     OW25906   0.842   1.695  11.541 -0.3169 -0.3304 -0.3171
 4758SOL    HW125907   0.754   1.714  11.574  0.2435  1.7133  0.0318
 4758SOL    HW225908   0.902   1.737  11.603  0.6787  0.3802 -1.7529
 4759SOL     OW25909   0.558   4.472   7.472 -0.0890  0.1440 -0.5338
 4759SOL    HW125910   0.552   4.380   7.444  3.0195  0.2601 -1.5754
 4759SOL    HW225911   0.517   4.472   7.558  1.3104 -0.7256  0.1224
 4760SOL     OW25912   2.171   0.253   4.216  0.7257  0.3603 -0.1489
 4760SOL    HW125913   2.083   0.273   4.184  0.7246  0.0934 -0.3112
 4760SOL    HW225914   2.148   0.196   4.290 -2.5445  1.8979  0.0449
 4761SOL     OW25915   4.332   0.064  11.369  0.0070 -1.5774 -0.6514
 4761SOL    HW125916   4.291   0.108  11.444 -1.5159  0.3604 -2.5934
 4761SOL    HW225917   4.317   4.711  11.404 -0.3284 -1.0107  0.6404
 4762SOL     OW25918   0.669   0.627   3.680  0.3831 -0.0437  0.6607
 4762SOL    HW125919   0.593   0.685   3.690 -0.0165 -0.6719  1.2551
 4762SOL    HW225920   0.669   0.611   3.586 -2.1957  0.5568  0.5474
 4763SOL     OW25921   2.843   0.166   4.393  0.2281  0.3042 -0.0271
 4763SOL    HW125922   2.918   0.149   4.337 -0.5625 -0.9868 -0.7017
 4763SOL    HW225923   2.783   0.100   4.358 -1.0900  0.7384  1.3934
 4764SOL     OW25924   4.619   0.507   4.750 -0.4222 -0.1410  0.3376
 4764SOL    HW125925   4.691   0.451   4.720  0.3421  1.4069 -0.7130
 4764SOL    HW225926   4.588   0.473   4.834 -1.3019 -1.1791 -0.4137
 4765SOL     OW25927   0.467   3.489   1.805 -0.2030  0.3085  0.3477
 4765SOL    HW125928   0.421   3.509   1.724 -0.8623 -2.0521  0.1248
 4765SOL    HW225929   0.552   3.532   1.801  0.3786 -0.6317  2.7728
 4766SOL     OW25930   1.692   4.561   9.063  0.2563 -0.2459  0.0912
 4766SOL    HW125931   1.739   4.626   9.115  1.7361 -0.5465 -0.8780
 4766SOL    HW225932   1.757   4.553   8.994  1.2470 -0.1973  1.0212
 4767SOL     OW25933   4.393   0.501   2.101 -0.1425  0.1046  0.1097
 4767SOL    HW125934   4.357   0.460   2.022  3.0195 -0.5478 -0.9967
 4767SOL    HW225935   4.323   0.492   2.165  0.3722  1.1754  0.8100
 4768SOL     OW25936   4.552   4.611  10.169  0.3053 -0.1971  0.0488
 4768SOL    HW125937   4.545   4.525  10.210 -2.6307  0.7216  1.4092
 4768SOL    HW225938   4.518   4.582  10.084  0.2769 -0.8993  0.3053
 4769SOL     OW25939   2.268   3.152   9.255  0.4533  0.6683  0.2255
 4769SOL    HW125940   2.343   3.094   9.270  0.0228  0.3991  1.3670
 4769SOL    HW225941   2.237   3.122   9.169  0.8435  1.8647 -0.3354
 4770SOL     OW25942   1.710   0.161   1.107 -0.2143 -0.3610 -0.3973
 4770SOL    HW125943   1.741   0.215   1.034  2.3056 -1.5900 -0.2254
 4770SOL    HW225944   1.798   0.144   1.138  0.3846  0.5297 -1.5959
 4771SOL     OW25945   2.743   3.084   3.143 -0.4881 -0.2547  0.4774
 4771SOL    HW125946   2.747   3.179   3.135  1.5083 -0.3725  0.2013
 4771SOL    HW225947   2.758   3.075   3.237  2.8644 -0.2270 -0.0644
 4772SOL     OW25948   1.257   2.797   7.001 -0.3685  0.1873 -0.4107
 4772SOL    HW125949   1.220   2.711   6.982  1.3920 -0.6029 -0.1757
 4772SOL    HW225950   1.195   2.853   6.954  1.2838  1.1397 -1.4459
 4773SOL     OW25951   3.643   2.529   3.747 -0.2117 -0.9515 -0.3789
 4773SOL    HW125952   3.671   2.451   3.699 -0.4322 -1.4479  0.2863
 4773SOL    HW225953   3.593   2.577   3.682 -0.6862 -0.7809  0.1105
 4774SOL     OW25954   3.672   1.746  15.261  0.0526 -0.1519 -0.2892
 4774SOL    HW125955   3.668   1.831  15.218 -0.4434  0.1798  0.4042
 4774SOL    HW225956   3.767   1.737  15.269  0.3199  0.7527 -2.4922
 4775SOL     OW25957   0.190   0.585   6.478 -0.0943 -0.3999  0.2653
 4775SOL    HW125958   0.198   0.629   6.394  2.3598  1.1696  1.2816
 4775SOL    HW225959   0.123   0.638   6.521 -0.8851 -1.0701 -0.1390
 4776SOL     OW25960   1.962   3.193   1.117  0.4978 -0.4333  0.5927
 4776SOL    HW125961   1.973   3.168   1.209  2.2942  0.3619  0.5975
 4776SOL    HW225962   2.049   3.173   1.081  0.7946 -0.6876  1.4587
 4777SOL     OW25963   2.843   1.750   8.539  0.0226 -0.1949 -0.0373
 4777SOL    HW125964   2.914   1.807   8.511  0.1135 -0.9013 -1.2582
 4777SOL    HW225965   2.894   1.670   8.549 -2.6754 -1.3803  4.2566
 4778SOL     OW25966   2.481   2.215   6.649 -0.0064  0.1800 -0.2245
 4778SOL    HW125967   2.446   2.137   6.608  0.8583 -0.8296  0.9442
 4778SOL    HW225968   2.476   2.285   6.584 -0.9996  0.6900  0.4032
 4779SOL     OW25969   2.640   0.939   9.241 -0.4591 -0.1709  0.5998
 4779SOL    HW125970   2.554   0.938   9.201  0.1759 -1.6080 -0.7067
 4779SOL    HW225971   2.678   0.852   9.228 -2.9614 -1.0495 -0.8542
 4780SOL     OW25972   0.463   3.990   6.541  0.1210 -0.0486 -0.2494
 4780SOL    HW125973   0.377   3.992   6.501 -0.3419  0.4333  0.7677
 4780SOL    HW225974   0.507   3.917   6.497  0.1847 -0.5331  0.5991
 4781SOL     OW25975   2.328   1.797  17.291 -0.5885  0.2272  0.3615
 4781SOL    HW125976   2.386   1.748  17.350 -0.4845  0.9784  0.8878
 4781SOL    HW225977   2.326   1.887  17.325  1.3935  0.6273 -0.6285
 4782SOL     OW25978   2.529   2.178   7.962 -0.1699 -0.6105  0.3258
 4782SOL    HW125979   2.610   2.215   7.998 -1.8863  3.1427  0.2748
 4782SOL    HW225980   2.548   2.084   7.967 -1.0476 -0.8881 -1.5547
 4783SOL     OW25981   4.045   3.559   4.694  0.7791  1.0140 -0.0187
 4783SOL    HW125982   4.005   3.482   4.734 -1.1064  2.0386  0.0815
 4783SOL    HW225983   4.117   3.519   4.645 -0.4774 -1.0369 -0.1779
 4784SOL     OW25984   2.442   2.162   1.558 -0.4173  0.0399 -0.0037
 4784SOL    HW125985   2.387   2.154   1.635  0.9875 -0.6353  0.9199
 4784SOL    HW225986   2.440   2.256   1.537 -0.6173  0.3028  1.2063
 4785SOL     OW25987   4.066   3.784   1.979  0.0014  0.4956 -0.0524
 4785SOL    HW125988   4.038   3.832   2.058  1.0546  1.5368 -0.3075
 4785SOL    HW225989   4.010   3.816   1.908 -2.0658 -1.8026  0.5616
 4786SOL     OW25990   2.459   2.575   9.105 -0.4358 -0.3870  0.5357
 4786SOL    HW125991   2.376   2.555   9.149 -0.5924 -0.5467  0.1715
 4786SOL    HW225992   2.456   2.667   9.079  0.2901 -0.7526 -0.8436
 4787SOL     OW25993   3.066   4.388   8.963  0.3585  0.7347 -0.0963
 4787SOL    HW125994   3.063   4.301   9.005 -0.5772 -0.2316 -2.2048
 4787SOL    HW225995   2.992   4.383   8.903  0.1345  1.3852  0.1252
 4788SOL     OW25996   2.013   4.305   5.004 -0.2666  0.1930 -0.2600
 4788SOL    HW125997   2.103   4.316   5.036 -1.0526  2.3684  1.1537
 4788SOL    HW225998   1.963   4.286   5.083 -2.3855  1.2839 -1.3431
 4789SOL     OW25999   0.125   0.913  12.330  0.5516 -0.0399 -0.6283
 4789SOL    HW126000   0.098   0.910  12.422  2.8811 -0.6783  0.0221
 4789SOL    HW226001   0.083   0.990  12.289 -1.0943 -0.4553  0.2861
 4790SOL     OW26002   3.620   1.548  11.614 -0.2896 -0.3094 -0.3711
 4790SOL    HW126003   3.633   1.596  11.533 -0.3275 -0.1587 -0.2880
 4790SOL    HW226004   3.536   1.503  11.605 -2.1461  2.7758  1.7627
 4791SOL     OW26005   1.904   3.528   7.498  0.6193  0.3206  0.5860
 4791SOL    HW126006   1.809   3.532   7.507  0.5749 -2.0413  1.1887
 4791SOL    HW226007   1.909   3.529   7.402  0.0822 -2.4629  0.5265
 4792SOL     OW26008   4.192   1.498   2.933  0.2473 -0.5521  0.3760
 4792SOL    HW126009   4.210   1.524   3.023  1.6880 -0.8719  0.1763
 4792SOL    HW226010   4.140   1.417   2.934  0.5759 -0.7548  1.2056
 4793SOL     OW26011   2.050   0.163  12.199  0.0077 -0.3678 -0.2169
 4793SOL    HW126012   2.025   0.108  12.273 -1.6986 -0.1811 -0.6535
 4793SOL    HW226013   2.116   0.213  12.247  0.8658 -1.4828 -0.2274
 4794SOL     OW26014   3.829   2.587   8.036 -0.1837  0.3869 -0.3526
 4794SOL    HW126015   3.773   2.572   7.960 -0.5312  0.1074 -0.0439
 4794SOL    HW226016   3.761   2.614   8.097 -0.9009 -5.4431  1.4474
 4795SOL     OW26017   4.571   1.080   5.113  0.9511  0.4400  0.1003
 4795SOL    HW126018   4.528   1.055   5.031 -0.0857  0.8814  0.5066
 4795SOL    HW226019   4.569   0.994   5.157  1.0633  0.4866  0.1951
 4796SOL     OW26020   1.856   2.590   5.545 -0.3307  0.6302 -0.1396
 4796SOL    HW126021   1.853   2.671   5.595  0.9328  2.4470 -2.9467
 4796SOL    HW226022   1.767   2.557   5.558 -0.8269  1.8977 -0.3364
 4797SOL     OW26023   0.603   0.253  11.384  0.2149 -0.2460  0.6591
 4797SOL    HW126024   0.576   0.274  11.295 -1.7857  0.1663  1.3480
 4797SOL    HW226025   0.556   0.171  11.396 -1.9848  0.8281 -0.6145
 4798SOL     OW26026   3.495   4.002  10.675 -0.5225  0.0498 -0.2519
 4798SOL    HW126027   3.564   3.953  10.719  1.0877  0.9952 -1.7212
 4798SOL    HW226028   3.419   3.951  10.705 -0.0304 -1.1011 -0.9454
 4799SOL     OW26029   3.335   1.837  11.919 -0.2549 -0.7177 -1.0428
 4799SOL    HW126030   3.290   1.904  11.969 -3.0860 -1.7181 -2.2325
 4799SOL    HW226031   3.428   1.843  11.940 -0.5554  1.1901 -0.3192
 4800SOL     OW26032   1.191   4.661  14.926  0.2589 -0.6499 -0.1496
 4800SOL    HW126033   1.208   4.728  14.860  0.5765 -1.2766 -0.7094
 4800SOL    HW226034   1.236   4.585  14.887 -1.2015 -1.3339 -0.5007
 4801SOL     OW26035   2.541   4.357  10.052 -0.2160 -0.4256  0.3535
 4801SOL    HW126036   2.458   4.335  10.012 -1.8517 -0.8885  4.0127
 4801SOL    HW226037   2.507   4.425  10.110  0.6121 -2.8447  3.6770
 4802SOL     OW26038   0.083   4.242   5.141 -0.4933  0.4083  0.2864
 4802SOL    HW126039   0.058   4.231   5.049 -0.8127  2.6439  0.0950
 4802SOL    HW226040   4.728   4.248   5.174 -0.7546  0.0543 -0.3630
 4803SOL     OW26041   2.143   2.621   3.947  0.2136  0.4618  0.5082
 4803SOL    HW126042   2.161   2.603   4.039  1.6968  0.8032  0.2792
 4803SOL    HW226043   2.153   2.716   3.939  2.2316  0.3176  1.5147
 4804SOL     OW26044   1.997   3.586   5.825 -0.0693  0.2975 -0.2315
 4804SOL    HW126045   1.950   3.583   5.909 -0.7965  0.9493 -0.6112
 4804SOL    HW226046   2.057   3.513   5.837 -0.4287  0.0749  0.2284
 4805SOL     OW26047   4.319   4.203   6.089 -0.4040  0.3474 -0.1533
 4805SOL    HW126048   4.385   4.253   6.041 -1.2072 -0.3415 -1.9606
 4805SOL    HW226049   4.374   4.158   6.153 -0.3013 -0.7663 -1.0232
 4806SOL     OW26050   4.472   2.864   2.304  0.3629  0.2369 -0.0069
 4806SOL    HW126051   4.513   2.942   2.342  2.1800 -0.2386 -1.0268
 4806SOL    HW226052   4.534   2.799   2.337 -1.4189 -1.0688  0.8122
 4807SOL     OW26053   2.435   2.247   2.472 -0.5020  0.1163  0.2450
 4807SOL    HW126054   2.462   2.199   2.394 -0.2900  1.5937 -0.5872
 4807SOL    HW226055   2.341   2.229   2.467 -0.2522 -1.2556  0.4701
 4808SOL     OW26056   3.519   2.747  11.082 -0.1231  0.0179  0.3367
 4808SOL    HW126057   3.511   2.824  11.138  1.0345  0.4704 -0.1340
 4808SOL    HW226058   3.612   2.731  11.074  0.1477  0.8876  1.6901
 4809SOL     OW26059   0.257   1.812   8.025  0.4483  0.5115  0.1643
 4809SOL    HW126060   0.234   1.833   8.115  0.2754  2.4857 -0.3311
 4809SOL    HW226061   0.350   1.834   8.030  0.8502 -0.8788 -1.1063
 4810SOL     OW26062   3.041   0.128  10.523  0.5088 -0.2667  0.6153
 4810SOL    HW126063   3.063   0.067  10.593  1.3987 -0.2294  0.3769
 4810SOL    HW226064   3.130   0.150  10.493  0.3528 -0.8071 -0.2464
 4811SOL     OW26065   3.961   3.216   5.702 -0.4295  0.5557 -0.2887
 4811SOL    HW126066   3.888   3.259   5.746 -1.6557  0.8952 -2.6399
 4811SOL    HW226067   3.983   3.283   5.638 -0.6130 -0.2665 -1.2160
 4812SOL     OW26068   0.620   1.905   7.412 -0.5044 -0.8682  0.0922
 4812SOL    HW126069   0.663   1.990   7.417 -0.0299 -1.0904 -0.1901
 4812SOL    HW226070   0.683   1.858   7.467 -0.4431  0.1512  0.8980
 4813SOL     OW26071   1.491   4.681   4.112  0.1655 -0.0207  0.6197
 4813SOL    HW126072   1.515   0.039   4.110  2.6388 -0.7159 -1.7325
 4813SOL    HW226073   1.507   4.655   4.203  0.4831 -0.8011  0.3425
 4814SOL     OW26074   0.146   0.149   9.394 -0.2219  0.4543  0.0732
 4814SOL    HW126075   0.172   0.238   9.372 -0.1602  0.7681  1.4106
 4814SOL    HW226076   0.206   0.139   9.468 -0.2587  1.6899  0.2694
 4815SOL     OW26077   4.519   3.755   4.463  0.1537  0.5020 -0.1869
 4815SOL    HW126078   4.596   3.699   4.467 -0.7028 -0.6735  0.1649
 4815SOL    HW226079   4.450   3.692   4.487 -0.3494  0.7890 -0.8597
 4816SOL     OW26080   0.482   1.671   6.859  0.0953  0.0098  0.2184
 4816SOL    HW126081   0.436   1.737   6.910  0.9324  0.1524  0.7842
 4816SOL    HW226082   0.557   1.725   6.835  0.4229  0.3157  1.9725
 4817SOL     OW26083   1.522   1.525   3.357 -0.0352 -0.0613  0.3596
 4817SOL    HW126084   1.531   1.508   3.451  1.6148  0.6406  0.3347
 4817SOL    HW226085   1.498   1.618   3.358 -0.2761 -0.0966 -3.2528
 4818SOL     OW26086   1.788   2.036   9.550 -0.5898  0.4092 -0.3038
 4818SOL    HW126087   1.835   2.001   9.475 -1.1479  0.0387 -0.4826
 4818SOL    HW226088   1.725   2.087   9.498  0.2973  0.7564 -1.0289
 4819SOL     OW26089   1.069   0.419   4.090  0.0386 -0.0922 -0.1204
 4819SOL    HW126090   1.139   0.373   4.044 -0.2626 -0.0041 -0.6617
 4819SOL    HW226091   1.049   0.484   4.023 -0.7743 -1.7791 -1.4998
 4820SOL     OW26092   0.795   1.956   1.299  0.0104  0.1239  0.5187
 4820SOL    HW126093   0.750   1.903   1.234 -1.5883 -0.3677  2.0267
 4820SOL    HW226094   0.736   2.032   1.295  1.4577  1.2192 -0.2758
 4821SOL     OW26095   0.533   3.507  12.431 -0.5658 -0.0482  0.3357
 4821SOL    HW126096   0.617   3.499  12.386 -1.2420  0.7932 -1.0647
 4821SOL    HW226097   0.512   3.418  12.458  0.5396 -0.0708  1.1499
 4822SOL     OW26098   2.357   2.042   3.176 -0.2189  0.2512  0.5344
 4822SOL    HW126099   2.395   2.029   3.089  1.9045  0.9763  1.3571
 4822SOL    HW226100   2.369   2.135   3.192  1.8344 -0.1095  1.1431
 4823SOL     OW26101   1.965   3.973   5.137 -0.1060  0.3944  0.3219
 4823SOL    HW126102   2.026   3.972   5.062  0.1162  1.8079  0.5002
 4823SOL    HW226103   1.882   3.935   5.109 -0.7765  0.9399  1.5796
 4824SOL     OW26104   3.870   0.521   1.443 -0.1379 -0.1043  0.2171
 4824SOL    HW126105   3.826   0.501   1.361 -0.3741 -1.7435  0.7430
 4824SOL    HW226106   3.802   0.514   1.509  0.8086  3.2767  1.5844
 4825SOL     OW26107   0.049   2.789  10.480 -0.7781  0.2027 -0.4840
 4825SOL    HW126108   4.702   2.777  10.530 -1.5309  0.6173 -1.5955
 4825SOL    HW226109   0.061   2.698  10.453  1.0484 -0.1851  1.6268
 4826SOL     OW26110   1.433   2.552   6.251 -0.0865  0.3383  0.2520
 4826SOL    HW126111   1.430   2.568   6.346 -2.1423  2.4077 -0.1669
 4826SOL    HW226112   1.523   2.574   6.229 -0.0096 -1.4296 -1.2571
 4827SOL     OW26113   2.967   4.243   2.750  0.4695 -0.2704 -0.1955
 4827SOL    HW126114   2.909   4.317   2.730  0.3848  0.8629  4.2928
 4827SOL    HW226115   2.962   4.230   2.844 -0.4459  1.0393 -0.0748
 4828SOL     OW26116   2.273   1.065   2.930  0.0945 -0.6024  0.0546
 4828SOL    HW126117   2.348   1.021   2.890 -0.0477  0.8189 -1.7768
 4828SOL    HW226118   2.304   1.091   3.017 -0.9508  0.6684  0.0534
 4829SOL     OW26119   2.925   1.909   2.489 -0.0588  0.0689 -0.7242
 4829SOL    HW126120   2.949   1.874   2.574 -0.8740  2.3378  0.4509
 4829SOL    HW226121   2.908   1.832   2.435  0.3738  0.0199 -0.7855
 4830SOL     OW26122   3.675   1.599   6.808  0.0552 -0.3079  0.0185
 4830SOL    HW126123   3.715   1.643   6.732 -1.7109  0.6281 -0.3469
 4830SOL    HW226124   3.602   1.544   6.781 -0.4444 -0.6850  2.1656
 4831SOL     OW26125   1.408   0.016   3.119 -0.1437  0.4550 -0.0937
 4831SOL    HW126126   1.321   0.046   3.144 -0.9100 -0.4011 -1.7777
 4831SOL    HW226127   1.386   4.663   3.088  0.7116  0.0145  0.5259
 4832SOL     OW26128   1.080   1.308   8.190 -0.6337  0.2222 -0.0398
 4832SOL    HW126129   1.110   1.314   8.281 -0.0989  0.3112 -0.2198
 4832SOL    HW226130   1.159   1.274   8.147  0.7022 -0.4207  2.9560
 4833SOL     OW26131   1.566   4.578   1.516 -0.6267 -0.0145 -0.0139
 4833SOL    HW126132   1.644   4.527   1.538 -1.3714 -0.6469  1.1430
 4833SOL    HW226133   1.602   4.635   1.448 -0.2513 -0.1428  0.0746
 4834SOL     OW26134   1.322   0.001   6.548  0.2168 -0.0824  0.2486
 4834SOL    HW126135   1.378   4.698   6.615  0.3173  1.6538  1.1235
 4834SOL    HW226136   1.342   0.095   6.553  0.0242 -0.0425  0.2748
 4835SOL     OW26137   3.626   4.465  10.926  0.0174  0.1033 -0.0656
 4835SOL    HW126138   3.532   4.456  10.908 -0.4179 -1.8076  3.3298
 4835SOL    HW226139   3.617   4.437  11.017  2.1035  0.9017  0.3767
 4836SOL     OW26140   0.007   1.261   4.495 -0.0084 -0.3252  0.0986
 4836SOL    HW126141   0.097   1.274   4.527 -0.2842  0.7228  0.4329
 4836SOL    HW226142   4.730   1.331   4.431  0.0687 -1.8390 -1.5708
 4837SOL     OW26143   3.727   0.154   8.181  0.1214  0.2631 -0.1256
 4837SOL    HW126144   3.809   0.110   8.159 -1.7032 -3.2784  0.2045
 4837SOL    HW226145   3.666   0.094   8.138 -0.4700  2.8429 -2.8874
 4838SOL     OW26146   3.611   0.380   5.015  0.0073 -0.8565  0.3498
 4838SOL    HW126147   3.533   0.325   5.026 -0.7231  0.2623  0.7362
 4838SOL    HW226148   3.646   0.390   5.104 -0.3216  4.2194 -0.0814
 4839SOL     OW26149   2.398   1.734   8.232  0.6058  0.6607 -0.0753
 4839SOL    HW126150   2.478   1.785   8.245  1.6979 -0.5597 -1.8958
 4839SOL    HW226151   2.337   1.800   8.265  0.2776 -0.1659  0.9741
 4840SOL     OW26152   3.256   2.172  14.307  0.3463  0.1476 -0.0708
 4840SOL    HW126153   3.176   2.134  14.342  0.7116  0.5943  1.2858
 4840SOL    HW226154   3.250   2.154  14.213  2.2864  2.6417 -0.6875
 4841SOL     OW26155   0.582   2.212   8.697  0.4926 -0.6753 -0.1457
 4841SOL    HW126156   0.533   2.289   8.725  0.4171 -0.8866  0.3141
 4841SOL    HW226157   0.615   2.248   8.615 -2.3549 -0.9357 -1.4156
 4842SOL     OW26158   3.064   3.284   8.789  0.6292 -0.4117  0.5912
 4842SOL    HW126159   3.098   3.235   8.714  1.5562  1.7653 -0.4173
 4842SOL    HW226160   3.065   3.217   8.857  0.9444  1.5390  2.5047
 4843SOL     OW26161   2.869   0.729   1.863 -0.0587 -0.2328 -0.0948
 4843SOL    HW126162   2.960   0.757   1.852  0.3936 -0.7682  2.2787
 4843SOL    HW226163   2.863   0.725   1.958  0.1773  0.3107 -0.0534
 4844SOL     OW26164   4.627   0.058   4.950  0.1312 -0.2364 -0.4124
 4844SOL    HW126165   4.538   0.078   4.921  0.3746  0.8511 -0.4180
 4844SOL    HW226166   4.662   0.145   4.969  0.4268 -0.3347 -0.5159
 4845SOL     OW26167   4.463   3.403   0.406 -0.2660  0.3639  0.1277
 4845SOL    HW126168   4.457   3.307   0.397  0.3733  0.2936  0.5029
 4845SOL    HW226169   4.420   3.429   0.324  0.2079 -1.0072 -0.5593
 4846SOL     OW26170   1.559   1.772   6.103  0.3187 -0.4146  0.0592
 4846SOL    HW126171   1.654   1.763   6.093  0.4377  0.1844  0.6558
 4846SOL    HW226172   1.542   1.744   6.193 -2.2534  0.8066 -0.0344
 4847SOL     OW26173   1.573   1.149  15.074  0.3736 -0.0415 -0.2392
 4847SOL    HW126174   1.603   1.202  15.148  1.4820  0.9442 -1.4101
 4847SOL    HW226175   1.638   1.080  15.063 -0.1444 -0.6346  0.3771
 4848SOL     OW26176   2.932   2.475   2.443  0.0126 -0.6125 -0.0818
 4848SOL    HW126177   2.941   2.569   2.430 -0.2158 -0.8377 -1.9101
 4848SOL    HW226178   2.985   2.459   2.522 -1.1880 -0.0957  0.8313
 4849SOL     OW26179   0.294   2.155   6.216  0.4777  0.6017 -0.4200
 4849SOL    HW126180   0.315   2.186   6.128 -0.8856  0.8181 -0.6635
 4849SOL    HW226181   0.313   2.062   6.204  0.7096  1.0558 -3.5609
 4850SOL     OW26182   4.184   0.853  16.691 -0.4696 -0.3229 -0.4939
 4850SOL    HW126183   4.267   0.812  16.667 -0.7778 -0.8056 -0.7444
 4850SOL    HW226184   4.137   0.839  16.609 -0.8572 -0.9376 -0.1694
 4851SOL     OW26185   3.015   0.069  13.376 -0.0619  0.2254 -0.0178
 4851SOL    HW126186   2.976   4.729  13.423  1.5193 -0.2735  0.5182
 4851SOL    HW226187   2.976   0.055  13.290  0.2887 -0.3740 -0.0857
 4852SOL     OW26188   0.826   1.559  14.676 -1.0544  0.2008 -0.4585
 4852SOL    HW126189   0.895   1.555  14.610  0.6336 -0.7874  1.3774
 4852SOL    HW226190   0.874   1.551  14.759  1.5443 -0.1197 -2.0043
 4853SOL     OW26191   3.849   0.491   0.848 -0.1376  0.1507  0.4681
 4853SOL    HW126192   3.838   0.398   0.865  0.6856 -0.0899 -0.2961
 4853SOL    HW226193   3.805   0.533   0.922  0.2784 -1.6447  1.7356
 4854SOL     OW26194   1.662   1.292   4.763 -0.0248  0.4528 -0.7502
 4854SOL    HW126195   1.653   1.313   4.670 -0.0172  0.1550 -0.8192
 4854SOL    HW226196   1.572   1.266   4.780  0.0166  1.1224  0.4733
 4855SOL     OW26197   1.141   3.453   8.967  0.1205  0.0249  0.5565
 4855SOL    HW126198   1.069   3.416   9.019 -0.1640  0.4590  0.4737
 4855SOL    HW226199   1.182   3.516   9.027 -0.0160 -1.0806  1.7964
 4856SOL     OW26200   4.691   4.121   7.392  0.5983 -0.6448 -0.5187
 4856SOL    HW126201   4.709   4.180   7.466 -0.0640 -0.9968 -0.0771
 4856SOL    HW226202   0.004   4.039   7.404  1.6608 -0.3156 -2.3803
 4857SOL     OW26203   0.428   0.973   8.127  0.1405 -0.3540  0.0364
 4857SOL    HW126204   0.364   0.909   8.096 -0.3977  1.3584 -2.3539
 4857SOL    HW226205   0.428   0.957   8.222  2.5379 -1.0474 -0.0991
 4858SOL     OW26206   3.356   2.002   8.539 -0.7452 -0.6959  0.2636
 4858SOL    HW126207   3.370   1.961   8.624  1.5439  0.3629  0.3858
 4858SOL    HW226208   3.367   1.923   8.486  0.1574 -1.2575  1.2876
 4859SOL     OW26209   4.628   1.788  12.387 -0.1686  0.2922 -0.3414
 4859SOL    HW126210   4.611   1.755  12.475  0.6298  2.9119  0.8024
 4859SOL    HW226211   4.621   1.713  12.329 -0.8143  1.9348 -2.3904
 4860SOL     OW26212   1.958   0.323   5.456  0.6097 -0.0133 -0.2924
 4860SOL    HW126213   1.953   0.351   5.364 -0.3652 -1.3042 -0.6310
 4860SOL    HW226214   1.979   0.230   5.460  0.1949 -0.1853 -1.7749
 4861SOL     OW26215   3.932   0.001  13.195  0.4385  0.0261  0.0504
 4861SOL    HW126216   3.917   0.015  13.288 -0.7174  1.1805 -0.3172
 4861SOL    HW226217   3.844   4.714  13.162 -0.3640  0.3985  1.9472
 4862SOL     OW26218   1.413   4.247   1.943  0.0093  0.4636  0.2528
 4862SOL    HW126219   1.479   4.243   1.874 -0.4705 -1.4969 -0.0729
 4862SOL    HW226220   1.407   4.155   1.967 -1.4783 -0.0638 -2.1178
 4863SOL     OW26221   0.154   0.970   7.008  0.5953 -0.0421  0.2003
 4863SOL    HW126222   0.209   0.979   6.930  1.0702 -0.5342  0.4825
 4863SOL    HW226223   0.148   0.875   7.002 -0.0832 -0.1034  1.8861
 4864SOL     OW26224   2.967   4.562   3.346 -0.0596  0.3136 -0.2068
 4864SOL    HW126225   2.880   4.581   3.311 -0.3678  1.3932  1.1270
 4864SOL    HW226226   3.015   4.609   3.278 -0.9488 -0.7640 -1.5784
 4865SOL     OW26227   2.028   4.406   5.362 -0.2622 -0.3796 -0.6729
 4865SOL    HW126228   2.045   4.355   5.441  1.5492 -0.0757 -0.8780
 4865SOL    HW226229   1.972   4.350   5.308  0.1835  0.3956 -1.9570
 4866SOL     OW26230   0.059   3.632   9.448  0.4079  0.3362  0.4368
 4866SOL    HW126231   0.051   3.696   9.519  0.2956  1.0218 -0.1898
 4866SOL    HW226232   0.106   3.681   9.381  0.2822  0.7232  0.6341
 4867SOL     OW26233   3.348   2.334  13.631 -0.0252  0.9708 -0.5324
 4867SOL    HW126234   3.270   2.291  13.597 -1.6780  0.9578  3.2279
 4867SOL    HW226235   3.374   2.259  13.685  0.6082 -0.2360 -2.5395
 4868SOL     OW26236   1.986   2.575   5.324 -0.2007  0.3708  0.3196
 4868SOL    HW126237   2.060   2.617   5.368  0.4379 -1.7618  1.2738
 4868SOL    HW226238   1.924   2.577   5.396 -0.3384  1.2479  0.1721
 4869SOL     OW26239   0.564   4.052   3.798 -0.6586 -0.0063 -0.4039
 4869SOL    HW126240   0.612   4.081   3.720  0.9364  1.1937  1.0438
 4869SOL    HW226241   0.487   4.109   3.795  0.0557  0.8177 -3.1188
 4870SOL     OW26242   0.382   1.908   6.217  0.4725  0.5048  0.8152
 4870SOL    HW126243   0.416   1.869   6.297  1.0942 -1.0322 -0.1916
 4870SOL    HW226244   0.408   1.839   6.156 -1.1839  0.3418  0.3047
 4871SOL     OW26245   1.295   2.965  16.282  0.4548 -0.5402 -0.2966
 4871SOL    HW126246   1.207   2.928  16.286 -0.5501  1.7973 -0.5542
 4871SOL    HW226247   1.298   3.051  16.324  1.0387 -0.3898 -0.6424
 4872SOL     OW26248   3.102   2.804   3.148  0.3000  0.8638  0.4028
 4872SOL    HW126249   3.025   2.842   3.105 -0.5604 -3.4201 -1.8398
 4872SOL    HW226250   3.071   2.718   3.177  1.2327 -0.0746 -1.3407
 4873SOL     OW26251   0.518   2.097   4.303  0.3428  0.4118 -0.9473
 4873SOL    HW126252   0.542   2.010   4.333 -0.8748  0.7050  0.9018
 4873SOL    HW226253   0.602   2.126   4.268  0.5835  0.0017 -0.7051
 4874SOL     OW26254   3.792   2.550  15.259  0.0565  0.9231  0.9263
 4874SOL    HW126255   3.768   2.540  15.351 -1.3138  2.1451  0.7133
 4874SOL    HW226256   3.754   2.467  15.230  0.4712  1.6143 -1.5680
 4875SOL     OW26257   1.041   3.457   2.300 -0.4086 -0.6456  0.3289
 4875SOL    HW126258   1.093   3.488   2.375 -3.7894 -1.0409  2.8559
 4875SOL    HW226259   1.017   3.372   2.337  0.4471 -0.6273  0.9398
 4876SOL     OW26260   3.850   0.469   7.618 -0.0613  0.5314 -0.2589
 4876SOL    HW126261   3.809   0.438   7.699  1.0889 -1.7230 -0.5411
 4876SOL    HW226262   3.941   0.489   7.641  0.8946 -3.4083 -0.7063
 4877SOL     OW26263   2.084   2.099   8.699 -0.7883  0.2899  0.1027
 4877SOL    HW126264   2.114   2.026   8.753 -2.3526 -0.8195 -0.5308
 4877SOL    HW226265   1.995   2.070   8.676 -0.3162  0.0903 -1.4860
 4878SOL     OW26266   2.541   3.137  16.997  0.0817  0.4058  0.0708
 4878SOL    HW126267   2.587   3.093  17.069 -0.2147 -1.6762 -0.9899
 4878SOL    HW226268   2.501   3.211  17.041 -0.7958 -0.2727  0.4148
 4879SOL     OW26269   2.114   1.752  11.662 -0.0414  0.1772 -0.2968
 4879SOL    HW126270   2.026   1.752  11.700  0.4059  0.7881  0.7287
 4879SOL    HW226271   2.167   1.778  11.737 -2.5632  2.7721  0.5928
 4880SOL     OW26272   3.287   0.146   7.148 -0.1109  0.0980 -0.5324
 4880SOL    HW126273   3.378   0.159   7.122  0.7239  0.0577  2.2669
 4880SOL    HW226274   3.251   0.228   7.184 -0.7489  0.1685 -1.3467
 4881SOL     OW26275   4.545   1.485   7.679 -0.1044 -0.3279 -0.2374
 4881SOL    HW126276   4.565   1.392   7.680 -0.9978 -0.5173 -0.0180
 4881SOL    HW226277   4.540   1.510   7.771  0.0999 -0.6636 -0.1369
 4882SOL     OW26278   2.141   2.985   6.905 -0.3381 -0.0527 -0.2879
 4882SOL    HW126279   2.064   2.937   6.934  0.5714 -1.1933  0.2679
 4882SOL    HW226280   2.210   2.957   6.965  1.0745 -0.3852 -2.0366
 4883SOL     OW26281   3.655   3.587   8.475 -0.1223 -0.2520  0.3510
 4883SOL    HW126282   3.731   3.643   8.493 -0.4259  0.4668 -0.6001
 4883SOL    HW226283   3.645   3.554   8.564 -0.3952  0.2040  0.4911
 4884SOL     OW26284   2.634   0.210  17.485  0.3137 -0.0273 -0.1008
 4884SOL    HW126285   2.552   0.257  17.472  0.5477  0.0945 -1.1466
 4884SOL    HW226286   2.618   0.166  17.569 -2.0866 -0.4221 -0.7850
 4885SOL     OW26287   0.066   3.946   3.285  0.3550 -0.6817 -0.5240
 4885SOL    HW126288   0.085   3.856   3.258 -0.2914  0.2342 -4.0165
 4885SOL    HW226289   0.069   3.947   3.381 -2.0503 -1.1865 -0.4477
 4886SOL     OW26290   2.715   3.956   5.745  0.5158  0.1729  0.0595
 4886SOL    HW126291   2.777   3.883   5.748  2.8261  2.0169 -2.9784
 4886SOL    HW226292   2.690   3.957   5.837  1.9798 -1.4904  0.4658
 4887SOL     OW26293   1.796   0.824   2.269  0.0166  0.1257 -0.4113
 4887SOL    HW126294   1.776   0.913   2.298  0.7139  1.1554 -3.1156
 4887SOL    HW226295   1.850   0.849   2.193 -0.7015 -0.2168 -1.0294
 4888SOL     OW26296   1.067   0.116   2.585  0.2873  0.8005  0.2976
 4888SOL    HW126297   1.112   0.127   2.669 -1.7039  1.3952  1.3071
 4888SOL    HW226298   0.976   0.112   2.617 -0.0321  0.7353 -0.6287
 4889SOL     OW26299   1.547   0.805  15.159  0.1531  0.1143  0.1014
 4889SOL    HW126300   1.498   0.749  15.219  0.5814  0.8192  1.1050
 4889SOL    HW226301   1.494   0.789  15.081  1.0219 -0.0867 -0.4453
 4890SOL     OW26302   3.938   3.511   1.431  0.4566 -0.6348 -0.4233
 4890SOL    HW126303   3.968   3.428   1.395  0.4802 -0.2228 -1.3418
 4890SOL    HW226304   4.024   3.547   1.452 -0.2072  1.0267 -0.5472
 4891SOL     OW26305   0.939   2.078   4.367  0.0577  1.2545 -0.2606
 4891SOL    HW126306   0.927   2.027   4.287  2.0665 -0.7778  0.7224
 4891SOL    HW226307   0.889   2.154   4.339  0.0001  1.3558  0.1199
 4892SOL     OW26308   3.204   0.996  13.603  0.3401  0.0368 -0.3224
 4892SOL    HW126309   3.171   0.996  13.693 -0.9028  0.0999 -0.7787
 4892SOL    HW226310   3.124   0.994  13.551 -0.1750  1.9048  0.3934
 4893SOL     OW26311   1.164   4.591   9.954  0.4999  0.2647  0.9196
 4893SOL    HW126312   1.188   4.507   9.993  0.5290 -2.0942 -4.2362
 4893SOL    HW226313   1.225   4.646  10.003  0.2514 -0.7432  2.3720
 4894SOL     OW26314   4.294   3.240   9.097 -0.0676 -0.4097  0.6688
 4894SOL    HW126315   4.227   3.184   9.138  1.6193 -2.0312  1.2662
 4894SOL    HW226316   4.289   3.310   9.162 -2.2789  0.5362 -0.5342
 4895SOL     OW26317   3.065   0.732   3.100  0.4003 -0.3995  0.3199
 4895SOL    HW126318   3.098   0.791   3.032  0.3320 -0.3079  0.3663
 4895SOL    HW226319   2.989   0.696   3.054  1.0234  0.6643 -1.5799
 4896SOL     OW26320   3.019   3.105  15.898 -0.1790 -0.2304 -0.4574
 4896SOL    HW126321   3.094   3.108  15.838  1.9944 -0.5272  2.2189
 4896SOL    HW226322   2.960   3.171  15.862  1.0520  1.4416  0.6200
 4897SOL     OW26323   1.095   2.332   9.058 -0.6492  0.0634  0.2203
 4897SOL    HW126324   1.033   2.274   9.102 -0.1747  0.1922  1.0509
 4897SOL    HW226325   1.072   2.408   9.112 -0.0224 -1.5010  2.6885
 4898SOL     OW26326   3.854   2.665   5.483 -0.5964  0.0539 -0.1230
 4898SOL    HW126327   3.897   2.749   5.497  0.3904 -0.6558  1.1165
 4898SOL    HW226328   3.763   2.695   5.483 -0.6209 -0.0134 -1.4666
 4899SOL     OW26329   3.717   1.988   2.919 -0.3879 -0.6100  0.1330
 4899SOL    HW126330   3.629   1.978   2.883 -1.2549  2.6445  1.3716
 4899SOL    HW226331   3.766   2.024   2.845 -0.4977 -0.1725  0.2714
 4900SOL     OW26332   0.503   1.514   0.885  0.9927  0.1105 -0.9716
 4900SOL    HW126333   0.584   1.466   0.864 -0.4774 -2.2673 -1.2358
 4900SOL    HW226334   0.530   1.578   0.951  1.0757 -1.6241  0.6614
 4901SOL     OW26335   3.937   1.448   8.929  0.5066 -0.3629  0.6144
 4901SOL    HW126336   3.898   1.483   9.009  2.2075  1.3581  0.6769
 4901SOL    HW226337   3.991   1.518   8.892 -1.2381 -0.6840 -2.4827
 4902SOL     OW26338   4.500   2.790  16.930 -0.2159 -0.2012  0.2786
 4902SOL    HW126339   4.498   2.699  16.958 -1.6643 -0.4364 -0.5768
 4902SOL    HW226340   4.550   2.833  16.999  0.5269 -0.9730  0.2230
 4903SOL     OW26341   0.178   0.868   7.263  0.3931  0.1776  0.0240
 4903SOL    HW126342   0.122   0.897   7.190 -0.6303  0.3748  0.8960
 4903SOL    HW226343   0.217   0.954   7.276  2.9172 -0.9595 -0.1244
 4904SOL     OW26344   2.695   2.140  11.600  0.8530 -0.0371  0.0749
 4904SOL    HW126345   2.639   2.203  11.556  1.8770 -0.4729 -1.8495
 4904SOL    HW226346   2.635   2.068  11.618 -1.1040  2.1833  2.3705
 4905SOL     OW26347   1.537   1.894   1.703 -0.0655 -0.1005 -0.1585
 4905SOL    HW126348   1.590   1.814   1.693  1.3173  0.6930  0.7960
 4905SOL    HW226349   1.610   1.954   1.692  0.9723 -1.1205  1.0636
 4906SOL     OW26350   4.529   4.574   0.221 -0.2068  0.4290 -0.6912
 4906SOL    HW126351   4.529   4.668   0.205  0.1432  0.7442  1.1219
 4906SOL    HW226352   4.542   4.574   0.316 -1.5102  1.9622 -0.5069
 4907SOL     OW26353   0.060   0.800   7.641 -0.3542  0.5120 -0.0555
 4907SOL    HW126354   0.098   0.882   7.610  0.6975  0.1085  0.1909
 4907SOL    HW226355   0.114   0.734   7.596  0.5532  1.5615 -0.4953
 4908SOL     OW26356   1.967   4.327   4.060 -0.4404  0.4710  0.5606
 4908SOL    HW126357   1.935   4.333   3.970 -1.6457 -0.5254  0.9209
 4908SOL    HW226358   2.053   4.366   4.047  0.4812 -1.6835  0.2275
 4909SOL     OW26359   2.883   1.111   2.298 -0.2077  0.2101 -0.2521
 4909SOL    HW126360   2.829   1.190   2.293  2.1337  1.8883  0.9602
 4909SOL    HW226361   2.906   1.110   2.391 -1.9969  1.8604  0.2031
 4910SOL     OW26362   1.530   1.161   3.330  0.3597  0.6677  0.1301
 4910SOL    HW126363   1.541   1.214   3.409  0.8914 -0.9608  1.1604
 4910SOL    HW226364   1.609   1.107   3.339 -1.0338 -1.1474  1.3994
 4911SOL     OW26365   4.073   3.009   7.575  0.0894  0.0928  0.1967
 4911SOL    HW126366   4.008   3.080   7.574  0.1051  0.1012 -0.9757
 4911SOL    HW226367   4.016   2.947   7.530 -2.1154  1.3853  1.2249
 4912SOL     OW26368   1.859   2.087   6.321 -0.4927  0.2147  0.2371
 4912SOL    HW126369   1.804   2.014   6.347  1.1010 -0.4112  1.8223
 4912SOL    HW226370   1.907   2.117   6.398 -2.6147  2.5960  0.6479
 4913SOL     OW26371   1.077   1.071   7.842  0.2964  0.1567  0.0397
 4913SOL    HW126372   1.022   1.011   7.791 -0.2944 -0.2822  1.1997
 4913SOL    HW226373   1.148   1.073   7.778 -0.4813 -3.2073 -0.9419
 4914SOL     OW26374   4.330   2.630   5.706  0.0377  0.1450  0.6203
 4914SOL    HW126375   4.255   2.626   5.766 -0.3968  1.1168  0.1407
 4914SOL    HW226376   4.351   2.723   5.713 -1.8701  0.6859 -0.8624
 4915SOL     OW26377   3.685   4.665  14.827  0.5069  0.5646  0.3458
 4915SOL    HW126378   3.632   4.586  14.834  1.3100  0.0096  0.2368
 4915SOL    HW226379   3.756   4.647  14.889  1.1308 -0.4981 -0.6983
 4916SOL     OW26380   1.951   2.084  13.460  0.5187 -0.2381  0.1554
 4916SOL    HW126381   1.915   1.996  13.445  0.4925  0.2862 -2.8364
 4916SOL    HW226382   1.942   2.112  13.369 -0.4424 -2.0504 -0.3042
 4917SOL     OW26383   0.893   0.767  14.467 -0.4236  0.2800  0.6741
 4917SOL    HW126384   0.882   0.838  14.404  2.5264 -0.8813 -1.1321
 4917SOL    HW226385   0.851   0.698  14.416  1.2970 -0.9669  0.9528
 4918SOL     OW26386   0.712   1.238   8.285  0.1252 -0.0344 -0.1377
 4918SOL    HW126387   0.626   1.258   8.247  0.2431 -0.4784 -0.6483
 4918SOL    HW226388   0.742   1.329   8.283  0.6616 -0.2091 -0.0001
 4919SOL     OW26389   4.584   2.424   4.159  0.5549  0.2069  0.3158
 4919SOL    HW126390   4.660   2.385   4.116  0.5808 -0.2908  0.8132
 4919SOL    HW226391   4.600   2.517   4.168  0.3005  0.2034  0.7958
 4920SOL     OW26392   1.724   1.342  17.239  0.5822 -0.4547 -0.9489
 4920SOL    HW126393   1.738   1.276  17.306 -0.6596 -0.3670 -0.6092
 4920SOL    HW226394   1.670   1.289  17.180 -0.3910  0.7907 -1.1874
 4921SOL     OW26395   2.866   1.353   2.620  0.0579  0.2812  0.2263
 4921SOL    HW126396   2.930   1.383   2.555  1.4757 -0.0898  1.4821
 4921SOL    HW226397   2.801   1.421   2.600 -1.3013 -1.2328 -0.5321
 4922SOL     OW26398   0.056   2.752   2.116 -0.1682 -0.0847  0.3998
 4922SOL    HW126399   0.036   2.686   2.182  1.4515  0.6471  1.6068
 4922SOL    HW226400   0.042   2.839   2.152  0.3384 -0.5557  1.7230
 4923SOL     OW26401   1.858   1.140  15.422 -0.0980 -0.0059 -0.1255
 4923SOL    HW126402   1.860   1.063  15.365  0.1176 -1.5410  1.9596
 4923SOL    HW226403   1.822   1.098  15.501  2.7017  0.8315  1.5931
 4924SOL     OW26404   2.382   1.394   5.951 -0.8979  0.4203  0.4240
 4924SOL    HW126405   2.443   1.327   5.919 -0.8427  1.0464 -0.7968
 4924SOL    HW226406   2.294   1.360   5.937  0.2819 -1.9372 -1.3392
 4925SOL     OW26407   0.691   1.180   9.081 -0.0834  0.7260  0.7059
 4925SOL    HW126408   0.641   1.162   9.001 -0.4699  1.1205  0.8585
 4925SOL    HW226409   0.628   1.166   9.151  1.0711  1.9504  1.9891
 4926SOL     OW26410   0.288   1.726   3.918 -0.6149  0.2596  0.4409
 4926SOL    HW126411   0.299   1.651   3.861 -3.3214 -1.7819  2.5927
 4926SOL    HW226412   0.355   1.789   3.891 -0.0702  0.2326  1.6943
 4927SOL     OW26413   2.466   3.562   2.108  0.4478 -0.4346  0.0486
 4927SOL    HW126414   2.411   3.542   2.033  0.0539  0.4556  0.0997
 4927SOL    HW226415   2.410   3.517   2.171  0.8328  1.2359  1.5918
 4928SOL     OW26416   3.326   1.624   4.216  0.1527  0.1453  0.0715
 4928SOL    HW126417   3.346   1.688   4.284  2.5022 -0.5031 -0.0193
 4928SOL    HW226418   3.395   1.560   4.231  1.6860  1.8446  0.3094
 4929SOL     OW26419   4.697   4.580   2.455  0.0572  0.2223  0.1913
 4929SOL    HW126420   4.732   4.621   2.376  0.3143  0.6784  0.5403
 4929SOL    HW226421   4.603   4.595   2.465  0.3137  0.9399  1.5280
 4930SOL     OW26422   1.111   2.276   8.500 -1.3871 -0.3586  0.5527
 4930SOL    HW126423   1.072   2.206   8.447  0.5505 -0.5738 -0.5775
 4930SOL    HW226424   1.046   2.345   8.489  0.0767  0.8088 -0.8071
 4931SOL     OW26425   3.555   4.092   4.023  0.3554  0.4630  0.3055
 4931SOL    HW126426   3.501   4.106   4.101 -2.5542  0.5120 -1.7300
 4931SOL    HW226427   3.494   4.064   3.955 -0.0488  1.4888  0.2433
 4932SOL     OW26428   1.153   4.467   8.608  0.3843 -0.0112 -0.3296
 4932SOL    HW126429   1.065   4.447   8.640 -0.1077 -0.2458 -1.8259
 4932SOL    HW226430   1.184   4.383   8.574 -0.8953 -0.2934 -0.8038
 4933SOL     OW26431   3.687   0.576   9.130 -1.1347  0.0888 -0.4477
 4933SOL    HW126432   3.593   0.579   9.111 -1.2078 -0.0531 -0.1034
 4933SOL    HW226433   3.701   0.482   9.120  1.1972  0.3016  0.7441
 4934SOL     OW26434   2.126   3.343   6.330  0.3078 -0.3357  0.1549
 4934SOL    HW126435   2.111   3.377   6.418  1.9883  0.6875  0.0496
 4934SOL    HW226436   2.222   3.336   6.333  0.5285  1.8876 -1.6299
 4935SOL     OW26437   2.761   4.332   7.463 -0.3246 -0.6626 -0.2167
 4935SOL    HW126438   2.837   4.377   7.500 -0.9832 -0.0309  0.3826
 4935SOL    HW226439   2.768   4.238   7.480  0.1052 -0.7392 -0.8591
 4936SOL     OW26440   2.684   2.996  12.993  0.4794  0.0002 -0.4968
 4936SOL    HW126441   2.672   3.020  13.085  1.3728  0.3172 -0.4651
 4936SOL    HW226442   2.688   2.901  13.001 -0.1291 -0.1322 -1.8033
 4937SOL     OW26443   1.779   1.583  10.104  0.1618 -0.3026  0.0347
 4937SOL    HW126444   1.771   1.664  10.155  1.5520  0.9426 -1.7388
 4937SOL    HW226445   1.821   1.519  10.162  1.0401  2.3701  2.3550
 4938SOL     OW26446   2.640   1.831   8.259  0.4094  0.4406 -0.3744
 4938SOL    HW126447   2.675   1.918   8.275  1.5858  0.2017 -1.6087
 4938SOL    HW226448   2.635   1.834   8.163  0.0063 -1.7089 -0.4266
 4939SOL     OW26449   0.022   3.015  10.913 -0.1703 -0.1530 -0.4352
 4939SOL    HW126450   0.081   3.078  10.955  0.4369 -0.3772 -0.9479
 4939SOL    HW226451   4.670   3.049  10.936 -0.7935 -2.4342  0.5643
 4940SOL     OW26452   4.580   0.993   9.498  0.2513  0.0621 -0.3581
 4940SOL    HW126453   4.510   0.928   9.496 -0.3762  0.7784 -1.9266
 4940SOL    HW226454   4.556   1.056   9.567  2.3587  1.0395 -0.5258
 4941SOL     OW26455   3.563   3.977   8.618 -0.8130 -0.5584  0.1181
 4941SOL    HW126456   3.583   3.896   8.664  1.6247 -0.3525 -0.5870
 4941SOL    HW226457   3.528   4.028   8.691 -0.1710  0.1659 -0.0801
 4942SOL     OW26458   1.803   1.632   3.956  0.5955  0.6567  0.3020
 4942SOL    HW126459   1.752   1.551   3.946  2.4074 -0.4130 -0.2585
 4942SOL    HW226460   1.862   1.620   4.030 -0.7148  0.4499  1.3133
 4943SOL     OW26461   2.213   2.727   5.908 -0.0849 -0.3025 -0.1301
 4943SOL    HW126462   2.253   2.668   5.973 -0.6210  1.0090  1.4036
 4943SOL    HW226463   2.166   2.665   5.853 -1.2596  0.3933  0.0889
 4944SOL     OW26464   2.124   1.030   4.496 -0.4200 -0.4675 -0.4293
 4944SOL    HW126465   2.116   0.946   4.453 -0.6527 -0.2482 -0.8124
 4944SOL    HW226466   2.092   1.091   4.429 -0.9933 -3.2016 -2.6287
 4945SOL     OW26467   1.206   1.263  12.200 -0.2128  0.4943 -0.0804
 4945SOL    HW126468   1.190   1.258  12.294  0.3835  1.0838  0.0509
 4945SOL    HW226469   1.296   1.231  12.200 -0.0582  0.9298 -0.5785
 4946SOL     OW26470   2.099   0.364   9.465 -0.7239 -0.4124 -0.1284
 4946SOL    HW126471   2.064   0.283   9.503  0.1141 -0.5323  0.3895
 4946SOL    HW226472   2.187   0.360   9.504 -0.0857 -0.0167 -1.5079
 4947SOL     OW26473   1.217   4.457   7.369 -0.1263  0.0050 -0.4400
 4947SOL    HW126474   1.160   4.409   7.429  0.1655 -0.2163 -0.3374
 4947SOL    HW226475   1.220   4.388   7.303 -0.3457  1.0901 -1.5863
 4948SOL     OW26476   0.407   0.231   6.745  0.1620 -0.6369  0.0253
 4948SOL    HW126477   0.327   0.282   6.731  0.9469  0.7330  0.6444
 4948SOL    HW226478   0.460   0.308   6.761  1.8285 -1.5504 -1.2019
 4949SOL     OW26479   3.600   2.720  10.555  0.7059  0.4481 -0.0442
 4949SOL    HW126480   3.607   2.807  10.594 -0.9208  0.2799  0.6467
 4949SOL    HW226481   3.505   2.707  10.552  0.6041  1.2755 -0.4498
 4950SOL     OW26482   2.661   4.485  16.569  0.0187 -0.4365  0.3518
 4950SOL    HW126483   2.573   4.509  16.540  0.6383  0.4839 -0.7866
 4950SOL    HW226484   2.710   4.549  16.517  0.7752 -0.7022  0.7405
 4951SOL     OW26485   3.223   0.470   4.406  0.1150 -0.4878 -0.0516
 4951SOL    HW126486   3.318   0.480   4.404  0.3861 -3.3766 -1.0103
 4951SOL    HW226487   3.222   0.374   4.406  2.2191 -0.5087 -1.1101
 4952SOL     OW26488   0.514   3.895  10.495 -0.4467  0.1514  0.8008
 4952SOL    HW126489   0.562   3.948  10.431  1.0229 -2.8096 -0.5349
 4952SOL    HW226490   0.563   3.813  10.491 -0.7316  0.0865 -1.1798
 4953SOL     OW26491   1.865   0.423  11.399  0.2844  0.0173 -0.1099
 4953SOL    HW126492   1.895   0.356  11.461  0.2606 -0.5635 -0.7310
 4953SOL    HW226493   1.947   0.448  11.357  0.9654  0.0311  1.2029
 4954SOL     OW26494   3.961   3.123   2.020  0.1127  0.1698 -0.4471
 4954SOL    HW126495   3.982   3.200   1.967 -1.4399  0.0483 -1.2621
 4954SOL    HW226496   3.950   3.069   1.942  0.9114 -0.4830 -0.1072
 4955SOL     OW26497   1.452   1.221   1.690  0.1688 -0.6153  0.1615
 4955SOL    HW126498   1.462   1.145   1.746 -0.3496  0.9161  2.3219
 4955SOL    HW226499   1.357   1.224   1.678  0.3086 -0.1805 -0.8594
 4956SOL     OW26500   4.424   2.685   7.149 -0.4795 -1.1274 -0.4841
 4956SOL    HW126501   4.367   2.729   7.086 -0.1181 -1.4475 -1.0370
 4956SOL    HW226502   4.383   2.710   7.232  0.8730  1.8188 -0.7307
 4957SOL     OW26503   2.771   2.879  16.816 -0.3554 -0.8154 -0.6811
 4957SOL    HW126504   2.813   2.956  16.855 -1.2692 -0.8231  0.3075
 4957SOL    HW226505   2.731   2.900  16.732 -1.8120  3.0100  0.9847
 4958SOL     OW26506   1.596   3.263   4.974 -0.4108 -0.4756  0.1268
 4958SOL    HW126507   1.638   3.228   5.052  1.3640  2.0389  0.2712
 4958SOL    HW226508   1.653   3.220   4.910  1.5220  0.8255  0.9758
 4959SOL     OW26509   0.219   1.226   8.200  0.5022 -0.2498  0.0420
 4959SOL    HW126510   0.205   1.255   8.109  1.2168 -1.4547 -0.4481
 4959SOL    HW226511   0.309   1.252   8.220  0.7089 -0.3177 -0.7904
 4960SOL     OW26512   1.933   4.295   6.568 -0.3140  0.3731 -0.0691
 4960SOL    HW126513   1.874   4.221   6.586 -1.7828  1.4959 -0.2657
 4960SOL    HW226514   1.945   4.279   6.475  1.1623 -4.3484  0.9060
 4961SOL     OW26515   0.631   3.386   7.606 -0.5825  0.0772 -0.3612
 4961SOL    HW126516   0.717   3.345   7.606 -1.2544 -1.3546 -0.8046
 4961SOL    HW226517   0.594   3.334   7.535  0.6822  0.4460 -1.2784
 4962SOL     OW26518   4.580   2.233   6.507 -0.0984  0.5264  0.5144
 4962SOL    HW126519   4.513   2.169   6.481  0.0415  0.2460  0.8590
 4962SOL    HW226520   4.660   2.185   6.487 -0.9390  0.0438 -1.7158
 4963SOL     OW26521   0.166   0.235  14.184  0.2862  0.2417 -0.0610
 4963SOL    HW126522   0.241   0.176  14.187 -0.0711 -0.1192  2.5209
 4963SOL    HW226523   0.134   0.237  14.275 -0.2027 -0.5129 -0.2198
 4964SOL     OW26524   2.943   2.874   3.639  0.3865 -0.4614 -0.2786
 4964SOL    HW126525   2.958   2.814   3.566  3.1656 -0.9517  0.7051
 4964SOL    HW226526   3.028   2.913   3.654 -0.5136  0.6860  1.7406
 4965SOL     OW26527   1.280   3.182   8.516 -0.0319 -0.3757  0.0961
 4965SOL    HW126528   1.325   3.113   8.564 -1.6018  0.2791  2.5430
 4965SOL    HW226529   1.272   3.134   8.434 -2.6412  1.3431 -0.6689
 4966SOL     OW26530   2.596   3.505   8.227  0.5446  0.2109  0.0264
 4966SOL    HW126531   2.666   3.446   8.254 -1.5926 -2.1272  0.5108
 4966SOL    HW226532   2.557   3.449   8.160  2.4818 -0.1449 -0.7848
 4967SOL     OW26533   3.910   3.321   7.765 -0.9292 -0.2539  0.0409
 4967SOL    HW126534   3.913   3.328   7.670  2.5337  0.4455  0.2161
 4967SOL    HW226535   3.996   3.357   7.787 -0.8024 -0.0081 -0.8858
 4968SOL     OW26536   0.784   4.734  15.616  0.1481 -0.3608 -0.5368
 4968SOL    HW126537   0.791   4.639  15.612 -0.6558 -0.4813  1.0291
 4968SOL    HW226538   0.802   0.016  15.523 -0.4588  1.5792 -0.3267
 4969SOL     OW26539   3.269   0.907   7.192 -0.7081  0.3794  0.6463
 4969SOL    HW126540   3.342   0.910   7.254 -0.9558 -1.1920  0.9973
 4969SOL    HW226541   3.203   0.969   7.222  0.2685  0.8351  1.8556
 4970SOL     OW26542   4.389   2.103   4.030 -0.6624  0.3253  0.1336
 4970SOL    HW126543   4.444   2.145   3.964 -0.0381 -0.1707  0.3428
 4970SOL    HW226544   4.320   2.169   4.032  1.5603  2.7448 -2.1854
 4971SOL     OW26545   4.053   1.674   8.860  0.3699 -0.0473  0.2758
 4971SOL    HW126546   4.038   1.678   8.766 -0.3685 -0.0096  0.3939
 4971SOL    HW226547   4.147   1.661   8.873  0.4030 -0.7150 -0.6337
 4972SOL     OW26548   4.576   0.120   2.692 -0.4742  0.0676 -0.1794
 4972SOL    HW126549   4.653   0.105   2.638  1.2110  0.3078  2.1816
 4972SOL    HW226550   4.534   0.186   2.636  1.0245  2.6148  1.7402
 4973SOL     OW26551   4.215   1.920   7.709  0.0947  0.0179  0.1953
 4973SOL    HW126552   4.248   1.917   7.619  1.0712 -1.2419  0.5912
 4973SOL    HW226553   4.169   2.003   7.714  0.2200  0.1051 -0.1021
 4974SOL     OW26554   2.867   3.264   2.256 -0.0320 -0.8064  0.2039
 4974SOL    HW126555   2.933   3.329   2.230  0.3927 -2.0834 -1.9585
 4974SOL    HW226556   2.794   3.286   2.198  0.8214 -0.6231 -0.8244
 4975SOL     OW26557   1.420   0.021   7.787  0.4200 -0.4486  0.5268
 4975SOL    HW126558   1.397   4.722   7.701 -1.9627  2.4761  0.0335
 4975SOL    HW226559   1.513   0.037   7.775  0.6030 -0.4350  1.9516
 4976SOL     OW26560   2.695   0.842   0.744  0.3932  0.6966 -0.4628
 4976SOL    HW126561   2.714   0.870   0.834  2.5801 -1.7329 -0.1564
 4976SOL    HW226562   2.782   0.806   0.727 -0.5374 -2.1089  0.6892
 4977SOL     OW26563   1.002   2.846   5.942 -0.1068 -0.3931  0.5148
 4977SOL    HW126564   0.976   2.793   6.017 -0.1632 -0.8729  0.1585
 4977SOL    HW226565   1.052   2.785   5.888 -1.3109 -0.0577 -0.9656
 4978SOL     OW26566   4.678   3.914   8.664 -0.3982  0.5614 -0.4523
 4978SOL    HW126567   4.651   3.824   8.681 -1.2092  0.6973 -0.9994
 4978SOL    HW226568   4.617   3.977   8.703 -2.0067  0.3586 -2.6463
 4979SOL     OW26569   2.833   1.984   6.005  0.5801  0.0857 -0.3997
 4979SOL    HW126570   2.767   1.942   5.949 -0.8313 -1.8549  2.7121
 4979SOL    HW226571   2.882   1.916   6.051 -2.1295 -1.8036 -0.2424
 4980SOL     OW26572   2.815   0.424   4.686  0.3237  0.1596 -0.0107
 4980SOL    HW126573   2.851   0.484   4.621  0.9942 -0.3725 -0.1256
 4980SOL    HW226574   2.869   0.449   4.762  0.5113 -2.8299  0.8236
 4981SOL     OW26575   3.833   0.536   7.110 -0.1482 -0.0807 -0.5472
 4981SOL    HW126576   3.784   0.558   7.189  1.2838 -2.9661  1.1386
 4981SOL    HW226577   3.795   0.575   7.032 -1.3871  0.3962  0.2990
 4982SOL     OW26578   2.739   1.972   4.748 -0.0085 -0.3812 -0.1315
 4982SOL    HW126579   2.762   1.910   4.817 -0.4451 -0.7187 -0.2877
 4982SOL    HW226580   2.742   2.055   4.796  0.0739  0.0314 -0.8456
 4983SOL     OW26581   3.887   2.364   7.761  0.0011 -0.3238  0.2303
 4983SOL    HW126582   3.973   2.376   7.801  0.5806 -0.0207 -1.1379
 4983SOL    HW226583   3.833   2.383   7.839  0.5764  1.0232  0.2972
 4984SOL     OW26584   4.255   1.874   4.099  0.0309  0.4683  0.5976
 4984SOL    HW126585   4.318   1.802   4.094  0.3762  0.7123  1.4843
 4984SOL    HW226586   4.310   1.952   4.088  0.9812 -0.3900 -0.7800
 4985SOL     OW26587   3.441   1.592   5.268  0.0296 -0.7424  0.2220
 4985SOL    HW126588   3.391   1.639   5.335  1.3429  0.3159  0.4521
 4985SOL    HW226589   3.375   1.569   5.202 -0.7767 -1.0093  1.1165
 4986SOL     OW26590   0.048   0.321   4.634  0.5267  0.4498 -0.3562
 4986SOL    HW126591   0.010   0.244   4.591  3.5196 -1.5838  0.6298
 4986SOL    HW226592   0.114   0.280   4.691 -0.1961  0.4771  0.5108
 4987SOL     OW26593   0.596   3.878  12.549 -0.1665 -0.2484 -0.1532
 4987SOL    HW126594   0.678   3.832  12.569  1.0330  1.4133 -1.3071
 4987SOL    HW226595   0.604   3.868  12.454 -1.4346 -0.6655 -0.2249
 4988SOL     OW26596   3.501   1.339   7.595  0.5860  0.2944  0.1813
 4988SOL    HW126597   3.422   1.361   7.644  0.0354  2.5739 -1.7526
 4988SOL    HW226598   3.473   1.389   7.519  0.7798  1.2174  0.7113
 4989SOL     OW26599   3.048   3.561   2.450 -0.8376 -0.3612 -0.1217
 4989SOL    HW126600   3.037   3.656   2.442  0.0684 -0.1316  1.2425
 4989SOL    HW226601   3.030   3.541   2.542  2.0226 -3.8132 -0.3519
 4990SOL     OW26602   4.003   1.880   9.660  0.0673  0.4510 -0.0749
 4990SOL    HW126603   3.971   1.921   9.741 -0.9566  1.7661 -1.1469
 4990SOL    HW226604   4.094   1.902   9.680 -0.6158  3.6369 -0.5029
 4991SOL     OW26605   3.193   4.717   5.337  0.8765  0.0676 -0.0340
 4991SOL    HW126606   3.271   4.730   5.392  0.6516  1.6967 -0.0945
 4991SOL    HW226607   3.243   4.709   5.256 -1.2977 -0.9216 -1.2398
 4992SOL     OW26608   0.084   4.452  17.416 -0.6568 -0.5721  0.0939
 4992SOL    HW126609   0.153   4.480  17.356 -0.7495  0.4480  0.4655
 4992SOL    HW226610   0.020   4.420  17.352 -2.8447 -1.5291  2.7396
 4993SOL     OW26611   0.878   2.211   9.183  0.1277  0.2321 -0.3131
 4993SOL    HW126612   0.846   2.121   9.183  0.6278  0.0533 -0.4863
 4993SOL    HW226613   0.807   2.253   9.135 -1.7681 -2.4185  0.2082
 4994SOL     OW26614   2.012   4.324  11.236 -0.2313 -0.6794 -0.1938
 4994SOL    HW126615   2.032   4.237  11.203 -3.4518 -1.2405 -0.6647
 4994SOL    HW226616   2.096   4.367  11.221  0.1608 -0.3908  2.7164
 4995SOL     OW26617   4.623   0.333  14.624 -0.1536  0.2271 -0.3181
 4995SOL    HW126618   4.591   0.307  14.538  0.8480 -0.0458 -0.6173
 4995SOL    HW226619   4.555   0.293  14.677  0.0836 -0.3194 -0.4294
 4996SOL     OW26620   3.395   1.769   0.076  0.3432  0.0085 -0.0811
 4996SOL    HW126621   3.413   1.730   0.161  1.7859 -0.2795 -0.5250
 4996SOL    HW226622   3.344   1.694   0.045  0.9221 -0.3295 -0.2178
 4997SOL     OW26623   3.509   1.115   4.496  0.4335  0.0601 -0.0285
 4997SOL    HW126624   3.565   1.042   4.522  1.8827  0.7377 -1.1802
 4997SOL    HW226625   3.578   1.178   4.475  0.1807 -0.0666 -1.2623
 4998SOL     OW26626   4.034   0.196   9.510  0.5994 -0.7075  0.7125
 4998SOL    HW126627   3.973   0.143   9.560  0.2671 -2.1052 -1.2049
 4998SOL    HW226628   4.066   0.126   9.453  1.9573  0.6501 -0.2266
 4999SOL     OW26629   3.901   2.860   3.236 -0.4801  0.1831 -0.2379
 4999SOL    HW126630   3.872   2.861   3.145  1.7032 -0.4905 -0.9396
 4999SOL    HW226631   3.941   2.947   3.235  2.7645 -1.3340 -1.3101
 5000SOL     OW26632   0.389   0.223   2.271  0.0093  0.0331 -0.1650
 5000SOL    HW126633   0.374   0.229   2.366  1.1790  1.9154 -0.0975
 5000SOL    HW226634   0.434   0.305   2.252  0.1917 -0.3025 -1.1589
 5001SOL     OW26635   3.913   0.431  15.592  0.1311 -0.1356  0.5659
 5001SOL    HW126636   3.825   0.468  15.584 -0.2612 -0.9250  1.2102
 5001SOL    HW226637   3.932   0.430  15.686 -0.3104 -1.9514  0.6251
 5002SOL     OW26638   0.901   2.118  14.084  0.0699  0.2511 -0.3761
 5002SOL    HW126639   0.887   2.195  14.030  1.1437  2.4110  2.4070
 5002SOL    HW226640   0.830   2.142  14.145  0.0326  3.0677 -1.5236
 5003SOL     OW26641   4.684   4.227  15.057  0.2179 -0.4870  0.0612
 5003SOL    HW126642   4.701   4.304  15.111 -5.0302  1.2742 -0.8180
 5003SOL    HW226643   4.723   4.154  15.106 -0.5187 -1.4335 -0.7456
 5004SOL     OW26644   0.402   1.074   7.546  0.9713 -0.0677  0.3180
 5004SOL    HW126645   0.410   0.983   7.572 -0.0615 -0.1361  0.3687
 5004SOL    HW226646   0.492   1.106   7.531  0.8481 -0.8565 -2.2420
 5005SOL     OW26647   0.490   3.690   4.870  0.0366 -0.4721 -0.4575
 5005SOL    HW126648   0.520   3.688   4.961 -0.6140  1.6967 -0.1927
 5005SOL    HW226649   0.516   3.777   4.840 -0.6555 -0.4000 -0.8502
 5006SOL     OW26650   1.115   4.628   2.393 -0.4741  0.6593 -0.2470
 5006SOL    HW126651   1.044   4.669   2.441  1.0839  0.9263  1.8104
 5006SOL    HW226652   1.105   4.535   2.412  2.3732  0.3344 -0.3254
 5007SOL     OW26653   1.105   4.056   8.088  0.2393 -0.2622 -0.0419
 5007SOL    HW126654   1.050   4.104   8.026 -0.3715 -1.5618 -0.5135
 5007SOL    HW226655   1.036   4.028   8.148  0.7680 -2.0378 -0.2681
 5008SOL     OW26656   2.028   2.312   9.692  0.2560 -0.0765  0.3279
 5008SOL    HW126657   2.121   2.324   9.712 -0.1897  3.5966  0.2666
 5008SOL    HW226658   2.013   2.226   9.732  1.7054 -1.0826 -1.3197
 5009SOL     OW26659   0.678   0.237   8.530 -0.1077  0.4037  0.5878
 5009SOL    HW126660   0.667   0.158   8.583  2.0730  1.1588  2.1753
 5009SOL    HW226661   0.639   0.198   8.451  1.9869  1.0710 -0.7764
 5010SOL     OW26662   2.503   1.046   3.655 -0.7686 -0.5551  0.3410
 5010SOL    HW126663   2.494   1.139   3.635  1.2788 -0.3710  0.1837
 5010SOL    HW226664   2.582   1.058   3.708  1.4213 -0.6760 -2.8517
 5011SOL     OW26665   1.563   3.588  10.075 -0.0022  0.4172  0.1631
 5011SOL    HW126666   1.582   3.594   9.982  0.0147  0.3127  0.1599
 5011SOL    HW226667   1.650   3.600  10.112  0.2565 -0.7629 -0.0620
 5012SOL     OW26668   0.874   3.029   1.886  0.4320  0.0871  0.0006
 5012SOL    HW126669   0.809   3.009   1.954 -0.0404  1.2195 -0.1189
 5012SOL    HW226670   0.841   3.011   1.798  1.3412  0.3016 -0.3821
 5013SOL     OW26671   4.098   0.919  10.168 -0.1518  0.5009 -0.5965
 5013SOL    HW126672   4.125   0.853  10.232  0.3570  1.1454 -0.1466
 5013SOL    HW226673   4.012   0.941  10.204  0.9447  0.6913  1.9272
 5014SOL     OW26674   3.251   2.053   3.045 -0.3538  0.1285  0.1681
 5014SOL    HW126675   3.274   2.130   3.097  2.1897  0.4496 -1.4686
 5014SOL    HW226676   3.269   1.984   3.109 -0.3087 -1.3800 -1.4929
 5015SOL     OW26677   1.702   4.144   7.370 -0.8164  0.1777  0.0585
 5015SOL    HW126678   1.697   4.053   7.401  0.7384 -0.0783 -0.4224
 5015SOL    HW226679   1.767   4.180   7.431  0.2543 -1.6845  0.0065
 5016SOL     OW26680   2.942   4.198   2.435  0.1962 -0.3714 -0.3809
 5016SOL    HW126681   2.972   4.279   2.394 -0.7244  0.2767  0.2413
 5016SOL    HW226682   2.875   4.206   2.502  0.1731  2.1031 -0.6820
 5017SOL     OW26683   4.602   4.355  16.671  0.2488 -0.7119  0.4771
 5017SOL    HW126684   4.595   4.340  16.765  3.1600 -0.7781  0.6974
 5017SOL    HW226685   4.512   4.353  16.638  0.0250  1.7886  0.9076
 5018SOL     OW26686   0.778   1.164   2.910 -0.1301  0.0535 -0.0596
 5018SOL    HW126687   0.751   1.245   2.868  1.2370  1.1976  1.2886
 5018SOL    HW226688   0.868   1.152   2.878  0.1604  1.2798  0.3023
 5019SOL     OW26689   3.794   0.261   4.255 -0.5929 -0.9913 -0.2830
 5019SOL    HW126690   3.791   0.356   4.251  1.5010 -0.8408  1.7342
 5019SOL    HW226691   3.833   0.245   4.170 -0.4938 -2.9001  0.1203
 5020SOL     OW26692   3.966   4.230   7.494  0.5372  0.1187 -0.5049
 5020SOL    HW126693   4.035   4.288   7.526 -0.3813  1.8286 -1.6391
 5020SOL    HW226694   3.988   4.213   7.403  0.6360  0.3386 -0.5206
 5021SOL     OW26695   0.786   4.094   8.393  0.1326  0.4148  0.6598
 5021SOL    HW126696   0.699   4.098   8.354  0.1946  0.3378  0.5114
 5021SOL    HW226697   0.816   4.020   8.340 -1.2575  0.5963 -0.3529
 5022SOL     OW26698   3.478   0.442  13.810 -0.3533 -0.0948 -0.6270
 5022SOL    HW126699   3.389   0.471  13.789 -0.1019  1.1962  0.1163
 5022SOL    HW226700   3.537   0.464  13.738 -1.9744  1.9152 -1.3400
 5023SOL     OW26701   1.701   1.897   7.099 -0.1938  0.2530  0.1808
 5023SOL    HW126702   1.747   1.813   7.098  0.7591  0.7895 -0.4936
 5023SOL    HW226703   1.774   1.945   7.060  0.4306 -1.0563 -0.2756
 5024SOL     OW26704   0.276   2.315   2.265  0.1180  0.2603  0.0674
 5024SOL    HW126705   0.281   2.387   2.202  2.9070 -1.5026 -1.7190
 5024SOL    HW226706   0.348   2.254   2.253 -0.7525 -0.9445  1.0330
 5025SOL     OW26707   2.072   0.278   1.449  0.3095  0.6571 -0.0816
 5025SOL    HW126708   2.153   0.297   1.401  1.9415  1.3197  2.9363
 5025SOL    HW226709   2.099   0.210   1.511  0.7756  0.4898 -0.4628
 5026SOL     OW26710   1.018   0.189   5.678 -0.3103 -0.4582 -0.2831
 5026SOL    HW126711   0.984   0.117   5.626 -0.0508 -0.0829 -0.9713
 5026SOL    HW226712   1.072   0.244   5.621 -2.1109  0.5211 -1.0500
 5027SOL     OW26713   3.735   1.502   2.788 -0.4225  0.1219 -0.5031
 5027SOL    HW126714   3.789   1.509   2.709 -0.4884  0.6326 -0.5009
 5027SOL    HW226715   3.670   1.570   2.773 -2.8749 -2.0913 -0.0387
 5028SOL     OW26716   3.114   4.419   5.405  0.0886 -0.8047 -0.1792
 5028SOL    HW126717   3.146   4.503   5.374  0.1053 -1.7289 -2.6899
 5028SOL    HW226718   3.023   4.425   5.375  0.2225  0.5535 -0.3146
 5029SOL     OW26719   0.497   0.191   3.468 -0.5939  0.3019 -0.5399
 5029SOL    HW126720   0.530   0.174   3.557  0.2306 -2.4342 -1.3622
 5029SOL    HW226721   0.432   0.258   3.489 -1.8295 -1.0520  0.0512
 5030SOL     OW26722   0.904   4.251  15.428  0.7467 -0.3761 -0.1101
 5030SOL    HW126723   0.907   4.320  15.496 -2.2567  1.1468 -1.5312
 5030SOL    HW226724   0.879   4.306  15.354  0.4092  0.9507  0.9738
 5031SOL     OW26725   0.748   1.535   4.817 -0.0966  0.2688 -0.3012
 5031SOL    HW126726   0.692   1.477   4.870 -2.1422  1.2774 -1.3828
 5031SOL    HW226727   0.823   1.475   4.814  0.2264  0.6896 -0.5425
 5032SOL     OW26728   4.719   2.471  16.018 -0.3916 -0.2734 -0.0782
 5032SOL    HW126729   4.693   2.391  15.973 -1.1289 -0.2905  0.3709
 5032SOL    HW226730   4.665   2.454  16.095  1.1301 -0.3235  0.9917
 5033SOL     OW26731   1.589   4.445  13.200 -0.0822  0.3892  0.6393
 5033SOL    HW126732   1.580   4.502  13.124 -1.6205  0.5846  0.9693
 5033SOL    HW226733   1.499   4.427  13.225 -0.3073  0.2746 -0.2558
 5034SOL     OW26734   0.584   0.345   8.878 -0.3041  0.2181  0.3959
 5034SOL    HW126735   0.673   0.348   8.842 -1.0352  1.4743 -1.2911
 5034SOL    HW226736   0.562   0.253   8.860 -1.4256  0.5840 -0.1042
 5035SOL     OW26737   2.043   0.357   5.166 -0.1494  0.0222  0.0987
 5035SOL    HW126738   2.133   0.326   5.167 -0.1988 -0.1060  0.4986
 5035SOL    HW226739   2.056   0.446   5.132 -2.1929  0.3560  0.1353
 5036SOL     OW26740   3.527   4.028   5.673  0.0223  0.4776  0.8758
 5036SOL    HW126741   3.581   3.998   5.600 -0.0155  0.7197  0.7504
 5036SOL    HW226742   3.442   4.012   5.631  0.4691 -1.6558  0.7910
 5037SOL     OW26743   3.398   2.573   8.430 -0.1522  0.6584  0.1121
 5037SOL    HW126744   3.450   2.581   8.510 -0.7403  1.2802  0.4264
 5037SOL    HW226745   3.401   2.659   8.389  0.5228 -0.2891 -1.8723
 5038SOL     OW26746   0.867   4.109   4.591  0.5063  0.4110  0.0437
 5038SOL    HW126747   0.810   4.149   4.525  0.7581 -0.9420 -1.0016
 5038SOL    HW226748   0.871   4.163   4.669  2.0598 -0.2428  0.4306
 5039SOL     OW26749   3.675   3.125   3.863 -0.0866 -1.1680  0.0766
 5039SOL    HW126750   3.708   3.073   3.936 -0.2931 -0.5602  0.6073
 5039SOL    HW226751   3.749   3.111   3.805  1.2106  3.9694  0.4911
 5040SOL     OW26752   0.549   1.179  15.982 -0.1130  0.7053 -0.4138
 5040SOL    HW126753   0.599   1.113  16.030  0.1389  0.1200 -1.4707
 5040SOL    HW226754   0.583   1.144  15.899  0.5820  0.1969  0.0781
 5041SOL     OW26755   4.440   3.084   3.466  0.1332 -0.4979 -0.5610
 5041SOL    HW126756   4.351   3.049   3.474 -0.2690  0.4288 -1.0059
 5041SOL    HW226757   4.427   3.148   3.396 -0.7069 -0.3526 -0.2650
 5042SOL     OW26758   1.686   0.117   5.915  0.1001  0.4619  0.0892
 5042SOL    HW126759   1.748   0.051   5.884 -1.8317 -1.0475 -0.5888
 5042SOL    HW226760   1.606   0.064   5.906 -0.0977  0.1740  3.5641
 5043SOL     OW26761   1.000   2.553   0.608 -0.0038 -0.0236  0.6890
 5043SOL    HW126762   1.087   2.559   0.568 -0.3672 -0.1647 -0.1273
 5043SOL    HW226763   1.015   2.492   0.680 -2.8580 -3.2648 -1.4164
 5044SOL     OW26764   2.387   2.070   1.849  0.1290 -0.3894 -0.1601
 5044SOL    HW126765   2.363   2.004   1.914 -1.3108  0.5481  0.2709
 5044SOL    HW226766   2.477   2.094   1.869  0.3533 -0.6590 -0.8665
 5045SOL     OW26767   4.596   2.484  10.740 -0.5138 -0.1254  0.0763
 5045SOL    HW126768   4.614   2.430  10.663  4.5922  1.2775  0.3126
 5045SOL    HW226769   4.681   2.489  10.783 -0.0332 -1.3142 -0.7426
 5046SOL     OW26770   3.982   2.945   3.674  0.0141 -0.1339 -0.2048
 5046SOL    HW126771   3.984   2.968   3.767 -1.0750 -0.0332 -0.1964
 5046SOL    HW226772   3.975   2.850   3.687  1.3788 -0.2996 -0.7758
 5047SOL     OW26773   0.774   0.775   8.364 -0.0678  0.0109 -0.5231
 5047SOL    HW126774   0.774   0.686   8.327  0.1787  0.8988 -2.7016
 5047SOL    HW226775   0.796   0.762   8.456  1.3387  0.4910 -0.7890
 5048SOL     OW26776   2.436   0.884   5.322 -0.1116 -0.7607 -0.4938
 5048SOL    HW126777   2.388   0.839   5.392  2.4181 -1.9433  0.5095
 5048SOL    HW226778   2.373   0.953   5.301  0.0914 -0.8368 -1.3379
 5049SOL     OW26779   2.823   3.292   8.537  0.5711  0.1867 -0.0459
 5049SOL    HW126780   2.744   3.259   8.579  0.4626 -0.9029 -1.1208
 5049SOL    HW226781   2.893   3.278   8.601  0.7017  0.7416 -0.0599
 5050SOL     OW26782   2.897   4.213  10.997 -0.5772 -0.0995 -0.2493
 5050SOL    HW126783   2.820   4.224  11.052  0.2126  0.7842  0.6832
 5050SOL    HW226784   2.936   4.127  11.014 -1.3914 -0.7700 -1.8179
 5051SOL     OW26785   4.364   0.642   3.985 -0.4305  0.4931  0.1159
 5051SOL    HW126786   4.419   0.589   4.041  0.4601  2.1131  0.7866
 5051SOL    HW226787   4.431   0.692   3.938  0.8262  0.8635  2.3255
 5052SOL     OW26788   3.062   2.227   6.268  0.1478  0.2551  0.2162
 5052SOL    HW126789   3.154   2.199   6.268  0.1697  0.3593 -1.3034
 5052SOL    HW226790   3.065   2.291   6.197  3.2639 -0.5984 -0.4241
 5053SOL     OW26791   2.850   0.733   1.502  0.1504 -0.0469 -0.4724
 5053SOL    HW126792   2.922   0.677   1.530  0.5166  1.5136  1.6799
 5053SOL    HW226793   2.890   0.819   1.512  0.7382 -0.0943 -2.3332
 5054SOL     OW26794   4.718   3.164   0.327  0.4094  0.5513 -0.0181
 5054SOL    HW126795   0.013   3.106   0.257  2.9145  1.1053  0.5795
 5054SOL    HW226796   0.068   3.199   0.356 -0.7722  2.2924  1.3559
 5055SOL     OW26797   0.431   2.159   8.165  0.0484 -0.0814 -0.5322
 5055SOL    HW126798   0.447   2.067   8.185 -1.5167 -0.3645 -0.6073
 5055SOL    HW226799   0.430   2.168   8.069 -0.0606 -2.4382 -0.7374
 5056SOL     OW26800   1.310   3.015   4.824 -0.2948 -0.2473  0.0917
 5056SOL    HW126801   1.378   2.952   4.847  0.9597  0.7177 -0.9237
 5056SOL    HW226802   1.244   3.007   4.893 -1.5495  0.5363 -1.0078
 5057SOL     OW26803   3.134   2.566   0.801 -0.3725 -0.3894  0.1714
 5057SOL    HW126804   3.220   2.532   0.774 -0.5236 -0.5143 -0.1548
 5057SOL    HW226805   3.094   2.593   0.718  0.9287  1.4606  0.1529
 5058SOL     OW26806   4.241   0.132   5.156 -0.1227 -0.2726  0.2061
 5058SOL    HW126807   4.156   0.113   5.196 -0.1735  0.1389  0.2935
 5058SOL    HW226808   4.228   0.223   5.130 -4.9340 -1.1517 -0.5008
 5059SOL     OW26809   3.665   4.530   5.079  0.2966 -0.0509  0.1251
 5059SOL    HW126810   3.611   4.609   5.072 -2.0353 -1.4615  2.3312
 5059SOL    HW226811   3.745   4.582   5.081  0.2447  0.0294  0.1240
 5060SOL     OW26812   4.442   3.474  11.103 -0.1223  0.0634  0.8602
 5060SOL    HW126813   4.396   3.484  11.187 -1.1509  2.0920  0.0642
 5060SOL    HW226814   4.379   3.414  11.063 -1.0012  1.2880  0.4042
 5061SOL     OW26815   1.771   0.008   9.579  0.4445  0.3850  0.4323
 5061SOL    HW126816   1.861   0.040   9.581  0.3166  0.5811  2.7724
 5061SOL    HW226817   1.743   0.018   9.488 -0.7470  1.0136  0.8755
 5062SOL     OW26818   1.809   3.705   5.097  0.1127  0.4694  0.2628
 5062SOL    HW126819   1.755   3.638   5.055 -2.0524  1.3169  1.6646
 5062SOL    HW226820   1.743   3.748   5.152 -0.8649  0.3299 -0.8019
 5063SOL     OW26821   4.578   4.555   1.865  0.4396 -0.0849  0.2043
 5063SOL    HW126822   4.564   4.584   1.775 -1.1730 -0.1462  0.4362
 5063SOL    HW226823   4.632   4.476   1.855 -0.3716 -0.4270 -1.4030
 5064SOL     OW26824   3.279   4.385   2.819 -0.3414 -0.7136 -0.2560
 5064SOL    HW126825   3.188   4.404   2.795 -0.4826 -0.6342  0.3534
 5064SOL    HW226826   3.284   4.298   2.779  1.6747 -0.0022 -1.5472
 5065SOL     OW26827   2.603   2.485  13.985 -0.8767 -0.3313  0.0365
 5065SOL    HW126828   2.542   2.498  13.913 -1.7668  2.6827  1.3508
 5065SOL    HW226829   2.577   2.400  14.021  0.2770 -0.4698  0.5746
 5066SOL     OW26830   2.726   1.982   8.868 -0.7723 -0.0353 -0.3392
 5066SOL    HW126831   2.665   2.056   8.873  1.5014  1.8053  0.2038
 5066SOL    HW226832   2.732   1.975   8.773 -0.3024 -0.8907 -0.2404
 5067SOL     OW26833   0.977   3.839   9.760  0.2439  0.5424 -0.4070
 5067SOL    HW126834   1.050   3.901   9.765 -0.0093  0.7363  0.8375
 5067SOL    HW226835   0.994   3.801   9.674  1.6284  0.7473 -0.2225
 5068SOL     OW26836   4.657   4.256   4.226 -0.4808  0.1943  0.2822
 5068SOL    HW126837   4.580   4.204   4.203 -0.3547  0.3215 -0.4492
 5068SOL    HW226838   4.711   4.257   4.146  1.2648  0.0963  1.4621
 5069SOL     OW26839   4.184   1.342   2.386 -0.0014  0.2790 -0.8755
 5069SOL    HW126840   4.267   1.296   2.399  0.0220  0.0675 -1.8091
 5069SOL    HW226841   4.159   1.362   2.476  2.7577 -0.9519  0.1822
 5070SOL     OW26842   2.872   3.597  12.355  0.2798 -0.1032  0.1694
 5070SOL    HW126843   2.787   3.575  12.392  0.6358  0.0645  1.0813
 5070SOL    HW226844   2.880   3.529  12.288  2.4606 -1.2140  1.5624
 5071SOL     OW26845   4.278   4.448  15.676  0.1105 -0.1690 -0.1298
 5071SOL    HW126846   4.190   4.444  15.714 -0.0427 -0.9329 -0.5632
 5071SOL    HW226847   4.331   4.433  15.754 -0.4505 -0.5374  0.1818
 5072SOL     OW26848   3.302   4.468   4.646  0.2392 -0.5137 -0.7682
 5072SOL    HW126849   3.246   4.487   4.571  0.9977 -2.4031 -1.8022
 5072SOL    HW226850   3.287   4.374   4.654  0.5579 -0.3416  1.7636
 5073SOL     OW26851   0.968   3.747  15.843  0.6474 -0.0303  0.0521
 5073SOL    HW126852   1.028   3.782  15.776  2.5251 -0.1690  1.6506
 5073SOL    HW226853   0.893   3.735  15.786 -0.1458 -1.8910  1.4868
 5074SOL     OW26854   3.866   1.070   7.642 -0.2588 -0.9896 -0.1025
 5074SOL    HW126855   3.890   1.162   7.637 -2.6028 -0.3927 -0.6657
 5074SOL    HW226856   3.781   1.077   7.685 -0.0693  0.4464  0.0391
 5075SOL     OW26857   3.274   0.616  12.858  0.1109  0.0591  0.0970
 5075SOL    HW126858   3.230   0.558  12.797  0.6790  0.6875 -0.9206
 5075SOL    HW226859   3.365   0.590  12.843  0.2303  0.8593 -0.5883
 5076SOL     OW26860   1.006   0.782   7.808 -0.7018  0.3437 -0.1482
 5076SOL    HW126861   1.061   0.753   7.882 -0.0171 -0.9962 -1.1839
 5076SOL    HW226862   0.921   0.771   7.850 -0.9435  0.0178 -0.7280
 5077SOL     OW26863   4.084   1.634   8.339 -0.0033 -0.4217  0.0015
 5077SOL    HW126864   4.096   1.540   8.327 -0.7847 -0.4480 -0.5721
 5077SOL    HW226865   4.128   1.682   8.269 -1.4503  0.9834  0.0417
 5078SOL     OW26866   1.135   1.004   3.676 -0.1413 -0.2885  0.3628
 5078SOL    HW126867   1.155   1.044   3.591  1.0818 -0.0458  0.7685
 5078SOL    HW226868   1.224   0.997   3.712  0.0752  1.6891  0.1886
 5079SOL     OW26869   2.927   0.235  17.010 -0.8411 -0.2720  0.1402
 5079SOL    HW126870   2.919   0.166  16.944  3.9617 -2.7169  2.0821
 5079SOL    HW226871   2.966   0.180  17.079 -0.7806 -0.4164 -0.0103
 5080SOL     OW26872   3.855   1.515   3.802 -0.3352 -0.1987  0.3649
 5080SOL    HW126873   3.767   1.539   3.772 -0.6919 -1.1083  0.6508
 5080SOL    HW226874   3.897   1.595   3.771 -1.9565  0.6323  0.3341
 5081SOL     OW26875   2.368   2.133  10.294 -0.5323 -0.1272  0.1116
 5081SOL    HW126876   2.390   2.184  10.372 -1.4964  1.6025 -0.7623
 5081SOL    HW226877   2.410   2.048  10.308  0.5620  0.1548 -1.5166
 5082SOL     OW26878   1.155   2.574   2.316 -0.1075 -0.4008 -0.0267
 5082SOL    HW126879   1.136   2.619   2.234 -1.2880 -1.2888 -0.2352
 5082SOL    HW226880   1.073   2.532   2.342  0.0056  0.1541  1.1858
 5083SOL     OW26881   0.366   3.611   1.568 -0.0698  0.2985 -0.4898
 5083SOL    HW126882   0.293   3.642   1.514  1.0505  2.0415 -0.9990
 5083SOL    HW226883   0.377   3.682   1.631 -1.2659 -0.6856  0.8340
 5084SOL     OW26884   3.919   4.497   3.446  0.2945 -0.0695 -0.2473
 5084SOL    HW126885   3.902   4.563   3.378  0.0962 -1.7741 -1.8425
 5084SOL    HW226886   3.887   4.419   3.401 -0.3356 -2.3675  4.2691
 5085SOL     OW26887   3.681   0.459   1.229  0.1443  0.2336 -0.0638
 5085SOL    HW126888   3.659   0.510   1.151  0.5833  0.7592  0.1549
 5085SOL    HW226889   3.712   0.381   1.183 -0.6422 -0.5883  0.7995
 5086SOL     OW26890   2.810   0.923   6.888  0.5331 -0.2017 -0.0132
 5086SOL    HW126891   2.811   0.846   6.945 -0.3790  0.9503  1.5509
 5086SOL    HW226892   2.800   0.994   6.951 -0.4572  1.5019 -2.0637
 5087SOL     OW26893   1.935   3.979   6.858  0.1751  0.6202 -0.3913
 5087SOL    HW126894   1.920   3.999   6.766  1.8581  0.4467 -0.6981
 5087SOL    HW226895   1.876   4.042   6.901  0.0330 -0.8147  1.5488
 5088SOL     OW26896   4.576   3.895  10.672 -0.4676 -0.2196  0.0057
 5088SOL    HW126897   4.652   3.864  10.622  0.7986  1.5740  0.7913
 5088SOL    HW226898   4.590   3.990  10.674  1.4727 -0.4843 -0.7966
 5089SOL     OW26899   3.924   0.052  13.472 -0.8679 -0.3630  0.4138
 5089SOL    HW126900   3.994   0.005  13.516 -1.3431 -0.5050  1.0209
 5089SOL    HW226901   3.881   0.104  13.541 -0.1427 -0.2612  0.7839
 5090SOL     OW26902   3.238   0.271   3.998 -0.3624 -0.2041  0.0229
 5090SOL    HW126903   3.288   0.250   3.919 -2.6744 -1.4429 -1.1204
 5090SOL    HW226904   3.262   0.189   4.040 -2.0617 -0.1068  1.1672
 5091SOL     OW26905   4.564   3.141   5.226  0.3023 -0.2491 -0.4010
 5091SOL    HW126906   4.655   3.113   5.214  0.9218  0.4081  2.8256
 5091SOL    HW226907   4.510   3.062   5.216 -0.0823  0.1315 -1.2905
 5092SOL     OW26908   4.438   1.506  12.011  0.7187 -0.1294 -0.0846
 5092SOL    HW126909   4.355   1.479  12.051  1.8833 -1.2977  1.5355
 5092SOL    HW226910   4.407   1.498  11.921 -1.2081  1.3080  0.4473
 5093SOL     OW26911   3.636   2.434   7.878  0.5000 -0.0325 -0.4639
 5093SOL    HW126912   3.625   2.351   7.925  2.0699 -0.7851 -1.4226
 5093SOL    HW226913   3.546   2.461   7.862  0.3046 -0.4795 -0.1092
 5094SOL     OW26914   1.963   4.620   6.983 -0.0367 -0.3209 -0.4481
 5094SOL    HW126915   1.943   4.557   7.053  0.5331 -0.2743 -0.2474
 5094SOL    HW226916   2.056   4.634   7.002  0.2486  0.6266 -2.5297
 5095SOL     OW26917   0.285   2.558   3.537 -0.2217  0.3914  0.5456
 5095SOL    HW126918   0.236   2.498   3.480 -0.5026 -0.8412  2.0863
 5095SOL    HW226919   0.250   2.641   3.506 -0.8451 -0.6174 -1.4569
 5096SOL     OW26920   1.052   2.476   9.568  0.3564 -0.1366  0.0925
 5096SOL    HW126921   1.134   2.526   9.566  0.6027 -0.6268 -1.3899
 5096SOL    HW226922   1.098   2.394   9.585 -1.1258 -0.5786  1.9254
 5097SOL     OW26923   4.302   4.317   8.599 -0.4793  0.1801 -0.5352
 5097SOL    HW126924   4.316   4.408   8.625  0.7009  0.5209 -2.3235
 5097SOL    HW226925   4.235   4.292   8.662 -0.9489 -0.1343 -1.1564
 5098SOL     OW26926   2.825   3.813   4.416  0.1974  0.6751  0.1175
 5098SOL    HW126927   2.872   3.777   4.492  2.9511 -1.5820 -2.6466
 5098SOL    HW226928   2.739   3.772   4.406  0.1503  0.7111  0.3737
 5099SOL     OW26929   3.368   2.358   2.527 -0.6035 -0.1392  0.6034
 5099SOL    HW126930   3.422   2.298   2.477 -2.0113  0.1526 -1.2929
 5099SOL    HW226931   3.348   2.426   2.462 -2.3364 -0.4374  0.8318
 5100SOL     OW26932   0.118   3.982   6.080  0.4527  0.4465  0.1100
 5100SOL    HW126933   0.116   4.049   6.148 -1.5505  1.4380 -0.9298
 5100SOL    HW226934   0.065   3.915   6.123  2.7695 -1.6911 -0.4066
 5101SOL     OW26935   4.659   2.082   2.847 -0.7811  0.5072 -0.4894
 5101SOL    HW126936   4.604   2.128   2.911  0.4798 -1.4177  1.9662
 5101SOL    HW226937   4.639   2.140   2.774  1.7219  1.7534 -0.1774
 5102SOL     OW26938   2.931   2.954  13.771  0.1725  0.0937  0.2279
 5102SOL    HW126939   2.873   2.878  13.765 -0.2675  0.3108  1.8222
 5102SOL    HW226940   2.994   2.908  13.715  0.3580  1.8927 -1.0359
 5103SOL     OW26941   1.229   4.373   4.592  0.4330  0.5477  0.2366
 5103SOL    HW126942   1.317   4.360   4.555  0.3782 -0.9030  0.6111
 5103SOL    HW226943   1.176   4.302   4.555 -1.6708  2.4267 -0.3304
 5104SOL     OW26944   3.885   1.583   4.158  0.1440  0.3656  0.4893
 5104SOL    HW126945   3.841   1.658   4.119  0.4505  0.2884 -0.0055
 5104SOL    HW226946   3.964   1.628   4.190 -0.5235  2.9656 -1.5691
 5105SOL     OW26947   0.299   3.680   5.823 -0.8432 -0.1734  0.1179
 5105SOL    HW126948   0.211   3.649   5.846 -1.4233  1.6159  0.3309
 5105SOL    HW226949   0.349   3.662   5.902  1.0762  3.8400 -0.1868
 5106SOL     OW26950   1.301   1.541   7.907  0.4724 -0.1843 -0.4249
 5106SOL    HW126951   1.348   1.460   7.926 -0.7872 -1.3945 -2.4708
 5106SOL    HW226952   1.232   1.505   7.852 -0.0594 -0.7693  0.6275
 5107SOL     OW26953   3.941   2.191   6.467 -0.4200 -0.0022  0.2817
 5107SOL    HW126954   3.971   2.109   6.429 -2.0107 -0.5761  0.2579
 5107SOL    HW226955   4.026   2.220   6.500 -0.7209  0.9050  0.2644
 5108SOL     OW26956   2.032   2.796   3.577  0.0633 -0.0158 -0.4841
 5108SOL    HW126957   2.125   2.817   3.586  0.2482 -1.8893  2.3702
 5108SOL    HW226958   1.993   2.836   3.655  0.4692  0.0718 -0.3272
 5109SOL     OW26959   3.788   3.382  13.159 -0.0456 -0.1589  0.7400
 5109SOL    HW126960   3.763   3.468  13.126  0.3685 -1.2522 -2.3987
 5109SOL    HW226961   3.712   3.324  13.167 -0.3591  0.4662  2.4669
 5110SOL     OW26962   4.183   1.188   8.697 -0.2120 -0.8200 -0.6342
 5110SOL    HW126963   4.107   1.206   8.753 -2.0816 -1.6848 -2.8575
 5110SOL    HW226964   4.171   1.096   8.671  0.8357 -1.2794  0.5369
 5111SOL     OW26965   1.349   1.479   8.320  0.0063  0.6455 -0.5376
 5111SOL    HW126966   1.326   1.564   8.283  1.5489  0.6662 -1.4631
 5111SOL    HW226967   1.343   1.487   8.415 -2.1092 -0.9945 -0.5264
 5112SOL     OW26968   4.713   3.153   2.069 -0.5179  0.3810  0.3900
 5112SOL    HW126969   4.649   3.174   2.001  1.3611  1.2287 -1.0943
 5112SOL    HW226970   0.058   3.142   2.017  1.0852 -1.7621  3.2566
 5113SOL     OW26971   1.700   1.676   4.688 -0.3656  0.1763  0.1896
 5113SOL    HW126972   1.768   1.685   4.621  0.5260 -1.4004  0.8626
 5113SOL    HW226973   1.661   1.596   4.653 -1.8762  1.3312 -0.7458
 5114SOL     OW26974   3.906   1.892   7.035  0.4781 -0.3471  0.3866
 5114SOL    HW126975   3.882   1.980   7.063 -0.1000 -0.3615 -0.0647
 5114SOL    HW226976   3.835   1.843   7.077 -0.7637  0.1420 -1.1276
 5115SOL     OW26977   0.949   2.444   2.440  0.6290  0.0412  0.6403
 5115SOL    HW126978   0.918   2.371   2.386  1.0870  1.4462 -1.5406
 5115SOL    HW226979   0.932   2.403   2.525  1.5087 -0.6376  0.4907
 5116SOL     OW26980   0.288   2.607  14.931  0.0713  0.2487 -0.9925
 5116SOL    HW126981   0.377   2.637  14.946  0.4755 -1.7011  0.4957
 5116SOL    HW226982   0.306   2.529  14.880 -0.9390 -0.6644  0.0470
 5117SOL     OW26983   3.828   1.327  16.096  0.0028 -0.0288  0.2785
 5117SOL    HW126984   3.842   1.354  16.187 -1.2175  0.3273  0.3627
 5117SOL    HW226985   3.733   1.313  16.096  0.1390 -0.8485 -1.7593
 5118SOL     OW26986   4.151   1.348   2.673 -0.1256 -0.1367  0.8828
 5118SOL    HW126987   4.246   1.337   2.679 -0.2066 -0.3796  1.6319
 5118SOL    HW226988   4.121   1.289   2.741  1.0512  0.1804  1.6749
 5119SOL     OW26989   0.347   4.154   1.532 -0.3121 -0.3320  0.2690
 5119SOL    HW126990   0.397   4.074   1.516  0.2758  0.7538 -3.3284
 5119SOL    HW226991   0.378   4.171   1.621  1.8194 -0.3809 -0.4571
 5120SOL     OW26992   3.658   2.805   6.742  0.9501  0.0541  0.1982
 5120SOL    HW126993   3.570   2.770   6.729  1.4976 -0.9150 -0.8898
 5120SOL    HW226994   3.715   2.747   6.692  1.3012  0.6092 -0.0406
 5121SOL     OW26995   4.513   0.888  16.625 -0.1477 -0.0629 -0.4214
 5121SOL    HW126996   4.512   0.794  16.609 -1.1172 -0.0934 -0.1703
 5121SOL    HW226997   4.436   0.906  16.571 -0.8634 -0.3224  0.5104
 5122SOL     OW26998   2.466   1.664   1.303 -0.0657 -0.1487 -0.1924
 5122SOL    HW126999   2.418   1.747   1.305  0.7731  0.3003  1.3318
 5122SOL    HW227000   2.557   1.696   1.302  0.1158 -0.6713 -0.4133
 5123SOL     OW27001   0.035   0.360   7.860 -0.0930 -0.0408  0.2848
 5123SOL    HW127002   0.014   0.353   7.767  2.8389 -0.1294 -0.3793
 5123SOL    HW227003   0.113   0.415   7.859 -1.7020  2.2000 -0.7161
 5124SOL     OW27004   1.638   4.256   8.990 -0.2546 -0.2017 -0.0404
 5124SOL    HW127005   1.694   4.330   9.015  0.8531 -0.3421 -2.0947
 5124SOL    HW227006   1.552   4.296   8.983 -0.1409  0.0135 -0.2164
 5125SOL     OW27007   1.236   0.017   3.622 -0.2214 -0.0239 -0.4033
 5125SOL    HW127008   1.313   0.037   3.677 -1.0395 -0.5600  0.9437
 5125SOL    HW227009   1.235   0.091   3.561  0.7270  0.0717 -0.3044
 5126SOL     OW27010   0.873   0.008   1.733  0.2440 -0.2462  0.0033
 5126SOL    HW127011   0.965   4.721   1.718  0.1629  0.1314 -1.0061
 5126SOL    HW227012   0.853   0.070   1.663  1.9882  2.1912  1.7038
 5127SOL     OW27013   3.021   4.291   5.622  0.5373 -0.4773  0.1119
 5127SOL    HW127014   3.054   4.331   5.541 -1.7034 -0.7449 -0.9340
 5127SOL    HW227015   3.064   4.347   5.686 -0.9789  2.0257 -1.0797
 5128SOL     OW27016   4.200   1.748  14.753 -0.3113 -0.3399  0.3571
 5128SOL    HW127017   4.104   1.751  14.759 -0.3007  1.6892 -0.2836
 5128SOL    HW227018   4.203   1.664  14.708  2.6682 -1.0069  1.8388
 5129SOL     OW27019   0.437   0.022   5.896 -0.1547 -0.2830  0.1761
 5129SOL    HW127020   0.504   0.035   5.829 -0.4149 -0.5952 -0.1469
 5129SOL    HW227021   0.465   0.095   5.951  0.3029 -1.3934  1.4185
 5130SOL     OW27022   3.334   3.749  16.573 -0.0264  0.2156  0.5030
 5130SOL    HW127023   3.396   3.786  16.636 -1.4519  1.0037  1.4772
 5130SOL    HW227024   3.334   3.654  16.568 -0.7872  0.1034  2.3922
 5131SOL     OW27025   1.185   0.254   3.101  0.0589 -0.7747  0.1538
 5131SOL    HW127026   1.164   0.319   3.168  2.1623  0.0712 -0.0077
 5131SOL    HW227027   1.273   0.286   3.081 -0.8209  2.3379  1.2941
 5132SOL     OW27028   2.332   2.201   7.755 -0.1026 -0.1174  0.2763
 5132SOL    HW127029   2.384   2.157   7.823  1.7759 -0.0175 -1.0991
 5132SOL    HW227030   2.268   2.133   7.736 -0.7068  0.9155 -1.3404
 5133SOL     OW27031   1.571   3.293   5.369  0.2429 -0.0096 -0.1063
 5133SOL    HW127032   1.615   3.216   5.333 -3.1737 -2.8326  1.8561
 5133SOL    HW227033   1.519   3.248   5.436 -0.2037 -0.4308 -0.7439
 5134SOL     OW27034   2.956   2.748   2.387 -0.2983 -0.0385 -0.5305
 5134SOL    HW127035   2.947   2.832   2.342 -2.7969 -1.1174 -2.0674
 5134SOL    HW227036   3.051   2.752   2.398 -0.2221 -2.5592 -0.1936
 5135SOL     OW27037   0.423   2.174  17.175  0.7068  0.4250 -0.5068
 5135SOL    HW127038   0.512   2.161  17.144  0.3723 -1.5139 -0.6141
 5135SOL    HW227039   0.389   2.090  17.144 -0.4180  1.3418 -1.7602
 5136SOL     OW27040   3.807   4.166   8.550 -0.5642  0.4089  0.4267
 5136SOL    HW127041   3.721   4.124   8.559 -0.0911 -0.6760 -0.0973
 5136SOL    HW227042   3.790   4.244   8.603  0.8016  1.4140 -0.6250
 5137SOL     OW27043   1.715   1.371   3.253 -0.1379 -0.2547 -0.0196
 5137SOL    HW127044   1.649   1.434   3.282  0.1699  0.5699 -1.0743
 5137SOL    HW227045   1.653   1.303   3.227  0.8310 -0.5605 -1.4978
 5138SOL     OW27046   1.497   4.031  13.201  0.1072 -0.6901 -0.0862
 5138SOL    HW127047   1.415   4.002  13.160  0.1192  1.9290 -2.0167
 5138SOL    HW227048   1.541   3.946  13.205 -0.6409 -1.1674 -1.6855
 5139SOL     OW27049   2.802   0.618   9.086  0.5256  0.8597  0.4716
 5139SOL    HW127050   2.872   0.672   9.049  0.2720  1.5911  1.0677
 5139SOL    HW227051   2.783   0.556   9.016 -0.9909 -0.7279  2.2650
 5140SOL     OW27052   2.037   3.975  15.281  0.0827  0.2035 -0.6954
 5140SOL    HW127053   2.001   4.051  15.235  0.0789  0.5348 -0.1422
 5140SOL    HW227054   1.982   3.902  15.250  1.0351 -0.9190  0.2439
 5141SOL     OW27055   3.667   2.222   7.161  0.2667 -0.4556 -0.0424
 5141SOL    HW127056   3.696   2.280   7.232 -1.4987  1.0403 -0.5502
 5141SOL    HW227057   3.729   2.261   7.100  0.0692  0.5270  0.3951
 5142SOL     OW27058   3.977   2.283  16.537 -0.5297  0.7014  0.3779
 5142SOL    HW127059   3.938   2.305  16.621 -0.4596  1.0384  0.3222
 5142SOL    HW227060   3.946   2.194  16.523 -1.3142  0.6138  2.7375
 5143SOL     OW27061   3.747   0.167   0.702  0.2720  0.4446  0.5645
 5143SOL    HW127062   3.840   0.186   0.710  0.2870  0.6810 -0.1162
 5143SOL    HW227063   3.750   0.080   0.663 -2.0369  0.4708  0.3313
 5144SOL     OW27064   0.257   4.709   2.795  0.0048 -0.1858 -0.3286
 5144SOL    HW127065   0.325   0.004   2.855  1.1227  1.7188 -2.5166
 5144SOL    HW227066   0.226   4.634   2.846 -0.9538  1.4039  1.4412
 5145SOL     OW27067   1.639   2.838   8.692 -0.2063 -0.4168 -0.0532
 5145SOL    HW127068   1.688   2.833   8.774  2.2750 -2.4686 -1.6435
 5145SOL    HW227069   1.689   2.905   8.645 -1.2073  1.0734  0.9833
 5146SOL     OW27070   3.564   2.625   6.059  0.4140 -0.3884 -0.3080
 5146SOL    HW127071   3.630   2.566   6.095  0.6085  1.1807  1.9042
 5146SOL    HW227072   3.509   2.572   6.002 -1.4319  0.9406  0.2386
 5147SOL     OW27073   0.151   1.805   5.984  0.3267 -0.5541 -0.8748
 5147SOL    HW127074   0.117   1.738   5.925  1.3372  0.6865 -2.8951
 5147SOL    HW227075   0.148   1.882   5.927  0.9100 -0.6495 -1.0365
 5148SOL     OW27076   0.716   2.886   2.053 -0.2182  0.6298 -0.5032
 5148SOL    HW127077   0.680   2.803   2.022 -0.2083 -0.0048  1.1926
 5148SOL    HW227078   0.635   2.937   2.062  0.2645  0.2836  5.3608
 5149SOL     OW27079   2.584   4.537   0.985 -0.3311 -0.0681 -0.3353
 5149SOL    HW127080   2.531   4.573   1.057 -1.7888 -2.8824 -0.0372
 5149SOL    HW227081   2.655   4.507   1.042 -3.0127 -1.0572  2.4676
 5150SOL     OW27082   1.713   4.321   2.415  0.7060 -0.9666 -0.4742
 5150SOL    HW127083   1.618   4.333   2.420  0.8862  0.1822  0.3734
 5150SOL    HW227084   1.725   4.380   2.490 -1.5547 -1.3377  0.1870
 5151SOL     OW27085   2.349   4.020   6.052  0.4726  0.5264 -0.4558
 5151SOL    HW127086   2.423   4.057   6.101 -0.2261  0.2203  0.8212
 5151SOL    HW227087   2.273   4.034   6.108 -0.8779 -0.1424 -2.1165
 5152SOL     OW27088   2.104   1.366   0.178 -0.1013  0.0088 -0.0311
 5152SOL    HW127089   2.100   1.390   0.085 -3.7660  0.5942  0.2778
 5152SOL    HW227090   2.092   1.445   0.231  1.0228 -0.8133  1.4632
 5153SOL     OW27091   4.276   2.925  10.952 -0.1482 -0.4300  0.5407
 5153SOL    HW127092   4.227   2.961  11.026  0.1337 -0.0532  0.5433
 5153SOL    HW227093   4.366   2.935  10.982  0.3338  0.1750 -1.1116
 5154SOL     OW27094   1.373   0.585   7.134 -0.1243  0.6914  0.1867
 5154SOL    HW127095   1.409   0.674   7.135 -0.0495  0.6523  1.0432
 5154SOL    HW227096   1.325   0.588   7.052 -0.4978  1.3649  0.4268
 5155SOL     OW27097   3.617   0.786  12.094  0.5370 -0.2673 -0.2537
 5155SOL    HW127098   3.559   0.716  12.062 -1.4186 -0.0268  2.7568
 5155SOL    HW227099   3.702   0.743  12.095  1.4050  1.4272 -1.3563
 5156SOL     OW27100   4.534   3.492  14.659  0.6913 -0.1072  0.2263
 5156SOL    HW127101   4.476   3.417  14.649 -0.4393  1.0110 -1.5745
 5156SOL    HW227102   4.555   3.486  14.752 -0.5064  0.9220  0.5579
 5157SOL     OW27103   4.721   0.193  12.405 -0.8729  0.9755 -0.3431
 5157SOL    HW127104   4.719   0.099  12.423 -0.0485  1.2555  1.2162
 5157SOL    HW227105   4.650   0.208  12.343 -0.2148  2.4245 -0.7237
 5158SOL     OW27106   2.857   4.525   4.173 -0.6619  0.7777 -0.2932
 5158SOL    HW127107   2.910   4.602   4.196 -1.3189  1.4189 -0.9319
 5158SOL    HW227108   2.907   4.478   4.106 -0.7815 -0.4399  0.4712
 5159SOL     OW27109   0.992   0.675   3.520 -0.1819  0.0386  0.2932
 5159SOL    HW127110   1.081   0.710   3.512 -0.2348 -0.4682 -2.5935
 5159SOL    HW227111   0.948   0.745   3.567  1.3986  2.4200 -1.7803
 5160SOL     OW27112   1.614   1.171   4.142  0.3305 -0.5339 -0.4116
 5160SOL    HW127113   1.520   1.160   4.157  0.7249 -0.5874  2.1236
 5160SOL    HW227114   1.641   1.079   4.137  1.1030 -0.3899  1.0688
 5161SOL     OW27115   1.482   3.319   4.131  0.3593 -0.0484  0.5966
 5161SOL    HW127116   1.463   3.225   4.138 -1.4956  0.2684 -0.2703
 5161SOL    HW227117   1.392   3.346   4.148 -0.3603 -1.4297 -1.0041
 5162SOL     OW27118   1.215   1.594  11.304  0.2834 -0.2804 -0.3205
 5162SOL    HW127119   1.212   1.505  11.341 -0.9042  0.9211  2.4710
 5162SOL    HW227120   1.280   1.595  11.234  1.1087 -0.8211  0.4367
 5163SOL     OW27121   4.707   3.851   5.302  0.3605  0.0167  0.4721
 5163SOL    HW127122   4.662   3.903   5.235  0.5852  2.6363  2.3425
 5163SOL    HW227123   4.659   3.768   5.299 -0.3126  0.3916  0.6287
 5164SOL     OW27124   2.274   4.564  15.577 -0.3425 -0.1955  0.6898
 5164SOL    HW127125   2.215   4.575  15.502  1.8495  1.6879 -0.7605
 5164SOL    HW227126   2.272   4.656  15.601  0.3232 -0.4261  1.6480
 5165SOL     OW27127   1.995   1.881   9.071  0.2365 -0.3795 -0.8156
 5165SOL    HW127128   2.068   1.920   9.023 -0.7130  0.9320 -1.2075
 5165SOL    HW227129   1.957   1.819   9.009 -1.2132  1.6768 -1.9858
 5166SOL     OW27130   1.953   3.506   7.930 -0.2687  0.1605 -0.4281
 5166SOL    HW127131   1.859   3.493   7.946 -0.0346 -1.3614 -0.2800
 5166SOL    HW227132   1.957   3.599   7.954 -1.8836  0.2715 -0.5731
 5167SOL     OW27133   4.462   2.033  14.800 -0.2073 -0.1984 -0.3124
 5167SOL    HW127134   4.377   2.025  14.842 -0.2797 -0.2428 -0.4660
 5167SOL    HW227135   4.444   2.087  14.723  2.2386  1.8973  0.5730
 5168SOL     OW27136   2.612   2.220   4.343  0.1276  0.2686  0.2312
 5168SOL    HW127137   2.649   2.238   4.257  2.4353 -1.8831  0.7560
 5168SOL    HW227138   2.529   2.177   4.321  1.2366 -0.6156 -2.2507
 5169SOL     OW27139   3.338   0.033   7.414  0.4429 -0.0155  0.4550
 5169SOL    HW127140   3.279   0.050   7.341  1.2950  0.1677 -0.2019
 5169SOL    HW227141   3.404   4.717   7.366  0.0605 -0.8546  0.8228
 5170SOL     OW27142   3.083   1.671   3.667  0.2935 -0.4115 -0.2572
 5170SOL    HW127143   3.005   1.642   3.714  1.5623 -1.4329  1.2281
 5170SOL    HW227144   3.106   1.751   3.714 -0.5327  0.1763 -0.8442
 5171SOL     OW27145   0.178   4.350   5.839 -0.3744 -0.2612  0.0345
 5171SOL    HW127146   0.210   4.260   5.848  0.0705 -0.0573  0.4614
 5171SOL    HW227147   0.231   4.392   5.771  0.5764 -1.7752 -0.1566
 5172SOL     OW27148   1.778   3.123   6.728  0.3533  0.1430 -0.1227
 5172SOL    HW127149   1.772   3.042   6.677  2.6633  0.8591 -1.4993
 5172SOL    HW227150   1.757   3.088   6.815  0.2028  0.2627 -0.1094
 5173SOL     OW27151   4.180   0.275   6.087  0.0164  0.6111 -0.5919
 5173SOL    HW127152   4.200   0.242   5.999 -0.4999  1.0415 -0.8687
 5173SOL    HW227153   4.092   0.241   6.105 -0.4308 -0.1846 -4.2903
 5174SOL     OW27154   4.034   1.949   3.950 -0.7879 -0.3468  0.2457
 5174SOL    HW127155   3.958   1.892   3.966 -0.4717 -0.6217  0.7859
 5174SOL    HW227156   4.104   1.911   4.004  0.1875  1.3287  0.1435
 5175SOL     OW27157   1.807   2.078   9.160 -0.1797  0.3824 -0.0916
 5175SOL    HW127158   1.725   2.037   9.187  0.4822 -0.4776  0.6360
 5175SOL    HW227159   1.862   2.000   9.163 -1.3521 -0.3788  1.5858
 5176SOL     OW27160   2.301   1.847  11.863 -0.8332  0.2458  0.3068
 5176SOL    HW127161   2.317   1.916  11.799  1.2106 -0.3566  0.1885
 5176SOL    HW227162   2.365   1.869  11.930 -0.4792  0.8762 -0.2450
 5177SOL     OW27163   1.772   0.639   0.918  0.1522  0.2526 -0.5302
 5177SOL    HW127164   1.829   0.680   0.853 -0.9944  1.6147 -0.6786
 5177SOL    HW227165   1.823   0.656   0.997 -0.8150 -0.3504  0.2304
 5178SOL     OW27166   4.434   2.920   5.105  0.5247  0.2756 -0.1463
 5178SOL    HW127167   4.400   2.833   5.123  0.7556  0.4047  0.9102
 5178SOL    HW227168   4.516   2.893   5.065  0.7526  0.9411 -0.1266
 5179SOL     OW27169   0.445   1.378   3.915 -0.1726 -0.1350 -0.3594
 5179SOL    HW127170   0.512   1.336   3.862  2.1956  2.7660  0.3812
 5179SOL    HW227171   0.387   1.303   3.931 -0.5008  1.3002  4.9579
 5180SOL     OW27172   2.172   4.256   7.711 -0.3919 -0.3853 -0.0878
 5180SOL    HW127173   2.109   4.185   7.704  0.1111 -0.7349 -1.0344
 5180SOL    HW227174   2.127   4.322   7.764 -1.6174  0.1958 -1.8474
 5181SOL     OW27175   3.404   0.887   5.475  0.9069 -0.6712 -0.3806
 5181SOL    HW127176   3.487   0.934   5.463  0.9833 -0.8278 -0.4681
 5181SOL    HW227177   3.345   0.955   5.441  0.3962  0.0792  2.0578
 5182SOL     OW27178   0.131   0.278   2.136 -0.2029  0.0194 -0.3326
 5182SOL    HW127179   0.171   0.326   2.208 -1.4979  1.4353 -0.5379
 5182SOL    HW227180   0.208   0.253   2.085 -2.0843 -0.3780 -3.0246
 5183SOL     OW27181   0.957   3.982   6.457 -0.4440  0.0357 -0.1088
 5183SOL    HW127182   0.867   4.012   6.447  0.1414  2.2465  1.2563
 5183SOL    HW227183   0.979   3.943   6.372  0.9821  1.2467 -0.2906
 5184SOL     OW27184   1.250   3.897  13.220  0.6236  0.2756 -0.1002
 5184SOL    HW127185   1.173   3.953  13.222 -0.1608 -0.7713 -0.9146
 5184SOL    HW227186   1.252   3.859  13.308  0.0753 -2.6255 -1.3458
 5185SOL     OW27187   4.508   3.653   5.298  0.6949 -0.2299 -0.3411
 5185SOL    HW127188   4.457   3.733   5.313  1.6140  0.5382 -1.3003
 5185SOL    HW227189   4.472   3.599   5.368  0.9037  0.3701  0.2292
 5186SOL     OW27190   2.252   4.629   7.886  0.1055  0.0252  0.2677
 5186SOL    HW127191   2.176   4.579   7.915 -0.1724  0.2065 -0.1624
 5186SOL    HW227192   2.200   4.684   7.828  1.0269 -1.6493 -2.1222
 5187SOL     OW27193   3.863   2.984  13.828  0.2111  0.0608 -0.1188
 5187SOL    HW127194   3.858   3.067  13.875  1.0335 -0.8164  1.5092
 5187SOL    HW227195   3.770   2.958  13.825 -0.3066  1.8852  0.4271
 5188SOL     OW27196   1.633   3.005  13.620 -0.4992  0.4736 -0.8339
 5188SOL    HW127197   1.556   2.983  13.568 -1.7234  1.0210  0.7643
 5188SOL    HW227198   1.598   3.010  13.709  1.5834 -0.8177  0.0565
 5189SOL     OW27199   4.522   3.555  14.977  0.1277 -0.1058 -0.4334
 5189SOL    HW127200   4.556   3.529  15.063  0.7288  1.3335 -0.2321
 5189SOL    HW227201   4.430   3.576  14.993  0.2036 -0.2306  0.1691
 5190SOL     OW27202   3.476   3.070   7.444 -0.1309 -0.1085 -0.5259
 5190SOL    HW127203   3.522   3.006   7.390 -1.5901 -0.7910 -0.9608
 5190SOL    HW227204   3.527   3.151   7.441 -0.3382  0.0606  0.4457
 5191SOL     OW27205   3.687   1.070   0.212  0.1613 -0.1030  0.2497
 5191SOL    HW127206   3.669   0.991   0.263  0.4478 -0.2356  0.1483
 5191SOL    HW227207   3.647   1.034   0.133  1.0846  0.6124 -0.5413
 5192SOL     OW27208   4.026   0.465   8.529 -0.2514 -0.0188  0.1586
 5192SOL    HW127209   3.968   0.402   8.486  0.4374 -0.6853  0.2128
 5192SOL    HW227210   3.979   0.487   8.609 -1.7525  0.2177 -0.7812
 5193SOL     OW27211   3.701   4.093   4.590 -0.3241 -0.5651  0.3224
 5193SOL    HW127212   3.759   4.087   4.666  1.9290  0.2354 -1.3578
 5193SOL    HW227213   3.612   4.074   4.620  0.2019 -0.3376  2.0568
 5194SOL     OW27214   3.960   2.102   7.952  0.1653 -0.1384  0.4525
 5194SOL    HW127215   3.944   2.168   8.020 -1.2491 -0.6229  0.6059
 5194SOL    HW227216   4.034   2.058   7.995  0.9957  0.2251 -0.6096
 5195SOL     OW27217   0.700   2.204   5.080 -0.4244 -0.1402  0.5521
 5195SOL    HW127218   0.706   2.153   5.162  1.2845  1.4057  1.3837
 5195SOL    HW227219   0.756   2.151   5.023  2.0712  1.4475  1.5467
 5196SOL     OW27220   4.604   0.080  11.455  0.0591  0.6642 -0.1547
 5196SOL    HW127221   4.657   0.059  11.378 -1.3203  1.4014 -1.2911
 5196SOL    HW227222   4.524   0.099  11.407 -0.4616  0.4237  0.6115
 5197SOL     OW27223   2.224   4.453   4.054 -0.4363 -1.1446  0.1568
 5197SOL    HW127224   2.242   4.467   3.962  1.2486 -0.5943  0.5810
 5197SOL    HW227225   2.242   4.543   4.081  1.4631 -0.9465 -1.8262
 5198SOL     OW27226   4.301   1.987   7.453  0.3868 -0.0150 -0.0894
 5198SOL    HW127227   4.302   1.932   7.374  1.8687 -0.2420  0.0862
 5198SOL    HW227228   4.248   2.062   7.425  0.8086  0.8597  1.4912
 5199SOL     OW27229   4.065   3.158  11.084 -0.2740  0.5966 -0.1398
 5199SOL    HW127230   3.997   3.183  11.146  1.4934  3.0863  0.8252
 5199SOL    HW227231   4.122   3.105  11.141 -2.0303 -1.2437 -0.1095
 5200SOL     OW27232   4.255   2.172  11.568  0.4644  0.2658  0.6502
 5200SOL    HW127233   4.273   2.216  11.651 -1.5070 -0.0272  1.2185
 5200SOL    HW227234   4.285   2.084  11.593 -0.4424 -0.3664 -0.5403
 5201SOL     OW27235   3.219   0.429   5.537  0.6151 -0.2688 -0.3201
 5201SOL    HW127236   3.299   0.475   5.560  0.9863  1.4343 -5.0133
 5201SOL    HW227237   3.154   0.498   5.550 -0.9006 -1.5239 -1.2543
 5202SOL     OW27238   3.973   0.205   1.663  0.2568 -0.5188  0.1456
 5202SOL    HW127239   3.913   0.233   1.732  0.2942 -0.3111  0.0914
 5202SOL    HW227240   3.974   0.114   1.695  0.3948  0.5301  3.1346
 5203SOL     OW27241   1.002   3.407  15.369 -0.5081  0.3664  0.1799
 5203SOL    HW127242   1.027   3.365  15.287  2.2095  1.6564  0.3689
 5203SOL    HW227243   0.922   3.455  15.345  0.7221  1.8075 -0.9992
 5204SOL     OW27244   2.356   3.360  13.530 -0.2847  0.1338 -0.4589
 5204SOL    HW127245   2.313   3.400  13.455  0.3897 -1.0144 -1.4620
 5204SOL    HW227246   2.410   3.432  13.560 -1.7243  0.7847  0.6017
 5205SOL     OW27247   0.692   0.230   9.127 -0.8364 -0.0457 -0.2028
 5205SOL    HW127248   0.682   0.291   9.054  0.2954  0.9439  0.4530
 5205SOL    HW227249   0.762   0.276   9.174 -0.4395  1.0483 -1.8605
 5206SOL     OW27250   1.676   0.293   0.454  0.2077 -0.0156 -0.4464
 5206SOL    HW127251   1.694   0.372   0.505  0.3662  0.3225 -1.0254
 5206SOL    HW227252   1.583   0.290   0.479 -0.4618  1.2153 -2.7713
 5207SOL     OW27253   2.375   4.053   4.238  0.5403 -0.5575  0.1542
 5207SOL    HW127254   2.399   3.998   4.164  0.7919 -2.8317  1.9162
 5207SOL    HW227255   2.283   4.034   4.258  0.2453  1.1604  0.3777
 5208SOL     OW27256   3.977   2.664  15.099 -0.0170  0.2959 -0.2791
 5208SOL    HW127257   3.911   2.618  15.151 -1.6130  3.0637  0.1360
 5208SOL    HW227258   3.977   2.613  15.018 -2.9364  0.1617 -0.1782
 5209SOL     OW27259   3.285   0.086   4.890 -0.3030 -0.1812  0.0449
 5209SOL    HW127260   3.210   0.027   4.882 -1.5273  1.9091 -3.8894
 5209SOL    HW227261   3.322   0.098   4.802 -0.3184  0.6814  0.1604
 5210SOL     OW27262   2.766   0.836   8.060  0.3141 -0.6293 -0.3882
 5210SOL    HW127263   2.684   0.883   8.076 -0.1833 -1.3286 -0.8601
 5210SOL    HW227264   2.744   0.746   8.037 -0.4628 -0.2086 -1.3345
 5211SOL     OW27265   3.706   2.707   4.927 -0.5026 -0.1124  0.2799
 5211SOL    HW127266   3.680   2.786   4.880 -0.4410  0.0349  0.4897
 5211SOL    HW227267   3.796   2.694   4.899 -0.5081 -0.6268  0.5106
 5212SOL     OW27268   0.954   2.385   8.265  0.1724 -0.3961  0.0995
 5212SOL    HW127269   1.008   2.442   8.319  0.1888 -0.6175  0.3151
 5212SOL    HW227270   0.929   2.446   8.195 -1.4452 -2.5653 -1.2019
 5213SOL     OW27271   2.154   1.571   4.594 -0.5684 -0.0430 -0.0973
 5213SOL    HW127272   2.134   1.636   4.662 -1.6333  1.4910 -1.8911
 5213SOL    HW227273   2.245   1.589   4.571  0.3445 -0.9240  2.8823
 5214SOL     OW27274   2.872   2.901   2.978  0.2218  0.2580  0.9274
 5214SOL    HW127275   2.838   2.976   3.028 -1.3354  1.7728 -2.3845
 5214SOL    HW227276   2.891   2.942   2.893  0.1272 -2.2038 -0.2901
 5215SOL     OW27277   4.221   0.903   8.650 -0.2053 -0.0919 -0.3028
 5215SOL    HW127278   4.305   0.936   8.618  0.6726 -1.5239  0.5405
 5215SOL    HW227279   4.239   0.912   8.744  0.8772  1.5267 -0.6718
 5216SOL     OW27280   3.204   2.850   8.107  0.2367  0.3232 -0.5593
 5216SOL    HW127281   3.268   2.780   8.096 -1.2445 -1.1366  0.2579
 5216SOL    HW227282   3.208   2.904   8.028  0.7696 -0.6294 -1.1887
 5217SOL     OW27283   2.726   4.011   4.612 -0.2139 -0.5775 -0.0718
 5217SOL    HW127284   2.768   3.963   4.541 -0.0592 -0.8264  0.1850
 5217SOL    HW227285   2.686   4.065   4.544 -1.7270 -0.8975  0.5694
 5218SOL     OW27286   2.747   2.393   0.801 -0.2313  0.1078  1.0175
 5218SOL    HW127287   2.816   2.355   0.747 -0.4750  0.5368  0.4001
 5218SOL    HW227288   2.741   2.322   0.865  1.1240 -0.9438 -0.0537
 5219SOL     OW27289   0.396   2.128   6.498 -0.2431 -0.0198  0.1408
 5219SOL    HW127290   0.360   2.131   6.409  0.8278  2.2422 -0.2163
 5219SOL    HW227291   0.416   2.220   6.515 -0.6296  0.3023 -1.0880
 5220SOL     OW27292   0.577   0.470   4.338 -0.0387  0.0887 -0.1962
 5220SOL    HW127293   0.520   0.431   4.405  0.1583  0.3110  0.1015
 5220SOL    HW227294   0.580   0.390   4.285 -0.6468 -1.8972  2.7218
 5221SOL     OW27295   4.027   3.628  15.341 -0.0481  0.1670 -0.4943
 5221SOL    HW127296   3.962   3.670  15.285  0.4531 -0.0249 -1.2197
 5221SOL    HW227297   4.012   3.539  15.310 -1.2528  1.0407 -2.3786
 5222SOL     OW27298   2.991   2.441  16.234  0.0097  0.0568 -0.0725
 5222SOL    HW127299   2.974   2.535  16.235  1.0361  0.2421 -0.2438
 5222SOL    HW227300   3.075   2.448  16.187  1.0495 -2.4060  1.4580
 5223SOL     OW27301   0.622   2.480   5.001 -0.0364  0.0331 -0.7553
 5223SOL    HW127302   0.556   2.472   4.933  0.3872 -0.6545 -1.0782
 5223SOL    HW227303   0.638   2.388   5.020 -1.9271 -0.2801 -0.6779
 5224SOL     OW27304   4.444   1.819   8.721  0.0413 -0.6006 -0.4037
 5224SOL    HW127305   4.536   1.793   8.719  0.3816  0.5603  0.5056
 5224SOL    HW227306   4.416   1.805   8.631  0.8975  1.8883 -1.0379
 5225SOL     OW27307   3.839   3.114   2.523  0.0224  0.2667 -0.1636
 5225SOL    HW127308   3.800   3.193   2.485  0.0896  1.0795  1.4639
 5225SOL    HW227309   3.834   3.049   2.454  0.3853  0.7601 -0.6580
 5226SOL     OW27310   4.304   4.285   0.688  0.1326  0.3498  0.4532
 5226SOL    HW127311   4.231   4.229   0.662 -0.5441  1.5618 -0.2261
 5226SOL    HW227312   4.343   4.242   0.765  1.1862  2.7202  1.2344
 5227SOL     OW27313   2.688   0.349   2.456 -0.2684 -0.1288  0.1462
 5227SOL    HW127314   2.631   0.402   2.512 -0.0632  1.6435 -1.3007
 5227SOL    HW227315   2.767   0.380   2.502  0.0125 -1.4206  0.5313
 5228SOL     OW27316   0.801   3.474   3.040  0.3390 -0.1929  0.6616
 5228SOL    HW127317   0.813   3.444   3.131 -1.4767  3.2385  2.0273
 5228SOL    HW227318   0.707   3.486   3.046  0.0646 -1.8383 -0.3695
 5229SOL     OW27319   3.763   1.229   7.001 -0.0519 -0.2278 -0.0276
 5229SOL    HW127320   3.788   1.295   6.937 -1.0114  0.5431  0.4080
 5229SOL    HW227321   3.849   1.192   7.021  0.2711 -0.4838 -1.8231
 5230SOL     OW27322   2.864   0.350   0.615  0.5776 -0.4757 -0.3597
 5230SOL    HW127323   2.928   0.400   0.564  0.2872 -0.4411 -0.6923
 5230SOL    HW227324   2.926   0.315   0.679  0.5561 -0.5574 -0.3825
 5231SOL     OW27325   0.025   0.343   7.583  0.6793  0.0834 -0.1414
 5231SOL    HW127326   4.680   0.371   7.535  1.5045  2.5724 -0.0037
 5231SOL    HW227327   0.094   0.373   7.524 -0.6426 -0.2260 -1.8570
 5232SOL     OW27328   3.020   3.973   7.696 -0.3782  0.2006  0.2180
 5232SOL    HW127329   3.037   4.015   7.612 -1.5160 -2.8028 -1.5039
 5232SOL    HW227330   3.002   3.880   7.682 -1.8151  0.5486 -0.3118
 5233SOL     OW27331   0.335   3.428   3.245  0.1773 -0.1410 -0.9544
 5233SOL    HW127332   0.391   3.365   3.200  0.7583 -0.1942 -0.1488
 5233SOL    HW227333   0.271   3.369   3.286  1.3285 -0.8097 -0.1345
 5234SOL     OW27334   3.086   0.602   5.897  0.1540 -0.0926 -0.1244
 5234SOL    HW127335   3.128   0.520   5.923 -2.2300 -1.8524 -1.7468
 5234SOL    HW227336   3.131   0.659   5.959 -0.8605  0.7081 -0.1129
 5235SOL     OW27337   2.203   3.553   3.553 -0.0322 -0.1122  0.3931
 5235SOL    HW127338   2.137   3.620   3.571  0.3355  0.1244  0.8714
 5235SOL    HW227339   2.271   3.620   3.558 -1.6070  1.3811  1.8643
 5236SOL     OW27340   2.573   0.601   5.658 -0.8780 -0.5388  0.1326
 5236SOL    HW127341   2.625   0.629   5.582  0.2053  0.3765  1.1963
 5236SOL    HW227342   2.530   0.526   5.618 -1.8254  0.4728 -0.7420
 5237SOL     OW27343   1.329   2.145  15.952 -0.1236  0.5756  0.5283
 5237SOL    HW127344   1.281   2.220  15.918  1.2122  1.3408  0.2976
 5237SOL    HW227345   1.373   2.183  16.028  1.1471 -0.8777  0.5388
 5238SOL     OW27346   0.983   3.472   7.623  0.2206  0.2473 -0.5121
 5238SOL    HW127347   0.967   3.378   7.619 -0.0705  0.2616  0.5423
 5238SOL    HW227348   0.964   3.500   7.712 -0.0867 -1.1025 -0.1666
 5239SOL     OW27349   3.094   2.589   7.242  0.2188  0.7215 -0.0630
 5239SOL    HW127350   3.051   2.668   7.275 -1.9811 -0.1248 -0.9037
 5239SOL    HW227351   3.012   2.555   7.205 -0.9407  1.7950  1.4804
 5240SOL     OW27352   1.909   0.090   9.196 -0.4785  0.2879  0.0173
 5240SOL    HW127353   1.983   0.116   9.141 -0.6830  1.2005  0.1830
 5240SOL    HW227354   1.918   4.730   9.179 -0.4960  0.2532  0.1971
 5241SOL     OW27355   3.078   3.100  10.311  0.2347 -0.9954 -0.5372
 5241SOL    HW127356   3.145   3.034  10.296  0.3673 -0.8237 -0.6958
 5241SOL    HW227357   3.092   3.121  10.403  0.3607 -1.6285 -0.4139
 5242SOL     OW27358   1.592   0.260  16.708  0.1318  0.1155  0.4875
 5242SOL    HW127359   1.505   0.256  16.669  0.2903  0.6448  0.0873
 5242SOL    HW227360   1.614   0.172  16.677 -0.5737  0.0399  0.1925
 5243SOL     OW27361   4.045   1.677  12.326 -0.3304  0.3187  0.2500
 5243SOL    HW127362   3.971   1.644  12.275 -0.1421  1.8776 -1.0734
 5243SOL    HW227363   4.035   1.769  12.298  1.8271  0.3450 -0.4784
 5244SOL     OW27364   1.289   2.452  14.792 -0.1726 -0.3000  0.0152
 5244SOL    HW127365   1.291   2.449  14.887 -0.6750 -1.1000 -0.0020
 5244SOL    HW227366   1.317   2.542  14.773 -0.1913 -0.8552 -2.7384
 5245SOL     OW27367   1.171   1.535  13.327 -0.3741  0.0401  0.9549
 5245SOL    HW127368   1.134   1.464  13.275  0.4181  2.0124 -2.2994
 5245SOL    HW227369   1.186   1.486  13.408 -1.7826 -3.3206 -0.7777
 5246SOL     OW27370   3.716   4.349   2.312 -0.6623 -0.1554 -0.2932
 5246SOL    HW127371   3.687   4.391   2.393 -0.5932 -0.0448 -0.3257
 5246SOL    HW227372   3.811   4.363   2.315 -0.2705 -2.6933 -0.9934
 5247SOL     OW27373   3.332   1.238   8.511  0.2727  0.1105  0.1015
 5247SOL    HW127374   3.410   1.250   8.565  0.6296  0.2021 -0.4362
 5247SOL    HW227375   3.283   1.169   8.556  1.8088 -0.8339  0.3206
 5248SOL     OW27376   2.514   3.977  11.494 -0.5898 -0.9152  0.2329
 5248SOL    HW127377   2.512   4.034  11.571 -0.5548 -1.0134  0.3065
 5248SOL    HW227378   2.424   3.969  11.462 -1.6624  1.8386  2.5305
 5249SOL     OW27379   4.441   1.312  13.271  0.8422 -0.0619 -0.0987
 5249SOL    HW127380   4.451   1.359  13.189 -1.6099 -0.3822 -0.5647
 5249SOL    HW227381   4.352   1.339  13.296  0.7139 -1.4299  0.9633
 5250SOL     OW27382   3.687   0.275   6.871  0.1960 -0.0600  0.3671
 5250SOL    HW127383   3.697   0.225   6.790 -3.5097  0.0876 -0.1693
 5250SOL    HW227384   3.720   0.356   6.833 -2.9248  1.2794  0.5521
 5251SOL     OW27385   2.925   3.956   2.286  0.1641 -0.4045 -0.0333
 5251SOL    HW127386   2.906   4.043   2.321  2.0195  0.2955 -0.7472
 5251SOL    HW227387   2.996   3.991   2.232 -0.7007  0.2938 -0.7253
 5252SOL     OW27388   0.469   2.829   3.440 -0.3914 -0.1510  0.1810
 5252SOL    HW127389   0.474   2.832   3.344 -0.1078  1.2145  0.2442
 5252SOL    HW227390   0.543   2.774   3.463  1.0619  1.4251 -0.7047
 5253SOL     OW27391   3.114   1.869   2.289  0.4254  0.0625  0.3803
 5253SOL    HW127392   3.202   1.882   2.323 -0.0212  0.9847  1.1920
 5253SOL    HW227393   3.058   1.913   2.354  1.1828 -0.8498  1.6655
 5254SOL     OW27394   0.870   0.164  12.752 -0.6538 -0.4574  0.2364
 5254SOL    HW127395   0.937   0.198  12.692 -0.9580  0.4697  0.4242
 5254SOL    HW227396   0.797   0.154  12.691 -0.8644 -2.4679  0.8204
 5255SOL     OW27397   1.536   3.741   7.228 -0.5341  0.2445 -0.2264
 5255SOL    HW127398   1.548   3.650   7.201  2.1856  0.5052  0.1363
 5255SOL    HW227399   1.496   3.774   7.147 -1.6107 -2.7548 -0.9200
 5256SOL     OW27400   3.618   1.669  11.865 -0.3542 -0.3175 -0.0798
 5256SOL    HW127401   3.657   1.625  11.789  1.2319  0.4965  0.2651
 5256SOL    HW227402   3.665   1.752  11.872  0.4931 -0.7213 -1.0094
 5257SOL     OW27403   2.651   3.341  11.434  0.0439  0.0753 -0.3533
 5257SOL    HW127404   2.568   3.375  11.469  0.5824 -1.0715  2.0548
 5257SOL    HW227405   2.627   3.318  11.345 -1.1465  0.6560 -0.1970
 5258SOL     OW27406   3.672   0.617  16.195  0.0451  0.0963 -0.0659
 5258SOL    HW127407   3.610   0.578  16.134  1.1819 -3.1647  0.8169
 5258SOL    HW227408   3.699   0.698  16.153 -0.8516 -0.6472 -2.0649
 5259SOL     OW27409   1.044   4.612   9.025  0.0428 -0.0831 -0.5813
 5259SOL    HW127410   1.024   4.660   9.105  0.8434 -0.2851 -0.2633
 5259SOL    HW227411   1.082   4.526   9.041  1.1759  0.6378  0.6071
 5260SOL     OW27412   1.955   1.214   9.630  0.0223  0.0386 -0.2263
 5260SOL    HW127413   1.985   1.300   9.599 -1.7441 -0.2893 -2.9125
 5260SOL    HW227414   1.866   1.237   9.656 -0.3321 -2.6122  0.7992
 5261SOL     OW27415   4.662   4.591   8.038  0.3781 -0.4249  0.5316
 5261SOL    HW127416   4.695   4.598   8.128 -0.0089 -1.8860  0.8016
 5261SOL    HW227417   4.676   4.683   8.020  2.2441 -0.5435  1.3680
 5262SOL     OW27418   2.088   4.675   9.801  0.0552 -0.3018 -0.0667
 5262SOL    HW127419   2.115   4.658   9.711  0.9097  0.3394  0.0656
 5262SOL    HW227420   2.175   4.672   9.842 -0.4740 -3.3088  0.8492
 5263SOL     OW27421   2.720   1.910   7.032  0.3711 -0.0550 -0.3190
 5263SOL    HW127422   2.713   1.964   7.111 -0.6652 -0.4911 -0.1212
 5263SOL    HW227423   2.685   1.970   6.966 -0.0996  0.8303  0.7362
 5264SOL     OW27424   1.267   1.754   5.090 -0.0385  0.0221 -0.7872
 5264SOL    HW127425   1.216   1.835   5.084  0.0627  0.1406 -0.0533
 5264SOL    HW227426   1.204   1.700   5.043  0.4152 -0.9744 -0.2378
 5265SOL     OW27427   3.887   3.803   3.481  0.1960 -0.2620  0.0407
 5265SOL    HW127428   3.906   3.841   3.567 -0.3633  0.4965 -0.1707
 5265SOL    HW227429   3.813   3.862   3.465  0.7599  0.5376  0.3435
 5266SOL     OW27430   1.288   0.916  11.962  0.2253 -0.3725 -0.0803
 5266SOL    HW127431   1.321   0.966  11.887  0.4833 -3.2240 -1.8637
 5266SOL    HW227432   1.333   0.951  12.038  1.0985 -0.2977 -0.6279
 5267SOL     OW27433   3.711   2.391   5.803  0.3898 -0.2737 -0.2118
 5267SOL    HW127434   3.648   2.361   5.869 -0.8661  2.7230 -0.0434
 5267SOL    HW227435   3.665   2.445   5.739 -0.2408  0.1839  0.6258
 5268SOL     OW27436   1.621   0.387   4.048  0.2296 -0.4374  0.5951
 5268SOL    HW127437   1.635   0.310   3.992  1.0821 -1.0350  1.6400
 5268SOL    HW227438   1.560   0.345   4.109 -2.3246 -2.0776 -3.0550
 5269SOL     OW27439   3.963   2.897  14.503 -0.0033 -0.5101  0.1649
 5269SOL    HW127440   4.056   2.897  14.526 -0.1890 -1.1429  0.9203
 5269SOL    HW227441   3.939   2.805  14.514 -1.3782 -0.4229 -2.3075
 5270SOL     OW27442   0.906   4.272   0.865 -0.6816 -0.4440  0.1974
 5270SOL    HW127443   0.825   4.321   0.856  1.1257  2.1411 -2.3648
 5270SOL    HW227444   0.870   4.184   0.850 -1.1896 -0.4223  1.3203
 5271SOL     OW27445   1.844   3.474   4.725 -0.4791 -0.2760 -0.4209
 5271SOL    HW127446   1.917   3.468   4.664  2.1479  2.3689  2.5009
 5271SOL    HW227447   1.884   3.485   4.811 -0.1783 -1.5983 -0.3920
 5272SOL     OW27448   4.379   4.480  14.941  0.0489  0.7568 -0.1072
 5272SOL    HW127449   4.444   4.522  14.884 -1.0170  1.0302 -1.1153
 5272SOL    HW227450   4.428   4.399  14.957 -1.4810 -0.5579 -1.9182
 5273SOL     OW27451   4.136   3.738   0.190  0.1993 -0.0197 -0.2794
 5273SOL    HW127452   4.150   3.773   0.102  2.7464 -1.5844 -0.5004
 5273SOL    HW227453   4.094   3.654   0.173  2.9758 -2.0467  2.7995
 5274SOL     OW27454   0.730   1.841   5.559 -0.2087 -0.2909  0.3420
 5274SOL    HW127455   0.671   1.858   5.633 -0.2854 -1.2732  0.5002
 5274SOL    HW227456   0.744   1.749   5.579 -0.6060 -0.8256 -1.7874
 5275SOL     OW27457   3.036   0.691   7.211  0.1701  0.0033  0.3510
 5275SOL    HW127458   3.094   0.716   7.283  2.8655 -2.0135 -1.1343
 5275SOL    HW227459   3.055   0.597   7.212 -1.2047 -0.2770  1.9410
 5276SOL     OW27460   2.261   3.828   6.436  0.4635 -0.0970  0.0492
 5276SOL    HW127461   2.245   3.917   6.469 -0.0035  0.0047 -0.4488
 5276SOL    HW227462   2.212   3.780   6.503  0.9670  0.4193  0.7927
 5277SOL     OW27463   0.886   0.897   1.552  0.7290 -0.2244 -0.2850
 5277SOL    HW127464   0.876   0.842   1.474 -1.5073 -0.9858  0.5439
 5277SOL    HW227465   0.813   0.883   1.613  1.1388  0.1276  0.2857
 5278SOL     OW27466   1.475   2.127   9.935  0.2015  0.0715 -0.4617
 5278SOL    HW127467   1.497   2.165  10.021  0.2089 -1.0557  0.0370
 5278SOL    HW227468   1.554   2.080   9.910  0.3325  0.0262  0.0207
 5279SOL     OW27469   3.369   1.882   2.771  0.6408  0.1062 -0.1581
 5279SOL    HW127470   3.300   1.948   2.779 -1.1931 -1.8209  0.2019
 5279SOL    HW227471   3.362   1.868   2.677 -2.1616  0.0833  0.0375
 5280SOL     OW27472   2.237   3.626   5.388  0.1300  0.1825 -0.3852
 5280SOL    HW127473   2.166   3.597   5.446 -0.2324  0.8377 -0.5004
 5280SOL    HW227474   2.209   3.713   5.358  1.8331  1.6804  2.4033
 5281SOL     OW27475   3.764   3.267  12.777  0.7591 -0.1082 -0.0237
 5281SOL    HW127476   3.720   3.211  12.840 -0.8744 -2.7575 -3.4740
 5281SOL    HW227477   3.811   3.212  12.714 -0.2233  1.7710 -2.4063
 5282SOL     OW27478   0.642   4.688  17.282 -0.0155 -0.0174 -0.5402
 5282SOL    HW127479   0.657   0.047  17.299 -0.0197 -0.0912 -0.1381
 5282SOL    HW227480   0.614   4.693  17.190 -1.6735  1.4443  0.0428
 5283SOL     OW27481   0.460   4.443   3.222 -0.4166 -0.5983  0.1654
 5283SOL    HW127482   0.526   4.495   3.176  0.1731 -1.5903 -0.1049
 5283SOL    HW227483   0.465   4.491   3.305  1.4550 -1.2580  0.4444
 5284SOL     OW27484   4.235   4.372   3.778  0.0355 -0.2723 -0.1058
 5284SOL    HW127485   4.312   4.333   3.737  0.1772  0.9923 -1.0550
 5284SOL    HW227486   4.162   4.338   3.726 -0.7115  0.7765  0.2637
 5285SOL     OW27487   1.413   1.028   8.399 -0.0515 -0.6072  0.7177
 5285SOL    HW127488   1.323   1.000   8.383 -0.4955  1.2786 -0.0732
 5285SOL    HW227489   1.413   1.060   8.489  1.2611  1.2610  0.0521
 5286SOL     OW27490   4.454   0.609   8.871 -0.4929 -0.0475  0.2297
 5286SOL    HW127491   4.388   0.665   8.911 -0.8880  0.2879 -0.9141
 5286SOL    HW227492   4.510   0.676   8.832  0.0389  0.6888  2.2468
 5287SOL     OW27493   1.249   2.663   9.123  0.8718 -0.9023 -0.4962
 5287SOL    HW127494   1.265   2.576   9.159  2.6695 -0.7073 -0.8477
 5287SOL    HW227495   1.266   2.725   9.194 -0.8074 -1.3129  0.2719
 5288SOL     OW27496   1.910   3.991  13.492 -0.4140 -0.1244  0.0340
 5288SOL    HW127497   1.858   3.937  13.552 -1.2928  1.8212  1.0171
 5288SOL    HW227498   1.859   4.072  13.485  0.6590  0.7208  2.2927
 5289SOL     OW27499   3.111   1.613   7.683  0.4934 -0.6942  0.1691
 5289SOL    HW127500   3.016   1.615   7.695  0.3820  2.5953 -1.5466
 5289SOL    HW227501   3.139   1.631   7.773  1.9293  0.9889 -0.6216
 5290SOL     OW27502   3.855   4.452   2.729 -0.4721  0.0786 -0.5593
 5290SOL    HW127503   3.907   4.507   2.671  0.1294 -0.0501 -0.1447
 5290SOL    HW227504   3.774   4.503   2.725 -0.9769 -0.6168  0.7998
 5291SOL     OW27505   0.195   0.496  11.913  0.3718 -0.2455  0.1972
 5291SOL    HW127506   0.185   0.511  12.007  0.8925  0.4767  0.1336
 5291SOL    HW227507   0.127   0.430  11.903  0.1868 -0.1755  0.9956
 5292SOL     OW27508   1.942   3.798   4.761 -0.1826  0.0362 -0.1265
 5292SOL    HW127509   1.925   3.704   4.752  2.0068 -0.5789  2.1054
 5292SOL    HW227510   1.957   3.821   4.670 -2.3626  0.7777 -0.3032
 5293SOL     OW27511   3.638   2.922   4.745 -0.5690 -0.2688  0.0111
 5293SOL    HW127512   3.552   2.900   4.710 -0.4891 -0.4299 -0.0794
 5293SOL    HW227513   3.689   2.955   4.672 -1.6990 -0.7579 -0.9973
 5294SOL     OW27514   1.781   4.182  17.202 -0.0037 -0.5775  0.2842
 5294SOL    HW127515   1.704   4.127  17.195 -1.0015  0.9740 -0.8651
 5294SOL    HW227516   1.763   4.234  17.280  0.5587 -2.1818  1.4768
 5295SOL     OW27517   3.782   1.821   4.058  0.6962  0.0723  1.1227
 5295SOL    HW127518   3.784   1.813   3.962  3.3145 -0.9569  1.2632
 5295SOL    HW227519   3.688   1.825   4.075  0.1436  0.7722 -2.0943
 5296SOL     OW27520   4.233   3.389  12.376  0.2022 -0.2841 -0.1385
 5296SOL    HW127521   4.270   3.365  12.461 -2.6246 -2.6414  0.3777
 5296SOL    HW227522   4.317   3.399  12.329  1.6371  1.2036  2.7165
 5297SOL     OW27523   1.229   3.097   1.900 -0.2985 -0.4358  0.1902
 5297SOL    HW127524   1.324   3.107   1.903 -0.5425  1.6589  0.8241
 5297SOL    HW227525   1.194   3.141   1.977  1.1229  2.5242 -0.8639
 5298SOL     OW27526   1.364   2.350   8.593  0.4912 -0.1269  0.2220
 5298SOL    HW127527   1.270   2.335   8.580  0.2480  0.9195  0.7265
 5298SOL    HW227528   1.373   2.346   8.688  1.7255  1.8434  0.1816
 5299SOL     OW27529   3.902   1.927   4.564  0.0285 -0.7019  0.0673
 5299SOL    HW127530   3.912   1.838   4.598  0.2949 -0.9054 -0.5370
 5299SOL    HW227531   3.857   1.968   4.638  0.0947  0.2387 -0.4161
 5300SOL     OW27532   1.571   2.374   8.194  0.3362 -0.0207  0.1463
 5300SOL    HW127533   1.491   2.363   8.143  0.3673 -1.0266  0.3140
 5300SOL    HW227534   1.623   2.294   8.197  2.0327  1.1560  1.5991
 5301SOL     OW27535   1.840   2.082   5.419  0.2851 -0.6595 -0.3835
 5301SOL    HW127536   1.818   1.990   5.404  2.5812 -0.8057 -2.8505
 5301SOL    HW227537   1.932   2.075   5.393  0.2967  0.3862 -0.6569
 5302SOL     OW27538   2.409   4.304  16.382 -0.0482  0.1525  0.9712
 5302SOL    HW127539   2.415   4.388  16.428  2.3382  0.3657  0.2638
 5302SOL    HW227540   2.426   4.249  16.458  0.3594 -0.4195  0.4599
 5303SOL     OW27541   2.984   0.473   2.067  0.5137  0.1710  0.2275
 5303SOL    HW127542   2.897   0.434   2.081  2.1409 -3.1588  0.9798
 5303SOL    HW227543   3.016   0.450   2.154 -1.1793 -0.9782  0.5603
 5304SOL     OW27544   1.051   2.267   8.003 -1.0392  0.5344 -0.2285
 5304SOL    HW127545   0.980   2.294   8.061 -0.1835 -1.7235  1.8113
 5304SOL    HW227546   1.010   2.305   7.925 -1.0929  0.2617 -0.3327
 5305SOL     OW27547   0.413   1.112   4.041  0.1921 -0.1059  0.2705
 5305SOL    HW127548   0.479   1.083   3.979  0.0513 -2.1174  1.0570
 5305SOL    HW227549   0.360   1.033   4.050  1.6233 -1.3822 -2.4806
 5306SOL     OW27550   0.416   1.980  11.602  0.0766 -0.2730 -0.5154
 5306SOL    HW127551   0.456   2.063  11.578 -0.1270 -0.0666 -0.1456
 5306SOL    HW227552   0.328   1.995  11.568  0.2645 -0.2270 -0.9715
 5307SOL     OW27553   3.337   4.663   2.764 -0.2037 -0.0022  0.2538
 5307SOL    HW127554   3.291   4.581   2.781 -2.0121  1.0517  0.4048
 5307SOL    HW227555   3.279   4.714   2.709 -1.0220 -0.5930  0.5620
 5308SOL     OW27556   3.398   0.942   9.872 -0.6247 -0.1576  0.5591
 5308SOL    HW127557   3.346   0.975   9.799  1.1394  0.0425 -0.6020
 5308SOL    HW227558   3.482   0.934   9.827 -0.0923  0.9505  1.3805
 5309SOL     OW27559   0.000   1.775  17.376 -0.1671  0.3153  0.3129
 5309SOL    HW127560   4.722   1.846  17.313 -1.1328 -0.5773 -0.5176
 5309SOL    HW227561   4.724   1.827  17.456 -1.0727 -0.7915  0.9320
 5310SOL     OW27562   2.365   1.513   2.832 -0.1156  0.0217  0.4454
 5310SOL    HW127563   2.379   1.549   2.744  0.6822  2.9169  1.7334
 5310SOL    HW227564   2.448   1.537   2.874  0.8813 -1.6970 -0.5732
 5311SOL     OW27565   3.065   1.568   4.084  0.1297 -0.6116  0.1729
 5311SOL    HW127566   3.069   1.537   4.174 -1.8502 -3.0598 -0.5654
 5311SOL    HW227567   3.138   1.630   4.080  0.2356 -0.7645 -0.3094
 5312SOL     OW27568   1.795   2.460   9.655  0.0286 -0.0943 -0.0639
 5312SOL    HW127569   1.869   2.399   9.647 -0.6571 -1.2528  2.3871
 5312SOL    HW227570   1.839   2.520   9.714  1.3242 -1.0453 -0.0667
 5313SOL     OW27571   0.721   2.205   7.896  1.0321 -0.3711 -0.0237
 5313SOL    HW127572   0.638   2.247   7.875  1.0979 -0.0395  0.3805
 5313SOL    HW227573   0.764   2.214   7.811 -0.8971  0.2798 -0.9287
 5314SOL     OW27574   0.042   3.608   5.910  0.3065  0.0552  0.1880
 5314SOL    HW127575   4.721   3.620   5.832 -0.0248  2.6370  0.8257
 5314SOL    HW227576   0.038   3.513   5.920 -0.5611  0.0234 -0.4090
 5315SOL     OW27577   4.255   3.799   8.495 -0.3484  0.1709  0.2396
 5315SOL    HW127578   4.270   3.874   8.552 -0.6233  1.2196 -1.0482
 5315SOL    HW227579   4.316   3.831   8.428 -1.2960 -0.6881 -1.0560
 5316SOL     OW27580   4.071   3.841   6.711 -0.1713 -1.3453 -0.0541
 5316SOL    HW127581   4.074   3.754   6.752  2.6288  0.6597  4.0767
 5316SOL    HW227582   4.023   3.820   6.631 -0.4143 -2.2142  0.3143
 5317SOL     OW27583   2.262   3.354   7.474  0.3233 -0.1971 -0.8601
 5317SOL    HW127584   2.296   3.444   7.478  0.5900 -0.4136  1.5453
 5317SOL    HW227585   2.178   3.364   7.519 -0.3127 -2.0007 -1.6433
 5318SOL     OW27586   0.886   2.252  13.840 -0.3992 -0.2700  1.1103
 5318SOL    HW127587   0.961   2.285  13.791  0.0452  1.6116  3.0737
 5318SOL    HW227588   0.813   2.309  13.815 -1.4920 -1.3903  1.7141
 5319SOL     OW27589   0.204   2.387   6.442  0.0506 -0.3274  0.0323
 5319SOL    HW127590   0.229   2.399   6.533 -0.3766 -1.0142  0.2391
 5319SOL    HW227591   0.134   2.322   6.442 -0.1902 -0.0590  1.3460
 5320SOL     OW27592   3.190   3.349   7.328 -0.4063  0.1756  0.0641
 5320SOL    HW127593   3.152   3.298   7.256  1.3566 -1.7713  0.5143
 5320SOL    HW227594   3.283   3.344   7.302 -0.2178  0.6605  0.6543
 5321SOL     OW27595   3.807   1.008   5.734 -0.1242 -0.1523  0.1045
 5321SOL    HW127596   3.823   1.014   5.640  0.6892 -1.5915  0.1489
 5321SOL    HW227597   3.883   1.052   5.772 -0.5424  1.3163 -0.7550
 5322SOL     OW27598   2.782   4.053   7.564  0.1917  0.1560 -0.5067
 5322SOL    HW127599   2.858   3.998   7.547 -0.9933 -0.6722 -3.0943
 5322SOL    HW227600   2.786   4.056   7.659 -0.5707 -1.5032 -0.4119
 5323SOL     OW27601   1.944   0.197   6.135 -0.0713 -0.5796  0.1622
 5323SOL    HW127602   1.932   0.170   6.044  1.3082  0.1374 -0.2352
 5323SOL    HW227603   1.876   0.150   6.183  2.0874 -0.9192  2.8175
 5324SOL     OW27604   1.133   1.059   4.879  0.3829  0.1924  0.1546
 5324SOL    HW127605   1.098   1.016   4.801  0.4090  0.7653 -0.1689
 5324SOL    HW227606   1.145   0.987   4.941 -0.5322  0.0995  0.2281
 5325SOL     OW27607   0.213   4.196   8.477 -0.3079 -0.1292 -0.3447
 5325SOL    HW127608   0.279   4.140   8.517  0.1851  0.2780 -0.5980
 5325SOL    HW227609   0.168   4.132   8.422 -1.4666 -0.2325  0.7102
 5326SOL     OW27610   2.027   0.111   9.533  0.3844 -0.6182  0.3225
 5326SOL    HW127611   2.116   0.101   9.567  1.0237  0.1557 -1.1300
 5326SOL    HW227612   2.038   0.078   9.444  1.8860 -2.7953  1.3093
 5327SOL     OW27613   0.689   1.431   2.089 -0.5531 -0.3188  0.7318
 5327SOL    HW127614   0.661   1.390   2.006 -0.1737  0.9483 -0.0163
 5327SOL    HW227615   0.628   1.385   2.147 -0.9054 -1.4692 -0.5317
 5328SOL     OW27616   1.069   4.657   7.256 -0.3074 -0.6763 -0.5364
 5328SOL    HW127617   0.990   4.635   7.207  0.2369 -0.9040 -1.3204
 5328SOL    HW227618   1.107   4.569   7.255 -0.5477 -0.7538 -3.1832
 5329SOL     OW27619   3.134   2.513   4.670 -0.0213  0.3090 -0.0915
 5329SOL    HW127620   3.162   2.586   4.614  0.3524 -0.0922 -0.4361
 5329SOL    HW227621   3.089   2.466   4.599 -0.1068 -0.9423  0.8027
 5330SOL     OW27622   2.111   2.010   5.339  0.6913  0.0437  0.1512
 5330SOL    HW127623   2.194   1.977   5.303  0.8714  1.7006 -0.9599
 5330SOL    HW227624   2.133   2.103   5.344 -0.4142  0.2381  1.3365
 5331SOL     OW27625   1.790   4.259  13.276 -0.1211 -0.1210  0.0947
 5331SOL    HW127626   1.752   4.193  13.334 -1.5813  0.0478 -0.6501
 5331SOL    HW227627   1.722   4.323  13.253 -0.6685  0.1722  2.4952
 5332SOL     OW27628   0.589   0.395  14.309 -0.2889 -0.3313  0.0925
 5332SOL    HW127629   0.593   0.350  14.225 -0.3946  1.1955 -0.7283
 5332SOL    HW227630   0.645   0.339  14.363 -1.2350 -1.9710 -0.6350
 5333SOL     OW27631   3.315   3.259   6.686 -0.1874  0.6488  0.2167
 5333SOL    HW127632   3.281   3.331   6.633  1.7697  1.6072  0.2525
 5333SOL    HW227633   3.243   3.258   6.749  1.3663  1.5149  2.0247
 5334SOL     OW27634   2.485   3.715   8.364 -0.7746 -0.0479 -0.2006
 5334SOL    HW127635   2.453   3.674   8.445  0.6462  0.5580  0.6656
 5334SOL    HW227636   2.512   3.636   8.317 -1.0672  0.4777 -1.2441
 5335SOL     OW27637   2.746   0.463  14.210  0.0075  0.0149 -0.0361
 5335SOL    HW127638   2.754   0.533  14.275  1.1149  1.9008 -2.2428
 5335SOL    HW227639   2.839   0.444  14.202 -0.1233 -0.2129 -0.9968
 5336SOL     OW27640   2.845   0.411   4.053  0.1118 -0.0560 -0.4447
 5336SOL    HW127641   2.835   0.400   4.147  0.3110  1.4206 -0.2526
 5336SOL    HW227642   2.877   0.500   4.039 -0.1607  0.4590  2.3424
 5337SOL     OW27643   4.243   4.228   4.623  0.1660  0.0146 -0.4964
 5337SOL    HW127644   4.242   4.316   4.661 -0.3893  1.0255 -2.8497
 5337SOL    HW227645   4.310   4.254   4.559 -0.2549  0.9859 -0.5415
 5338SOL     OW27646   0.821   1.303  13.310 -0.6749 -0.1649 -0.1034
 5338SOL    HW127647   0.800   1.372  13.248  2.1683 -0.6820 -1.6424
 5338SOL    HW227648   0.911   1.285  13.281 -0.0719  0.5920  1.2983
 5339SOL     OW27649   4.150   3.665   1.504  0.0859 -0.3199  0.3197
 5339SOL    HW127650   4.209   3.682   1.577  0.8680 -0.6729 -0.2308
 5339SOL    HW227651   4.091   3.739   1.519  0.0153 -0.5139  0.9999
 5340SOL     OW27652   4.296   0.700   2.473 -0.0620  0.5572  0.5003
 5340SOL    HW127653   4.345   0.684   2.553 -0.4766 -0.0783  0.6296
 5340SOL    HW227654   4.368   0.740   2.425 -0.1138 -0.5912 -0.5372
 5341SOL     OW27655   3.341   1.910   4.997  0.1325 -0.4093 -0.3275
 5341SOL    HW127656   3.376   1.996   4.975  0.9443 -0.8053 -0.5833
 5341SOL    HW227657   3.361   1.862   4.917  0.5098 -2.0106  0.7338
 5342SOL     OW27658   0.195   1.910   2.105 -0.0629  0.1585 -0.1961
 5342SOL    HW127659   0.274   1.860   2.084 -1.2498 -1.0150 -1.8347
 5342SOL    HW227660   0.208   1.977   2.038 -1.9809 -0.1787 -0.9129
 5343SOL     OW27661   0.085   3.851   0.914 -0.4381 -0.1323 -0.0108
 5343SOL    HW127662   0.135   3.896   0.845  0.5218 -2.2183 -0.6570
 5343SOL    HW227663   0.030   3.919   0.955  0.3760  0.4183  0.1737
 5344SOL     OW27664   1.512   2.965  12.033 -0.3990  0.2182  0.1881
 5344SOL    HW127665   1.540   2.874  12.037 -2.6404 -0.5409 -1.2934
 5344SOL    HW227666   1.501   2.980  11.939  1.3543  0.8471  0.0833
 5345SOL     OW27667   1.800   1.417  14.935 -0.0648 -0.0938 -0.2723
 5345SOL    HW127668   1.812   1.369  15.017 -2.3113 -2.7805 -1.5211
 5345SOL    HW227669   1.892   1.439  14.919 -0.4226  1.1874 -0.5870
 5346SOL     OW27670   0.488   0.484  15.188 -0.2055  0.6527 -0.6496
 5346SOL    HW127671   0.412   0.429  15.174  1.0724 -1.6125  1.3959
 5346SOL    HW227672   0.484   0.498  15.282  1.2627  1.7740 -0.7371
 5347SOL     OW27673   2.710   2.821  16.313  0.4790  0.2332 -0.0046
 5347SOL    HW127674   2.698   2.837  16.407  1.8100 -0.1981  0.2387
 5347SOL    HW227675   2.649   2.747  16.308  0.3083  0.5494 -2.4069
 5348SOL     OW27676   2.631   4.348  11.555  0.0610  0.2427  0.0391
 5348SOL    HW127677   2.549   4.395  11.542 -0.4763 -0.3825  1.1424
 5348SOL    HW227678   2.690   4.383  11.488  1.1873 -0.2145  0.7940
 5349SOL     OW27679   1.922   3.444   2.842 -0.1898  0.0634 -0.1332
 5349SOL    HW127680   1.969   3.360   2.837  1.3841  1.0786 -2.2786
 5349SOL    HW227681   1.996   3.505   2.834 -0.8090  0.8654  0.2777
 5350SOL     OW27682   0.451   4.671  11.662  0.5383  0.3024  0.2480
 5350SOL    HW127683   0.477   4.579  11.672 -1.7491 -0.2074  1.4219
 5350SOL    HW227684   0.541   4.703  11.672  0.6844 -0.0311  0.0100
 5351SOL     OW27685   1.076   1.035  12.134 -0.6016  0.2065 -0.2325
 5351SOL    HW127686   1.124   0.984  12.068 -0.7762  1.0363 -1.0049
 5351SOL    HW227687   1.125   1.117  12.138  1.7056 -1.1633 -0.4933
 5352SOL     OW27688   0.099   3.580   4.917  0.2202  0.0026  0.0895
 5352SOL    HW127689   0.177   3.528   4.898  0.0985  0.4891 -1.7834
 5352SOL    HW227690   0.118   3.635   4.993  0.3376  0.3019 -0.1586
 5353SOL     OW27691   2.341   1.123   3.950 -0.2305 -0.0730  0.1798
 5353SOL    HW127692   2.433   1.150   3.958 -0.5437  0.6010  1.5476
 5353SOL    HW227693   2.335   1.073   4.031  1.3055 -0.1595  0.2315
 5354SOL     OW27694   1.820   3.779  15.912 -0.4041 -0.0760  0.0121
 5354SOL    HW127695   1.877   3.824  15.850  0.0138 -0.2422  0.2749
 5354SOL    HW227696   1.760   3.733  15.853 -0.8166  0.6002 -0.0938
 5355SOL     OW27697   4.078   4.626   5.689  0.0148 -0.3788  0.1185
 5355SOL    HW127698   4.123   4.547   5.719  0.2501 -1.8522 -4.0890
 5355SOL    HW227699   4.086   4.609   5.595 -1.5152 -0.2072 -0.0348
 5356SOL     OW27700   2.625   0.912  11.054 -0.2496  0.0027  0.4079
 5356SOL    HW127701   2.676   0.944  11.129  0.8916  1.5595 -1.0406
 5356SOL    HW227702   2.675   0.961  10.990 -1.2901  0.9368  0.3022
 5357SOL     OW27703   0.816   1.097  12.032 -0.4254  0.2050 -0.2206
 5357SOL    HW127704   0.813   1.002  12.018  0.3551  0.1526 -0.0108
 5357SOL    HW227705   0.910   1.106  12.044 -0.4292  0.7038 -0.5902
 5358SOL     OW27706   2.221   1.909   5.067 -0.3320  0.5549 -0.2176
 5358SOL    HW127707   2.224   1.972   4.995 -1.7547  1.2326  0.3182
 5358SOL    HW227708   2.216   1.823   5.024  1.3821 -0.4484  1.5876
 5359SOL     OW27709   0.906   3.761  16.318  0.2224 -0.1532  0.2468
 5359SOL    HW127710   0.853   3.840  16.306  0.8938  0.1784 -0.4560
 5359SOL    HW227711   0.941   3.778  16.405 -2.8214 -1.1241  1.6654
 5360SOL     OW27712   0.326   0.495   6.168 -0.0449 -0.3271 -0.1486
 5360SOL    HW127713   0.360   0.536   6.089  1.4842 -2.7301 -0.7252
 5360SOL    HW227714   0.264   0.564   6.194 -0.9448 -1.0152 -0.4682
 5361SOL     OW27715   3.706   2.018  15.165  0.3729 -0.3251 -0.2546
 5361SOL    HW127716   3.643   2.036  15.235  0.7332 -0.4524  0.1023
 5361SOL    HW227717   3.653   2.054  15.094  0.3922  0.6984  0.2546
 5362SOL     OW27718   3.077   1.330   3.932  0.6905  0.2237 -0.0561
 5362SOL    HW127719   3.154   1.281   3.962  1.1390  0.6151 -0.5554
 5362SOL    HW227720   3.072   1.404   3.993  0.3242  0.2798 -0.1542
 5363SOL     OW27721   0.769   1.651  12.342 -0.2383  0.1072 -0.4323
 5363SOL    HW127722   0.736   1.658  12.431 -1.3534 -4.0281 -0.5274
 5363SOL    HW227723   0.864   1.662  12.350 -0.5072  1.8892  0.3269
 5364SOL     OW27724   0.247   4.327   6.933  0.0682 -0.1762  0.4960
 5364SOL    HW127725   0.162   4.308   6.973  0.6806  1.1432  2.4368
 5364SOL    HW227726   0.265   4.250   6.879 -0.5869  1.4776 -2.1099
 5365SOL     OW27727   3.328   2.491   7.362  0.2928 -0.1583 -0.0961
 5365SOL    HW127728   3.327   2.408   7.314 -1.7989 -0.1421 -0.0914
 5365SOL    HW227729   3.255   2.533   7.318 -1.1392 -3.5072 -0.9052
 5366SOL     OW27730   0.878   2.679   9.131  0.0971  0.0992 -0.3200
 5366SOL    HW127731   0.885   2.619   9.057  0.2217  1.1208 -1.1366
 5366SOL    HW227732   0.857   2.615   9.199  2.5725  0.1274  0.4687
 5367SOL     OW27733   0.746   0.979  14.633 -0.1492 -0.6230  0.9033
 5367SOL    HW127734   0.831   0.959  14.596 -0.1708 -0.5475  0.8109
 5367SOL    HW227735   0.706   0.894  14.649  2.4987 -1.9736  0.2504
 5368SOL     OW27736   3.909   0.292   3.958 -0.0446 -0.2056  0.3035
 5368SOL    HW127737   3.942   0.208   3.928  0.6573 -0.0201  0.5730
 5368SOL    HW227738   3.833   0.304   3.901  0.8637  1.7845 -0.4948
 5369SOL     OW27739   0.692   1.140   2.422 -0.5600 -0.2095  0.2589
 5369SOL    HW127740   0.686   1.057   2.373 -1.4502  0.8756 -1.4600
 5369SOL    HW227741   0.643   1.126   2.504 -1.6108  0.6709 -0.2144
 5370SOL     OW27742   2.346   1.942   1.323  0.3465 -0.1782 -0.2419
 5370SOL    HW127743   2.374   1.964   1.235  1.5183 -2.0614 -0.3352
 5370SOL    HW227744   2.400   2.005   1.371 -0.9865  1.8312 -1.3909
 5371SOL     OW27745   1.257   3.619   9.416  0.7493  0.7209  0.4683
 5371SOL    HW127746   1.207   3.696   9.445  2.2559  1.6177  0.6967
 5371SOL    HW227747   1.349   3.639   9.433  0.8065  0.2206  0.7475
 5372SOL     OW27748   3.981   0.261  11.953 -0.6353 -0.4290  0.1316
 5372SOL    HW127749   4.023   0.343  11.928 -0.3801 -0.3257  0.8954
 5372SOL    HW227750   3.941   0.228  11.873 -1.2460 -3.6237  1.7221
 5373SOL     OW27751   0.753   4.536  14.851  0.5805 -0.6631 -0.7258
 5373SOL    HW127752   0.827   4.573  14.899 -0.3992 -0.4565  0.6498
 5373SOL    HW227753   0.692   4.529  14.925  0.2212 -0.0643 -0.9617
 5374SOL     OW27754   4.166   0.388   0.635 -0.0854 -0.2243 -0.3586
 5374SOL    HW127755   4.193   0.357   0.722 -2.0251 -2.5638 -0.5731
 5374SOL    HW227756   4.119   0.311   0.603  0.0951 -0.6458  0.3870
 5375SOL     OW27757   1.717   1.113   4.956 -0.4630 -0.3024 -0.0355
 5375SOL    HW127758   1.716   1.188   4.896 -2.1312 -0.9653 -0.8454
 5375SOL    HW227759   1.807   1.081   4.959 -0.5469 -0.3646  1.9225
 5376SOL     OW27760   1.473   0.631   0.767 -0.1409 -0.1485  0.5604
 5376SOL    HW127761   1.499   0.656   0.855 -4.0500  0.4831  1.5191
 5376SOL    HW227762   1.404   0.565   0.776 -0.6369  0.3798  0.6090
 5377SOL     OW27763   3.352   2.066   8.949 -0.0250 -0.1342  0.8143
 5377SOL    HW127764   3.329   2.122   9.023 -0.9962  0.4350  0.0824
 5377SOL    HW227765   3.273   2.013   8.935  1.4160 -2.9351  3.1664
 5378SOL     OW27766   3.063   1.912   2.876 -0.5054  0.0955 -0.2418
 5378SOL    HW127767   3.131   1.926   2.942  0.8226 -3.0312 -0.9336
 5378SOL    HW227768   3.036   1.997   2.841 -0.3464 -1.4093 -4.0479
 5379SOL     OW27769   1.976   0.378   1.960 -0.3613  0.0947  0.7838
 5379SOL    HW127770   1.931   0.303   1.923 -0.0974 -1.1807  3.0203
 5379SOL    HW227771   2.032   0.408   1.888 -1.2514 -0.1219  0.0053
 5380SOL     OW27772   1.111   4.600  15.562 -0.4895 -0.1323  0.4895
 5380SOL    HW127773   1.100   4.691  15.587  0.3835  0.1624 -0.1900
 5380SOL    HW227774   1.175   4.616  15.493 -1.1836  0.2917 -0.0519
 5381SOL     OW27775   1.253   1.095   8.084  0.2535  0.3088  0.4060
 5381SOL    HW127776   1.192   1.091   8.010  1.1211 -0.9444 -0.2404
 5381SOL    HW227777   1.197   1.079   8.160 -1.0252 -0.1562 -0.6115
 5382SOL     OW27778   0.215   3.688   9.232 -0.0531  0.1996 -0.0772
 5382SOL    HW127779   0.273   3.612   9.243 -0.6358 -0.1931  0.3196
 5382SOL    HW227780   0.182   3.670   9.144 -2.2858 -0.8389  0.9600
 5383SOL     OW27781   3.204   0.875   7.685  0.3391 -0.3648 -0.0125
 5383SOL    HW127782   3.289   0.861   7.728  0.0242 -1.2106  0.3464
 5383SOL    HW227783   3.190   0.967   7.703 -1.1380 -1.1567  2.8491
 5384SOL     OW27784   1.759   2.524   9.024  0.8553 -0.2046 -0.2958
 5384SOL    HW127785   1.784   2.434   9.003 -0.1239 -0.6754  0.5333
 5384SOL    HW227786   1.674   2.526   8.980  0.2757  1.6410  0.9283
 5385SOL     OW27787   2.688   4.585   8.352  0.2380 -0.6163  0.1835
 5385SOL    HW127788   2.632   4.593   8.429  0.2450  0.7607  0.0537
 5385SOL    HW227789   2.657   4.659   8.299 -1.2404 -1.6974 -0.4506
 5386SOL     OW27790   3.609   0.499   3.229 -0.0745  0.3686  0.3171
 5386SOL    HW127791   3.597   0.457   3.144 -0.8060 -3.5709  2.3679
 5386SOL    HW227792   3.546   0.571   3.230  0.3763  0.7744 -0.7819
 5387SOL     OW27793   2.116   0.532   7.004  0.2492  0.5383 -0.2410
 5387SOL    HW127794   2.175   0.458   6.988 -3.1564 -1.9269 -1.3547
 5387SOL    HW227795   2.162   0.610   6.973 -0.0779  0.7720 -0.1284
 5388SOL     OW27796   1.596   3.553  11.406  0.3020 -0.4767  0.2035
 5388SOL    HW127797   1.684   3.515  11.408 -0.0798 -1.4868 -2.2024
 5388SOL    HW227798   1.584   3.603  11.486 -1.3015  0.6158 -0.7290
 5389SOL     OW27799   4.608   2.042   4.977  0.6210  0.0621 -0.0482
 5389SOL    HW127800   4.531   2.083   4.939  0.6200 -0.0211 -0.1373
 5389SOL    HW227801   4.595   1.954   4.941 -1.9473  1.1932 -1.8660
 5390SOL     OW27802   2.276   3.927  11.336  0.4430 -0.1460 -0.2868
 5390SOL    HW127803   2.272   3.838  11.302 -0.6133 -0.1614 -0.1132
 5390SOL    HW227804   2.191   3.929  11.380 -0.3474 -1.1918 -1.7970
 5391SOL     OW27805   4.051   0.191   2.013 -0.3721  0.7654  0.9004
 5391SOL    HW127806   4.060   0.274   2.061  0.3409  0.5539  1.1282
 5391SOL    HW227807   3.976   0.210   1.956 -0.5444  1.3498  1.3171
 5392SOL     OW27808   1.091   3.593   4.248  0.0248  0.0627 -0.0874
 5392SOL    HW127809   1.111   3.623   4.337 -0.2601 -1.6876  0.5582
 5392SOL    HW227810   1.012   3.541   4.256  1.3826 -1.6010  2.2809
 5393SOL     OW27811   0.310   4.034  12.050 -0.3693 -0.0615 -0.4508
 5393SOL    HW127812   0.383   4.000  11.997 -0.4497  0.3870 -0.8436
 5393SOL    HW227813   0.350   4.113  12.085  1.2295 -0.6771 -0.8495
 5394SOL     OW27814   1.206   0.266  15.035 -0.0419  0.2575  0.6979
 5394SOL    HW127815   1.137   0.297  14.975 -0.5930 -1.8194  0.2766
 5394SOL    HW227816   1.279   0.239  14.980 -1.9393 -0.7579 -1.3226
 5395SOL     OW27817   0.408   3.503  17.034 -0.3101 -0.0790 -0.3706
 5395SOL    HW127818   0.456   3.421  17.043 -0.6769 -0.3143 -0.5738
 5395SOL    HW227819   0.450   3.557  16.966  0.7898 -1.3833 -0.7343
 5396SOL     OW27820   4.424   1.108   6.531  0.0261  0.5773 -0.0819
 5396SOL    HW127821   4.383   1.049   6.594 -0.0424  0.0668 -0.6098
 5396SOL    HW227822   4.369   1.083   6.458 -2.4408  2.7904  1.0142
 5397SOL     OW27823   0.767   0.652   6.546  0.2778 -0.5865  0.1856
 5397SOL    HW127824   0.704   0.662   6.474 -0.4569 -0.9761  0.7703
 5397SOL    HW227825   0.756   0.736   6.590 -0.9537 -1.0190  0.7332
 5398SOL     OW27826   2.582   1.872   4.363 -0.5907 -0.1564  0.1949
 5398SOL    HW127827   2.511   1.882   4.300 -0.9897  0.7484  0.7846
 5398SOL    HW227828   2.655   1.913   4.316 -0.6896  2.9836  2.7645
 5399SOL     OW27829   2.254   2.872   8.572  0.4522 -0.3195 -1.0230
 5399SOL    HW127830   2.216   2.847   8.656  0.6027  1.1695 -0.5213
 5399SOL    HW227831   2.191   2.849   8.503 -0.1143 -2.9921  0.3856
 5400SOL     OW27832   2.853   2.785   3.348 -0.0606 -0.4497  0.0060
 5400SOL    HW127833   2.767   2.752   3.320 -0.4319  0.8934 -0.4096
 5400SOL    HW227834   2.842   2.879   3.356  3.4016  0.0891 -1.8404
 5401SOL     OW27835   3.914   3.154   3.012 -0.1696 -0.0312 -0.0327
 5401SOL    HW127836   3.894   3.108   2.931  1.6081  0.7984 -0.9389
 5401SOL    HW227837   3.832   3.202   3.027 -0.7071 -1.0571  0.2697
 5402SOL     OW27838   1.711   1.668   6.548  0.4752  0.1507 -0.4539
 5402SOL    HW127839   1.765   1.589   6.554 -1.0111 -0.7006  1.5263
 5402SOL    HW227840   1.685   1.697   6.635  1.6798 -2.8608  0.9145
 5403SOL     OW27841   0.297   2.744   1.434  0.1810 -0.2214 -0.2100
 5403SOL    HW127842   0.391   2.760   1.443  0.1183  0.5210 -0.9084
 5403SOL    HW227843   0.285   2.766   1.341  4.0504  2.2695 -0.0995
 5404SOL     OW27844   1.818   0.460  10.016 -0.5809  0.6992  0.1631
 5404SOL    HW127845   1.774   0.541  10.041 -0.4600 -0.0883  2.9085
 5404SOL    HW227846   1.905   0.461  10.055 -0.6649 -2.8291  0.4127
 5405SOL     OW27847   2.467   3.850   5.878  0.1288  0.2015  0.0302
 5405SOL    HW127848   2.540   3.878   5.934  1.4208 -0.7519 -1.1555
 5405SOL    HW227849   2.400   3.901   5.923 -0.7683  1.1842 -2.4661
 5406SOL     OW27850   3.238   0.750  13.155  0.3141 -0.0764  0.0951
 5406SOL    HW127851   3.227   0.667  13.109 -1.5308  0.6504 -0.7718
 5406SOL    HW227852   3.151   0.746  13.195  1.2399 -1.7479  1.9026
 5407SOL     OW27853   2.216   4.237  10.876 -0.3052  0.3844  0.6228
 5407SOL    HW127854   2.174   4.314  10.915  0.1989  1.2289 -0.5182
 5407SOL    HW227855   2.279   4.287  10.825 -0.5690  0.3761  0.2835
 5408SOL     OW27856   4.033   0.762   2.518 -0.1943  0.3524  0.3948
 5408SOL    HW127857   4.127   0.747   2.512 -0.4845 -0.4459 -2.0667
 5408SOL    HW227858   4.021   0.693   2.582  2.9578 -0.9681 -0.4438
 5409SOL     OW27859   2.493   3.101   3.678  0.1478 -0.3483  0.0491
 5409SOL    HW127860   2.543   3.065   3.751  2.3066  1.3224 -0.5902
 5409SOL    HW227861   2.481   3.189   3.714  1.5607 -0.8802  1.7972
 5410SOL     OW27862   2.040   2.945   2.833 -0.2290  0.3222  0.6444
 5410SOL    HW127863   1.961   2.901   2.864  0.0648 -0.3468  0.4308
 5410SOL    HW227864   2.096   2.869   2.818 -0.0299  0.1506  2.2302
 5411SOL     OW27865   3.121   1.593   6.038  0.0070 -0.5178 -0.5999
 5411SOL    HW127866   3.128   1.687   6.058  0.0541 -0.1417 -2.3861
 5411SOL    HW227867   3.145   1.558   6.124  2.9014  1.0445 -0.7951
 5412SOL     OW27868   4.031   2.533  15.464 -0.0010 -0.4050 -0.2195
 5412SOL    HW127869   4.036   2.629  15.465 -0.7840 -0.3543 -0.8213
 5412SOL    HW227870   4.008   2.515  15.373 -0.5140  0.2566 -0.2230
 5413SOL     OW27871   4.428   0.567   6.992 -0.2465 -0.6903 -0.5624
 5413SOL    HW127872   4.344   0.564   6.947 -0.8699  0.0332  0.5520
 5413SOL    HW227873   4.470   0.651   6.976  0.3015 -1.0837 -1.2113
 5414SOL     OW27874   0.780   4.483   2.186  0.1482  0.4039  0.3120
 5414SOL    HW127875   0.784   4.555   2.123  1.1038  0.9152  0.9456
 5414SOL    HW227876   0.788   4.407   2.128 -2.7949 -0.3509  0.9134
 5415SOL     OW27877   0.585   4.219   7.032  0.1591  0.0026  0.1640
 5415SOL    HW127878   0.495   4.230   7.065  0.8561  0.9981  1.7602
 5415SOL    HW227879   0.586   4.289   6.966 -2.2627  2.5945  2.8489
 5416SOL     OW27880   2.370   0.650   3.477  0.8180 -0.6754 -0.5942
 5416SOL    HW127881   2.361   0.663   3.383  0.4635 -1.8352 -0.7200
 5416SOL    HW227882   2.413   0.565   3.480 -0.5437 -1.3606 -0.6321
 5417SOL     OW27883   4.351   0.824   9.010 -0.5365 -0.3294 -0.1098
 5417SOL    HW127884   4.374   0.838   9.101 -0.2799 -2.4393  0.1445
 5417SOL    HW227885   4.396   0.895   8.963 -2.9256  1.5525  0.4443
 5418SOL     OW27886   3.427   0.964  14.617 -0.0492 -0.0958 -0.5849
 5418SOL    HW127887   3.344   1.011  14.624  0.3318  0.8467 -2.3766
 5418SOL    HW227888   3.389   0.877  14.622 -1.0667  0.4026  0.2406
 5419SOL     OW27889   0.494   3.043   2.045 -0.0259 -0.8157 -0.2104
 5419SOL    HW127890   0.421   2.985   2.068 -1.1988  1.0766  0.7616
 5419SOL    HW227891   0.491   3.115   2.107  0.4907 -0.8367 -0.1618
 5420SOL     OW27892   4.561   3.474   4.517 -0.2733  0.3422  0.7087
 5420SOL    HW127893   4.581   3.444   4.606 -0.3120  0.1227  0.6428
 5420SOL    HW227894   4.592   3.401   4.463 -0.9660  0.3463  0.3156
 5421SOL     OW27895   1.955   1.543   8.501 -0.1157 -0.5656 -0.4370
 5421SOL    HW127896   1.968   1.637   8.505  1.3620 -0.8874  2.6996
 5421SOL    HW227897   1.914   1.529   8.416  0.9528 -0.9885 -0.8857
 5422SOL     OW27898   1.810   3.818  10.177 -0.1367  0.3448  0.8160
 5422SOL    HW127899   1.842   3.874  10.248 -0.5733  0.1948  1.1338
 5422SOL    HW227900   1.767   3.887  10.127 -0.6304  0.9615  2.0697
 5423SOL     OW27901   3.169   3.181   8.552  0.3206  0.2626  0.7608
 5423SOL    HW127902   3.149   3.151   8.463  1.6179 -0.6937  0.7884
 5423SOL    HW227903   3.200   3.266   8.520 -3.1430  0.5455 -1.8385
 5424SOL     OW27904   2.153   1.268   5.858  0.1849 -0.2944 -0.1859
 5424SOL    HW127905   2.168   1.193   5.914  0.8421  0.4875  0.6890
 5424SOL    HW227906   2.058   1.279   5.859 -0.1315 -3.5456  2.2664
 5425SOL     OW27907   1.691   1.940   6.484 -0.0360 -0.1361  0.1846
 5425SOL    HW127908   1.711   1.847   6.493  1.7725  0.1787 -0.5510
 5425SOL    HW227909   1.688   1.967   6.575 -0.8585 -2.1339  0.7459
 5426SOL     OW27910   4.659   0.314   6.832 -0.2006  0.7980 -0.0640
 5426SOL    HW127911   4.719   0.309   6.758 -0.2296  0.8215 -0.0894
 5426SOL    HW227912   4.577   0.327   6.783 -0.2213  0.7276 -0.0474
 5427SOL     OW27913   2.964   2.726  17.537  0.0310 -0.6564 -0.3244
 5427SOL    HW127914   2.919   2.645  17.562 -0.9108  0.8984  2.9891
 5427SOL    HW227915   3.056   2.699  17.533  0.2413  0.4158 -2.6612
 5428SOL     OW27916   0.930   0.475   6.222  0.3330  0.3420  0.1350
 5428SOL    HW127917   0.963   0.544   6.280 -3.3800  1.7907  0.4959
 5428SOL    HW227918   0.987   0.495   6.147  0.8904  0.0337  0.4742
 5429SOL     OW27919   4.461   3.842  14.279 -0.1955  0.1614 -0.4888
 5429SOL    HW127920   4.500   3.922  14.314  1.6507 -0.2697 -1.5966
 5429SOL    HW227921   4.501   3.765  14.319  0.7779  1.8391  1.7769
 5430SOL     OW27922   1.994   1.843   2.620 -0.0045  0.0964 -0.0783
 5430SOL    HW127923   2.084   1.815   2.604 -0.8849 -1.3269 -2.4762
 5430SOL    HW227924   1.963   1.852   2.530  0.9672 -1.5426 -0.5756
 5431SOL     OW27925   1.600   0.706   6.379 -0.3571 -0.0187 -0.1435
 5431SOL    HW127926   1.542   0.711   6.456  0.7587  1.4917  0.6009
 5431SOL    HW227927   1.647   0.788   6.398 -0.4194  0.8056 -3.5396
 5432SOL     OW27928   2.882   2.222   1.718  0.3311  0.1459  0.3997
 5432SOL    HW127929   2.846   2.300   1.760 -1.6831  0.3796 -1.8221
 5432SOL    HW227930   2.923   2.180   1.794  3.2519 -0.9393 -1.7564
 5433SOL     OW27931   1.572   0.480   5.836 -0.2711  0.0592 -0.1838
 5433SOL    HW127932   1.540   0.568   5.816 -3.3134 -0.5622  1.9344
 5433SOL    HW227933   1.498   0.440   5.882  1.0791 -1.7567  0.4117
 5434SOL     OW27934   4.474   0.205   3.891 -0.3057 -0.2244  0.5325
 5434SOL    HW127935   4.435   0.252   3.818  1.7012  2.8012  1.4008
 5434SOL    HW227936   4.488   0.118   3.853 -0.3708 -1.0641  2.4249
 5435SOL     OW27937   4.151   4.187  14.813 -0.4606 -0.1724 -0.2652
 5435SOL    HW127938   4.240   4.169  14.843  0.8418  0.3597 -3.9033
 5435SOL    HW227939   4.165   4.226  14.727 -3.4697 -0.1125 -0.7316
 5436SOL     OW27940   1.759   2.898   2.046 -0.0981 -0.3698 -0.2184
 5436SOL    HW127941   1.831   2.961   2.040 -2.2640  2.2506  1.0080
 5436SOL    HW227942   1.743   2.902   2.140  1.0292  0.8039 -0.0760
 5437SOL     OW27943   0.048   0.784   4.933  0.4707  0.0697  0.1261
 5437SOL    HW127944   0.103   0.838   4.990 -0.4386  0.9346  0.1665
 5437SOL    HW227945   0.111   0.715   4.909  0.5940  0.3837 -0.4665
 5438SOL     OW27946   1.949   0.797   2.493 -0.2811  0.0190 -0.0216
 5438SOL    HW127947   1.942   0.771   2.401  0.2509  0.8672 -0.3029
 5438SOL    HW227948   1.979   0.886   2.473 -2.5056  0.5029 -1.3176
 5439SOL     OW27949   3.278   3.243  15.119 -0.7794 -0.0812 -0.4973
 5439SOL    HW127950   3.368   3.259  15.146 -0.2421  0.4215 -2.5265
 5439SOL    HW227951   3.290   3.150  15.102  1.9381  0.2744 -0.4912
 5440SOL     OW27952   0.385   4.092   4.434 -0.5736 -0.2358  0.2859
 5440SOL    HW127953   0.301   4.119   4.471 -0.0930  1.4264  0.1577
 5440SOL    HW227954   0.353   4.074   4.346 -1.4941 -2.2906  1.0359
 5441SOL     OW27955   2.492   2.991   2.797  0.1217  0.1294 -0.9915
 5441SOL    HW127956   2.555   3.064   2.794 -1.0337  1.1594 -0.3089
 5441SOL    HW227957   2.510   2.952   2.883 -0.2416  2.1372  0.0162
 5442SOL     OW27958   1.111   3.240   4.224  0.3930 -0.2676  0.3216
 5442SOL    HW127959   1.103   3.154   4.181 -2.8354  0.8655 -1.3131
 5442SOL    HW227960   1.136   3.297   4.151  0.8853 -2.8402 -1.5641
 5443SOL     OW27961   3.020   1.624   5.198 -0.3846 -0.3115  0.1730
 5443SOL    HW127962   3.051   1.715   5.196 -1.0403 -0.0679  1.6598
 5443SOL    HW227963   2.946   1.634   5.258 -1.1705 -0.3471 -0.7927
 5444SOL     OW27964   2.935   3.033   8.078 -0.2810 -0.1894  0.1482
 5444SOL    HW127965   2.844   3.016   8.053 -0.3381  2.3252 -1.3356
 5444SOL    HW227966   2.978   2.990   8.004 -1.5667 -1.7954  0.3508
 5445SOL     OW27967   0.707   4.371   6.462  0.1179 -0.6846 -0.2450
 5445SOL    HW127968   0.797   4.402   6.477  0.1674 -0.4115 -1.1605
 5445SOL    HW227969   0.669   4.430   6.398  0.6304  0.5036  0.5575
 5446SOL     OW27970   1.298   3.308   9.439  0.4016  0.7254 -0.2299
 5446SOL    HW127971   1.295   3.276   9.529 -0.7437 -0.2731 -0.6206
 5446SOL    HW227972   1.271   3.400   9.443  0.3557  0.6507  1.2575
 5447SOL     OW27973   4.391   0.856  11.291 -0.0822  0.0002 -0.1498
 5447SOL    HW127974   4.436   0.936  11.319  0.7470 -0.0436 -1.3698
 5447SOL    HW227975   4.318   0.849  11.353 -0.0506  1.9758  0.1282
 5448SOL     OW27976   4.619   0.788   2.921  0.0247  0.0023 -0.5893
 5448SOL    HW127977   4.605   0.849   2.848  2.0628  0.9963 -0.1381
 5448SOL    HW227978   4.710   0.810   2.940  0.3401 -0.9787 -0.9743
 5449SOL     OW27979   2.123   2.327   2.058 -0.3997  0.0661 -0.1672
 5449SOL    HW127980   2.059   2.319   2.128  1.6790  2.5161  2.0045
 5449SOL    HW227981   2.064   2.314   1.984 -0.3008  1.7543 -0.5486
 5450SOL     OW27982   4.045   1.966   8.358 -0.3908  0.8555 -0.4650
 5450SOL    HW127983   4.004   1.882   8.376  0.0389  0.6574 -0.4150
 5450SOL    HW227984   4.040   1.969   8.263  0.0297 -1.1616 -0.5463
 5451SOL     OW27985   1.790   4.305   8.292  0.5717 -0.1297  0.8513
 5451SOL    HW127986   1.865   4.267   8.339  1.7031 -0.5157 -1.2731
 5451SOL    HW227987   1.729   4.231   8.293 -0.5538  0.7932 -0.1706
 5452SOL     OW27988   2.383   3.215   2.454 -0.4174 -0.6329 -0.6524
 5452SOL    HW127989   2.433   3.136   2.434  1.1302  0.1618  0.0765
 5452SOL    HW227990   2.323   3.174   2.516 -0.6544  0.0630 -0.4159
 5453SOL     OW27991   4.205   1.511   3.215  0.3529  0.5274 -0.1808
 5453SOL    HW127992   4.120   1.471   3.236  1.6538 -1.7961  0.6891
 5453SOL    HW227993   4.265   1.462   3.271 -0.9147  0.0071  0.7313
 5454SOL     OW27994   2.700   0.453   7.756  0.5718 -0.3314 -0.5115
 5454SOL    HW127995   2.656   0.370   7.741  1.7582 -1.0014 -0.2777
 5454SOL    HW227996   2.753   0.454   7.677  0.2180 -2.6206 -0.7623
 5455SOL     OW27997   2.980   3.012   9.390  0.1681 -0.2776 -0.6351
 5455SOL    HW127998   2.905   2.958   9.366 -0.2888  0.1534 -0.1992
 5455SOL    HW227999   2.959   3.049   9.476  3.7560  0.1828  0.0539
 5456SOL     OW28000   3.229   3.913   2.492  0.6926  0.4651 -0.0793
 5456SOL    HW128001   3.281   3.832   2.490  0.1965  0.1434  0.1413
 5456SOL    HW228002   3.141   3.880   2.475  1.3167 -0.8384 -0.7562
 5457SOL     OW28003   4.583   4.322  10.452 -0.6377 -0.4456 -0.3263
 5457SOL    HW128004   4.555   4.339  10.362 -0.0069 -1.3603 -0.6944
 5457SOL    HW228005   4.675   4.303  10.436 -0.7343 -2.5565  1.7067
 5458SOL     OW28006   3.355   4.642   1.717 -0.1812  0.4069 -0.3952
 5458SOL    HW128007   3.356   4.633   1.622 -1.6414  0.1026 -0.3781
 5458SOL    HW228008   3.263   4.656   1.741  0.1282  2.1250 -0.2341
 5459SOL     OW28009   0.327   0.696  10.239  0.2035  0.5296 -0.1895
 5459SOL    HW128010   0.280   0.620  10.273  2.1633 -0.6275 -0.0691
 5459SOL    HW228011   0.333   0.736  10.326  0.2402 -1.1207  0.5776
 5460SOL     OW28012   3.009   2.284   4.167  0.1016 -0.6214 -0.3513
 5460SOL    HW128013   3.036   2.199   4.200  0.6069 -1.3794 -2.7048
 5460SOL    HW228014   2.926   2.258   4.127  0.4811  0.8638 -2.1073
 5461SOL     OW28015   0.016   4.598  15.097 -0.3722 -0.1340 -0.1213
 5461SOL    HW128016   4.696   4.548  15.158 -0.8075  1.6663  0.9616
 5461SOL    HW228017   0.092   4.601  15.154 -0.0212  1.1301 -0.6444
 5462SOL     OW28018   0.044   1.164   4.077 -0.2755  0.0794  0.2467
 5462SOL    HW128019   4.697   1.114   4.085  1.3514 -2.7918 -1.0593
 5462SOL    HW228020   0.015   1.253   4.054  0.1884  0.2585  0.3661
 5463SOL     OW28021   3.262   3.618  15.724  0.0513  0.1736  0.2693
 5463SOL    HW128022   3.271   3.597  15.631  0.1536  0.0365  0.3102
 5463SOL    HW228023   3.244   3.712  15.723  0.9767  0.3978  2.8646
 5464SOL     OW28024   3.967   2.130   8.570  0.3762  0.1491 -0.1884
 5464SOL    HW128025   3.964   2.076   8.492  2.8430 -2.4228  1.4964
 5464SOL    HW228026   3.910   2.084   8.631  0.0977 -1.2799 -1.5677
 5465SOL     OW28027   0.362   1.762   5.659 -0.0345 -0.6220  0.0940
 5465SOL    HW128028   0.396   1.767   5.570 -1.2900  1.5803 -0.2536
 5465SOL    HW228029   0.439   1.751   5.715  1.1014  0.0815 -1.3260
 5466SOL     OW28030   2.703   3.106  10.358 -0.4108  0.0921  0.1212
 5466SOL    HW128031   2.738   3.098  10.269 -0.3829  0.8351  0.0689
 5466SOL    HW228032   2.682   3.198  10.347  0.3385  0.4174  1.4240
 5467SOL     OW28033   0.010   3.290   5.518 -0.6478  0.1684 -0.4898
 5467SOL    HW128034   0.067   3.230   5.565  0.2280  1.5954  0.2716
 5467SOL    HW228035   4.706   3.234   5.450  0.3719 -1.1089  0.0029
 5468SOL     OW28036   1.067   4.641  12.495 -0.3615 -0.1555  0.4358
 5468SOL    HW128037   1.008   4.715  12.485 -0.7606 -0.7359 -1.5480
 5468SOL    HW228038   1.050   4.594  12.413 -2.4193  1.3780  0.0009
 5469SOL     OW28039   1.753   0.172   6.826 -0.5008  0.5612  0.2678
 5469SOL    HW128040   1.687   0.227   6.785 -0.7091 -0.5993 -0.9623
 5469SOL    HW228041   1.715   0.176   6.914 -0.6999 -0.4568  0.2335
 5470SOL     OW28042   4.415   1.971  11.683  0.2902  0.0079 -0.6103
 5470SOL    HW128043   4.453   1.908  11.622 -1.2364  0.2159 -1.7777
 5470SOL    HW228044   4.432   1.923  11.764 -0.4392  0.8471  0.0384
 5471SOL     OW28045   1.618   2.812  10.595  0.4838  0.5254  0.4470
 5471SOL    HW128046   1.612   2.736  10.537  0.4331 -0.7247  2.1153
 5471SOL    HW228047   1.653   2.780  10.678 -2.8036 -0.2521  1.5341
 5472SOL     OW28048   1.585   3.758   3.799 -0.4556 -0.0874 -0.4475
 5472SOL    HW128049   1.651   3.804   3.746 -2.6798  0.5997 -2.5936
 5472SOL    HW228050   1.631   3.675   3.811 -0.8475 -0.5349 -2.0903
 5473SOL     OW28051   3.364   3.001   9.196  0.6135  0.0293 -0.0514
 5473SOL    HW128052   3.454   2.971   9.179  0.8471  1.4134 -1.2227
 5473SOL    HW228053   3.342   3.046   9.115  1.7924  1.0195  0.1828
 5474SOL     OW28054   1.258   1.059   7.256 -0.3164  0.2219 -0.5857
 5474SOL    HW128055   1.283   1.131   7.314  0.8382 -1.7290  1.3528
 5474SOL    HW228056   1.175   1.045   7.302 -1.0405 -2.3505 -2.7240
 5475SOL     OW28057   3.094   1.663   0.764 -0.3269  0.0109  0.4855
 5475SOL    HW128058   3.090   1.614   0.846  3.6550 -0.8638  0.1129
 5475SOL    HW228059   3.035   1.739   0.773 -1.9162 -1.2676  0.8613
 5476SOL     OW28060   0.139   0.406   2.740  0.0667  0.3322  0.5765
 5476SOL    HW128061   0.104   0.326   2.780 -0.0685 -0.7411 -1.6871
 5476SOL    HW228062   0.119   0.468   2.811 -0.0939  0.5907  0.3054
 5477SOL     OW28063   1.199   3.226   0.845  0.0206  0.2277 -0.1726
 5477SOL    HW128064   1.181   3.306   0.896  0.2824  0.5236 -0.5488
 5477SOL    HW228065   1.283   3.199   0.879  0.8480  2.7636 -0.1766
 5478SOL     OW28066   3.755   0.731   2.498  0.5714  0.0811  0.0335
 5478SOL    HW128067   3.843   0.750   2.530  0.4382  0.6928  0.0420
 5478SOL    HW228068   3.731   0.818   2.467  0.5069  0.3825  0.9209
 5479SOL     OW28069   4.516   2.114  10.100 -0.4104 -0.6770  0.3417
 5479SOL    HW128070   4.463   2.162  10.036 -0.8825 -0.0676  1.2052
 5479SOL    HW228071   4.602   2.110  10.057  0.1295  0.3697  1.3266
 5480SOL     OW28072   2.733   4.682  16.373  0.1143 -0.4888 -0.1267
 5480SOL    HW128073   2.716   4.605  16.319 -1.7511  0.8332 -1.4352
 5480SOL    HW228074   2.807   4.724  16.329 -2.9591  3.1510 -1.8159
 5481SOL     OW28075   0.481   1.140   9.262  0.1658  0.3052  0.1815
 5481SOL    HW128076   0.463   1.127   9.354  0.7200 -2.2683 -0.0799
 5481SOL    HW228077   0.403   1.096   9.229  0.3929 -0.2787  0.4372
 5482SOL     OW28078   3.724   2.515   8.416 -1.0707 -0.2370  0.5072
 5482SOL    HW128079   3.776   2.566   8.477 -1.3937  1.9293 -1.0421
 5482SOL    HW228080   3.788   2.445   8.407 -1.1984 -0.1914 -0.7345
 5483SOL     OW28081   4.122   1.215   2.903  0.5835 -0.1748  0.2491
 5483SOL    HW128082   4.048   1.193   2.961  0.0536  0.1131 -0.3141
 5483SOL    HW228083   4.135   1.123   2.878  0.4566  0.3571 -1.7452
 5484SOL     OW28084   1.471   1.891   7.444 -0.2516  0.1424  0.2135
 5484SOL    HW128085   1.504   1.850   7.364 -0.0670 -0.5747  0.6547
 5484SOL    HW228086   1.400   1.948   7.415  0.5804  1.3214  0.5065
 5485SOL     OW28087   2.350   0.069   4.416  0.3648 -0.2926 -0.4551
 5485SOL    HW128088   2.287   0.015   4.369 -2.6709  2.8168  0.0980
 5485SOL    HW228089   2.399   4.734   4.460  2.8047  0.9240 -1.2546
 5486SOL     OW28090   1.736   1.019   1.793  0.1277  0.3224 -0.1499
 5486SOL    HW128091   1.816   1.070   1.805 -0.9760  2.5180 -2.0954
 5486SOL    HW228092   1.779   0.937   1.769 -1.2689 -0.5466  0.3000
 5487SOL     OW28093   4.333   3.111   6.632  0.7180  0.1785 -0.3797
 5487SOL    HW128094   4.295   3.198   6.640  0.3241  0.1950 -2.3883
 5487SOL    HW228095   4.248   3.069   6.615  0.4519  0.8674 -0.7409
 5488SOL     OW28096   2.646   1.280  16.169 -0.2932  0.4769 -0.1011
 5488SOL    HW128097   2.611   1.309  16.085  0.7666  0.5572 -0.5204
 5488SOL    HW228098   2.646   1.185  16.152  2.7709  0.5789 -0.6952
 5489SOL     OW28099   3.658   0.018  12.130  0.0948 -0.8368  0.4672
 5489SOL    HW128100   3.577   0.004  12.179  0.3141 -0.4704  0.9233
 5489SOL    HW228101   3.649   0.105  12.090  1.5601 -1.5153 -1.3728
 5490SOL     OW28102   2.049   0.597  12.192  0.2635 -0.0952  0.5587
 5490SOL    HW128103   2.064   0.691  12.204  0.6830 -0.2618  1.3156
 5490SOL    HW228104   2.116   0.560  12.250  0.1225 -1.2735 -0.0276
 5491SOL     OW28105   3.412   0.329   8.231 -0.0699 -0.0598 -0.0928
 5491SOL    HW128106   3.469   0.367   8.164 -0.5942  0.1465 -0.4204
 5491SOL    HW228107   3.375   0.410   8.267  1.2465 -0.0383  1.2135
 5492SOL     OW28108   3.708   1.448   7.197 -0.1083 -0.0212 -0.3339
 5492SOL    HW128109   3.713   1.374   7.136  1.5113 -0.0488 -0.1700
 5492SOL    HW228110   3.769   1.426   7.267 -1.3962  0.9154  1.0715
 5493SOL     OW28111   2.258   0.010   5.537 -0.6299  0.1190  0.7431
 5493SOL    HW128112   2.211   4.661   5.529 -0.1402  0.1023 -1.7853
 5493SOL    HW228113   2.300   0.018   5.452 -0.5607  3.6950  1.0865
 5494SOL     OW28114   1.574   1.316   6.673  0.0330  0.3299  0.0275
 5494SOL    HW128115   1.480   1.332   6.675  0.0562  0.9204 -3.7631
 5494SOL    HW228116   1.602   1.330   6.764 -0.2612 -1.3526  0.3723
 5495SOL     OW28117   3.914   0.607   6.329 -0.2968 -0.0621 -0.5975
 5495SOL    HW128118   3.908   0.532   6.388 -0.8741  1.1722  0.9110
 5495SOL    HW228119   3.832   0.612   6.279 -1.0739 -0.0688  0.6427
 5496SOL     OW28120   0.511   3.408   5.149  0.4518  0.3404 -0.3006
 5496SOL    HW128121   0.424   3.371   5.141  0.3838  0.3232  0.5016
 5496SOL    HW228122   0.498   3.458   5.230 -0.6647 -0.0412 -0.2443
 5497SOL     OW28123   0.821   2.492   8.950  0.7431 -0.3710 -0.1741
 5497SOL    HW128124   0.735   2.458   8.973  1.2608 -0.6884  1.3232
 5497SOL    HW228125   0.849   2.427   8.886 -2.7667 -1.1999 -0.8692
 5498SOL     OW28126   0.434   1.461  12.467  0.3481  0.0680 -0.0208
 5498SOL    HW128127   0.359   1.412  12.501  0.0318 -1.0984 -2.3796
 5498SOL    HW228128   0.510   1.411  12.497 -0.0445 -1.0205 -0.8516
 5499SOL     OW28129   0.057   4.440   4.703  0.2882 -0.2282 -0.7677
 5499SOL    HW128130   0.006   4.477   4.775 -0.1234 -0.8738 -0.7285
 5499SOL    HW228131   4.732   4.405   4.637 -0.3354  0.2188 -0.4462
 5500SOL     OW28132   2.861   3.971   3.140  0.7212 -0.6548 -0.4765
 5500SOL    HW128133   2.843   4.047   3.196 -3.0552 -0.6363 -1.6834
 5500SOL    HW228134   2.830   4.004   3.055  2.4871 -0.3597 -1.0050
 5501SOL     OW28135   4.460   0.029  17.409 -0.0269  0.0771  0.9267
 5501SOL    HW128136   4.475   4.695  17.343  0.7743 -0.6830  1.8812
 5501SOL    HW228137   4.528   4.731  17.468  0.1965  2.4193  1.9229
 5502SOL     OW28138   3.978   2.394   4.739 -0.5787  0.2213 -0.0058
 5502SOL    HW128139   4.063   2.386   4.783 -0.6170  2.0877  0.4072
 5502SOL    HW228140   3.940   2.469   4.785 -0.7515 -0.3676  0.8114
 5503SOL     OW28141   0.548   0.653   2.739 -0.0529 -0.8484 -0.3298
 5503SOL    HW128142   0.540   0.748   2.730 -0.3592 -0.8494 -0.0913
 5503SOL    HW228143   0.517   0.630   2.651  1.7117  1.3758 -1.5344
 5504SOL     OW28144   4.627   1.756   5.812 -0.2733  0.3730 -0.2000
 5504SOL    HW128145   4.591   1.840   5.782  1.0442  0.2512 -2.0931
 5504SOL    HW228146   4.686   1.735   5.740  1.1311  1.6890  0.5640
 5505SOL     OW28147   2.509   1.213   9.991 -0.2422 -0.5134  0.3310
 5505SOL    HW128148   2.432   1.267   9.976 -0.6348 -1.6968 -1.9380
 5505SOL    HW228149   2.474   1.124  10.006  3.0854 -1.6823  1.1571
 5506SOL     OW28150   3.771   4.710   2.943 -0.2695  0.1494  0.3411
 5506SOL    HW128151   3.830   0.050   2.955  0.8352 -0.6936  0.0725
 5506SOL    HW228152   3.823   4.643   2.986  2.0368  0.5210 -1.9287
 5507SOL     OW28153   2.981   2.328  16.652 -0.5254 -0.1234 -0.2490
 5507SOL    HW128154   3.020   2.292  16.572 -0.2802  0.3711 -0.3531
 5507SOL    HW228155   2.891   2.349  16.629 -0.6046  0.2853  0.4386
 5508SOL     OW28156   0.767   2.789   2.993  0.7052  0.3608 -0.2204
 5508SOL    HW128157   0.704   2.775   2.923  0.9140 -1.0580 -0.1302
 5508SOL    HW228158   0.846   2.767   2.944  0.9358 -1.5004  0.9540
 5509SOL     OW28159   1.678   0.563   0.570  0.3153  0.2014 -0.1219
 5509SOL    HW128160   1.724   0.642   0.544  1.7487 -0.3241  0.8349
 5509SOL    HW228161   1.625   0.596   0.643 -0.4699  0.1158 -0.6553
 5510SOL     OW28162   0.691   2.189  14.231 -0.2151  0.6004  0.1170
 5510SOL    HW128163   0.604   2.197  14.192 -0.9607  1.1611  1.9130
 5510SOL    HW228164   0.682   2.171  14.324  1.1303  0.3156  0.1941
 5511SOL     OW28165   2.516   1.101   2.327  0.0350 -0.2977 -0.4223
 5511SOL    HW128166   2.517   1.101   2.232 -0.9517 -1.0077 -0.4379
 5511SOL    HW228167   2.571   1.177   2.346  0.5282 -0.5747 -0.7535
 5512SOL     OW28168   2.191   4.128  13.299 -0.2299  0.2453  0.1199
 5512SOL    HW128169   2.187   4.107  13.206 -1.2391 -0.9022  0.4197
 5512SOL    HW228170   2.097   4.132  13.318  0.0972  2.9249  1.1684
 5513SOL     OW28171   1.938   1.470   3.361  0.0582  0.2927 -0.2333
 5513SOL    HW128172   1.860   1.433   3.321 -0.7157  2.1223 -0.3981
 5513SOL    HW228173   2.003   1.443   3.296 -0.8481  1.1030 -1.4671
 5514SOL     OW28174   0.839   2.027   8.708 -0.4253  0.1617  1.0099
 5514SOL    HW128175   0.748   2.056   8.717 -0.5719  0.3822 -1.3108
 5514SOL    HW228176   0.890   2.097   8.750  0.8391  2.1865 -3.9887
 5515SOL     OW28177   2.315   3.509   7.787 -0.2665 -0.2370  0.0512
 5515SOL    HW128178   2.279   3.425   7.758  0.0033 -0.6236  0.8360
 5515SOL    HW228179   2.272   3.568   7.724 -0.4801  0.4985  0.8970
 5516SOL     OW28180   0.549   1.174   2.693  0.1931  0.6344  0.4428
 5516SOL    HW128181   0.489   1.248   2.689 -1.6694 -0.8360  1.1349
 5516SOL    HW228182   0.632   1.222   2.704  0.3994  0.3838 -0.0225
 5517SOL     OW28183   0.540   0.208  16.211 -0.7521  0.4430 -0.4847
 5517SOL    HW128184   0.541   0.299  16.239 -1.4089 -0.0207  1.0199
 5517SOL    HW228185   0.450   0.188  16.234 -0.9168 -0.7557 -2.1075
 5518SOL     OW28186   4.593   3.367  16.696  0.4363  0.1728 -0.5640
 5518SOL    HW128187   4.528   3.390  16.762  0.4976 -0.5102 -0.2701
 5518SOL    HW228188   4.543   3.297  16.654  0.1374  0.6991 -1.1050
 5519SOL     OW28189   3.734   4.580  10.021 -0.1702 -0.2033 -0.8117
 5519SOL    HW128190   3.718   4.518  10.092  2.7806  1.1436  1.0230
 5519SOL    HW228191   3.824   4.602  10.045 -0.9287  1.8087  0.1825
 5520SOL     OW28192   0.351   1.795  15.011 -0.2610 -0.0533 -0.2804
 5520SOL    HW128193   0.365   1.731  15.080 -0.8250 -0.1437 -0.2522
 5520SOL    HW228194   0.291   1.861  15.046  1.9336  0.5941  2.2596
 5521SOL     OW28195   0.355   4.692   7.858  0.2862 -0.6153  0.0206
 5521SOL    HW128196   0.371   0.050   7.879 -1.6259 -0.0116 -1.1417
 5521SOL    HW228197   0.312   4.693   7.772 -1.6987 -0.9301  1.0174
 5522SOL     OW28198   4.607   2.401   8.470  0.1993  0.2480  0.3273
 5522SOL    HW128199   4.660   2.417   8.392  1.6863 -0.3683  1.2315
 5522SOL    HW228200   4.630   2.484   8.512 -0.5137  1.1400 -1.0424
 5523SOL     OW28201   1.691   2.297  16.294  0.4386 -0.3777  0.3570
 5523SOL    HW128202   1.750   2.372  16.291 -0.6869  0.6229  2.9480
 5523SOL    HW228203   1.751   2.234  16.333  1.1496  1.3445  2.0699
 5524SOL     OW28204   2.964   0.805  13.174 -0.3055  0.0507 -0.2172
 5524SOL    HW128205   2.975   0.841  13.086  1.2766 -0.1178 -0.0817
 5524SOL    HW228206   2.873   0.776  13.166 -0.6522  0.6365  1.5305
 5525SOL     OW28207   4.038   1.735   5.303  0.1627 -0.0106  0.0034
 5525SOL    HW128208   3.994   1.655   5.273  0.2139 -0.7794  1.9215
 5525SOL    HW228209   4.123   1.709   5.340 -0.4089  0.2138  1.4637
 5526SOL     OW28210   4.326   3.396   0.157  0.6803 -0.2307  0.0015
 5526SOL    HW128211   4.315   3.304   0.133  0.4379 -0.7541  2.1177
 5526SOL    HW228212   4.365   3.434   0.078  0.9832 -0.5399  0.0030
 5527SOL     OW28213   2.883   4.179   6.036  0.2691 -0.1492  0.9181
 5527SOL    HW128214   2.788   4.183   6.050 -0.1419  1.2853 -2.4147
 5527SOL    HW228215   2.892   4.268   6.001  4.0171 -1.3117 -0.9709
 5528SOL     OW28216   4.141   3.194   8.417  0.0249  0.2056  0.2248
 5528SOL    HW128217   4.088   3.159   8.488  0.0094 -1.2234 -0.4889
 5528SOL    HW228218   4.104   3.141   8.346 -0.1994 -1.5356  1.6584
 5529SOL     OW28219   0.551   1.181   6.015  0.3485  0.0686  0.1559
 5529SOL    HW128220   0.469   1.226   5.996  0.0403 -0.1051  1.0720
 5529SOL    HW228221   0.575   1.144   5.930 -1.4429 -2.1526  0.6338
 5530SOL     OW28222   1.739   3.719   0.625  0.7112  0.1120 -0.3851
 5530SOL    HW128223   1.719   3.812   0.616  1.2596  0.3278  0.6385
 5530SOL    HW228224   1.720   3.701   0.533  1.4538 -1.1310 -0.2867
 5531SOL     OW28225   2.404   3.807   8.018 -0.1027  0.6371 -0.0903
 5531SOL    HW128226   2.380   3.801   7.926  0.3381  4.7091 -0.4636
 5531SOL    HW228227   2.464   3.732   8.019 -0.9445 -0.1197 -4.5010
 5532SOL     OW28228   2.759   3.281   8.249  0.3011  0.5479 -0.2243
 5532SOL    HW128229   2.826   3.298   8.183  0.1327  0.5349 -0.3977
 5532SOL    HW228230   2.805   3.265   8.331  0.2725 -1.8142 -0.6622
 5533SOL     OW28231   0.665   3.575   2.637  1.1631 -0.2173 -0.5402
 5533SOL    HW128232   0.655   3.622   2.720 -0.8028 -3.0989  0.8685
 5533SOL    HW228233   0.760   3.578   2.628  1.2803 -1.7073  0.3282
 5534SOL     OW28234   2.808   3.949   1.134  0.0159  0.0131 -0.2667
 5534SOL    HW128235   2.712   3.956   1.129 -0.0350  0.5655  1.3491
 5534SOL    HW228236   2.817   3.856   1.154 -0.6508 -0.4222 -1.9879
 5535SOL     OW28237   3.175   2.831   9.308 -0.1940  0.1564  0.9281
 5535SOL    HW128238   3.122   2.878   9.372  0.5923 -0.0161  1.7132
 5535SOL    HW228239   3.214   2.908   9.266 -0.1342 -0.7634 -0.6952
 5536SOL     OW28240   2.320   4.625   4.889 -0.3803 -0.5432 -0.5030
 5536SOL    HW128241   2.398   4.679   4.906  0.4953 -1.5885 -1.2273
 5536SOL    HW228242   2.369   4.547   4.863  3.4240  1.5051  0.4678
 5537SOL     OW28243   1.675   4.087   0.127  0.2750  0.2593 -0.2452
 5537SOL    HW128244   1.720   4.170   0.115 -0.7939  0.8909  0.0975
 5537SOL    HW228245   1.737   4.029   0.170 -0.7738 -0.7469 -0.0793
 5538SOL     OW28246   2.170   2.283   5.442 -0.2038 -0.0146  0.1499
 5538SOL    HW128247   2.215   2.368   5.448  2.7181 -1.3695 -2.6265
 5538SOL    HW228248   2.100   2.304   5.504  0.8167 -0.7519  1.5599
 5539SOL     OW28249   4.671   1.420   4.279 -0.0965 -0.3706  0.2517
 5539SOL    HW128250   4.706   1.432   4.191  0.5818 -1.0325  0.4308
 5539SOL    HW228251   4.699   1.505   4.313 -0.3875 -0.0298 -0.3628
 5540SOL     OW28252   3.718   4.339   2.025 -0.4367  0.2919  0.0952
 5540SOL    HW128253   3.706   4.336   2.119 -0.3174 -0.6428  0.0779
 5540SOL    HW228254   3.813   4.331   2.020 -0.3347  0.4727  1.7816
 5541SOL     OW28255   3.763   3.034   6.809  0.3717  0.1635  0.0117
 5541SOL    HW128256   3.753   3.088   6.731  1.4147 -1.4492 -1.2442
 5541SOL    HW228257   3.728   2.949   6.781 -1.5864  0.3108  2.0126
 5542SOL     OW28258   1.959   2.303   1.787  0.1064 -0.6215 -0.7748
 5542SOL    HW128259   2.000   2.371   1.733  1.3301 -0.9819 -0.2968
 5542SOL    HW228260   1.869   2.335   1.792 -0.0810 -1.0685 -1.2671
 5543SOL     OW28261   4.554   1.960   6.714  0.1399  0.4797 -0.2110
 5543SOL    HW128262   4.475   1.958   6.660 -0.6955 -2.1465  1.1446
 5543SOL    HW228263   4.566   1.866   6.728  0.9732  0.7701  1.0567
 5544SOL     OW28264   3.482   2.464   4.546  0.6272 -0.0541  0.3689
 5544SOL    HW128265   3.568   2.474   4.504 -0.4754  0.2862 -1.8019
 5544SOL    HW228266   3.490   2.496   4.636 -0.4543 -1.8990  1.1102
 5545SOL     OW28267   3.914   1.697   3.133 -0.5903 -0.1534 -0.0380
 5545SOL    HW128268   3.934   1.768   3.194  1.0230  0.3405 -1.1361
 5545SOL    HW228269   3.829   1.728   3.100 -1.1815  0.2200  1.7922
 5546SOL     OW28270   0.009   0.958  11.591 -0.1452 -0.5220  0.3221
 5546SOL    HW128271   0.027   1.039  11.639  1.7260  1.0459 -2.9771
 5546SOL    HW228272   0.064   0.902  11.646  1.7579  0.0892 -0.9180
 5547SOL     OW28273   1.332   2.128   7.380 -0.0737  0.1156  0.3648
 5547SOL    HW128274   1.269   2.162   7.317  1.7656 -0.6665 -1.9238
 5547SOL    HW228275   1.318   2.180   7.459  0.4909  2.7127 -1.2475
 5548SOL     OW28276   2.305   0.302  11.422  0.6423 -0.2212 -0.0708
 5548SOL    HW128277   2.373   0.241  11.453  1.4326  1.4044  1.3416
 5548SOL    HW228278   2.269   0.321  11.508 -0.2962 -0.6165 -0.3730
 5549SOL     OW28279   3.227   4.429   3.660 -0.4462  0.1328 -0.4059
 5549SOL    HW128280   3.254   4.484   3.587  2.2891 -1.4067 -0.5430
 5549SOL    HW228281   3.132   4.423   3.646 -0.4841  0.3697 -0.2451
 5550SOL     OW28282   1.452   2.231   3.932  0.1128 -0.2629  0.0166
 5550SOL    HW128283   1.395   2.198   4.002 -1.1823 -1.7055 -1.7139
 5550SOL    HW228284   1.519   2.282   3.979  0.5625  0.1953 -1.1277
 5551SOL     OW28285   2.942   2.673   5.196 -0.0439  0.0533 -0.2951
 5551SOL    HW128286   2.947   2.764   5.165  0.2889  0.5333  1.1639
 5551SOL    HW228287   2.852   2.651   5.172  0.5010 -1.9480 -0.4653
 5552SOL     OW28288   3.416   4.096   2.068  0.0257 -0.8374  0.3898
 5552SOL    HW128289   3.445   4.187   2.080 -0.8610 -1.1963  5.3811
 5552SOL    HW228290   3.473   4.050   2.129 -0.3962  1.1915  2.3201
 5553SOL     OW28291   0.040   0.573  10.600 -0.3258  0.2584  0.1186
 5553SOL    HW128292   0.049   0.552  10.507  3.7650  0.6650  0.4044
 5553SOL    HW228293   4.684   0.551  10.623  0.0259 -0.5130  0.7474
 5554SOL     OW28294   1.732   4.260   6.257  0.1905  0.0635 -0.3791
 5554SOL    HW128295   1.768   4.196   6.195 -0.4388 -1.9022  1.3142
 5554SOL    HW228296   1.772   4.339   6.221  1.1824 -0.6030 -0.7633
 5555SOL     OW28297   1.517   0.101   5.109  0.1701  0.0558  0.5760
 5555SOL    HW128298   1.478   0.067   5.190  0.5761 -2.4615 -0.2969
 5555SOL    HW228299   1.591   0.040   5.110 -0.2323 -0.4428 -0.4917
 5556SOL     OW28300   2.970   1.770   4.704  0.3395  0.1644 -0.0439
 5556SOL    HW128301   2.904   1.836   4.725  1.8724  1.2736  1.2758
 5556SOL    HW228302   2.923   1.724   4.635  0.7025  0.1270 -0.2666
 5557SOL     OW28303   0.411   0.364   4.865 -0.5854  0.3947 -0.9044
 5557SOL    HW128304   0.383   0.282   4.825 -1.9526  0.6585 -0.4966
 5557SOL    HW228305   0.487   0.336   4.916 -1.4294 -0.0672  0.1287
 5558SOL     OW28306   0.023   1.408   5.894 -0.6369  0.1154  0.0227
 5558SOL    HW128307   4.708   1.472   5.945  3.6278  0.7405  3.4157
 5558SOL    HW228308   0.071   1.469   5.839 -1.5792 -0.0126 -0.9302
 5559SOL     OW28309   3.082   3.271   1.557 -0.0838 -0.2637  0.2783
 5559SOL    HW128310   3.043   3.198   1.605  0.8715 -0.2749  1.0503
 5559SOL    HW228311   3.005   3.324   1.539 -0.2344 -1.1039 -1.5316
 5560SOL     OW28312   3.472   4.481  14.854  0.4240 -0.4072 -0.2164
 5560SOL    HW128313   3.494   4.391  14.878  0.9315  0.1109  1.2488
 5560SOL    HW228314   3.439   4.454  14.768 -0.1197  1.8082 -0.6949
 5561SOL     OW28315   4.515   0.478   4.147 -0.2437 -0.3445  0.3155
 5561SOL    HW128316   4.469   0.396   4.166 -0.3973 -0.3524 -0.0801
 5561SOL    HW228317   4.591   0.451   4.095  0.7412  0.6954  1.2048
 5562SOL     OW28318   2.074   0.791   5.305  0.4154 -0.1126 -0.4379
 5562SOL    HW128319   2.120   0.750   5.379  0.7305 -1.3177 -1.2925
 5562SOL    HW228320   2.088   0.885   5.318  0.6480 -0.2728  0.5074
 5563SOL     OW28321   0.104   4.313   2.391 -0.2261  0.0548  0.0718
 5563SOL    HW128322   0.068   4.401   2.379 -0.3745 -0.3026 -2.0664
 5563SOL    HW228323   0.067   4.289   2.476 -2.5791  0.2505 -0.8888
 5564SOL     OW28324   1.064   3.231   9.312 -0.6043  0.8295 -0.3509
 5564SOL    HW128325   1.000   3.185   9.367 -1.4994  0.9688 -1.2738
 5564SOL    HW228326   1.138   3.251   9.369 -1.8677  3.0203  0.5396
 5565SOL     OW28327   0.110   0.457   9.471 -0.3921 -0.3166  0.3796
 5565SOL    HW128328   0.107   0.545   9.434  0.7348 -0.3996  0.0942
 5565SOL    HW228329   0.195   0.464   9.515  0.0181  0.7690 -0.5758
 5566SOL     OW28330   0.223   3.874   0.180  0.2679 -0.1593  0.6615
 5566SOL    HW128331   0.312   3.840   0.170  0.0752 -1.0766  2.0210
 5566SOL    HW228332   0.175   3.803   0.223  1.8182 -1.1915  0.6860
 5567SOL     OW28333   1.301   2.537   9.659  0.1298 -0.2096 -0.1498
 5567SOL    HW128334   1.331   2.462   9.711  0.3565 -2.7309 -3.9316
 5567SOL    HW228335   1.382   2.560   9.613  0.0671  0.0926 -0.1061
 5568SOL     OW28336   1.277   3.888  15.223 -0.3987 -0.0633 -0.1276
 5568SOL    HW128337   1.202   3.863  15.277  0.5000  1.6716  1.9321
 5568SOL    HW228338   1.253   3.846  15.140  0.4687 -0.4594 -0.1782
 5569SOL     OW28339   1.926   2.917   8.509  0.5308 -0.4447  0.1192
 5569SOL    HW128340   1.904   2.844   8.451  0.6651 -0.5758  0.2326
 5569SOL    HW228341   1.940   2.868   8.590  0.0582 -0.4976  0.1690
 5570SOL     OW28342   2.776   4.529   8.043  0.6374 -0.0345 -0.1464
 5570SOL    HW128343   2.807   4.470   8.112  0.0708 -0.2212 -0.0548
 5570SOL    HW228344   2.683   4.510   8.057  0.5131  0.6276 -0.0454
 5571SOL     OW28345   4.670   2.899   3.261 -0.2696  0.1078 -0.2323
 5571SOL    HW128346   4.637   2.929   3.176  0.0451 -0.9540 -0.7285
 5571SOL    HW228347   4.607   2.830   3.283  1.1474 -1.8944 -2.4263
 5572SOL     OW28348   0.571   1.222  16.814 -0.4567  0.4682 -0.4659
 5572SOL    HW128349   0.498   1.251  16.869  0.4319  0.4000  0.7361
 5572SOL    HW228350   0.517   1.167  16.756  1.7795 -2.1984 -0.0010
 5573SOL     OW28351   3.739   2.104   4.051 -0.0709  0.1563 -0.1242
 5573SOL    HW128352   3.644   2.094   4.051 -0.0593  0.0467  1.0952
 5573SOL    HW228353   3.766   2.027   4.002  0.3717 -0.2443  0.7465
 5574SOL     OW28354   1.379   0.941   3.820  0.1450  0.1893 -0.5005
 5574SOL    HW128355   1.367   0.917   3.912  0.6397  1.2129 -0.1630
 5574SOL    HW228356   1.468   0.977   3.816  0.1367 -0.1331 -3.3722
 5575SOL     OW28357   2.144   4.040   3.743  0.0104  0.4513 -0.4423
 5575SOL    HW128358   2.229   4.059   3.704  0.7624 -1.3814  0.2868
 5575SOL    HW228359   2.159   4.068   3.833  2.6786 -1.0488 -0.4057
 5576SOL     OW28360   0.706   0.077  11.647 -0.7271  0.5127 -0.3963
 5576SOL    HW128361   0.723   0.135  11.721 -0.4279  1.7708 -1.4489
 5576SOL    HW228362   0.692   0.147  11.583  1.5128  0.4776 -0.9256
 5577SOL     OW28363   3.841   0.554   2.888  0.2748  0.4000  0.0848
 5577SOL    HW128364   3.884   0.515   2.965  1.5984  0.2744 -0.7193
 5577SOL    HW228365   3.845   0.648   2.905 -0.3855  0.6607 -1.2021
 5578SOL     OW28366   3.544   1.649   6.276 -0.1498  0.2444 -0.0782
 5578SOL    HW128367   3.601   1.619   6.347 -0.3410  1.8333  0.7271
 5578SOL    HW228368   3.526   1.573   6.220  2.2785 -0.2080 -0.2594
 5579SOL     OW28369   2.946   0.225   5.223 -0.0335 -0.9481  0.0619
 5579SOL    HW128370   2.927   0.183   5.139 -0.4689  0.5031 -0.5681
 5579SOL    HW228371   2.870   0.283   5.229  1.0288  0.6006 -1.3804
 5580SOL     OW28372   4.280   2.914   8.294 -0.5524 -0.4388  0.3926
 5580SOL    HW128373   4.314   2.917   8.204  1.2741 -0.9402  1.0656
 5580SOL    HW228374   4.192   2.951   8.288  0.6345  2.3113 -0.4015
 5581SOL     OW28375   0.728   3.839   3.178 -0.0292 -0.7307 -0.3286
 5581SOL    HW128376   0.723   3.898   3.253  1.7294  0.5375 -1.2177
 5581SOL    HW228377   0.637   3.812   3.166 -0.3012  0.4278 -0.8651
 5582SOL     OW28378   0.200   0.093   3.130 -0.2261  0.3914 -0.3012
 5582SOL    HW128379   0.239   0.021   3.080  1.1485  0.7952  0.1890
 5582SOL    HW228380   0.160   0.034   3.194  0.0665  0.1245 -0.3648
 5583SOL     OW28381   2.698   4.730   4.267 -0.3572 -1.6210 -0.2720
 5583SOL    HW128382   2.745   4.656   4.230  0.8822 -1.8598  1.7743
 5583SOL    HW228383   2.611   4.690   4.274 -1.2583  0.4323  0.3709
 5584SOL     OW28384   3.725   1.445   2.067 -1.0094  0.8140  0.6045
 5584SOL    HW128385   3.641   1.469   2.028 -0.2643  1.8817 -0.3763
 5584SOL    HW228386   3.710   1.361   2.109 -1.1535  1.3756  1.6658
 5585SOL     OW28387   1.803   0.230   1.802 -0.3633  0.7242 -0.1103
 5585SOL    HW128388   1.775   0.283   1.728 -1.9970 -0.2972 -0.2126
 5585SOL    HW228389   1.740   0.263   1.866  0.3492  1.0111  0.4461
 5586SOL     OW28390   3.092   2.884   4.086 -0.2148 -0.0629  0.3488
 5586SOL    HW128391   3.185   2.864   4.081 -0.1734  0.3153 -0.3212
 5586SOL    HW228392   3.053   2.827   4.020 -1.1189  0.7771  0.1601
 5587SOL     OW28393   0.854   1.048   6.993  0.4345  0.1780 -0.1272
 5587SOL    HW128394   0.800   1.118   7.028 -0.2150 -0.1409 -0.4991
 5587SOL    HW228395   0.870   0.993   7.071 -1.0624 -0.3013 -0.1691
 5588SOL     OW28396   2.026   3.172   8.436 -0.2771  0.0217 -0.0422
 5588SOL    HW128397   1.981   3.088   8.449 -3.1303  1.6555  0.6707
 5588SOL    HW228398   2.044   3.163   8.343 -0.5357  3.3839 -0.4041
 5589SOL     OW28399   3.922   0.372  12.963 -1.0084  1.0765 -0.2297
 5589SOL    HW128400   3.915   0.291  13.015  0.5082  0.6527 -0.6746
 5589SOL    HW228401   3.930   0.433  13.036 -1.5682  2.1168 -1.0544
 5590SOL     OW28402   2.476   3.971   9.126 -0.5546 -0.0611 -0.1714
 5590SOL    HW128403   2.380   3.969   9.129 -0.5604  0.7869  0.1730
 5590SOL    HW228404   2.499   3.893   9.075 -0.1524 -0.2449  0.2899
 5591SOL     OW28405   3.010   2.116  14.402 -0.4847  0.1228  0.8017
 5591SOL    HW128406   2.937   2.094  14.460  0.4899  0.2094  2.0606
 5591SOL    HW228407   2.980   2.207  14.397  4.3721  1.6909  0.0310
 5592SOL     OW28408   3.929   1.466  13.724  0.0297  0.0536  0.2754
 5592SOL    HW128409   3.842   1.472  13.765  0.1045 -2.2378  0.8145
 5592SOL    HW228410   3.895   1.423  13.646  1.2904  1.4053 -0.9947
 5593SOL     OW28411   4.067   1.416   9.561 -0.4218 -0.2937  0.3644
 5593SOL    HW128412   4.006   1.348   9.590 -0.1661 -0.6925 -0.0602
 5593SOL    HW228413   4.005   1.487   9.542 -0.9797 -1.4043 -1.8467
 5594SOL     OW28414   4.334   2.353   8.573 -0.4325 -0.1643  0.1200
 5594SOL    HW128415   4.425   2.384   8.574 -0.5650  0.2039  1.1866
 5594SOL    HW228416   4.339   2.272   8.623 -0.8685  0.0390  0.4912
 5595SOL     OW28417   3.744   1.007   4.603 -0.1178 -0.3460  0.7158
 5595SOL    HW128418   3.824   1.058   4.607 -0.2738  0.0016 -0.7081
 5595SOL    HW228419   3.717   0.994   4.694  0.3661  0.9403  1.0366
 5596SOL     OW28420   3.467   3.424   4.498  0.4185  0.1099 -0.1741
 5596SOL    HW128421   3.516   3.481   4.439  1.7093 -0.7728  0.0597
 5596SOL    HW228422   3.396   3.386   4.447  0.5585  0.9678 -1.0131
 5597SOL     OW28423   2.865   0.773   0.474 -0.2942  0.2669 -0.2003
 5597SOL    HW128424   2.846   0.865   0.455  0.4964  0.0195 -2.2031
 5597SOL    HW228425   2.914   0.779   0.556 -1.6087 -0.7484  0.6498
 5598SOL     OW28426   3.377   1.839   8.766  0.2640  0.5229  0.1078
 5598SOL    HW128427   3.342   1.782   8.834  1.4349  0.8611  0.9944
 5598SOL    HW228428   3.426   1.896   8.825 -1.1965  2.6775 -0.7805
 5599SOL     OW28429   0.002   3.593   1.253  0.5956  0.1996  0.7572
 5599SOL    HW128430   4.692   3.660   1.201 -0.5162 -0.2140  1.1600
 5599SOL    HW228431   4.717   3.514   1.203 -0.9926  0.6803  0.6049
 5600SOL     OW28432   4.040   2.973   7.180 -0.1404  0.3322  0.6105
 5600SOL    HW128433   4.108   3.040   7.188 -0.8568  1.1537 -0.1762
 5600SOL    HW228434   3.969   3.013   7.129  1.8846 -0.7408 -3.0982
 5601SOL     OW28435   0.233   0.784   8.108  0.4246 -0.1448  0.4936
 5601SOL    HW128436   0.292   0.719   8.146  2.1938 -0.1813 -2.3346
 5601SOL    HW228437   0.227   0.761   8.016  0.0992 -1.0688  0.7442
 5602SOL     OW28438   3.237   0.178   8.825 -0.1440 -0.2785 -0.2325
 5602SOL    HW128439   3.270   0.242   8.762 -4.4748  0.2896 -1.9540
 5602SOL    HW228440   3.318   0.135   8.853  1.0794  1.1398 -1.6279
 5603SOL     OW28441   2.214   3.655   5.054  0.0472 -0.4429 -0.2754
 5603SOL    HW128442   2.183   3.669   5.143 -0.5461  0.3519 -0.6087
 5603SOL    HW228443   2.304   3.685   5.068 -0.9107  2.1268  0.3857
 5604SOL     OW28444   0.278   2.478  14.040  0.0818 -0.0514  0.2269
 5604SOL    HW128445   0.354   2.529  14.066 -1.9906  2.1941  1.8681
 5604SOL    HW228446   0.294   2.393  14.082  1.5057  0.7084  1.1970
 5605SOL     OW28447   1.569   2.113  12.156 -0.0414  0.6990  0.7601
 5605SOL    HW128448   1.526   2.032  12.129 -3.4905  3.1724 -1.1526
 5605SOL    HW228449   1.633   2.128  12.086  0.6505 -0.3251  1.1769
 5606SOL     OW28450   4.533   0.105   6.978 -0.0157 -0.0300 -0.3348
 5606SOL    HW128451   4.588   0.069   7.047 -2.8789 -1.1143  1.3557
 5606SOL    HW228452   4.587   0.175   6.941 -0.1449  1.6641  2.6599
 5607SOL     OW28453   4.387   1.563  14.935 -0.4282  0.6687 -0.6773
 5607SOL    HW128454   4.388   1.504  14.860 -2.2635  0.4683 -0.5328
 5607SOL    HW228455   4.306   1.546  14.983  0.0826 -0.2759 -0.1561
 5608SOL     OW28456   1.727   0.042   6.216 -0.4832  0.0338 -0.0576
 5608SOL    HW128457   1.641   0.073   6.188  0.5224  2.8528 -0.1103
 5608SOL    HW228458   1.710   4.684   6.234  2.6416 -0.6340 -0.4713
 5609SOL     OW28459   0.703   4.489   8.488 -0.2154  0.3697 -0.4447
 5609SOL    HW128460   0.624   4.461   8.443  0.8880  1.0124 -2.8070
 5609SOL    HW228461   0.699   4.430   8.564 -0.4010 -0.2292 -0.9228
 5610SOL     OW28462   4.093   2.042   5.565 -0.1022  0.3255 -0.4301
 5610SOL    HW128463   4.087   2.079   5.653 -1.8642 -0.8407 -0.0382
 5610SOL    HW228464   4.008   2.072   5.533 -0.0425 -0.6986 -1.5662
 5611SOL     OW28465   4.254   0.885   7.222  0.2615  0.1746  0.6468
 5611SOL    HW128466   4.257   0.790   7.235 -0.0348 -0.3406 -2.9247
 5611SOL    HW228467   4.316   0.910   7.290 -0.3998  0.0701  1.2823
 5612SOL     OW28468   4.063   2.805  15.295  0.1447 -0.2521  0.3685
 5612SOL    HW128469   4.034   2.744  15.227  0.7690  1.0886 -1.1096
 5612SOL    HW228470   4.132   2.856  15.253  0.8033 -0.2357  1.4914
 5613SOL     OW28471   0.891   3.553   7.372  0.0564  0.7694 -0.0042
 5613SOL    HW128472   0.936   3.532   7.454 -0.7051  0.6739  0.3873
 5613SOL    HW228473   0.804   3.571   7.407  0.0916 -0.8789  0.9499
 5614SOL     OW28474   2.631   2.733  12.084 -0.7324  0.1965  0.7785
 5614SOL    HW128475   2.572   2.803  12.056 -0.2108  0.3969  0.1879
 5614SOL    HW228476   2.697   2.742  12.016  0.2069 -1.3753  1.4857
 5615SOL     OW28477   2.554   3.553  13.547  0.1716  0.1869 -0.0581
 5615SOL    HW128478   2.512   3.589  13.469  1.1484 -0.9137 -1.0875
 5615SOL    HW228479   2.643   3.550  13.514  0.3383  0.7392  0.3342
 5616SOL     OW28480   4.001   0.488  11.698  0.3472  0.2258 -0.0196
 5616SOL    HW128481   4.008   0.458  11.607  0.4184  2.0883 -0.6213
 5616SOL    HW228482   3.907   0.475  11.712  0.1944  0.3066 -0.9965
 5617SOL     OW28483   0.948   0.864   9.352  0.8216  0.0436  1.1234
 5617SOL    HW128484   0.993   0.818   9.281  2.5846  1.1979  1.4842
 5617SOL    HW228485   0.861   0.825   9.342  1.0541  0.1570 -1.3755
 5618SOL     OW28486   1.473   1.459   3.836 -0.0844 -0.1865 -0.1522
 5618SOL    HW128487   1.554   1.414   3.861  2.1612  3.4851 -0.7665
 5618SOL    HW228488   1.433   1.466   3.923 -0.3112 -2.1420 -0.1027
 5619SOL     OW28489   3.802   3.401   3.654 -0.4394  0.3520  0.3181
 5619SOL    HW128490   3.800   3.467   3.585  0.5278  0.3903  0.3250
 5619SOL    HW228491   3.736   3.433   3.716  0.2422  2.0013  0.2008
 5620SOL     OW28492   4.002   0.008   0.970  0.2018 -0.1945  0.4836
 5620SOL    HW128493   3.927   4.685   0.952 -0.4605  1.2539 -1.4974
 5620SOL    HW228494   3.985   0.029   1.061  0.2210  0.1085  0.4175
 5621SOL     OW28495   0.919   3.768  15.148  0.0484  0.2263 -0.1546
 5621SOL    HW128496   0.878   3.701  15.202 -0.2469  0.1950 -0.4219
 5621SOL    HW228497   1.013   3.756  15.161 -0.0980 -0.5377  0.1572
 5622SOL     OW28498   3.516   2.461  11.260 -0.5821 -0.3630 -0.1736
 5622SOL    HW128499   3.448   2.395  11.251 -1.4925  0.5248  0.1893
 5622SOL    HW228500   3.561   2.448  11.176  2.4462 -1.2498  1.5951
 5623SOL     OW28501   3.665   3.525   3.874 -0.5804 -0.2146  0.5401
 5623SOL    HW128502   3.720   3.603   3.876  0.1797 -0.7526  0.3755
 5623SOL    HW228503   3.604   3.543   3.802  0.6245 -0.5310 -0.5425
 5624SOL     OW28504   0.005   1.131   6.307  0.1878  0.3421  0.6535
 5624SOL    HW128505   0.087   1.108   6.263 -1.0173  0.2980 -1.5584
 5624SOL    HW228506   4.693   1.048   6.323  0.4779 -0.0041 -0.3187
 5625SOL     OW28507   2.308   1.976   7.415  0.2303 -0.6791  0.3124
 5625SOL    HW128508   2.299   1.915   7.341 -0.1842 -0.1235 -0.0929
 5625SOL    HW228509   2.220   1.994   7.447 -0.6230 -1.5199 -1.5150
 5626SOL     OW28510   4.122   0.504   7.614  0.2021 -0.2008 -0.2100
 5626SOL    HW128511   4.175   0.584   7.613  1.2150 -0.8516  1.9566
 5626SOL    HW228512   4.173   0.448   7.555 -0.1555  1.6404 -2.2782
 5627SOL     OW28513   1.329   3.653  11.521 -0.8180  0.2480  0.2385
 5627SOL    HW128514   1.398   3.671  11.584 -1.4014  0.3457  0.8469
 5627SOL    HW228515   1.317   3.561  11.543  0.0234 -0.0382 -0.5065
 5628SOL     OW28516   2.499   1.772   7.525 -0.5565 -0.4156  0.4769
 5628SOL    HW128517   2.427   1.827   7.495 -0.6325  0.4245  2.2136
 5628SOL    HW228518   2.493   1.695   7.468 -1.8288  0.8177 -1.0401
 5629SOL     OW28519   1.515   4.488   7.075 -0.8014  0.0234 -0.1297
 5629SOL    HW128520   1.600   4.450   7.050 -0.3799  0.9426 -0.0690
 5629SOL    HW228521   1.504   4.452   7.163 -4.1463  0.9412 -0.1869
 5630SOL     OW28522   2.453   1.190   1.145 -0.1307 -0.1696  0.5148
 5630SOL    HW128523   2.445   1.279   1.180 -0.8723  0.2742 -0.7942
 5630SOL    HW228524   2.361   1.163   1.146 -0.5659  1.2763  0.4972
 5631SOL     OW28525   1.295   1.138  15.068  0.0939  0.1476 -0.0104
 5631SOL    HW128526   1.387   1.119  15.049 -0.0564  0.4304 -1.0149
 5631SOL    HW228527   1.250   1.099  14.993 -2.6725  2.4981  0.4062
 5632SOL     OW28528   3.968   3.506   8.092  0.4004 -0.2174  0.2578
 5632SOL    HW128529   3.877   3.524   8.067 -0.5764 -2.0894  2.3968
 5632SOL    HW228530   3.995   3.597   8.099  0.8028 -0.2138 -1.5429
 5633SOL     OW28531   0.938   0.767   4.422 -0.0571 -0.1670 -0.0349
 5633SOL    HW128532   0.899   0.680   4.412  0.2287 -0.3027  0.0294
 5633SOL    HW228533   0.861   0.823   4.430 -0.4452 -0.7499  0.3188
 5634SOL     OW28534   1.485   1.724   3.813 -0.2888  0.4425  0.5647
 5634SOL    HW128535   1.474   1.633   3.839 -1.7336  0.0001 -1.5580
 5634SOL    HW228536   1.554   1.722   3.746 -0.6116  2.6607  0.1689
 5635SOL     OW28537   2.683   0.121   6.663  0.0972  0.3653  0.1506
 5635SOL    HW128538   2.753   0.168   6.708  0.9726 -1.8402  1.1342
 5635SOL    HW228539   2.613   0.185   6.668 -0.5162 -0.1722 -1.7439
 5636SOL     OW28540   3.312   0.687   1.717  0.0746  0.2043  0.6092
 5636SOL    HW128541   3.374   0.673   1.788  0.7893 -2.3271 -0.5059
 5636SOL    HW228542   3.258   0.758   1.752  0.3249  1.5348 -1.7102
 5637SOL     OW28543   3.945   2.512   5.068 -0.2894  0.0549  0.3060
 5637SOL    HW128544   3.995   2.540   4.991  0.5840  2.6711  1.8336
 5637SOL    HW228545   3.892   2.443   5.027  2.1803 -2.4660  1.3905
 5638SOL     OW28546   3.583   4.717   7.571 -0.0389 -0.0245  0.3934
 5638SOL    HW128547   3.550   4.628   7.585  0.9738 -0.1702  1.8920
 5638SOL    HW228548   3.508   0.010   7.518 -1.0458 -0.5805  1.5222
 5639SOL     OW28549   1.350   2.493  10.155 -0.1893 -0.4730  0.7103
 5639SOL    HW128550   1.409   2.421  10.130  0.4722  0.4689 -0.4622
 5639SOL    HW228551   1.317   2.452  10.235  1.6076  1.9930  2.6958
 5640SOL     OW28552   0.257   1.231   5.450 -0.0646 -0.1412  0.1643
 5640SOL    HW128553   0.211   1.234   5.533  1.0915  0.9097  0.7787
 5640SOL    HW228554   0.258   1.138   5.428 -0.3121  0.2395 -1.4781
 5641SOL     OW28555   2.677   1.694   0.637 -0.5767  0.4123 -0.3717
 5641SOL    HW128556   2.753   1.688   0.696 -1.2338  3.1776  0.7621
 5641SOL    HW228557   2.720   1.722   0.556 -1.0396  1.8987 -0.1004
 5642SOL     OW28558   4.531   0.292  17.342  0.4605 -0.1241 -0.1826
 5642SOL    HW128559   4.497   0.211  17.379  1.1331 -0.5313 -0.4817
 5642SOL    HW228560   4.625   0.280  17.345  0.5787  0.6157 -0.8562
 5643SOL     OW28561   2.443   1.118   8.824 -0.3682 -0.2233  0.4649
 5643SOL    HW128562   2.384   1.115   8.749 -0.6514  0.3075  0.6706
 5643SOL    HW228563   2.400   1.067   8.893 -0.1453 -0.7333  0.2289
 5644SOL     OW28564   4.585   1.598  11.194  0.2494 -0.2265  0.1103
 5644SOL    HW128565   4.581   1.682  11.148 -3.1121 -0.1049  0.5880
 5644SOL    HW228566   4.676   1.600  11.222  0.1143 -0.8571  0.6059
 5645SOL     OW28567   0.130   4.196   3.196  0.1664  0.3297  0.4094
 5645SOL    HW128568   0.100   4.115   3.237  0.5596 -0.7524 -1.4186
 5645SOL    HW228569   0.110   4.188   3.103 -1.6929 -0.5832  0.8806
 5646SOL     OW28570   1.256   2.668  16.264 -0.0132  0.0097 -0.5353
 5646SOL    HW128571   1.186   2.724  16.231 -1.7362 -1.7686  0.0560
 5646SOL    HW228572   1.202   2.642  16.338  1.5016 -1.4250  0.0735
 5647SOL     OW28573   0.070   1.805  16.403 -0.0854 -0.0837 -0.0057
 5647SOL    HW128574   0.042   1.856  16.328 -0.5012 -2.6176 -1.5605
 5647SOL    HW228575   0.032   1.841  16.483 -2.6645  1.4491 -1.9334
 5648SOL     OW28576   1.435   2.364   4.333  0.8039  0.3875 -0.6182
 5648SOL    HW128577   1.393   2.330   4.412 -0.7849 -1.0024 -2.0831
 5648SOL    HW228578   1.415   2.455   4.356 -1.5339 -0.5494  1.0148
 5649SOL     OW28579   0.839   0.937   3.446 -0.4559  0.9148 -0.0348
 5649SOL    HW128580   0.754   0.947   3.402 -1.3496 -1.3058  1.2176
 5649SOL    HW228581   0.870   1.026   3.429 -0.1322  0.9745  0.8960
 5650SOL     OW28582   0.173   1.695   8.514 -0.1850 -0.4354  0.1995
 5650SOL    HW128583   0.240   1.688   8.583 -2.4525 -0.7101  2.3513
 5650SOL    HW228584   0.165   1.603   8.492  3.6756 -0.0037 -3.0403
 5651SOL     OW28585   0.031   0.998   5.962 -0.4638 -0.1484 -0.0545
 5651SOL    HW128586   0.096   1.043   6.016 -1.0366 -1.1731  1.4922
 5651SOL    HW228587   0.069   0.915   5.934  1.0577  0.6568 -0.3378
 5652SOL     OW28588   3.022   2.303   0.786  0.3158 -0.5153  0.3296
 5652SOL    HW128589   3.065   2.249   0.720 -0.3905 -0.0002 -0.5578
 5652SOL    HW228590   3.078   2.377   0.810  1.9152 -1.7031  0.2554
 5653SOL     OW28591   1.552   3.794   4.492 -0.3101  0.3512 -0.1955
 5653SOL    HW128592   1.620   3.774   4.428  0.3952  0.8424  0.3980
 5653SOL    HW228593   1.579   3.738   4.565  0.7917 -1.7960 -2.2481
 5654SOL     OW28594   0.936   0.629   1.719 -0.2997 -0.3471  0.0830
 5654SOL    HW128595   0.913   0.542   1.687  1.5092 -1.1102  0.8400
 5654SOL    HW228596   1.015   0.664   1.677 -0.8557  1.3168  0.4288
 5655SOL     OW28597   0.008   2.421   8.206  0.5598 -0.2381  0.3654
 5655SOL    HW128598   4.686   2.368   8.148 -0.9404  1.3602  0.3694
 5655SOL    HW228599   4.712   2.512   8.202  1.3941  0.0347  0.4511
 5656SOL     OW28600   2.608   0.353   0.003 -0.2774  0.1095 -0.0459
 5656SOL    HW128601   2.656   0.430  17.708 -0.2211 -0.1529 -0.6260
 5656SOL    HW228602   2.535   0.361  17.677 -2.9697 -3.4125  2.6964
 5657SOL     OW28603   1.178   0.332   8.853 -0.1783  0.2993 -0.3533
 5657SOL    HW128604   1.173   0.387   8.931  0.6692  0.7309 -0.5999
 5657SOL    HW228605   1.127   0.255   8.879 -0.0862  0.6927  0.9974
 5658SOL     OW28606   2.174   1.573   5.483 -0.3819  0.2217 -0.1664
 5658SOL    HW128607   2.188   1.549   5.391 -1.0883  0.7388 -0.4122
 5658SOL    HW228608   2.182   1.486   5.521 -2.7625  0.1374  0.1576
 5659SOL     OW28609   2.781   2.992   4.866 -0.0440  0.2978  0.1937
 5659SOL    HW128610   2.696   2.957   4.893 -0.8692  1.7294 -0.5568
 5659SOL    HW228611   2.757   3.051   4.794  2.8804 -1.1165 -1.9400
 5660SOL     OW28612   1.896   0.708   6.980 -0.2074  0.2746 -0.1402
 5660SOL    HW128613   1.926   0.619   6.959  0.5746  0.7508 -1.0667
 5660SOL    HW228614   1.976   0.749   7.013 -0.8035 -1.2883  3.2189
 5661SOL     OW28615   1.710   0.903   4.096 -0.0344 -0.0624 -0.1442
 5661SOL    HW128616   1.796   0.907   4.138  0.1383 -0.6014 -0.4442
 5661SOL    HW228617   1.694   0.809   4.094 -0.0515 -0.0701  0.2672
 5662SOL     OW28618   3.724   4.609  13.412  0.1166 -0.2571  0.0897
 5662SOL    HW128619   3.797   4.671  13.404  0.1770 -0.6382 -2.3558
 5662SOL    HW228620   3.655   4.674  13.426  1.1162  1.0918 -1.2244
 5663SOL     OW28621   4.327   1.312   9.576  0.1345 -0.0371  0.0696
 5663SOL    HW128622   4.325   1.273   9.663  0.0986  0.1700  0.1607
 5663SOL    HW228623   4.240   1.350   9.574  0.7452  1.3299 -0.4688
 5664SOL     OW28624   4.161   3.427   5.870 -0.3420 -0.4190  0.3980
 5664SOL    HW128625   4.091   3.415   5.806  0.6406  2.1584 -1.1676
 5664SOL    HW228626   4.222   3.361   5.838 -1.5745 -1.0512 -0.6302
 5665SOL     OW28627   4.232   1.534   4.752 -0.3506  0.4988 -0.0543
 5665SOL    HW128628   4.193   1.554   4.837  0.4839  0.3242  0.3654
 5665SOL    HW228629   4.308   1.488   4.785 -1.5242 -0.2556  1.5765
 5666SOL     OW28630   3.323   1.898  15.565  0.0545  0.9149  0.4765
 5666SOL    HW128631   3.268   1.848  15.625 -0.9891  1.3593 -0.1030
 5666SOL    HW228632   3.254   1.923  15.503  1.1012  0.8786 -0.7068
 5667SOL     OW28633   3.742   3.803   0.306  1.0185 -0.0614  0.4658
 5667SOL    HW128634   3.825   3.808   0.353  1.9354 -1.1283 -1.0540
 5667SOL    HW228635   3.770   3.780   0.218 -0.7096 -0.9301  0.1387
 5668SOL     OW28636   4.046   0.212   6.602  0.3164  0.2853 -0.3604
 5668SOL    HW128637   4.057   0.145   6.669 -1.2406  1.2991  0.9307
 5668SOL    HW228638   4.138   0.220   6.578  0.2274  0.1793 -0.7330
 5669SOL     OW28639   1.618   0.540   7.764  0.1746  0.2419 -0.2634
 5669SOL    HW128640   1.572   0.526   7.846  1.1322  0.8557  0.3797
 5669SOL    HW228641   1.700   0.491   7.771 -0.0829 -0.5039 -2.5411
 5670SOL     OW28642   3.904   3.091   6.328 -0.5406  0.0318  0.1030
 5670SOL    HW128643   3.884   3.174   6.285 -1.2033 -1.1299 -1.8326
 5670SOL    HW228644   3.848   3.110   6.403  1.3602 -1.3313  1.8650
 5671SOL     OW28645   2.275   4.685  10.567 -0.6916  0.3606 -0.2305
 5671SOL    HW128646   2.212   4.625  10.608 -0.0336  0.0846  0.3705
 5671SOL    HW228647   2.293   0.005  10.644 -0.4405  0.5262 -0.4051
 5672SOL     OW28648   2.678   0.284  16.784 -0.2063  0.2162 -0.1214
 5672SOL    HW128649   2.655   0.373  16.757  2.2839  1.6711  2.5243
 5672SOL    HW228650   2.689   0.242  16.699  0.2968  1.9941 -0.9418
 5673SOL     OW28651   3.929   1.050   2.751  0.0897  0.1598 -0.4807
 5673SOL    HW128652   3.924   1.037   2.657  0.6833  0.2221 -0.5222
 5673SOL    HW228653   3.855   1.102   2.782  0.8421  0.6678  0.4774
 5674SOL     OW28654   4.658   1.237  17.711  0.1374 -0.2479  0.1713
 5674SOL    HW128655   4.564   1.226  17.697  0.0345  0.7530  0.0971
 5674SOL    HW228656   4.658   1.326   0.010 -2.7386  0.8119 -2.5934
 5675SOL     OW28657   3.943   1.912  10.316  0.1455  0.5755 -0.0474
 5675SOL    HW128658   4.035   1.938  10.310  0.0946  0.6582 -0.4279
 5675SOL    HW228659   3.917   1.961  10.394  1.8021  0.4246  0.6003
 5676SOL     OW28660   1.026   3.776  13.956  0.0222 -0.4589 -0.1799
 5676SOL    HW128661   1.047   3.857  14.003 -0.3195 -1.0916  1.0673
 5676SOL    HW228662   1.092   3.718  13.994 -0.0937 -0.4447  0.0411
 5677SOL     OW28663   1.249   4.580   9.695 -0.2962 -0.3115 -0.3000
 5677SOL    HW128664   1.203   4.631   9.629  0.7318 -1.2086 -1.7287
 5677SOL    HW228665   1.177   4.595   9.756 -1.2063  0.2540 -1.5142
 5678SOL     OW28666   0.772   2.868   4.828 -0.1849  0.2885 -0.2957
 5678SOL    HW128667   0.685   2.851   4.865 -0.4192  0.6093 -0.7053
 5678SOL    HW228668   0.797   2.780   4.800 -0.9876 -0.7440  2.2143
 5679SOL     OW28669   1.642   0.949   0.843  0.2472  0.5424  0.6529
 5679SOL    HW128670   1.691   0.873   0.813  0.2153  0.9894 -0.5693
 5679SOL    HW228671   1.675   1.009   0.775 -2.0119 -0.1766 -1.0660
 5680SOL     OW28672   2.829   3.411   5.536  0.0452 -0.0524 -0.0118
 5680SOL    HW128673   2.751   3.356   5.524  1.3906 -2.2405  1.2957
 5680SOL    HW228674   2.796   3.481   5.592 -2.2583 -1.8275  0.8505
 5681SOL     OW28675   4.045   1.786   7.435 -0.2218  0.9462 -0.2158
 5681SOL    HW128676   4.105   1.712   7.425  1.5253  2.3898 -0.5436
 5681SOL    HW228677   4.034   1.781   7.530  0.4148 -2.1792 -0.3253
 5682SOL     OW28678   1.643   0.268   2.024  0.4530  0.3910 -0.0334
 5682SOL    HW128679   1.549   0.284   2.014  0.4425 -0.6599 -1.5628
 5682SOL    HW228680   1.676   0.335   2.084 -0.3350 -0.5756  1.5096
 5683SOL     OW28681   0.387   3.139   6.945  0.4394 -0.6345 -0.4446
 5683SOL    HW128682   0.403   3.194   7.022  0.6419 -0.6683 -0.4618
 5683SOL    HW228683   0.449   3.066   6.958  1.7751  0.4135 -0.9177
 5684SOL     OW28684   2.259   4.129   8.092 -0.3718  0.6416 -0.4005
 5684SOL    HW128685   2.291   4.065   8.156 -0.4642  0.8471 -0.1515
 5684SOL    HW228686   2.167   4.111   8.110 -0.0549 -1.7994 -1.1782
 5685SOL     OW28687   1.632   3.216   2.499  0.3656 -0.3162  0.5233
 5685SOL    HW128688   1.541   3.192   2.519 -0.4077  1.8734 -0.3066
 5685SOL    HW228689   1.656   3.263   2.579  0.5949 -1.9377  1.4018
 5686SOL     OW28690   2.862   3.644   4.981 -0.5496 -0.4981  0.3008
 5686SOL    HW128691   2.856   3.557   5.021  0.6203 -0.2289  1.0562
 5686SOL    HW228692   2.781   3.644   4.930 -0.3027  0.7801 -0.0861
 5687SOL     OW28693   4.212   4.557   0.976  0.1877  0.3448  0.3177
 5687SOL    HW128694   4.145   4.625   0.970 -0.2643 -0.2610 -1.4024
 5687SOL    HW228695   4.286   4.610   1.005 -0.9226  1.9429  0.2322
 5688SOL     OW28696   4.040   3.067   4.311  0.0602  0.1795 -0.2499
 5688SOL    HW128697   4.095   3.114   4.374  0.0951 -1.3975  0.9136
 5688SOL    HW228698   4.038   3.124   4.235  0.2317  1.6862  0.8756
 5689SOL     OW28699   1.538   3.266   6.941  0.1429 -0.2846  0.1944
 5689SOL    HW128700   1.470   3.216   6.987 -1.7018  1.3585 -0.7384
 5689SOL    HW228701   1.560   3.323   7.015  0.0239 -0.2445  0.1983
 5690SOL     OW28702   1.618   2.758  12.857  0.4064 -0.2152  0.0945
 5690SOL    HW128703   1.590   2.831  12.801  1.1002  0.4270  0.5908
 5690SOL    HW228704   1.645   2.696  12.789 -1.7759  0.0927 -1.0557
 5691SOL     OW28705   4.565   4.017   5.883  0.4792  0.5161  0.1902
 5691SOL    HW128706   4.477   4.029   5.847 -0.4177 -1.4469  1.6985
 5691SOL    HW228707   4.578   4.104   5.919  1.3412  0.6486 -0.4451
 5692SOL     OW28708   2.235   1.441  13.332  0.5154 -0.1891  0.2336
 5692SOL    HW128709   2.291   1.480  13.399 -1.2343  0.9574  1.0353
 5692SOL    HW228710   2.273   1.356  13.310  0.8710 -0.0362  0.2699
 5693SOL     OW28711   3.940   4.082   5.547 -0.3769  0.7494 -0.2105
 5693SOL    HW128712   3.880   4.101   5.619 -0.0095 -0.3733  0.3999
 5693SOL    HW228713   3.974   3.994   5.564  0.8535  1.3360  0.3798
 5694SOL     OW28714   3.483   3.450   3.685  0.4264  0.0564  0.5239
 5694SOL    HW128715   3.472   3.501   3.605 -2.1118 -0.1019  0.7897
 5694SOL    HW228716   3.466   3.362   3.651 -0.7995  1.0153 -1.3054
 5695SOL     OW28717   1.975   1.191   9.253  0.8649 -0.2615 -0.0369
 5695SOL    HW128718   1.913   1.119   9.242 -0.7039  1.1854 -0.7358
 5695SOL    HW228719   1.917   1.246   9.305  0.0130  2.3344 -3.7022
 5696SOL     OW28720   0.291   0.455   8.522 -0.5560  0.5858 -0.1057
 5696SOL    HW128721   0.386   0.449   8.509 -0.4978 -0.9562  1.1020
 5696SOL    HW228722   0.285   0.401   8.600  0.0956  0.2775 -0.2628
 5697SOL     OW28723   2.126   1.270   1.530 -0.3160 -0.0748 -0.0640
 5697SOL    HW128724   2.213   1.308   1.534 -1.0862  1.6063  0.7101
 5697SOL    HW228725   2.142   1.209   1.458  2.4984  2.0077 -1.2140
 5698SOL     OW28726   3.120   0.241   1.726 -0.1798 -0.3462  0.0667
 5698SOL    HW128727   3.109   0.261   1.633  0.6568  2.1667  0.4867
 5698SOL    HW228728   3.093   0.325   1.762 -2.0568 -1.0266  0.2419
 5699SOL     OW28729   2.158   2.953  14.317  0.8677 -0.2719  0.4724
 5699SOL    HW128730   2.148   2.960  14.412  0.1527  1.3570  0.2804
 5699SOL    HW228731   2.209   3.032  14.300 -2.5473  1.8436  0.0300
 5700SOL     OW28732   1.861   4.120   7.127  0.3760 -0.3350  0.0361
 5700SOL    HW128733   1.819   4.132   7.212 -1.4520  4.4973 -1.5393
 5700SOL    HW228734   1.878   4.027   7.141  0.7453 -0.6306 -2.3154
 5701SOL     OW28735   3.853   3.585   1.739 -0.3951 -0.3024 -0.8302
 5701SOL    HW128736   3.877   3.677   1.751 -1.7144 -0.0113 -0.5163
 5701SOL    HW228737   3.884   3.559   1.652 -1.7070  2.8464 -2.2568
 5702SOL     OW28738   1.193   4.625   9.392 -0.2235 -0.3742  0.5184
 5702SOL    HW128739   1.259   4.666   9.335 -1.2457  0.4023 -0.1064
 5702SOL    HW228740   1.218   4.534   9.377 -0.0016  0.0071 -1.4974
 5703SOL     OW28741   3.318   4.678   2.471 -0.6077 -0.5194  0.3301
 5703SOL    HW128742   3.396   4.630   2.500  0.6381  1.0673 -0.3383
 5703SOL    HW228743   3.242   4.623   2.490  0.9238 -2.4896  0.7312
 5704SOL     OW28744   3.920   0.431   8.139  0.6420 -0.4940 -0.3145
 5704SOL    HW128745   3.857   0.364   8.113  1.8398 -0.4283 -3.4330
 5704SOL    HW228746   3.898   0.498   8.073 -0.8825 -0.4145  0.2610
 5705SOL     OW28747   0.647   4.605   5.556 -0.0525  0.4322  0.2831
 5705SOL    HW128748   0.559   4.639   5.574 -0.5803 -0.6313 -0.2484
 5705SOL    HW228749   0.678   4.597   5.646 -2.3203 -1.0596  0.9496
 5706SOL     OW28750   0.176   2.600   3.814 -0.4880  0.0215 -0.0539
 5706SOL    HW128751   0.181   2.571   3.723  0.9420  1.5000 -0.4675
 5706SOL    HW228752   0.084   2.626   3.815  0.2786  2.7559 -0.9486
 5707SOL     OW28753   0.657   0.463   5.870  0.2095 -0.2970 -0.4935
 5707SOL    HW128754   0.714   0.531   5.905  0.9577 -1.4716  0.5753
 5707SOL    HW228755   0.724   0.394   5.880 -0.1086 -0.5605 -0.1789
 5708SOL     OW28756   1.952   1.850   5.154  0.4841 -0.5723  0.3802
 5708SOL    HW128757   2.044   1.870   5.141  0.5302  0.0761  1.7258
 5708SOL    HW228758   1.935   1.875   5.245 -0.2179 -1.4209  0.4786
 5709SOL     OW28759   1.852   1.745   6.093  0.1338 -0.1196 -0.0668
 5709SOL    HW128760   1.868   1.679   6.161  1.9150  2.3020  1.8595
 5709SOL    HW228761   1.939   1.778   6.070 -0.0467  2.3433  2.7363
 5710SOL     OW28762   3.723   0.849   6.336  0.2515 -0.6285 -0.3240
 5710SOL    HW128763   3.642   0.869   6.383  0.9042 -0.3543  0.6810
 5710SOL    HW228764   3.773   0.931   6.341 -0.7508  0.0219 -0.7926
 5711SOL     OW28765   3.360   2.167   6.379 -0.5441  0.2519  0.1566
 5711SOL    HW128766   3.355   2.072   6.365  1.5640  0.0673  0.6470
 5711SOL    HW228767   3.452   2.183   6.357 -0.4278 -0.7349 -0.0720
 5712SOL     OW28768   3.279   1.691   5.465 -0.2299  0.3713  0.0983
 5712SOL    HW128769   3.215   1.759   5.444  0.7110  1.7734  1.7843
 5712SOL    HW228770   3.340   1.738   5.523  0.5896  1.1298 -1.3879
 5713SOL     OW28771   2.129   2.049   8.148  0.2104 -0.3128  0.2251
 5713SOL    HW128772   2.074   2.090   8.082 -0.0602  0.4801  0.9384
 5713SOL    HW228773   2.185   2.125   8.163 -1.8112  1.0687  0.7863
 5714SOL     OW28774   1.550   2.330   9.604  0.1423  0.1201  0.0072
 5714SOL    HW128775   1.621   2.388   9.631 -0.1608  1.7178 -2.5347
 5714SOL    HW228776   1.582   2.302   9.518  1.0108  0.3999  0.2382
 5715SOL     OW28777   2.432   0.793  10.219  0.2121  0.5022  0.1134
 5715SOL    HW128778   2.451   0.836  10.302  1.9488  2.0858 -1.1035
 5715SOL    HW228779   2.513   0.745  10.204  0.8076  1.2536  0.9364
 5716SOL     OW28780   2.031   1.367  12.026 -0.0769 -0.3933 -0.1121
 5716SOL    HW128781   2.017   1.443  11.969  1.0731 -0.2149 -0.1406
 5716SOL    HW228782   2.086   1.312  11.971 -2.4331 -2.7787 -0.0459
 5717SOL     OW28783   1.402   2.711   4.371  0.6367 -0.0365  0.0517
 5717SOL    HW128784   1.409   2.793   4.420 -0.2602  1.0532 -1.6581
 5717SOL    HW228785   1.483   2.670   4.401  0.0333 -0.8650  0.5346
 5718SOL     OW28786   1.991   2.147   3.216  0.0596  0.0751  0.0296
 5718SOL    HW128787   1.949   2.098   3.287  1.0472  0.4587  0.8686
 5718SOL    HW228788   2.018   2.221   3.270  0.0532  0.5247 -0.5856
 5719SOL     OW28789   0.704   3.722   5.604 -0.0619  0.0156  0.7086
 5719SOL    HW128790   0.735   3.793   5.659 -0.3372 -0.9002  2.0611
 5719SOL    HW228791   0.786   3.676   5.586 -1.5300 -1.6230 -1.8875
 5720SOL     OW28792   3.732   0.201   5.667 -0.1947 -0.8217 -0.2512
 5720SOL    HW128793   3.676   0.197   5.744  1.7922 -2.0437  1.1406
 5720SOL    HW228794   3.664   0.227   5.605 -0.9800  3.1712  2.2932
 5721SOL     OW28795   0.992   3.924   6.749  0.2579 -0.0365  0.9952
 5721SOL    HW128796   0.898   3.941   6.740  0.0599 -1.1330  0.9369
 5721SOL    HW228797   1.009   3.860   6.679  0.4626  0.3110  0.7278
 5722SOL     OW28798   0.904   2.456   9.902  0.6242 -0.1480 -0.0233
 5722SOL    HW128799   0.962   2.428   9.972  2.1189 -0.4861 -1.3887
 5722SOL    HW228800   0.863   2.375   9.874 -1.8900  0.7814  0.9608
 5723SOL     OW28801   2.733   2.937   1.777  0.1505  0.1820 -0.1590
 5723SOL    HW128802   2.785   2.856   1.771  2.8898  1.8916  0.8569
 5723SOL    HW228803   2.685   2.914   1.856  1.0696  1.9237  0.9050
 5724SOL     OW28804   3.097   2.072   4.325 -0.3379 -0.4680 -0.0711
 5724SOL    HW128805   3.192   2.059   4.327 -0.2866  0.0598  0.9302
 5724SOL    HW228806   3.076   2.022   4.404  0.1063 -1.5340 -0.6270
 5725SOL     OW28807   4.044   2.408   3.759  0.3477  0.1986  0.6020
 5725SOL    HW128808   4.129   2.364   3.755  1.2446  2.0963 -1.1216
 5725SOL    HW228809   3.980   2.340   3.781 -0.1120 -0.0021 -1.3065
 5726SOL     OW28810   3.976   0.729   8.916  0.0919  0.2952 -0.3653
 5726SOL    HW128811   4.035   0.804   8.914  2.3790 -1.4770 -0.1771
 5726SOL    HW228812   4.025   0.663   8.965  0.3825 -0.0672 -1.1476
 5727SOL     OW28813   2.419   3.536   2.862  0.0819 -0.1595  0.0533
 5727SOL    HW128814   2.495   3.510   2.915 -0.1178  0.8340  0.8240
 5727SOL    HW228815   2.413   3.459   2.806 -0.3971 -1.1588  1.4679
 5728SOL     OW28816   1.387   2.263   5.717  0.5523 -0.1736  0.2619
 5728SOL    HW128817   1.409   2.171   5.731 -0.9846 -0.7379 -1.0026
 5728SOL    HW228818   1.397   2.296   5.806 -1.1540 -1.0964  0.8182
 5729SOL     OW28819   4.070   3.726   4.397 -0.5174 -0.4567  0.3892
 5729SOL    HW128820   4.142   3.738   4.458 -0.9935 -0.5613  0.9771
 5729SOL    HW228821   4.110   3.680   4.324 -0.1510  0.2202  0.1620
 5730SOL     OW28822   1.157   4.111   6.936 -0.2375  0.3368 -0.1757
 5730SOL    HW128823   1.145   4.021   6.967 -0.6748  0.2065 -0.7259
 5730SOL    HW228824   1.081   4.120   6.879 -3.1790 -0.9964  3.5606
 5731SOL     OW28825   3.048   1.513   1.011 -0.2831  0.1037 -0.2145
 5731SOL    HW128826   2.976   1.561   1.053 -2.1429 -3.3156  0.5789
 5731SOL    HW228827   3.111   1.505   1.082 -1.4904  1.1164  0.9603
 5732SOL     OW28828   0.463   0.499  11.845 -0.6418  0.0027  0.1092
 5732SOL    HW128829   0.445   0.436  11.775  0.4076  2.1267 -2.0677
 5732SOL    HW228830   0.373   0.517  11.871 -0.1905  1.9418  0.3395
 5733SOL     OW28831   0.791   2.462   9.608  0.3413  0.5048 -0.0304
 5733SOL    HW128832   0.887   2.464   9.608  0.4176 -2.5461  1.5535
 5733SOL    HW228833   0.774   2.546   9.566 -2.5224  1.3294  2.7515
 5734SOL     OW28834   4.242   1.318   5.530 -0.1512  0.3659  0.0201
 5734SOL    HW128835   4.256   1.224   5.542  1.6479  0.5972 -0.2485
 5734SOL    HW228836   4.167   1.330   5.588  0.9226 -1.7832  1.8505
 5735SOL     OW28837   3.192   1.780   9.700 -0.0564  0.4486 -0.0176
 5735SOL    HW128838   3.169   1.804   9.790  1.7554 -0.6162  0.7178
 5735SOL    HW228839   3.105   1.774   9.659  0.1336 -1.1736 -0.1680
 5736SOL     OW28840   3.169   1.402   8.707  0.5907 -0.1485  0.3050
 5736SOL    HW128841   3.258   1.436   8.700  0.3764  0.2826 -0.3704
 5736SOL    HW228842   3.125   1.443   8.632 -0.3908 -0.3987  0.7431
 5737SOL     OW28843   3.639   4.588   1.573 -0.0500  0.0810  0.4666
 5737SOL    HW128844   3.700   4.623   1.637  0.7852  0.3046 -0.4478
 5737SOL    HW228845   3.562   4.644   1.581  0.9800  1.5447  0.0851
 5738SOL     OW28846   1.998   4.407   7.159 -0.3244  0.5310 -0.4132
 5738SOL    HW128847   1.942   4.333   7.140 -1.5590  1.1607  0.7548
 5738SOL    HW228848   1.966   4.432   7.246  0.3199  1.5974 -0.4741
 5739SOL     OW28849   2.238   4.445   7.049 -0.1208  0.4376  0.1739
 5739SOL    HW128850   2.178   4.404   7.111 -1.8278 -0.3727 -2.0242
 5739SOL    HW228851   2.299   4.488   7.109  0.7884  0.0801 -0.4856
 5740SOL     OW28852   1.908   2.227   6.074 -0.4472  0.4058  0.0904
 5740SOL    HW128853   1.902   2.154   6.135  0.8765  0.9956  0.9281
 5740SOL    HW228854   1.924   2.182   5.991 -0.6572  0.5847 -0.0465
 5741SOL     OW28855   1.013   3.781   9.488  0.1860  0.0910 -0.8497
 5741SOL    HW128856   0.919   3.795   9.492 -0.0648 -1.1944 -2.4970
 5741SOL    HW228857   1.045   3.863   9.451  1.0110  0.1262 -0.0582
 5742SOL     OW28858   4.310   2.387   5.928 -0.1726 -0.0411 -0.4524
 5742SOL    HW128859   4.389   2.442   5.931  0.6261 -1.2000 -0.0315
 5742SOL    HW228860   4.243   2.455   5.923 -0.7597 -0.4278  2.2851
 5743SOL     OW28861   3.858   3.617   6.399 -0.4623 -0.2794 -0.0899
 5743SOL    HW128862   3.850   3.699   6.448  0.0349  0.2467 -0.8806
 5743SOL    HW228863   3.888   3.648   6.314 -2.7643  1.1841 -0.3719
 5744SOL     OW28864   1.976   3.249   5.907  0.0087  0.1453 -0.5553
 5744SOL    HW128865   1.890   3.274   5.872  0.3718 -0.0194 -1.5504
 5744SOL    HW228866   2.006   3.190   5.838 -1.2706 -0.4232 -0.6255
 5745SOL     OW28867   1.689   3.005   0.772 -0.2093  0.0757 -0.3887
 5745SOL    HW128868   1.662   3.064   0.701  1.0811 -0.1944 -1.1052
 5745SOL    HW228869   1.659   3.054   0.848  0.3492  0.5137 -0.4538
 5746SOL     OW28870   4.216   1.020   7.676 -0.3191  0.3082 -0.6336
 5746SOL    HW128871   4.197   1.040   7.767  2.2440 -1.1687  0.2119
 5746SOL    HW228872   4.184   1.096   7.627  0.0655 -0.4675 -2.1134
 5747SOL     OW28873   1.625   4.712   1.787 -0.0740 -0.0240  0.6076
 5747SOL    HW128874   1.683   4.659   1.732 -2.1283 -2.4985  0.7933
 5747SOL    HW228875   1.676   0.058   1.778 -0.0734 -0.3892 -2.4080
 5748SOL     OW28876   3.708   4.066   3.790  0.5344  0.6539  0.3313
 5748SOL    HW128877   3.650   3.991   3.802  0.6113  0.2852 -1.6903
 5748SOL    HW228878   3.697   4.112   3.874  2.3219  2.7537 -0.5731
 5749SOL     OW28879   1.221   4.157   5.714  0.3083 -0.7264 -0.4676
 5749SOL    HW128880   1.192   4.069   5.689  1.1252 -0.9786 -0.5283
 5749SOL    HW228881   1.263   4.142   5.799  0.8109  0.9097 -0.4282
 5750SOL     OW28882   1.752   1.609   5.749  0.0345 -0.3405 -0.1508
 5750SOL    HW128883   1.725   1.545   5.814  2.8908 -2.0969 -0.6667
 5750SOL    HW228884   1.665   1.632   5.717  0.0974 -1.1127 -0.8948
 5751SOL     OW28885   2.503   1.247   7.053 -0.2811 -0.2784 -0.2294
 5751SOL    HW128886   2.589   1.233   7.012 -0.0563 -0.6903  0.3871
 5751SOL    HW228887   2.533   1.297   7.129  2.6812 -2.4768  0.0550
 5752SOL     OW28888   2.138   1.463  10.570 -0.5849  0.2372  0.1485
 5752SOL    HW128889   2.184   1.543  10.545  1.2172 -0.7287  0.4438
 5752SOL    HW228890   2.208   1.400  10.557 -1.7959 -1.4269  1.7788
 5753SOL     OW28891   3.634   2.326   2.955 -0.2818  0.6350  0.5789
 5753SOL    HW128892   3.551   2.328   2.909 -1.2973 -2.4247  2.2503
 5753SOL    HW228893   3.647   2.237   2.989 -1.3857  0.8065  1.4301
 5754SOL     OW28894   3.800   0.826   4.348 -0.2260 -0.0048 -1.0271
 5754SOL    HW128895   3.843   0.744   4.372 -2.5533 -1.3622 -1.5066
 5754SOL    HW228896   3.722   0.806   4.400  0.3446  0.5446  0.0453
 5755SOL     OW28897   0.368   0.655  16.502 -0.4451  0.1057 -0.6862
 5755SOL    HW128898   0.319   0.732  16.532 -0.8582 -0.7053  0.7623
 5755SOL    HW228899   0.315   0.632  16.426 -0.7176  0.4431 -0.5975
 5756SOL     OW28900   4.138   3.958  16.476 -0.2465 -0.5214  0.2356
 5756SOL    HW128901   4.060   3.976  16.423  0.8829 -1.5045 -1.7355
 5756SOL    HW228902   4.174   3.883  16.429 -0.2215 -2.0372  2.6282
 5757SOL     OW28903   0.442   3.840   5.643  0.3755  0.2213  0.3447
 5757SOL    HW128904   0.512   3.779   5.619 -0.8183 -0.5525 -1.1452
 5757SOL    HW228905   0.399   3.789   5.712  1.6418  0.0132  0.9879
 5758SOL     OW28906   4.658   0.379   1.353 -0.0240  0.0946  0.5842
 5758SOL    HW128907   4.590   0.444   1.371 -0.4975 -0.2938  0.2193
 5758SOL    HW228908   4.651   0.365   1.259 -2.1881  1.0883  0.6123
 5759SOL     OW28909   3.068   0.846   3.636 -0.3299 -0.0304 -0.9570
 5759SOL    HW128910   3.126   0.802   3.573  0.7249 -3.0483  2.0850
 5759SOL    HW228911   3.121   0.923   3.659 -0.1349  0.2589 -2.4120
 5760SOL     OW28912   2.303   4.673   9.976  0.4316 -0.1454 -0.2709
 5760SOL    HW128913   2.350   0.008  10.023  0.8601  1.6570 -3.3038
 5760SOL    HW228914   2.313   4.603  10.040 -1.0739 -0.2536 -0.1678
 5761SOL     OW28915   1.430   2.304  12.256  0.7201  0.3823  0.5784
 5761SOL    HW128916   1.501   2.244  12.234 -1.2364 -2.2687  1.4580
 5761SOL    HW228917   1.383   2.237  12.304 -0.4854  0.3488 -0.6415
 5762SOL     OW28918   2.030   3.127   9.048  0.2009  0.5167  0.5110
 5762SOL    HW128919   1.993   3.044   9.018 -1.3583  0.6241  2.1431
 5762SOL    HW228920   1.983   3.144   9.130 -2.5820  1.3187 -1.2611
 5763SOL     OW28921   0.339   2.457   0.588 -0.1778 -0.3004  0.2217
 5763SOL    HW128922   0.305   2.368   0.586 -0.4031 -0.2460  1.7121
 5763SOL    HW228923   0.430   2.454   0.557 -0.9328 -1.4677 -1.9040
 5764SOL     OW28924   2.320   4.554   3.088  0.0532 -0.1915 -0.3255
 5764SOL    HW128925   2.296   4.575   3.178 -0.6787  1.0645 -0.8060
 5764SOL    HW228926   2.309   4.459   3.087  1.2892 -0.3432  0.8487
 5765SOL     OW28927   4.171   2.570   7.665  0.6456 -0.1421 -0.1041
 5765SOL    HW128928   4.150   2.524   7.746  0.8551  1.5409  0.8908
 5765SOL    HW228929   4.220   2.648   7.690 -0.0940  0.0578  0.7198
 5766SOL     OW28930   4.402   2.272   9.907 -0.5653 -0.0227  0.2329
 5766SOL    HW128931   4.315   2.295   9.940 -0.8840 -1.3188  0.2975
 5766SOL    HW228932   4.430   2.360   9.882  0.9515 -1.3802 -2.9674
 5767SOL     OW28933   4.200   1.047   3.172  0.9167  0.2243 -0.4238
 5767SOL    HW128934   4.203   0.991   3.094  1.6593  1.4794 -1.2756
 5767SOL    HW228935   4.285   1.090   3.169  0.5855  0.7636 -1.9124
 5768SOL     OW28936   3.224   0.281   3.356  0.0137  0.9865 -0.0139
 5768SOL    HW128937   3.178   0.328   3.425 -1.1962  0.0195 -0.1510
 5768SOL    HW228938   3.223   0.346   3.286  0.5960 -0.6337 -1.5250
 5769SOL     OW28939   2.230   2.288   9.276 -0.2694  0.3113 -0.2983
 5769SOL    HW128940   2.234   2.292   9.180  0.5277 -0.2564 -0.2969
 5769SOL    HW228941   2.323   2.289   9.300 -1.0684  0.4512  2.7125
 5770SOL     OW28942   3.429   0.692   2.442 -0.3685  0.4865  0.2949
 5770SOL    HW128943   3.411   0.636   2.518 -2.4824 -1.8690 -1.9253
 5770SOL    HW228944   3.430   0.775   2.489  0.2479  0.5946  0.0897
 5771SOL     OW28945   0.452   4.353   5.711  0.3179 -0.7390  0.7360
 5771SOL    HW128946   0.423   4.265   5.734 -0.3078  0.2863  3.7536
 5771SOL    HW228947   0.508   4.383   5.782  3.5104 -2.3794 -1.0904
 5772SOL     OW28948   2.411   2.429  11.235  0.6654 -0.1529 -0.0135
 5772SOL    HW128949   2.381   2.369  11.303 -0.7940  0.4832 -0.0818
 5772SOL    HW228950   2.469   2.376  11.180  1.0668 -0.3209  0.5819
 5773SOL     OW28951   3.537   2.134  15.354  0.4718  0.0659 -0.1618
 5773SOL    HW128952   3.444   2.141  15.376  0.6989  3.6910 -0.3501
 5773SOL    HW228953   3.580   2.137  15.439  0.0905  1.3924 -0.0050
 5774SOL     OW28954   2.251   3.250   0.168 -0.4662  0.0677  0.0865
 5774SOL    HW128955   2.250   3.200   0.087 -0.6540  0.1157  0.0592
 5774SOL    HW228956   2.166   3.216   0.194  0.5192 -0.9740  1.9383
 5775SOL     OW28957   3.952   0.737   1.216  0.3803 -0.0549 -0.1511
 5775SOL    HW128958   3.960   0.793   1.293  3.4174  0.3587 -0.7675
 5775SOL    HW228959   3.859   0.715   1.225  0.6832 -3.2619 -4.7692
 5776SOL     OW28960   2.415   1.526   7.423  0.1004  0.8634 -0.0204
 5776SOL    HW128961   2.424   1.471   7.501  1.7691  1.5179  0.2593
 5776SOL    HW228962   2.320   1.519   7.418  0.1885 -0.6742  0.4926
 5777SOL     OW28963   3.758   3.330   6.255 -0.0275  0.0731 -0.3236
 5777SOL    HW128964   3.720   3.321   6.343 -0.5548 -2.7116 -0.8475
 5777SOL    HW228965   3.682   3.358   6.205  0.8668 -0.2627 -1.8545
 5778SOL     OW28966   2.376   2.552  16.778  0.2867  0.2560 -0.7369
 5778SOL    HW128967   2.400   2.484  16.841 -2.2956  0.0768  0.0794
 5778SOL    HW228968   2.340   2.615  16.841  1.7566  1.7536 -1.3922
 5779SOL     OW28969   2.472   1.098   7.909 -0.0974 -0.1610  0.2519
 5779SOL    HW128970   2.437   1.024   7.859  1.9738 -0.1828 -1.1869
 5779SOL    HW228971   2.415   1.173   7.893  2.3944  1.7942  0.4982
 5780SOL     OW28972   1.679   0.249   8.880  0.2320  0.8991 -0.0660
 5780SOL    HW128973   1.670   0.341   8.907  1.1838  0.5106  1.5160
 5780SOL    HW228974   1.760   0.232   8.927  0.8695  3.2975 -0.2675
 5781SOL     OW28975   2.988   3.583   5.374  0.9458  0.2759 -0.0576
 5781SOL    HW128976   2.938   3.555   5.451 -0.9119  1.9178 -0.6916
 5781SOL    HW228977   2.965   3.523   5.304 -2.7403 -0.0456  1.4202
 5782SOL     OW28978   0.250   0.107   3.733 -0.7348 -0.2369 -0.5641
 5782SOL    HW128979   0.243   0.024   3.685 -1.4528 -0.3957 -0.1859
 5782SOL    HW228980   0.167   0.144   3.701 -0.8703 -0.3562 -0.3507
 5783SOL     OW28981   4.653   3.375   3.730  0.0261  1.0044 -0.2274
 5783SOL    HW128982   4.606   3.367   3.813 -1.1040 -0.4782 -0.9981
 5783SOL    HW228983   4.694   3.290   3.714 -0.4023  0.8538 -0.5487
 5784SOL     OW28984   1.100   0.244   2.843 -0.8226  0.5156 -0.5133
 5784SOL    HW128985   1.050   0.325   2.832  0.5262  1.4090 -0.0503
 5784SOL    HW228986   1.107   0.243   2.938  0.5540 -2.1857 -0.6569
 5785SOL     OW28987   2.020   1.555   5.776 -0.1330 -0.5813  0.1059
 5785SOL    HW128988   1.937   1.594   5.751 -0.1085 -0.1034  0.7586
 5785SOL    HW228989   1.991   1.465   5.767  0.6721 -1.0345  2.0051
 5786SOL     OW28990   3.443   0.403   0.874 -0.2995 -0.0298 -0.3372
 5786SOL    HW128991   3.358   0.405   0.917 -0.6120 -2.2254 -0.8560
 5786SOL    HW228992   3.449   0.318   0.831  2.7954 -1.2003  2.3735
 5787SOL     OW28993   3.031   1.944   8.525 -0.1135 -0.1936 -0.4793
 5787SOL    HW128994   3.122   1.914   8.528 -0.2427 -0.7019 -2.0073
 5787SOL    HW228995   3.031   1.992   8.608 -0.2128  0.5791 -0.9262
 5788SOL     OW28996   1.191   1.646   6.210 -0.0253 -0.1695 -0.0607
 5788SOL    HW128997   1.149   1.726   6.242  0.6837 -0.8644  2.6304
 5788SOL    HW228998   1.239   1.620   6.288 -1.1476  0.6841  0.9213
 5789SOL     OW28999   0.221   0.690  13.573  0.1227 -0.1320  0.1813
 5789SOL    HW129000   0.273   0.639  13.635 -0.3608  1.4130  1.8742
 5789SOL    HW229001   0.135   0.667  13.609  0.5973 -1.1996  0.6420
 5790SOL     OW29002   0.380   2.498   2.489 -0.5604 -0.4238 -0.4769
 5790SOL    HW129003   0.460   2.494   2.436  0.0892 -1.7505  0.6198
 5790SOL    HW229004   0.397   2.428   2.552 -0.9460  0.3874  0.5035
 5791SOL     OW29005   3.537   3.650   6.172 -0.2698 -0.1715 -0.2538
 5791SOL    HW129006   3.551   3.734   6.215  1.6991 -1.3394  1.3797
 5791SOL    HW229007   3.606   3.641   6.106  0.9829 -0.6299  1.1367
 5792SOL     OW29008   0.427   3.720   8.480  0.0910 -0.3865  0.4144
 5792SOL    HW129009   0.483   3.734   8.557 -1.9991 -1.1602  2.0569
 5792SOL    HW229010   0.488   3.700   8.409 -0.7822 -0.3480 -0.3316
 5793SOL     OW29011   2.083   2.071   6.547 -0.2220  0.0315 -0.4494
 5793SOL    HW129012   2.089   1.975   6.547  0.0178  0.0429  0.2354
 5793SOL    HW229013   2.164   2.095   6.501  0.0212  0.7148  0.3365
 5794SOL     OW29014   3.349   3.852   8.530 -0.0271  0.3058  0.4295
 5794SOL    HW129015   3.280   3.902   8.576  1.1342  2.3606 -0.0646
 5794SOL    HW229016   3.423   3.912   8.537  0.1137  0.0934  0.7670
 5795SOL     OW29017   0.834   4.551   7.123 -0.0271 -0.3413  0.1791
 5795SOL    HW129018   0.850   4.534   7.031  2.5776  2.2946  0.1239
 5795SOL    HW229019   0.740   4.536   7.124 -0.2959  1.2295 -2.4441
 5796SOL     OW29020   0.365   1.988   7.503 -0.3156  0.3476 -0.3311
 5796SOL    HW129021   0.369   1.970   7.597 -1.0364 -1.1277 -0.5837
 5796SOL    HW229022   0.453   1.960   7.478  1.0255  1.5169  3.0139
 5797SOL     OW29023   0.595   3.723   6.238 -0.0245 -1.3251 -0.3039
 5797SOL    HW129024   0.661   3.762   6.296 -2.1369  2.1551 -0.2676
 5797SOL    HW229025   0.625   3.746   6.150 -1.9364 -0.9056 -0.8369
 5798SOL     OW29026   2.127   2.653   3.348  0.0957 -0.6801  0.6291
 5798SOL    HW129027   2.072   2.677   3.423  1.0537 -0.8345  1.3933
 5798SOL    HW229028   2.207   2.650   3.401  0.7029 -2.2802 -0.3900
 5799SOL     OW29029   3.996   3.999  12.405  0.0662 -0.4327 -0.1800
 5799SOL    HW129030   4.084   4.020  12.437  0.5234  0.0514 -1.7444
 5799SOL    HW229031   3.992   3.905  12.424 -0.2959 -0.8845 -2.4665
 5800SOL     OW29032   3.733   4.692  10.775 -0.3159  0.0827  0.1534
 5800SOL    HW129033   3.712   4.606  10.813 -1.8854  0.3990  0.0144
 5800SOL    HW229034   3.723   0.019  10.848  0.1837  0.5363 -0.1659
 5801SOL     OW29035   4.309   4.528  11.447  0.8911  0.0910 -0.1307
 5801SOL    HW129036   4.354   4.468  11.389 -1.4737 -1.4732 -0.3707
 5801SOL    HW229037   4.233   4.471  11.462  0.0207  0.7024 -2.1865
 5802SOL     OW29038   3.840   2.922   5.282  0.7044 -0.6643  0.1706
 5802SOL    HW129039   3.921   2.934   5.233  0.0765 -0.9019 -0.9141
 5802SOL    HW229040   3.873   2.924   5.372 -0.5523  0.2048  0.6177
 5803SOL     OW29041   4.424   3.827   1.348 -0.7641 -0.1857  0.3581
 5803SOL    HW129042   4.496   3.818   1.411  0.8166  0.9957 -1.3166
 5803SOL    HW229043   4.447   3.768   1.277  0.8506  1.2900 -0.3354
 5804SOL     OW29044   0.604   4.294   2.421  0.1207  0.3259  0.1865
 5804SOL    HW129045   0.632   4.318   2.332  0.4917  1.1305  0.5184
 5804SOL    HW229046   0.522   4.343   2.421  0.6498  1.1987  1.0701
 5805SOL     OW29047   2.334   0.473   4.185 -0.0186 -0.1645 -1.1408
 5805SOL    HW129048   2.252   0.513   4.212  0.9044  1.3572 -0.5979
 5805SOL    HW229049   2.302   0.384   4.168  1.4210 -0.9755  0.3151
 5806SOL     OW29050   4.445   0.528  17.732 -0.1637  0.2732  0.0244
 5806SOL    HW129051   4.410   0.617  17.735  0.2433  0.4132  0.5949
 5806SOL    HW229052   4.412   0.499  17.647 -1.3785 -1.9900  1.2797
 5807SOL     OW29053   0.585   1.302   1.851  0.3136  0.5579 -1.3045
 5807SOL    HW129054   0.630   1.277   1.770 -0.1144 -0.0482 -1.3621
 5807SOL    HW229055   0.526   1.227   1.861 -0.3241  1.0177 -1.5673
 5808SOL     OW29056   4.130   3.293   6.249 -0.5625  0.0195  0.1174
 5808SOL    HW129057   4.171   3.225   6.195 -0.9175  0.5192 -0.7973
 5808SOL    HW229058   4.196   3.360   6.231 -1.8445  1.2840  0.0600
 5809SOL     OW29059   1.508   1.271   8.270  0.0667  0.3065 -0.2048
 5809SOL    HW129060   1.455   1.194   8.291  1.2728  0.0417  1.8939
 5809SOL    HW229061   1.454   1.350   8.281 -0.2623  0.2443 -1.3845
 5810SOL     OW29062   4.319   2.723   0.300  0.1462 -0.0021 -0.0726
 5810SOL    HW129063   4.328   2.630   0.279 -4.0114 -0.1768 -1.0650
 5810SOL    HW229064   4.328   2.723   0.395  1.7719  2.1941 -0.2373
 5811SOL     OW29065   1.141   0.464   0.656  0.7916  0.1216 -0.3113
 5811SOL    HW129066   1.184   0.385   0.691 -0.7085 -1.3994 -1.9263
 5811SOL    HW229067   1.127   0.514   0.737  0.6562 -1.0876  0.4127
 5812SOL     OW29068   4.654   4.335   8.457 -0.4193 -0.1170  0.3084
 5812SOL    HW129069   0.011   4.339   8.430 -0.4153  3.8823  0.9565
 5812SOL    HW229070   4.623   4.415   8.415 -3.2907 -0.1558  2.3790
 5813SOL     OW29071   4.384   3.242   8.840 -0.1574  0.0902  0.1552
 5813SOL    HW129072   4.375   3.228   8.934  0.6699 -0.8015  0.1067
 5813SOL    HW229073   4.298   3.279   8.823 -0.8715 -1.9132 -0.5914
 5814SOL     OW29074   0.933   1.494   2.172  0.5762 -0.1400  0.5988
 5814SOL    HW129075   0.847   1.455   2.155 -0.0473  0.6397  2.0023
 5814SOL    HW229076   0.929   1.475   2.265 -1.8357  1.0092  0.7350
 5815SOL     OW29077   0.963   1.359   8.823  0.1625  0.0811 -0.3015
 5815SOL    HW129078   0.921   1.414   8.756 -0.4121 -0.4225 -0.3494
 5815SOL    HW229079   0.901   1.379   8.893  1.1995  1.5217  0.1980
 5816SOL     OW29080   1.143   3.830  17.494 -0.7750 -0.2187 -0.3615
 5816SOL    HW129081   1.116   3.855  17.582  0.6857 -0.2137  0.0810
 5816SOL    HW229082   1.070   3.861  17.441 -1.9244 -1.5187  0.4887
 5817SOL     OW29083   0.203   4.206  10.615  0.2509  0.0368 -0.1101
 5817SOL    HW129084   0.205   4.118  10.577 -1.6975  0.5626 -1.4352
 5817SOL    HW229085   0.133   4.241  10.560  0.4422 -0.3312 -0.5890
 5818SOL     OW29086   4.293   3.357  15.290  0.1658  0.0286  0.4273
 5818SOL    HW129087   4.298   3.420  15.218 -0.9604  1.0720  1.2603
 5818SOL    HW229088   4.199   3.351  15.306  0.3647 -2.1434  0.7998
 5819SOL     OW29089   0.760   0.477   4.754  0.7663  0.4097  0.0265
 5819SOL    HW129090   0.722   0.389   4.751  2.3982 -0.2458 -1.1487
 5819SOL    HW229091   0.770   0.494   4.660 -0.5421 -1.3513 -0.4369
 5820SOL     OW29092   1.574   2.578  14.668  0.5171  0.8180 -0.0047
 5820SOL    HW129093   1.627   2.658  14.661  3.0279 -0.6349  2.6673
 5820SOL    HW229094   1.560   2.579  14.762  0.6283 -0.6735  0.0253
 5821SOL     OW29095   2.585   0.020   4.990 -0.0601 -0.1409 -0.1581
 5821SOL    HW129096   2.636   4.684   4.950 -0.1752  0.3457 -1.1424
 5821SOL    HW229097   2.566   0.080   4.919 -2.0399 -0.9561 -0.3329
 5822SOL     OW29098   2.209   0.800  15.094  0.4270 -0.2124  0.6553
 5822SOL    HW129099   2.189   0.873  15.152  0.4279  0.7219 -0.5112
 5822SOL    HW229100   2.118   0.774  15.085  0.2112  1.2739 -1.4708
 5823SOL     OW29101   1.730   0.412   4.992 -0.0120 -0.0835  1.1274
 5823SOL    HW129102   1.647   0.377   4.960  1.2763 -1.2507 -0.9227
 5823SOL    HW229103   1.722   0.505   4.967  0.3772 -0.7523 -1.4738
 5824SOL     OW29104   2.455   1.476  13.110  0.1365  0.8609  0.1774
 5824SOL    HW129105   2.485   1.471  13.019 -1.8079  0.2269 -0.4385
 5824SOL    HW229106   2.498   1.399  13.147 -1.5763 -0.4706 -0.6205
 5825SOL     OW29107   0.922   3.947   2.487  0.3996  0.8668 -0.0978
 5825SOL    HW129108   0.830   3.973   2.480 -0.1670 -1.0845  0.1191
 5825SOL    HW229109   0.966   4.015   2.538 -1.2234 -0.5065  3.1071
 5826SOL     OW29110   1.022   2.231  14.534  0.1862 -0.3396  0.0772
 5826SOL    HW129111   1.037   2.231  14.439  0.3440 -0.0385  0.1035
 5826SOL    HW229112   1.112   2.224  14.568  0.4034 -0.1743 -0.4573
 5827SOL     OW29113   3.721   2.680   9.224  0.1015 -0.3415  0.6349
 5827SOL    HW129114   3.667   2.602   9.211 -0.5900 -0.1861  2.6905
 5827SOL    HW229115   3.799   2.664   9.170  0.0420  0.4066  0.3263
 5828SOL     OW29116   0.368   0.486   4.136  0.0546 -0.4738  1.1294
 5828SOL    HW129117   0.354   0.399   4.174 -0.5340 -0.6113  0.5901
 5828SOL    HW229118   0.449   0.504   4.185  0.0217  2.1931  0.1774
 5829SOL     OW29119   0.225   0.304   6.317 -0.1577  0.0557 -0.2212
 5829SOL    HW129120   0.252   0.372   6.256  2.7680 -1.2131 -0.3608
 5829SOL    HW229121   0.146   0.342   6.356 -0.2397  0.9020 -1.2288
 5830SOL     OW29122   0.996   1.813   1.007  0.2851  1.2324  0.4114
 5830SOL    HW129123   0.908   1.775   1.008  1.7561 -2.2271 -1.5552
 5830SOL    HW229124   1.055   1.740   1.028  0.2117  0.7692 -1.0118
 5831SOL     OW29125   2.300   3.913  15.325 -0.4959  0.6416 -0.2694
 5831SOL    HW129126   2.304   3.950  15.413 -0.8369 -0.8933  0.3734
 5831SOL    HW229127   2.211   3.936  15.297 -0.8000 -0.0835  0.0935
 5832SOL     OW29128   2.158   2.683   4.791  0.1223 -0.1434 -0.1161
 5832SOL    HW129129   2.114   2.604   4.823 -1.6529  1.1876  0.7620
 5832SOL    HW229130   2.109   2.759   4.824  2.9131  1.3508  0.6145
 5833SOL     OW29131   1.495   1.625   7.277  0.4135 -0.2492  0.1419
 5833SOL    HW129132   1.431   1.554   7.282  0.8306 -0.4946  1.9191
 5833SOL    HW229133   1.571   1.593   7.325 -0.2593 -0.9552  0.7492
 5834SOL     OW29134   1.126   0.025   5.900 -0.9709  0.7452 -0.4926
 5834SOL    HW129135   1.123   0.069   5.815 -0.9236 -0.7443 -1.2585
 5834SOL    HW229136   1.135   4.670   5.866  2.1012  0.0963  1.9854
 5835SOL     OW29137   1.524   1.032  10.657 -0.0179 -0.6264 -0.7857
 5835SOL    HW129138   1.590   1.030  10.588 -0.6525 -1.3919 -1.3702
 5835SOL    HW229139   1.580   1.037  10.734 -0.3597  0.5586 -0.6054
 5836SOL     OW29140   2.938   1.894   9.568 -0.5472  0.0275 -0.2622
 5836SOL    HW129141   2.906   1.863   9.484 -0.4291 -2.4615  0.6186
 5836SOL    HW229142   2.960   1.983   9.539 -1.1236  0.1939 -0.1940
 5837SOL     OW29143   2.430   2.190   5.780  0.1456  0.4311 -0.1315
 5837SOL    HW129144   2.452   2.257   5.715 -0.7874 -0.3040 -1.1969
 5837SOL    HW229145   2.427   2.111   5.725 -2.0572  1.4413 -1.4511
 5838SOL     OW29146   2.170   3.881  13.491 -0.1435 -0.4285 -0.4411
 5838SOL    HW129147   2.105   3.948  13.470 -0.2662 -0.4730 -0.2035
 5838SOL    HW229148   2.212   3.871  13.406 -1.9563 -0.0938 -1.3770
 5839SOL     OW29149   4.514   1.888  10.269 -0.2857 -0.5691  0.4440
 5839SOL    HW129150   4.540   1.950  10.201 -0.7445 -1.9750 -0.9966
 5839SOL    HW229151   4.426   1.921  10.290  0.5567  2.0824 -0.1447
 5840SOL     OW29152   3.185   4.692  15.608 -0.5513  0.4400  0.0069
 5840SOL    HW129153   3.226   4.665  15.526 -0.8818  0.4040 -0.1422
 5840SOL    HW229154   3.130   4.617  15.631  1.3528 -0.5550  1.3300
 5841SOL     OW29155   2.776   4.648   8.978  0.3567 -0.8082  0.0638
 5841SOL    HW129156   2.732   4.589   9.038 -2.0554  0.6157 -0.2935
 5841SOL    HW229157   2.815   4.591   8.912 -0.0724 -0.1943 -0.7178
 5842SOL     OW29158   0.116   3.015   0.161 -0.1236 -0.3706  0.6113
 5842SOL    HW129159   0.149   2.925   0.157  1.5619  0.3529 -1.7696
 5842SOL    HW229160   0.126   3.048   0.071 -2.7604 -0.6532  0.2085
 5843SOL     OW29161   1.964   3.916   0.759  0.6216  0.0685 -0.4154
 5843SOL    HW129162   1.890   3.963   0.721  0.8156  1.5034  0.9667
 5843SOL    HW229163   1.999   3.977   0.824  0.7353 -0.6680  0.2084
 5844SOL     OW29164   1.238   4.668   4.815 -0.3561 -0.0782 -0.2354
 5844SOL    HW129165   1.215   4.618   4.894  0.1722  2.2083  1.3482
 5844SOL    HW229166   1.239   0.024   4.846 -0.0558  0.2622 -1.2375
 5845SOL     OW29167   2.590   1.006  14.783  0.4655 -0.3228  0.1929
 5845SOL    HW129168   2.628   1.090  14.810  0.6944 -0.7590  1.2305
 5845SOL    HW229169   2.518   1.006  14.846  0.9283  2.1846  0.7572
 5846SOL     OW29170   3.539   2.994  10.312 -0.0322 -0.0205  0.2489
 5846SOL    HW129171   3.462   2.974  10.259  0.2167  0.4661 -0.3038
 5846SOL    HW229172   3.496   3.045  10.382  0.4737  1.5147 -0.5593
 5847SOL     OW29173   1.449   0.630  11.139 -0.2560  0.3544  0.1200
 5847SOL    HW129174   1.518   0.692  11.117 -1.0968  1.3888  0.4047
 5847SOL    HW229175   1.380   0.691  11.166  0.1098  0.4563  0.8398
 5848SOL     OW29176   0.083   4.685  10.145 -0.6045 -0.4695 -0.1990
 5848SOL    HW129177   0.000   4.638  10.154 -1.8126  1.2281 -2.6199
 5848SOL    HW229178   0.067   4.691  10.051 -2.2092  0.8409  0.1626
 5849SOL     OW29179   3.222   3.272   6.201 -1.1947 -0.5223 -0.2380
 5849SOL    HW129180   3.296   3.296   6.257  0.0532 -2.2083 -1.1817
 5849SOL    HW229181   3.185   3.360   6.191 -1.0884 -0.5493 -0.8430
 5850SOL     OW29182   0.598   1.527  12.149  0.4925  0.0103 -1.0071
 5850SOL    HW129183   0.660   1.583  12.195 -3.4044  2.8610  0.7660
 5850SOL    HW229184   0.587   1.450  12.205  0.8507 -2.7885 -4.7370
 5851SOL     OW29185   2.753   2.237   1.342 -0.5442  0.1976  0.0643
 5851SOL    HW129186   2.801   2.319   1.350 -1.6675  0.8305  0.3768
 5851SOL    HW229187   2.706   2.249   1.260  1.6966  0.3862 -1.1861
 5852SOL     OW29188   4.605   3.995   1.737  0.4245  0.1064 -0.2169
 5852SOL    HW129189   4.615   3.987   1.832  0.3840  0.4065 -0.1870
 5852SOL    HW229190   4.643   4.080   1.713  0.3582  0.0711 -0.4490
 5853SOL     OW29191   2.233   4.359   4.469 -0.1419 -0.2784  0.0547
 5853SOL    HW129192   2.150   4.406   4.482 -0.5437 -1.0454  0.2798
 5853SOL    HW229193   2.211   4.303   4.395 -2.0162  0.5675 -0.0237
 5854SOL     OW29194   3.152   3.838   7.423  0.5648 -0.1564  0.4684
 5854SOL    HW129195   3.224   3.861   7.482  1.1573 -1.1791  0.1497
 5854SOL    HW229196   3.137   3.746   7.446 -0.6288 -0.2288 -0.5716
 5855SOL     OW29197   2.454   1.078  16.204  0.5472  0.2015 -0.4000
 5855SOL    HW129198   2.416   1.074  16.116  1.7496  2.0637 -1.0037
 5855SOL    HW229199   2.422   1.000  16.248  0.1019  0.1352 -0.8388
 5856SOL     OW29200   2.532   4.436   5.962 -0.5549  0.4630 -0.2563
 5856SOL    HW129201   2.596   4.433   5.892 -1.3571 -1.6408 -0.9092
 5856SOL    HW229202   2.574   4.490   6.030  0.6193 -1.8435  0.8637
 5857SOL     OW29203   0.925   3.184   2.618 -0.7847  0.0584  0.2175
 5857SOL    HW129204   0.945   3.254   2.680  2.0574  0.3270 -1.0063
 5857SOL    HW229205   0.909   3.112   2.678 -1.7474  1.4927  1.6797
 5858SOL     OW29206   1.094   1.733   4.745  0.4013 -0.1861  0.0826
 5858SOL    HW129207   1.132   1.686   4.820  1.8662 -0.7281 -1.0052
 5858SOL    HW229208   1.013   1.767   4.783  0.0021  0.1961 -1.1209
 5859SOL     OW29209   0.534   4.606  14.104  0.2262 -0.0263 -0.2298
 5859SOL    HW129210   0.628   4.621  14.106  0.0815  1.1740 -2.8280
 5859SOL    HW229211   0.515   4.610  14.010 -0.4409  2.4580  0.0210
 5860SOL     OW29212   1.283   0.945   0.864  0.0215  0.4606  0.7352
 5860SOL    HW129213   1.271   0.852   0.885  1.8324 -0.0528 -0.5169
 5860SOL    HW229214   1.369   0.966   0.901  0.8831  1.1434 -1.6455
 5861SOL     OW29215   1.242   2.148   7.686 -0.1548  0.4981  0.2023
 5861SOL    HW129216   1.283   2.228   7.719 -2.0766  0.9962  1.3980
 5861SOL    HW229217   1.263   2.091   7.760  1.7807  2.8438  1.4432
 5862SOL     OW29218   4.301   2.831   3.896  0.2762 -0.4637  0.1136
 5862SOL    HW129219   4.322   2.748   3.939  0.5773 -0.9138 -0.9100
 5862SOL    HW229220   4.270   2.795   3.813 -0.7380  0.5893  0.0460
 5863SOL     OW29221   0.177   3.976   6.517 -0.0023  0.2755 -0.1424
 5863SOL    HW129222   0.126   4.054   6.537  2.1049  1.3472  0.9856
 5863SOL    HW229223   0.113   3.921   6.471  0.6209  0.1959 -0.9048
 5864SOL     OW29224   2.980   1.023   7.936 -0.1152  0.4089 -0.5572
 5864SOL    HW129225   2.908   0.960   7.947 -0.0497  0.6199  1.1658
 5864SOL    HW229226   2.941   1.099   7.978  0.0032  0.9026 -1.3549
 5865SOL     OW29227   2.518   0.327   3.582 -0.4148  0.0826  0.3124
 5865SOL    HW129228   2.583   0.286   3.639 -0.5341  0.1991  0.5291
 5865SOL    HW229229   2.482   0.381   3.652 -1.6698  1.9103 -1.7338
 5866SOL     OW29230   1.079   2.831   8.026  0.0639 -0.1542  0.3785
 5866SOL    HW129231   1.049   2.868   8.109  0.1118  2.0221 -0.5585
 5866SOL    HW229232   1.025   2.753   8.036  0.3112 -0.5763 -1.6268
 5867SOL     OW29233   1.395   0.717   2.709  0.3478  0.2269  0.6999
 5867SOL    HW129234   1.477   0.756   2.680  0.3426 -0.9284 -0.8458
 5867SOL    HW229235   1.393   0.636   2.659 -1.0468 -0.4245  1.7829
 5868SOL     OW29236   3.907   2.705   8.562 -0.1692  0.2709  0.0308
 5868SOL    HW129237   3.978   2.650   8.527  0.3428 -0.0052  1.4890
 5868SOL    HW229238   3.883   2.664   8.645  1.6182  1.4869  1.1443
 5869SOL     OW29239   3.399   0.266  10.594  0.0462 -0.3460  0.2764
 5869SOL    HW129240   3.323   0.320  10.616 -1.7210 -1.1523 -3.9327
 5869SOL    HW229241   3.380   0.237  10.505 -1.4980 -1.3446  0.9333
 5870SOL     OW29242   3.488   0.632   4.888  0.0668 -0.0782 -0.4708
 5870SOL    HW129243   3.494   0.674   4.973  0.5008 -0.3549 -0.3648
 5870SOL    HW229244   3.553   0.563   4.901  0.2090  0.2590  0.6007
 5871SOL     OW29245   4.511   3.848   3.248 -0.2285  0.0402 -0.5280
 5871SOL    HW129246   4.480   3.916   3.187  2.5729 -1.3188 -3.4519
 5871SOL    HW229247   4.600   3.871   3.273 -0.7095  2.0871 -0.6794
 5872SOL     OW29248   2.660   0.308   6.168 -0.0991  0.2260  0.1105
 5872SOL    HW129249   2.693   0.395   6.189 -0.0209 -0.2737  2.1183
 5872SOL    HW229250   2.610   0.322   6.088  1.5155  2.6429 -0.4492
 5873SOL     OW29251   3.347   0.865   0.281  0.2003  0.5115  0.2855
 5873SOL    HW129252   3.433   0.843   0.317 -0.5484 -0.4104  1.5120
 5873SOL    HW229253   3.293   0.828   0.352 -1.5556  2.0414 -0.2579
 5874SOL     OW29254   1.381   2.370   7.746  0.4271 -0.2842 -0.6222
 5874SOL    HW129255   1.415   2.460   7.742  1.2131 -0.5752 -0.2714
 5874SOL    HW229256   1.392   2.355   7.840  2.3715  0.4934 -0.7211
 5875SOL     OW29257   3.677   3.828  15.481  0.3012 -0.6511  0.2361
 5875SOL    HW129258   3.654   3.875  15.561 -0.7193 -0.4430 -0.1913
 5875SOL    HW229259   3.590   3.811  15.444  0.3219  1.9583 -1.0011
 5876SOL     OW29260   3.592   2.647   8.622  0.1342  0.2262  0.1158
 5876SOL    HW129261   3.615   2.587   8.550  1.3545 -0.7892  1.3479
 5876SOL    HW229262   3.638   2.602   8.693  4.3364  1.6180 -1.7349
 5877SOL     OW29263   4.580   3.863   5.055 -0.2605  0.0531 -0.1244
 5877SOL    HW129264   4.583   3.927   4.984 -0.8203  0.0553 -0.1433
 5877SOL    HW229265   4.494   3.879   5.093  0.6417 -0.4562  2.1545
 5878SOL     OW29266   1.473   2.663   2.227 -0.0043 -0.6013  0.0509
 5878SOL    HW129267   1.405   2.688   2.289 -0.2733  1.6127 -1.1311
 5878SOL    HW229268   1.476   2.740   2.171  3.0871 -0.1245  0.8757
 5879SOL     OW29269   0.052   3.475   7.758 -0.6901 -0.1652  0.0356
 5879SOL    HW129270   0.049   3.383   7.731 -0.1904 -0.2889  0.3916
 5879SOL    HW229271   0.115   3.508   7.694  0.2277  0.3607  1.2154
 5880SOL     OW29272   2.091   0.111   0.624 -0.1092 -0.1621  0.1288
 5880SOL    HW129273   2.145   0.174   0.578 -1.0297  0.3341 -0.2785
 5880SOL    HW229274   2.052   0.061   0.552 -1.9595 -0.2841  1.2026
 5881SOL     OW29275   2.187   3.339   8.997  0.2292 -0.6998  0.2222
 5881SOL    HW129276   2.117   3.281   9.029  0.3921  0.0319  1.8816
 5881SOL    HW229277   2.257   3.276   8.978  2.6680  2.2220 -0.3556
 5882SOL     OW29278   3.480   4.017   2.928 -0.5041 -0.4245 -0.2841
 5882SOL    HW129279   3.476   4.110   2.907  0.1699 -0.6257 -1.3356
 5882SOL    HW229280   3.565   3.993   2.890  0.1708  1.8804 -0.2011
 5883SOL     OW29281   0.066   1.976   5.163  0.4529  0.7498 -0.3163
 5883SOL    HW129282   0.111   1.902   5.121 -3.3498 -0.4426 -2.2561
 5883SOL    HW229283   0.000   1.998   5.097 -0.4914  1.7637  0.9751
 5884SOL     OW29284   3.424   0.031   2.205  0.3976 -0.3061  0.1058
 5884SOL    HW129285   3.386   0.002   2.288  2.2785 -2.5716  0.1638
 5884SOL    HW229286   3.345   0.023   2.150  0.7841 -0.3124 -0.4519
 5885SOL     OW29287   4.706   1.537   8.112 -0.2254  0.2380  0.1913
 5885SOL    HW129288   4.675   1.482   8.185  0.4808  0.8292  0.9405
 5885SOL    HW229289   4.676   1.472   8.048  1.8137  0.4669 -0.9787
 5886SOL     OW29290   3.051   1.064   1.073 -0.5237  0.3009  0.4064
 5886SOL    HW129291   3.030   0.974   1.099 -0.0480 -0.9455 -3.4618
 5886SOL    HW229292   2.968   1.107   1.095 -0.9648  0.1788 -1.0073
 5887SOL     OW29293   1.933   3.435  15.788  0.5590 -0.3311 -0.7910
 5887SOL    HW129294   1.891   3.356  15.754 -2.5100  0.9344  0.0283
 5887SOL    HW229295   1.941   3.419  15.882 -0.7513  1.3342 -0.3932
 5888SOL     OW29296   4.537   0.857   7.743 -0.4699  0.0704 -0.0375
 5888SOL    HW129297   4.492   0.809   7.813 -0.5839 -0.1227 -0.2395
 5888SOL    HW229298   4.618   0.807   7.743 -1.1539 -1.0010  2.7359
 5889SOL     OW29299   2.754   3.750   3.245  0.3558  0.1157 -0.6673
 5889SOL    HW129300   2.847   3.731   3.238  0.3839  0.0536 -0.1288
 5889SOL    HW229301   2.752   3.819   3.179 -1.0404  2.1523  1.5166
 5890SOL     OW29302   4.310   3.982   1.928  0.5064 -0.4663 -0.1529
 5890SOL    HW129303   4.296   4.062   1.980  2.2088  0.5827 -1.3262
 5890SOL    HW229304   4.253   3.926   1.981 -2.8670  2.0062 -1.1600
 5891SOL     OW29305   1.938   3.508   7.229  0.9336  0.7782 -0.2447
 5891SOL    HW129306   1.909   3.559   7.153  1.1499  1.2083 -0.0362
 5891SOL    HW229307   1.922   3.420   7.194  0.7622  0.3043  1.0347
 5892SOL     OW29308   3.951   1.292   6.271  0.5174  0.0140 -0.4093
 5892SOL    HW129309   3.895   1.350   6.323  0.3959  0.7980 -1.3997
 5892SOL    HW229310   4.034   1.341   6.268  1.2771 -1.2936 -0.8270
 5893SOL     OW29311   4.114   4.296   2.487  0.7195 -0.5812 -0.0019
 5893SOL    HW129312   4.092   4.366   2.548 -0.1599 -1.8144  1.1116
 5893SOL    HW229313   4.088   4.335   2.404 -1.5200 -0.8941  0.5330
 5894SOL     OW29314   2.675   1.246   2.755  0.2736 -0.0797 -0.4951
 5894SOL    HW129315   2.749   1.287   2.710  0.3096  0.9277  0.4838
 5894SOL    HW229316   2.639   1.193   2.684  1.1298 -2.1325  0.5919
 5895SOL     OW29317   0.632   1.643   2.285 -0.3557 -0.1399 -0.0430
 5895SOL    HW129318   0.598   1.554   2.277 -0.3823 -0.2842  1.5747
 5895SOL    HW229319   0.679   1.642   2.203  0.6839  1.0032  0.5431
 5896SOL     OW29320   0.547   3.922   6.912  0.2104 -0.5000 -0.1370
 5896SOL    HW129321   0.510   4.004   6.945 -1.0471 -2.2135  2.5761
 5896SOL    HW229322   0.563   3.879   6.995  2.3183 -0.3904 -0.4737
 5897SOL     OW29323   4.432   0.822   5.527 -0.1426 -0.0888  0.6760
 5897SOL    HW129324   4.460   0.744   5.479 -0.7729  1.5616 -2.3744
 5897SOL    HW229325   4.493   0.829   5.600 -1.7501  2.4509  1.7900
 5898SOL     OW29326   0.665   0.327  16.666  0.3295 -0.4760  0.1002
 5898SOL    HW129327   0.607   0.252  16.653 -0.3052  0.4847 -2.7381
 5898SOL    HW229328   0.598   0.395  16.659  0.3907 -0.4192  0.0710
 5899SOL     OW29329   0.689   0.647  14.333 -0.5887 -0.1262  0.1899
 5899SOL    HW129330   0.653   0.558  14.333 -0.9412  0.0175 -0.2884
 5899SOL    HW229331   0.659   0.687  14.251  1.7779 -0.7824 -1.0030
 5900SOL     OW29332   0.090   2.679   5.724  0.0764 -0.6266  0.3155
 5900SOL    HW129333   0.086   2.757   5.669  1.6095 -1.0613 -0.4437
 5900SOL    HW229334   0.119   2.610   5.664  0.7904 -0.3136  0.2919
 5901SOL     OW29335   2.933   0.226   0.010  0.0263 -0.1008  0.6795
 5901SOL    HW129336   2.879   0.209   0.087 -0.8158  2.2491  0.5992
 5901SOL    HW229337   3.020   0.209   0.048  0.4695 -1.1555 -0.7806
 5902SOL     OW29338   0.245   2.990   7.707  0.0720 -0.4164  0.5466
 5902SOL    HW129339   0.241   2.926   7.635  0.3525  0.1772  0.0031
 5902SOL    HW229340   0.264   2.932   7.781  1.4695 -1.7166 -0.8218
 5903SOL     OW29341   4.113   3.583  15.933  0.0058  0.3932 -0.3962
 5903SOL    HW129342   4.100   3.671  15.967  0.0731 -0.3550  1.6228
 5903SOL    HW229343   4.159   3.545  16.008 -1.0105  1.9773  1.0164
 5904SOL     OW29344   1.443   2.652   7.685 -0.8986 -0.3583  0.0294
 5904SOL    HW129345   1.427   2.692   7.600  2.1428 -2.6665 -1.6461
 5904SOL    HW229346   1.358   2.664   7.726  0.0729 -0.4247  2.0735
 5905SOL     OW29347   0.186   0.830   2.106  0.2852 -0.2245 -0.6299
 5905SOL    HW129348   0.219   0.741   2.092 -1.6018 -1.0208 -0.0610
 5905SOL    HW229349   0.241   0.856   2.179 -2.0918  3.5169 -0.1811
 5906SOL     OW29350   1.737   3.266   7.392 -0.2780 -0.1948  0.0138
 5906SOL    HW129351   1.741   3.347   7.444 -1.9271 -0.2318  0.1799
 5906SOL    HW229352   1.766   3.205   7.459 -1.1446  0.0812  0.6357
 5907SOL     OW29353   1.969   0.995   8.881  1.0192  0.0141 -0.5462
 5907SOL    HW129354   1.952   1.083   8.914  0.4177  0.3147 -1.6801
 5907SOL    HW229355   2.057   0.981   8.917  0.0675  0.6755  2.0626
 5908SOL     OW29356   3.446   1.774   7.997  0.1970 -0.1426  0.2480
 5908SOL    HW129357   3.403   1.859   8.003 -1.6008 -0.9852 -0.8248
 5908SOL    HW229358   3.524   1.801   7.949  0.1932 -0.0368  0.3013
 5909SOL     OW29359   1.298   2.449  15.070 -0.2560  0.2360  0.1809
 5909SOL    HW129360   1.300   2.362  15.109  1.5130  0.4309  0.5161
 5909SOL    HW229361   1.266   2.510  15.137  1.6568  1.9345 -0.4618
 5910SOL     OW29362   1.355   4.345   0.728 -0.6434  0.4444 -0.2399
 5910SOL    HW129363   1.304   4.325   0.807 -1.1387  0.0133 -0.6635
 5910SOL    HW229364   1.285   4.340   0.663 -2.4295  1.0536  1.6340
 5911SOL     OW29365   2.065   4.084   2.373 -0.0504 -0.0034 -0.5399
 5911SOL    HW129366   2.015   4.118   2.447 -1.8147  0.4403 -1.9244
 5911SOL    HW229367   2.121   4.159   2.353  1.9130 -1.4557 -0.4271
 5912SOL     OW29368   0.388   1.107   1.810  0.3349  0.1120 -0.3904
 5912SOL    HW129369   0.307   1.063   1.836  1.0299 -1.5245 -1.0542
 5912SOL    HW229370   0.361   1.155   1.732 -1.9724  0.6004  0.7088
 5913SOL     OW29371   4.292   4.347   4.317  0.0229 -0.1819  0.1597
 5913SOL    HW129372   4.256   4.422   4.364  1.2334  0.2416  0.4178
 5913SOL    HW229373   4.263   4.368   4.228 -1.5869 -0.6064  0.5807
 5914SOL     OW29374   1.089   4.051   0.527  0.2940  0.0585  0.1785
 5914SOL    HW129375   1.143   4.056   0.606 -1.5303 -2.2061  1.5710
 5914SOL    HW229376   1.149   4.027   0.456 -0.6042  0.6437 -0.7925
 5915SOL     OW29377   2.884   0.740   5.263  0.3348 -0.2214  0.8260
 5915SOL    HW129378   2.848   0.824   5.290 -0.9875 -0.9654  1.3398
 5915SOL    HW229379   2.945   0.769   5.195 -0.1765  2.2957  1.4420
 5916SOL     OW29380   4.670   0.623   2.595  0.2962  0.2200  0.1092
 5916SOL    HW129381   4.599   0.600   2.656 -0.2869  4.8098  1.2043
 5916SOL    HW229382   4.656   0.569   2.517 -0.0695  0.1768  0.2041
 5917SOL     OW29383   4.020   4.589   5.995 -0.2998  0.3194  0.2541
 5917SOL    HW129384   4.113   4.572   5.980 -0.5805  0.0478 -1.1461
 5917SOL    HW229385   3.998   4.637   5.916  0.3168 -1.4002 -0.9579
 5918SOL     OW29386   2.199   3.971   7.171  0.4450  0.3481  0.1754
 5918SOL    HW129387   2.158   3.984   7.257 -0.6709 -0.2740 -0.2607
 5918SOL    HW229388   2.282   4.016   7.185 -0.1875  1.3459  0.6876
 5919SOL     OW29389   3.547   0.382   5.532  0.4458 -0.0238  0.0891
 5919SOL    HW129390   3.483   0.420   5.470  1.0336  1.4924  0.4135
 5919SOL    HW229391   3.540   0.444   5.604  0.6422 -1.2257  1.1296
 5920SOL     OW29392   2.796   4.162  15.432 -0.6275 -0.4380  0.3945
 5920SOL    HW129393   2.773   4.225  15.364  0.7552 -0.2054  0.1428
 5920SOL    HW229394   2.728   4.095  15.430 -0.7490 -0.2921 -0.6460
 5921SOL     OW29395   3.965   1.819   5.938 -0.2607 -0.1470  0.4478
 5921SOL    HW129396   3.889   1.768   5.964 -0.2035 -0.2310  0.4483
 5921SOL    HW229397   3.920   1.886   5.886 -0.3085  0.3357  1.1037
 5922SOL     OW29398   1.707   3.480  17.131 -0.0142  0.3680  0.0717
 5922SOL    HW129399   1.665   3.533  17.199  1.8200 -1.3032  2.5046
 5922SOL    HW229400   1.701   3.538  17.056  1.0382  0.1728 -0.1609
 5923SOL     OW29401   4.631   2.390   2.321  0.3683  0.1988 -0.3789
 5923SOL    HW129402   4.618   2.383   2.226 -2.3486 -0.7205  0.0742
 5923SOL    HW229403   4.641   2.298   2.343  2.0423  1.1471  2.8070
 5924SOL     OW29404   1.638   0.012   1.311  0.2285  0.5081 -0.2710
 5924SOL    HW129405   1.665   0.064   1.235  2.6125 -1.0444 -0.5036
 5924SOL    HW229406   1.563   4.702   1.271  1.4919 -2.8501  1.0633
 5925SOL     OW29407   1.328   3.957   4.485 -0.9569 -0.0865 -0.1574
 5925SOL    HW129408   1.413   3.920   4.460  0.4881  1.9896  1.6629
 5925SOL    HW229409   1.348   3.996   4.570 -2.9816  3.3811 -1.2690
 5926SOL     OW29410   0.876   3.752   2.961 -0.3224  0.3251  0.2266
 5926SOL    HW129411   0.882   3.664   2.998  1.0683  0.2234 -0.2525
 5926SOL    HW229412   0.828   3.790   3.034 -0.0253  0.3215  0.4218
 5927SOL     OW29413   3.834   0.203   3.557  0.1553 -0.1612 -0.0815
 5927SOL    HW129414   3.779   0.182   3.481  0.3772  1.0705 -0.5894
 5927SOL    HW229415   3.820   0.297   3.566 -1.6660 -0.1727 -2.5668
 5928SOL     OW29416   0.109   0.603   2.302 -0.2793  0.1343 -0.1828
 5928SOL    HW129417   0.156   0.580   2.382 -0.5184  0.2181 -0.0162
 5928SOL    HW229418   0.027   0.559   2.328 -0.8682  0.6817 -1.1145
 5929SOL     OW29419   3.038   4.457   1.756  0.1502  0.1095  0.1546
 5929SOL    HW129420   3.051   4.539   1.708  1.0265 -0.1331 -0.0256
 5929SOL    HW229421   2.952   4.476   1.793 -0.5683 -0.3947 -1.2347
 5930SOL     OW29422   3.141   1.896   3.802  0.3513  0.3606  0.0408
 5930SOL    HW129423   3.130   1.990   3.816 -1.2874  0.2036 -0.2551
 5930SOL    HW229424   3.141   1.860   3.890  0.9133  1.1383  0.3517
 5931SOL     OW29425   0.289   0.985   3.737  0.1464  0.2381  0.1660
 5931SOL    HW129426   0.370   0.949   3.700  1.4549  1.6046  1.7573
 5931SOL    HW229427   0.294   0.949   3.826  2.5011  0.2627  0.0487
 5932SOL     OW29428   4.426   1.330   2.634 -0.6252 -0.2289 -0.5270
 5932SOL    HW129429   4.455   1.290   2.552 -0.6926  1.8363 -1.5665
 5932SOL    HW229430   4.496   1.395   2.646  0.5084 -1.9238  2.1686
 5933SOL     OW29431   1.962   4.599   0.651  0.1884 -0.3780  0.3404
 5933SOL    HW129432   1.997   4.681   0.685  1.0380 -0.0768 -1.2655
 5933SOL    HW229433   2.038   4.553   0.616  0.8408 -0.5940  2.0370
 5934SOL     OW29434   3.729   4.108  17.497  0.1859  0.1769 -0.0674
 5934SOL    HW129435   3.695   4.144  17.579 -1.5630  1.9117 -1.5499
 5934SOL    HW229436   3.664   4.132  17.431 -0.9643  1.2918  1.4481
 5935SOL     OW29437   1.331   0.802   7.570 -0.3153  0.6960 -0.0577
 5935SOL    HW129438   1.344   0.708   7.573 -1.5308  0.4991 -0.7301
 5935SOL    HW229439   1.372   0.823   7.486 -0.2737 -0.4575 -0.3211
 5936SOL     OW29440   3.325   4.578   5.128 -0.5259 -0.0998 -0.5343
 5936SOL    HW129441   3.339   4.484   5.136  0.7186 -0.1682 -3.4008
 5936SOL    HW229442   3.254   4.580   5.063 -1.8452 -0.0918  0.9096
 5937SOL     OW29443   2.995   0.064  17.217 -0.1965 -0.1384  0.1657
 5937SOL    HW129444   2.912   0.079  17.262 -0.2649 -0.5762  0.1809
 5937SOL    HW229445   3.026   4.719  17.261 -4.4518 -2.6773 -1.3908
 5938SOL     OW29446   1.896   4.310   1.825 -0.4713  0.0944  0.4915
 5938SOL    HW129447   1.936   4.318   1.912  2.2851 -1.2619 -0.6511
 5938SOL    HW229448   1.896   4.401   1.797  2.2953 -0.8535 -2.5142
 5939SOL     OW29449   0.346   4.105   7.596 -0.2630 -0.4287 -0.1265
 5939SOL    HW129450   0.325   4.035   7.658 -0.7614  1.4521  1.8130
 5939SOL    HW229451   0.428   4.146   7.621 -0.6349  1.5682 -2.1318
 5940SOL     OW29452   2.267   1.362   6.270 -0.0085 -0.5926 -0.3510
 5940SOL    HW129453   2.322   1.310   6.328  1.5004 -0.0692 -1.3036
 5940SOL    HW229454   2.319   1.370   6.190 -1.1207  1.5271 -0.8698
 5941SOL     OW29455   3.160   0.734   7.462  0.8258  0.4869  1.0376
 5941SOL    HW129456   3.176   0.790   7.539  0.5720 -0.3786  1.7150
 5941SOL    HW229457   3.233   0.672   7.463 -1.1642 -1.8358  0.4889
 5942SOL     OW29458   0.080   3.740   2.263  0.2088 -0.4154  0.1893
 5942SOL    HW129459   0.158   3.698   2.300  1.6777  1.6913 -0.5238
 5942SOL    HW229460   0.100   3.830   2.290  2.7944 -0.8044 -0.4546
 5943SOL     OW29461   4.674   4.443   4.446  0.4090  0.6707  0.1905
 5943SOL    HW129462   4.662   4.389   4.368 -1.7018  1.0018  0.2969
 5943SOL    HW229463   4.618   4.517   4.424  0.6324  0.6623 -0.4069
 5944SOL     OW29464   2.677   1.509  16.416  0.4660  0.3946 -0.6098
 5944SOL    HW129465   2.709   1.499  16.327  0.2285 -4.2364 -0.1763
 5944SOL    HW229466   2.651   1.601  16.424 -1.9090 -0.6619  4.1800
 5945SOL     OW29467   2.120   0.218   1.155 -0.3484 -0.0978  0.0692
 5945SOL    HW129468   2.071   0.277   1.212 -0.4886 -1.1903  1.0869
 5945SOL    HW229469   2.055   0.149   1.137 -0.6245  0.7487 -2.1658
 5946SOL     OW29470   0.215   3.189  11.319  0.6346  0.1843 -0.1198
 5946SOL    HW129471   0.164   3.226  11.391  1.2206 -1.2536  1.0367
 5946SOL    HW229472   0.280   3.257  11.303  0.1291  0.2026 -2.0597
 5947SOL     OW29473   1.777   3.868   2.250 -0.3309 -0.2176  0.7448
 5947SOL    HW129474   1.758   3.920   2.328 -0.8117  0.6792  0.0386
 5947SOL    HW229475   1.831   3.917   2.187 -1.7506  0.5500  0.1273
 5948SOL     OW29476   2.002   1.732   7.463  0.1682  0.2346  0.1261
 5948SOL    HW129477   2.003   1.755   7.370 -2.5104 -0.3826 -0.0296
 5948SOL    HW229478   2.011   1.821   7.499 -0.5880  0.4683 -0.2649
 5949SOL     OW29479   1.314   3.919  11.028 -0.5776  0.1250  0.4289
 5949SOL    HW129480   1.388   3.959  11.074 -0.9405  2.0942 -0.7055
 5949SOL    HW229481   1.250   3.991  11.031  2.2018  2.4836  3.0337
 5950SOL     OW29482   3.209   1.336   6.771 -0.1792 -0.7056  0.1384
 5950SOL    HW129483   3.179   1.425   6.754  0.9684 -0.2354  0.5251
 5950SOL    HW229484   3.179   1.319   6.860  2.1950  0.7959  1.2260
 5951SOL     OW29485   3.321   1.212   3.982 -0.5688  0.3142  0.1631
 5951SOL    HW129486   3.339   1.125   4.017  0.7026  0.1416 -0.9228
 5951SOL    HW229487   3.410   1.231   3.954  0.1305 -1.2813  1.2778
 5952SOL     OW29488   3.276   3.557  14.917  0.2312 -0.2890 -0.1296
 5952SOL    HW129489   3.234   3.585  14.836  0.6628  2.4828  0.6097
 5952SOL    HW229490   3.316   3.483  14.871 -0.1497 -0.4755 -0.1627
 5953SOL     OW29491   0.919   3.455  12.464  0.3463  0.0279  0.5049
 5953SOL    HW129492   0.871   3.455  12.381 -0.3672  3.3110  0.8796
 5953SOL    HW229493   0.850   3.437  12.528 -1.3854  0.5473 -1.2293
 5954SOL     OW29494   1.698   4.611   4.825  0.3645 -0.1358  0.0912
 5954SOL    HW129495   1.706   4.619   4.920 -1.8232 -1.2238  0.3578
 5954SOL    HW229496   1.725   4.523   4.800 -0.5264 -1.0068  2.2491
 5955SOL     OW29497   3.954   0.121   5.188  0.0964 -0.1907  0.8015
 5955SOL    HW129498   3.904   0.080   5.117  0.5367  0.0042  0.3723
 5955SOL    HW229499   3.885   0.183   5.213 -0.9380 -0.0366 -2.4441
 5956SOL     OW29500   4.428   3.544   4.111  0.1486  0.1782  0.3478
 5956SOL    HW129501   4.461   3.460   4.079  2.4972  0.9727  0.7185
 5956SOL    HW229502   4.514   3.584   4.101  0.9546 -1.7321 -0.3407
 5957SOL     OW29503   2.153   3.037   6.614  0.0587 -0.4426  0.5089
 5957SOL    HW129504   2.219   3.104   6.599  0.5052 -0.6069  1.8247
 5957SOL    HW229505   2.146   3.034   6.709 -2.3705  1.0369  0.3649
 5958SOL     OW29506   0.453   3.898   9.191 -0.3310 -0.8624 -0.7300
 5958SOL    HW129507   0.385   3.965   9.198  1.3218  0.8002 -0.6448
 5958SOL    HW229508   0.468   3.890   9.286  0.1136  3.3860 -0.4463
 5959SOL     OW29509   2.790   0.419   4.329 -0.3287 -0.1421  0.0719
 5959SOL    HW129510   2.815   0.339   4.375  1.3377  0.7882  0.8185
 5959SOL    HW229511   2.859   0.484   4.349 -0.5699  0.0867  0.1595
 5960SOL     OW29512   3.081   1.089   8.252 -0.5681  0.1843  0.1137
 5960SOL    HW129513   3.126   1.105   8.169 -2.4635  1.4671 -0.6766
 5960SOL    HW229514   3.038   1.004   8.247  0.9818 -0.4688 -1.9422
 5961SOL     OW29515   2.054   3.401   7.665  0.5539 -0.1128 -0.7763
 5961SOL    HW129516   2.012   3.417   7.750  0.5129  0.0429 -0.8250
 5961SOL    HW229517   2.000   3.457   7.610  0.0140  1.3766  1.2480
 5962SOL     OW29518   2.617   3.986   2.853 -0.7818  0.2525  0.4542
 5962SOL    HW129519   2.524   3.969   2.840 -0.8494  1.3513 -0.4737
 5962SOL    HW229520   2.653   3.897   2.860 -1.0454  0.1747  0.7875
 5963SOL     OW29521   2.454   2.062   2.234  0.6002 -0.0344 -0.0719
 5963SOL    HW129522   2.431   2.151   2.206 -0.3235 -0.5509 -0.9335
 5963SOL    HW229523   2.436   2.007   2.158 -2.6657  0.2086  0.5393
 5964SOL     OW29524   0.645   2.667   6.998 -0.5112 -0.2305 -0.0440
 5964SOL    HW129525   0.555   2.650   6.972 -0.8316 -0.6425  1.3316
 5964SOL    HW229526   0.696   2.654   6.918  2.7961  3.0897  1.5110
 5965SOL     OW29527   2.776   1.618   5.341  0.1952  0.1524 -0.1442
 5965SOL    HW129528   2.803   1.561   5.412  2.9583  0.3689 -1.0245
 5965SOL    HW229529   2.681   1.623   5.355 -0.0733  0.1044 -1.8648
 5966SOL     OW29530   4.729   2.069   6.888 -0.0569 -0.2624 -0.0806
 5966SOL    HW129531   4.699   2.039   6.973 -0.8966  0.1577 -0.2167
 5966SOL    HW229532   4.658   2.034   6.833 -0.1832  0.6640 -0.5220
 5967SOL     OW29533   3.777   4.155   0.162  0.7985  0.2537 -0.0280
 5967SOL    HW129534   3.806   4.217   0.229  2.1680 -0.4026 -0.0021
 5967SOL    HW229535   3.752   4.082   0.218 -0.7735  2.0199  1.5568
 5968SOL     OW29536   1.625   2.547   4.469  0.2833 -0.0771  0.0939
 5968SOL    HW129537   1.717   2.536   4.447 -0.3632 -1.0646 -2.1354
 5968SOL    HW229538   1.591   2.460   4.450  2.5908 -0.7092 -1.1663
 5969SOL     OW29539   0.938   3.223   2.345  0.0260  0.1623  0.2128
 5969SOL    HW129540   0.962   3.204   2.435  0.0713  1.5190  0.4861
 5969SOL    HW229541   0.850   3.186   2.336  0.1017  0.3771 -1.4343
 5970SOL     OW29542   4.678   2.916   3.924  0.1406  0.5893 -0.5200
 5970SOL    HW129543   4.667   2.948   4.014 -0.0553 -2.6560  0.5862
 5970SOL    HW229544   4.590   2.920   3.886 -0.5014  1.5265  1.0726
 5971SOL     OW29545   0.218   0.661  16.234  0.0061 -0.3342 -0.3162
 5971SOL    HW129546   0.151   0.635  16.170  1.6270  0.6375 -2.4190
 5971SOL    HW229547   0.255   0.744  16.204 -0.4711  0.0928  0.2559
 5972SOL     OW29548   4.322   4.527   7.955 -0.0158  0.0092 -0.2014
 5972SOL    HW129549   4.380   4.554   7.884  1.3320 -0.8006  0.6040
 5972SOL    HW229550   4.269   4.455   7.922  1.1380 -0.7871 -0.3003
 5973SOL     OW29551   3.961   1.020  12.372  0.4248  0.2533  0.0791
 5973SOL    HW129552   3.949   1.104  12.416  0.1048 -0.7100  1.8322
 5973SOL    HW229553   3.888   0.969  12.409 -0.0039  1.5569  1.0065
 5974SOL     OW29554   3.010   3.747  10.692 -0.1247  0.0375 -0.1968
 5974SOL    HW129555   3.075   3.760  10.761 -1.5916 -2.3300  1.6088
 5974SOL    HW229556   2.932   3.793  10.723 -0.5055 -0.7509  0.0219
 5975SOL     OW29557   0.380   0.169  15.330 -0.2157  0.2146  0.7016
 5975SOL    HW129558   0.394   0.132  15.417 -3.3641 -1.3163  0.5453
 5975SOL    HW229559   0.298   0.218  15.328  0.1274  0.7838  0.5400
 5976SOL     OW29560   1.814   0.598   3.457 -0.2813  0.4073  0.2751
 5976SOL    HW129561   1.755   0.649   3.512  0.2097  0.4719  0.7437
 5976SOL    HW229562   1.888   0.659   3.451 -0.5123  0.6972  0.4018
 5977SOL     OW29563   2.810   4.338  10.250 -0.2181 -0.5032 -0.7121
 5977SOL    HW129564   2.759   4.416  10.272  2.1601  0.4281  1.4372
 5977SOL    HW229565   2.782   4.327  10.159  0.5309  3.1871 -1.3693
 5978SOL     OW29566   4.530   2.003   8.232 -0.8394 -0.6367  0.5566
 5978SOL    HW129567   4.480   1.967   8.306 -0.8549 -2.0259 -0.1206
 5978SOL    HW229568   4.509   1.929   8.175  0.1655 -1.6063  1.4416
 5979SOL     OW29569   2.236   2.239   4.007 -0.5802  0.0416  0.1536
 5979SOL    HW129570   2.160   2.244   4.066  0.4816 -0.3416  1.5508
 5979SOL    HW229571   2.214   2.287   3.927  0.3249 -1.1553 -0.8123
 5980SOL     OW29572   0.590   0.400   7.290  0.0922 -0.4230 -0.1953
 5980SOL    HW129573   0.590   0.395   7.194 -0.9740 -0.4301 -0.1982
 5980SOL    HW229574   0.679   0.373   7.313 -0.5888 -2.9955 -0.6030
 5981SOL     OW29575   0.841   0.417   7.700 -0.3277 -0.2081  0.0214
 5981SOL    HW129576   0.818   0.507   7.675  1.0031 -0.3717 -1.7352
 5981SOL    HW229577   0.930   0.415   7.666 -0.8491  2.4627 -1.4895
 5982SOL     OW29578   3.644   1.435   7.966 -0.0112 -0.0111 -0.2966
 5982SOL    HW129579   3.689   1.351   7.973  1.2408  0.5367 -1.6758
 5982SOL    HW229580   3.659   1.457   7.874 -2.8518  0.4567 -0.6312
 5983SOL     OW29581   1.653   4.486   6.688 -0.5293 -0.1713  0.1519
 5983SOL    HW129582   1.705   4.428   6.745 -0.6442  1.1738  1.6299
 5983SOL    HW229583   1.708   4.564   6.700 -0.8526  0.0356  0.2811
 5984SOL     OW29584   0.514   3.537   5.384 -0.0316 -0.3774  0.5414
 5984SOL    HW129585   0.574   3.524   5.458 -1.2665  0.6287  1.7119
 5984SOL    HW229586   0.430   3.505   5.415 -0.8009  0.8769 -0.2409
 5985SOL     OW29587   1.009   1.673  10.943  0.1790 -0.3081 -0.3324
 5985SOL    HW129588   1.038   1.713  10.861 -1.8669 -0.8651 -1.3388
 5985SOL    HW229589   1.041   1.734  11.009  2.5693  0.6779 -2.3973
 5986SOL     OW29590   3.994   2.378   2.424 -0.1576 -0.2836  0.6069
 5986SOL    HW129591   3.979   2.472   2.415  0.8057 -0.3817 -1.9494
 5986SOL    HW229592   4.079   2.368   2.382 -0.2575  0.4343  0.2239
 5987SOL     OW29593   3.030   3.944   7.965  0.1702  0.4666 -0.1712
 5987SOL    HW129594   3.001   3.989   7.885  1.4099 -0.4228 -1.1336
 5987SOL    HW229595   3.111   3.991   7.983  0.6805 -0.3593 -0.3062
 5988SOL     OW29596   1.549   1.442   0.310  0.0503  0.2711 -0.0042
 5988SOL    HW129597   1.463   1.448   0.352 -0.2941  2.6172 -1.0143
 5988SOL    HW229598   1.565   1.529   0.272  2.5516  1.4535  3.6824
 5989SOL     OW29599   4.313   1.680   6.840  0.2754 -0.1908  0.2540
 5989SOL    HW129600   4.407   1.672   6.855  0.6387  0.4082 -1.7261
 5989SOL    HW229601   4.287   1.727   6.919  2.4644  0.1002  0.7984
 5990SOL     OW29602   3.627   2.717   8.208 -0.0975  0.2827 -0.1600
 5990SOL    HW129603   3.537   2.704   8.178 -0.5809  0.2081  1.3350
 5990SOL    HW229604   3.627   2.649   8.275 -0.2670  1.2914  0.8654
 5991SOL     OW29605   0.337   1.650   4.433 -0.2470  0.2316 -0.4443
 5991SOL    HW129606   0.358   1.567   4.391  0.6204 -0.3087  1.0567
 5991SOL    HW229607   0.339   1.701   4.352 -0.2143  1.1136  0.1053
 5992SOL     OW29608   3.619   4.632   2.736  0.4643  0.1472 -0.4687
 5992SOL    HW129609   3.655   4.683   2.808  1.5528 -0.8937 -0.2804
 5992SOL    HW229610   3.524   4.636   2.753  0.7449  2.1817  0.6637
 5993SOL     OW29611   0.800   2.020  10.017 -0.2838 -0.2972  0.1451
 5993SOL    HW129612   0.710   2.051  10.020 -0.4872 -1.1188  2.4653
 5993SOL    HW229613   0.836   2.056   9.936 -0.5607 -0.1116  0.1050
 5994SOL     OW29614   4.369   3.925   5.211  0.6050 -0.1480  0.3526
 5994SOL    HW129615   4.347   3.878   5.291  0.4053 -0.3990  0.1504
 5994SOL    HW229616   4.287   3.924   5.162 -0.0811 -2.5492  1.5525
 5995SOL     OW29617   3.757   2.420   4.433 -0.3966 -0.5960 -0.2150
 5995SOL    HW129618   3.751   2.450   4.343 -2.4327 -2.3085 -0.6491
 5995SOL    HW229619   3.794   2.332   4.419 -2.8410 -2.1808  3.2839
 5996SOL     OW29620   2.279   1.297   7.898  0.3159  0.3576 -0.1787
 5996SOL    HW129621   2.249   1.347   7.822  0.8000  0.9670  0.0280
 5996SOL    HW229622   2.196   1.254   7.916  0.5237  1.2023  2.9499
 5997SOL     OW29623   3.390   3.494   7.071 -0.1442 -0.3471 -0.0176
 5997SOL    HW129624   3.432   3.558   7.129 -2.7350 -0.0889  1.5728
 5997SOL    HW229625   3.300   3.497   7.102  0.1132  0.5922  0.6534
 5998SOL     OW29626   3.311   0.256  14.082  0.1301  0.4981  1.0871
 5998SOL    HW129627   3.396   0.294  14.064 -0.6420  2.4179  1.4869
 5998SOL    HW229628   3.326   0.163  14.067  1.1955  0.8987 -0.2836
 5999SOL     OW29629   2.956   0.628  13.627  0.0407  0.2174 -0.0971
 5999SOL    HW129630   2.910   0.574  13.563  1.5055  0.4071 -1.3104
 5999SOL    HW229631   2.921   0.596  13.711 -3.1492  0.4516 -1.3481
 6000SOL     OW29632   1.625   3.599   4.687  0.4557  0.2197 -0.0159
 6000SOL    HW129633   1.714   3.565   4.680 -1.0769 -3.2774 -2.9932
 6000SOL    HW229634   1.613   3.570   4.777  1.6932  0.4667  0.2254
 6001SOL     OW29635   4.432   3.030   5.593  0.6110  0.3675  0.7936
 6001SOL    HW129636   4.467   3.018   5.681  0.5946 -0.1068  0.7343
 6001SOL    HW229637   4.403   3.121   5.590  2.4020  0.9833  2.2403
 6002SOL     OW29638   4.627   0.469  13.554  0.7400  0.1408 -0.3340
 6002SOL    HW129639   4.548   0.439  13.600  1.6653 -0.9070  0.5675
 6002SOL    HW229640   4.677   0.486  13.634 -0.9453  1.6369  0.4051
 6003SOL     OW29641   3.395   3.619   8.388  0.4376 -0.1991  0.2582
 6003SOL    HW129642   3.385   3.694   8.445 -1.8295 -1.9458  2.1684
 6003SOL    HW229643   3.489   3.602   8.400  0.1786 -0.0568  2.4695
 6004SOL     OW29644   4.243   1.118   3.522 -0.1896  0.3138  0.4536
 6004SOL    HW129645   4.197   1.179   3.580 -1.0348  0.0662  0.0462
 6004SOL    HW229646   4.317   1.090   3.575 -1.2318  1.2830  2.4545
 6005SOL     OW29647   1.434   1.482   8.778  0.0769 -0.0772  0.3792
 6005SOL    HW129648   1.524   1.504   8.754 -0.8667  2.3001 -1.0244
 6005SOL    HW229649   1.417   1.510   8.868  0.1434 -1.2013  0.7309
 6006SOL     OW29650   2.596   4.498  15.273 -0.3878 -0.2340 -0.3776
 6006SOL    HW129651   2.597   4.454  15.358 -3.0165  0.3144 -0.0736
 6006SOL    HW229652   2.633   4.425  15.223  0.7590  0.2420 -0.2245
 6007SOL     OW29653   3.208   0.846   9.560 -0.3198  0.1253  0.4864
 6007SOL    HW129654   3.212   0.931   9.605 -0.4953  0.1749  0.4096
 6007SOL    HW229655   3.132   0.866   9.504 -0.3354 -2.1166 -0.2651
 6008SOL     OW29656   0.741   1.731   5.212  0.1337  0.3736 -0.3009
 6008SOL    HW129657   0.661   1.689   5.178 -0.1527  1.6378 -1.1798
 6008SOL    HW229658   0.702   1.811   5.246 -0.3526  0.4280 -0.9689
 6009SOL     OW29659   1.182   3.504  12.530 -0.4709  0.5592 -0.4618
 6009SOL    HW129660   1.142   3.590  12.516  1.3795  1.1888 -1.9205
 6009SOL    HW229661   1.102   3.454  12.517 -0.1612 -0.3044  0.9807
 6010SOL     OW29662   3.567   3.153   5.275  0.1006 -0.9229  0.3265
 6010SOL    HW129663   3.535   3.085   5.216  1.4371  0.4467 -1.9822
 6010SOL    HW229664   3.536   3.122   5.360 -2.5593  0.2678 -0.2132
 6011SOL     OW29665   1.819   4.345   4.536 -0.3507 -0.2144  0.3097
 6011SOL    HW129666   1.729   4.325   4.511 -0.7836  0.2684  1.4820
 6011SOL    HW229667   1.818   4.347   4.632 -2.3761 -0.2300  0.2836
 6012SOL     OW29668   2.089   1.047   5.380 -0.6276 -0.2312  0.1488
 6012SOL    HW129669   2.079   1.039   5.475  0.7618  0.4116  0.3437
 6012SOL    HW229670   2.039   1.127   5.366 -0.4823 -0.4620 -1.7431
 6013SOL     OW29671   0.809   3.924  17.596 -0.2091  0.1436  0.2498
 6013SOL    HW129672   0.889   3.971  17.619  1.3977 -2.8609  0.9280
 6013SOL    HW229673   0.839   3.833  17.605  1.9165  0.7873 -0.2016
 6014SOL     OW29674   3.906   1.714  12.069  0.3880 -0.7551  0.2505
 6014SOL    HW129675   3.952   1.792  12.039 -0.7186  0.1934  1.0768
 6014SOL    HW229676   3.920   1.649  12.000  0.7314 -0.4522  0.0389
 6015SOL     OW29677   2.992   3.536   3.239 -0.0825  0.2998 -0.2356
 6015SOL    HW129678   3.041   3.611   3.273  1.8234 -0.7836 -0.5954
 6015SOL    HW229679   3.054   3.504   3.174  1.8828  0.1740  1.7005
 6016SOL     OW29680   1.185   0.186   3.979  0.3248  0.5331  0.1659
 6016SOL    HW129681   1.197   0.105   4.029  0.3608  0.2338 -0.3256
 6016SOL    HW229682   1.199   0.157   3.889  0.6817  1.4190 -0.0575
 6017SOL     OW29683   0.716   2.948   3.681 -0.1539 -0.2852 -0.1520
 6017SOL    HW129684   0.645   2.992   3.635  0.5681  0.3168 -0.6874
 6017SOL    HW229685   0.775   2.930   3.607 -1.0833  0.4172 -1.0613
 6018SOL     OW29686   3.647   2.304   1.457 -0.5034 -0.3311  0.4254
 6018SOL    HW129687   3.589   2.364   1.504 -0.2569  0.3004 -0.0727
 6018SOL    HW229688   3.646   2.234   1.523  1.4220 -0.9209 -0.1615
 6019SOL     OW29689   4.284   4.611   6.004  0.6599  0.4053 -0.3888
 6019SOL    HW129690   4.368   4.581   6.041  0.5046  0.4463 -0.0058
 6019SOL    HW229691   4.306   4.583   5.915 -1.8332 -0.1252 -0.8291
 6020SOL     OW29692   3.382   3.269   2.928  0.2868 -0.4923 -0.7409
 6020SOL    HW129693   3.300   3.243   2.885 -0.2577 -0.6864  0.4320
 6020SOL    HW229694   3.393   3.192   2.984 -0.7835 -0.7396 -0.8789
 6021SOL     OW29695   2.475   3.906   4.758  0.7579  0.2174 -0.2194
 6021SOL    HW129696   2.522   3.956   4.691 -0.1434 -0.3468 -1.2723
 6021SOL    HW229697   2.419   3.976   4.793 -0.2483 -0.7816  0.1986
 6022SOL     OW29698   3.193   2.623   5.155  0.0149 -1.1114  1.1275
 6022SOL    HW129699   3.102   2.628   5.182 -0.5141  3.6677 -1.5852
 6022SOL    HW229700   3.198   2.550   5.093  1.9884  0.9665 -1.2006
 6023SOL     OW29701   4.497   3.383   5.399  0.7116 -0.4805  0.1206
 6023SOL    HW129702   4.510   3.297   5.359 -1.4650  0.0292 -1.6222
 6023SOL    HW229703   4.581   3.392   5.444  0.4553  0.7146  0.3664
 6024SOL     OW29704   0.881   4.605   4.435 -0.2385  0.3626  0.4203
 6024SOL    HW129705   0.875   4.701   4.431 -1.6882  0.2750  0.6573
 6024SOL    HW229706   0.976   4.593   4.443 -0.1146 -0.7312 -2.4790
 6025SOL     OW29707   1.208   2.680  12.537  0.1987  0.3499  0.0197
 6025SOL    HW129708   1.231   2.634  12.456 -0.8352  2.5581 -1.5194
 6025SOL    HW229709   1.157   2.609  12.575  1.1180 -0.6548 -0.5949
 6026SOL     OW29710   0.914   3.803  13.370 -0.1786  0.1057 -0.1047
 6026SOL    HW129711   0.931   3.710  13.379 -0.0371  0.0612 -0.9221
 6026SOL    HW229712   0.870   3.815  13.455  2.7165  1.0304  1.2778
 6027SOL     OW29713   2.439   2.365  10.727 -0.8485  0.0069 -0.2969
 6027SOL    HW129714   2.492   2.430  10.682  0.2149  1.0080  2.4018
 6027SOL    HW229715   2.468   2.289  10.677 -1.3077 -0.0956 -0.4107
 6028SOL     OW29716   3.494   2.083   7.308 -0.4042  0.6345  0.0297
 6028SOL    HW129717   3.531   2.078   7.396  2.7469  1.2382 -1.2373
 6028SOL    HW229718   3.571   2.113   7.258  0.5561  1.3337  1.9392
 6029SOL     OW29719   2.805   1.122   1.724 -0.4719 -0.1934  0.4890
 6029SOL    HW129720   2.763   1.186   1.782  1.5997  3.5755 -2.2175
 6029SOL    HW229721   2.751   1.139   1.648  1.5302  0.9505 -0.6752
 6030SOL     OW29722   3.275   3.546   5.406 -0.3413 -0.3371 -0.1284
 6030SOL    HW129723   3.293   3.613   5.471  0.0339 -0.4392 -0.1269
 6030SOL    HW229724   3.179   3.544   5.413 -0.2327  2.3439  2.0490
 6031SOL     OW29725   1.358   4.291   6.356 -0.2989 -0.5483  0.3154
 6031SOL    HW129726   1.371   4.382   6.384 -0.9263 -0.8603  1.6124
 6031SOL    HW229727   1.272   4.264   6.388 -0.1387 -1.1064  0.2810
 6032SOL     OW29728   3.562   3.456   9.395 -0.0742  0.2066  0.4770
 6032SOL    HW129729   3.589   3.433   9.484  0.2536 -0.7946  0.1203
 6032SOL    HW229730   3.517   3.375   9.373 -1.2257  0.8873  0.3475
 6033SOL     OW29731   4.500   3.161  11.264  0.2818 -0.1763 -0.3234
 6033SOL    HW129732   4.470   3.124  11.347 -0.2222 -1.0713 -0.9096
 6033SOL    HW229733   4.536   3.246  11.288  0.8568 -0.9211  1.4806
 6034SOL     OW29734   1.634   3.489   7.499  0.2708  0.3952 -0.1443
 6034SOL    HW129735   1.540   3.498   7.483  0.2451 -1.2276 -0.9608
 6034SOL    HW229736   1.619   3.453   7.586  1.9057  0.7115  0.2708
 6035SOL     OW29737   2.531   0.860   4.667 -0.2298  0.5202  0.5102
 6035SOL    HW129738   2.588   0.799   4.715  1.0268  0.6658 -0.7900
 6035SOL    HW229739   2.450   0.848   4.718 -0.4734 -0.7046 -0.1851
 6036SOL     OW29740   1.929   4.176  13.780 -0.4649 -0.1274  0.4006
 6036SOL    HW129741   1.959   4.085  13.778  0.4990  0.1715  1.3824
 6036SOL    HW229742   1.962   4.207  13.864  1.6881 -0.1768 -0.4143
 6037SOL     OW29743   1.209   3.598   9.165  0.4118  0.1901  0.0550
 6037SOL    HW129744   1.233   3.577   9.255  0.6206  0.8874  0.1620
 6037SOL    HW229745   1.204   3.693   9.168  0.2553  0.2089 -0.6012
 6038SOL     OW29746   2.655   2.715   6.671 -0.1582 -0.1447  0.0749
 6038SOL    HW129747   2.702   2.796   6.692 -4.4344  2.5154 -0.5799
 6038SOL    HW229748   2.694   2.664   6.742 -0.0843 -1.3113 -0.8126
 6039SOL     OW29749   2.140   2.286   7.039  0.4553  0.2876 -0.4081
 6039SOL    HW129750   2.235   2.298   7.030  0.3108  2.0916  0.4484
 6039SOL    HW229751   2.108   2.375   7.032  1.5276  0.8462  1.6076
 6040SOL     OW29752   1.734   0.221  10.226 -0.3949 -0.1350 -0.7383
 6040SOL    HW129753   1.729   0.131  10.195 -0.1647 -0.4617  0.1769
 6040SOL    HW229754   1.734   0.268  10.142 -1.6804  0.8720 -0.1826
 6041SOL     OW29755   2.686   1.405   3.850  0.8080 -0.4706  0.0704
 6041SOL    HW129756   2.684   1.427   3.757 -1.0967 -1.8028 -0.2158
 6041SOL    HW229757   2.603   1.358   3.853  0.7632 -0.3236  1.2969
 6042SOL     OW29758   0.693   1.742   6.068  0.1875 -0.3612 -0.2634
 6042SOL    HW129759   0.725   1.710   6.152  0.2163 -0.5697 -0.3540
 6042SOL    HW229760   0.599   1.724   6.060  0.3606 -1.0894 -0.5968
 6043SOL     OW29761   1.723   4.536   6.422  0.4603  0.2169 -0.2107
 6043SOL    HW129762   1.667   4.492   6.358 -0.3133 -0.5394  1.0103
 6043SOL    HW229763   1.708   4.492   6.505 -0.8172  0.6983 -0.1852
 6044SOL     OW29764   2.428   3.828   3.630  0.6591  0.0073  0.6052
 6044SOL    HW129765   2.455   3.912   3.669  2.9516 -0.8284  0.8259
 6044SOL    HW229766   2.476   3.772   3.690 -0.0413 -0.4200  0.7699
 6045SOL     OW29767   3.792   0.505   3.605 -0.6392  0.2866  0.3239
 6045SOL    HW129768   3.837   0.590   3.603 -2.8424  1.4651  1.5816
 6045SOL    HW229769   3.710   0.536   3.567 -0.7230 -1.7078 -1.1618
 6046SOL     OW29770   0.730   2.626   7.763 -0.1273 -0.4183  0.0032
 6046SOL    HW129771   0.783   2.644   7.685  0.3031  1.4143  0.7047
 6046SOL    HW229772   0.644   2.654   7.730  0.6767  1.5313 -0.4502
 6047SOL     OW29773   3.185   1.086  10.326 -0.1670 -0.2882  0.3766
 6047SOL    HW129774   3.094   1.088  10.296  0.2554  3.5099 -0.5607
 6047SOL    HW229775   3.179   1.112  10.418  1.6856  0.9573  0.1203
 6048SOL     OW29776   1.245   0.853  15.143 -0.3485 -0.5258 -0.5929
 6048SOL    HW129777   1.324   0.905  15.128  0.8205 -2.4263 -1.0162
 6048SOL    HW229778   1.205   0.900  15.217 -0.0168 -0.8064 -0.2395
 6049SOL     OW29779   0.040   2.514   1.235  0.4630  0.2400  0.5271
 6049SOL    HW129780   0.010   2.500   1.145 -0.9486  0.8944  0.9011
 6049SOL    HW229781   0.135   2.526   1.224  0.4481  2.9718  3.2504
 6050SOL     OW29782   1.226   4.271  10.846 -0.7989 -0.9433 -0.2916
 6050SOL    HW129783   1.319   4.287  10.836 -0.6758  0.3867  3.1838
 6050SOL    HW229784   1.231   4.246  10.938  2.9403 -0.9185 -0.5216
 6051SOL     OW29785   3.148   3.030   7.245  0.5925 -0.2823  0.0155
 6051SOL    HW129786   3.148   2.942   7.210  1.1071 -1.0023  1.8301
 6051SOL    HW229787   3.198   3.075   7.177 -0.7811 -1.2950 -1.6478
 6052SOL     OW29788   1.069   1.401   6.185 -0.5647 -0.1457 -0.5708
 6052SOL    HW129789   1.005   1.404   6.256  0.7276  1.0491  0.5674
 6052SOL    HW229790   1.117   1.481   6.208  0.4894 -1.2731  1.2038
 6053SOL     OW29791   4.084   2.141   2.195  0.1838  0.0809 -0.4424
 6053SOL    HW129792   4.028   2.078   2.242 -2.2015  1.2793 -1.7116
 6053SOL    HW229793   4.133   2.176   2.270 -2.0261  0.7264  0.7098
 6054SOL     OW29794   2.767   2.563   6.853  0.0824  0.1524 -0.5722
 6054SOL    HW129795   2.745   2.494   6.915  0.7538  0.9580  0.5556
 6054SOL    HW229796   2.837   2.518   6.804  0.8168  1.7312 -0.9775
 6055SOL     OW29797   1.045   3.332   5.409 -0.0231 -0.4012 -0.3584
 6055SOL    HW129798   1.115   3.391   5.381  1.5724 -0.6425  3.1118
 6055SOL    HW229799   1.083   3.313   5.495  0.1305  2.0852  0.1230
 6056SOL     OW29800   1.201   2.107  10.141  0.2080 -0.7308  0.1569
 6056SOL    HW129801   1.235   2.124  10.229 -2.4791 -0.1214  1.0567
 6056SOL    HW229802   1.266   2.039  10.121  1.5827  0.0567  1.9635
 6057SOL     OW29803   3.916   1.807   6.772  0.4308  0.9942  0.2369
 6057SOL    HW129804   3.926   1.833   6.864  0.4895 -0.7154  0.7222
 6057SOL    HW229805   4.009   1.805   6.752  0.3833  0.1942  0.1049
 6058SOL     OW29806   3.425   0.956   6.159  0.3998 -0.2793  0.2487
 6058SOL    HW129807   3.382   0.958   6.245  0.4110  1.5337  0.2120
 6058SOL    HW229808   3.357   0.944   6.094 -1.6254 -0.4094  2.3732
 6059SOL     OW29809   3.107   3.903  10.929  0.4772  0.4452 -0.3245
 6059SOL    HW129810   3.034   3.958  10.959  0.3658  0.2359 -0.2123
 6059SOL    HW229811   3.134   3.852  11.006 -0.6233 -0.1187 -0.3130
 6060SOL     OW29812   4.045   3.497   2.224 -0.1150  0.4223 -0.3727
 6060SOL    HW129813   4.051   3.500   2.129  2.7518 -1.9353 -0.2666
 6060SOL    HW229814   4.105   3.566   2.253 -0.0961  0.1598  0.2287
 6061SOL     OW29815   1.788   1.043   4.597 -0.0792 -0.5803 -0.4028
 6061SOL    HW129816   1.775   1.087   4.513  0.8946 -1.4519 -1.0057
 6061SOL    HW229817   1.802   0.956   4.561  0.2926 -0.1672 -1.2478
 6062SOL     OW29818   1.576   3.364   3.680 -0.3250  0.0246 -0.1746
 6062SOL    HW129819   1.585   3.415   3.600  2.4662 -0.8954 -0.4236
 6062SOL    HW229820   1.530   3.290   3.641  0.1898  0.2772 -1.2397
 6063SOL     OW29821   0.078   2.152   6.399 -0.7320  0.0074 -0.0047
 6063SOL    HW129822   0.150   2.175   6.339 -1.8459  1.4476 -0.7896
 6063SOL    HW229823   0.031   2.085   6.352 -0.9524  0.4942 -0.4761
 6064SOL     OW29824   1.812   1.045   2.618 -0.0251 -0.1179  0.0514
 6064SOL    HW129825   1.841   1.081   2.702 -0.7940 -0.1280  0.3236
 6064SOL    HW229826   1.891   1.059   2.567  1.7741 -1.3669  2.4725
 6065SOL     OW29827   1.901   2.808   9.381 -0.2092 -0.1061  0.3915
 6065SOL    HW129828   1.935   2.741   9.322 -0.4358  0.1094  0.0120
 6065SOL    HW229829   1.842   2.750   9.429  1.2214 -1.5789  0.3780
 6066SOL     OW29830   2.367   2.734   6.412 -0.0780 -0.8719 -1.0145
 6066SOL    HW129831   2.344   2.688   6.492 -0.6431  1.2139  0.0356
 6066SOL    HW229832   2.368   2.827   6.437 -0.2830 -1.4395  1.0758
 6067SOL     OW29833   4.079   2.676  12.832  0.0282 -0.0592 -0.0596
 6067SOL    HW129834   4.018   2.747  12.814 -1.0833 -1.2639 -1.0452
 6067SOL    HW229835   4.075   2.670  12.927 -0.7873  1.6773  0.0161
 6068SOL     OW29836   0.970   2.972   2.799  0.2034 -0.2412  0.3540
 6068SOL    HW129837   1.000   2.891   2.842 -0.2183  0.1692  1.4074
 6068SOL    HW229838   0.938   3.029   2.869 -0.4750  0.7000 -0.7273
 6069SOL     OW29839   2.819   0.322  11.843 -0.2040  0.0773  0.7874
 6069SOL    HW129840   2.892   0.262  11.827 -0.7196 -0.3721  0.1457
 6069SOL    HW229841   2.869   0.401  11.822 -0.3277  0.2337  1.0778
 6070SOL     OW29842   2.531   4.017   8.389 -0.2379 -0.4545 -0.4571
 6070SOL    HW129843   2.447   4.014   8.343  0.7877  0.2590 -2.3541
 6070SOL    HW229844   2.538   3.922   8.394 -3.0522 -0.7175 -1.2495
 6071SOL     OW29845   0.959   2.667   7.596  0.5137 -0.4014 -0.0326
 6071SOL    HW129846   1.018   2.670   7.521  0.2668  1.0861 -0.1820
 6071SOL    HW229847   1.017   2.690   7.668  0.0457  1.8786 -0.3687
 6072SOL     OW29848   4.669   3.699  11.396  0.2452 -0.0686 -0.8816
 6072SOL    HW129849   4.630   3.723  11.312  0.2003  0.1967 -0.7853
 6072SOL    HW229850   0.018   3.674  11.356  0.2222 -0.5935 -0.5988
 6073SOL     OW29851   1.090   4.235  17.178 -0.0970  0.1482 -0.1331
 6073SOL    HW129852   1.114   4.213  17.088  1.1342  0.0858  0.2139
 6073SOL    HW229853   1.140   4.317  17.182 -0.5020  0.3993 -0.1516
 6074SOL     OW29854   3.499   2.429   5.291 -0.1442  0.2677 -0.1062
 6074SOL    HW129855   3.448   2.502   5.326 -0.3318 -0.1819  0.5549
 6074SOL    HW229856   3.575   2.477   5.256  0.9705  0.1465  2.1454
 6075SOL     OW29857   3.050   1.072   6.811  0.7542 -0.0274 -0.3343
 6075SOL    HW129858   3.059   1.123   6.892 -1.5114  0.2405 -0.2448
 6075SOL    HW229859   2.985   1.006   6.835  0.4718 -0.0969 -1.3010
 6076SOL     OW29860   2.224   0.553   4.749  1.0086  0.1155 -0.1527
 6076SOL    HW129861   2.199   0.467   4.782  1.0053  0.2162  0.1032
 6076SOL    HW229862   2.232   0.614   4.822  1.3147  3.6811 -3.1093
 6077SOL     OW29863   0.612   4.073   5.589 -0.2248  0.0505 -0.1233
 6077SOL    HW129864   0.574   3.986   5.578  0.3232 -0.1896 -0.0967
 6077SOL    HW229865   0.620   4.065   5.684 -0.0478 -1.7132 -0.2860
 6078SOL     OW29866   4.008   3.343  15.319 -0.1678 -0.4460 -0.3119
 6078SOL    HW129867   4.034   3.278  15.253  0.6158 -1.7539  1.2992
 6078SOL    HW229868   3.976   3.285  15.388 -1.4666  1.8516  1.0002
 6079SOL     OW29869   2.583   3.407   7.353 -0.0967 -0.5235  0.2918
 6079SOL    HW129870   2.511   3.378   7.297  0.0917  1.7674 -1.1538
 6079SOL    HW229871   2.545   3.482   7.397 -1.4614 -0.1987 -1.4493
 6080SOL     OW29872   2.730   4.215  11.225  0.0233 -0.2982 -0.6725
 6080SOL    HW129873   2.656   4.220  11.165  0.5452 -2.1579 -1.4691
 6080SOL    HW229874   2.725   4.122  11.245 -1.0296  0.3941  2.3255
 6081SOL     OW29875   3.294   0.999  13.031 -0.0213 -0.0968  0.3517
 6081SOL    HW129876   3.260   1.067  13.089 -1.4580 -1.1485  0.7381
 6081SOL    HW229877   3.290   0.924  13.091  0.3582  0.7210  1.4101
 6082SOL     OW29878   3.315   3.180   7.951  0.9485 -0.0799 -0.1592
 6082SOL    HW129879   3.238   3.190   7.895  1.0089  2.4230  0.2009
 6082SOL    HW229880   3.375   3.123   7.903  0.0519 -0.9025 -0.3051
 6083SOL     OW29881   3.301   3.421   2.472  0.1770  0.3268 -0.3370
 6083SOL    HW129882   3.209   3.416   2.498  0.7507  0.1969  1.6716
 6083SOL    HW229883   3.333   3.331   2.470  0.6470  0.5219 -1.4861
 6084SOL     OW29884   0.649   0.944   7.760 -0.3204  0.1040  0.1015
 6084SOL    HW129885   0.571   0.899   7.729  0.6654 -2.3558  1.1709
 6084SOL    HW229886   0.703   0.943   7.681 -0.2565  1.4390  0.1348
 6085SOL     OW29887   1.857   0.982   7.479 -0.0995 -0.0293  0.3752
 6085SOL    HW129888   1.856   0.921   7.406 -0.8913  1.2313 -0.6740
 6085SOL    HW229889   1.795   0.939   7.537 -1.7456  1.2009 -0.4860
 6086SOL     OW29890   2.290   3.468   3.977  0.3045 -0.7430  0.9187
 6086SOL    HW129891   2.203   3.472   3.937  0.9020  0.8324 -0.1992
 6086SOL    HW229892   2.270   3.433   4.063  1.3126 -2.7874  0.3365
 6087SOL     OW29893   1.661   4.587  16.091 -0.4570 -0.5748 -0.3389
 6087SOL    HW129894   1.614   4.569  16.009 -0.5531 -0.1827 -0.3665
 6087SOL    HW229895   1.602   4.656  16.119  1.2839  0.6267  0.3651
 6088SOL     OW29896   3.351   0.687  16.199  0.6519  0.2158 -0.0174
 6088SOL    HW129897   3.328   0.775  16.228  1.3963 -0.7005  3.3392
 6088SOL    HW229898   3.379   0.700  16.109 -1.8289  0.6287 -0.7192
 6089SOL     OW29899   0.630   1.052   5.801  0.0202  0.2418 -0.4715
 6089SOL    HW129900   0.700   0.991   5.824  0.2180  0.5671 -0.2092
 6089SOL    HW229901   0.584   0.997   5.738  0.9914 -1.3619  0.2222
 6090SOL     OW29902   2.323   1.963  16.046  0.7963  0.0077  0.2474
 6090SOL    HW129903   2.321   2.000  15.958 -0.6853 -1.8939 -0.5144
 6090SOL    HW229904   2.415   1.975  16.072  1.0615 -0.7065 -0.3706
 6091SOL     OW29905   3.315   1.237  13.928 -0.2064  0.4556 -0.3226
 6091SOL    HW129906   3.308   1.143  13.913  1.4801  0.3504 -0.4404
 6091SOL    HW229907   3.369   1.268  13.855  0.0329 -0.5229 -0.5610
 6092SOL     OW29908   1.801   2.068   8.684  0.1299  0.3419  0.3466
 6092SOL    HW129909   1.768   2.155   8.662  0.6881  0.9716  1.9975
 6092SOL    HW229910   1.747   2.017   8.624  1.0983 -1.0626  0.6654
 6093SOL     OW29911   0.106   1.461   3.215  0.2678  0.7034 -0.3329
 6093SOL    HW129912   0.149   1.385   3.176 -0.5964  1.0175 -1.9278
 6093SOL    HW229913   0.037   1.415   3.263  0.6792  0.5074  0.0752
 6094SOL     OW29914   4.526   1.985  12.631  0.2643  0.6253 -0.0581
 6094SOL    HW129915   4.532   1.889  12.624  0.1769  0.5126  1.4833
 6094SOL    HW229916   4.587   1.998  12.703  1.8534 -1.2528 -1.0599
 6095SOL     OW29917   4.582   0.657  11.260 -0.1058  0.0350  0.0096
 6095SOL    HW129918   4.515   0.723  11.273 -1.1406 -0.7297 -1.4084
 6095SOL    HW229919   4.656   0.715  11.280 -0.1473  0.0115  0.2318
 6096SOL     OW29920   2.441   4.112  15.144  0.2611  0.0724  1.2377
 6096SOL    HW129921   2.358   4.101  15.190 -2.0815  0.6214 -2.8364
 6096SOL    HW229922   2.503   4.078  15.208 -0.4930 -1.1584  1.3113
 6097SOL     OW29923   0.930   2.787   3.912  0.0271 -0.0971 -0.0863
 6097SOL    HW129924   0.969   2.865   3.874  0.2910  0.6119  1.6733
 6097SOL    HW229925   0.864   2.825   3.971  0.9515  2.2607 -0.5894
 6098SOL     OW29926   0.089   2.082  14.116 -0.0318 -0.2042  0.5596
 6098SOL    HW129927   0.005   2.123  14.134  0.9470  2.8633 -1.8951
 6098SOL    HW229928   0.106   2.036  14.198 -2.3608  0.8839  1.6299
 6099SOL     OW29929   3.788   0.227  13.644 -0.4505  0.0710  0.0735
 6099SOL    HW129930   3.703   0.214  13.602 -0.2812  1.4591 -0.6863
 6099SOL    HW229931   3.809   0.320  13.633  2.9445 -0.9500 -1.9938
 6100SOL     OW29932   2.924   3.858   4.173  0.2076 -0.1316  0.0172
 6100SOL    HW129933   2.900   3.949   4.194 -3.2105 -0.7765 -1.0069
 6100SOL    HW229934   2.906   3.822   4.260 -1.9201 -0.6322 -0.6385
 6101SOL     OW29935   0.885   3.297   6.011 -0.3065 -0.3628  0.2165
 6101SOL    HW129936   0.833   3.246   6.073 -0.0652  1.1038  1.6091
 6101SOL    HW229937   0.965   3.244   6.007  1.5444  2.3348  1.0252
 6102SOL     OW29938   3.405   1.766   4.774 -0.1574  0.0855 -0.8379
 6102SOL    HW129939   3.490   1.772   4.731  0.0578 -1.6169 -0.6263
 6102SOL    HW229940   3.363   1.697   4.722  1.1928 -1.7188  0.4818
 6103SOL     OW29941   2.543   2.180   7.495 -0.0126 -0.0114 -0.6375
 6103SOL    HW129942   2.529   2.221   7.410  0.3204  0.1468 -0.6157
 6103SOL    HW229943   2.464   2.127   7.509  1.3300 -1.2015  2.5961
 6104SOL     OW29944   3.239   2.269   2.228 -0.3328  0.0152 -0.3370
 6104SOL    HW129945   3.146   2.252   2.214 -0.0964 -2.1337  0.7201
 6104SOL    HW229946   3.221   2.346   2.281  1.6924 -0.9958  1.8142
 6105SOL     OW29947   3.769   2.529  10.394 -0.1992 -0.2086 -0.4722
 6105SOL    HW129948   3.854   2.573  10.386  0.2010 -1.1967 -1.5368
 6105SOL    HW229949   3.727   2.582  10.463  2.0364  1.4180 -0.3454
 6106SOL     OW29950   2.101   1.736  17.121  0.1285 -0.4792 -0.0085
 6106SOL    HW129951   2.062   1.683  17.191  0.3230 -0.2530  0.2727
 6106SOL    HW229952   2.188   1.755  17.156  0.7768 -0.7332 -1.4638
 6107SOL     OW29953   0.103   3.068   5.310 -0.3450  0.5035  0.3109
 6107SOL    HW129954   0.132   3.023   5.389 -0.5599 -0.5638 -0.2076
 6107SOL    HW229955   0.149   3.030   5.235 -0.1562 -0.1344  0.7515
 6108SOL     OW29956   0.082   2.407  12.681 -0.1884  0.2075 -0.3172
 6108SOL    HW129957   0.143   2.338  12.654 -2.2524 -0.8459 -2.2320
 6108SOL    HW229958   0.006   2.351  12.667 -0.2540 -0.1850  1.5565
 6109SOL     OW29959   1.087   0.237   8.531  0.0914  0.6431  0.2066
 6109SOL    HW129960   1.128   0.200   8.453 -1.5173 -0.0938 -0.2856
 6109SOL    HW229961   1.127   0.194   8.606 -1.3354  1.3414  1.3683
 6110SOL     OW29962   0.435   1.489  14.891  0.1720  0.0649  0.1794
 6110SOL    HW129963   0.459   1.435  14.966  1.3675 -0.9229 -0.8922
 6110SOL    HW229964   0.498   1.561  14.895 -0.2017  0.3192  1.3216
 6111SOL     OW29965   0.229   2.547   5.482  0.1912  0.1778  0.3395
 6111SOL    HW129966   0.270   2.620   5.435 -0.7316  0.4247 -0.0771
 6111SOL    HW229967   0.275   2.563   5.565 -0.1116  0.0317  0.5371
 6112SOL     OW29968   2.187   3.797   4.261 -0.1032  0.4462  0.3443
 6112SOL    HW129969   2.139   3.836   4.334 -1.1691 -0.5801  0.1839
 6112SOL    HW229970   2.270   3.779   4.304  1.0860  2.8842 -0.9359
 6113SOL     OW29971   0.088   2.384   7.562 -0.3813 -0.4413  0.6790
 6113SOL    HW129972   0.137   2.318   7.512 -0.7891  0.3332 -0.7510
 6113SOL    HW229973   0.127   2.464   7.526 -1.0823 -0.5521 -0.3430
 6114SOL     OW29974   2.180   0.944  17.184 -0.2327 -0.8400  0.0629
 6114SOL    HW129975   2.168   1.025  17.135 -0.2328 -0.3636  0.8462
 6114SOL    HW229976   2.272   0.923  17.167  0.1584  0.5593  0.4620
 6115SOL     OW29977   2.244   4.098   5.359 -0.1548 -0.3601  0.2167
 6115SOL    HW129978   2.290   4.180   5.375  0.0763 -0.5367  0.4670
 6115SOL    HW229979   2.311   4.060   5.303  0.4918  0.1947  0.6089
 6116SOL     OW29980   2.461   0.679   0.959 -0.3753  0.0878 -0.1254
 6116SOL    HW129981   2.477   0.642   0.872  0.4321 -0.7631  0.3802
 6116SOL    HW229982   2.420   0.764   0.943 -0.3901  0.0259 -0.4039
 6117SOL     OW29983   3.456   4.347   3.753 -0.0867 -0.0863  0.1739
 6117SOL    HW129984   3.470   4.266   3.705  0.0909 -0.8960  1.5957
 6117SOL    HW229985   3.376   4.372   3.706 -0.0989 -1.0122 -0.2912
 6118SOL     OW29986   2.753   0.094   0.818  0.1943  0.6242  0.3334
 6118SOL    HW129987   2.837   0.092   0.772  0.0386 -1.0022  0.1334
 6118SOL    HW229988   2.695   0.058   0.751  1.3879  0.0544 -0.4114
 6119SOL     OW29989   0.593   3.763   2.825 -0.4413 -0.0793 -0.8625
 6119SOL    HW129990   0.555   3.826   2.886  0.6262 -0.8013  0.5441
 6119SOL    HW229991   0.687   3.782   2.834 -0.6686 -1.2567  3.8685
 6120SOL     OW29992   2.267   3.679  11.206 -0.3796  0.0653  0.1267
 6120SOL    HW129993   2.362   3.683  11.193 -0.4803  0.2601 -0.5344
 6120SOL    HW229994   2.243   3.600  11.157 -0.2723 -0.7882  1.4267
 6121SOL     OW29995   0.739   1.891   9.582 -0.2442 -0.1473  0.0796
 6121SOL    HW129996   0.681   1.911   9.655 -1.2980  2.1057 -1.3601
 6121SOL    HW229997   0.710   1.946   9.509  1.4346 -0.5905 -0.9254
 6122SOL     OW29998   1.271   3.365   3.364  0.3479  0.2056 -0.4347
 6122SOL    HW129999   1.315   3.316   3.434 -0.4343 -0.5600 -0.4735
 6122SOL    HW230000   1.259   3.449   3.408 -1.6917 -0.1799 -0.2831
 6123SOL     OW30001   3.280   3.998   3.660 -0.0796  0.0082  0.3547
 6123SOL    HW130002   3.246   3.951   3.584 -1.1236 -0.4949  1.1337
 6123SOL    HW230003   3.342   4.059   3.619 -0.1927 -0.6458 -0.7836
 6124SOL     OW30004   0.324   3.780   1.030 -0.6073  0.4887  0.2902
 6124SOL    HW130005   0.242   3.826   1.015 -0.5549  0.1762 -0.9123
 6124SOL    HW230006   0.334   3.781   1.125 -1.7416 -2.1690  0.4477
 6125SOL     OW30007   4.295   3.363  16.597 -0.7209  0.2773 -0.0434
 6125SOL    HW130008   4.234   3.339  16.527  2.5002  3.0467 -3.8605
 6125SOL    HW230009   4.340   3.280  16.611  1.6589  1.6083  0.3091
 6126SOL     OW30010   1.232   0.629   5.663 -0.4764 -0.1018  0.2621
 6126SOL    HW130011   1.235   0.714   5.707  1.4878 -0.0166 -0.0242
 6126SOL    HW230012   1.211   0.568   5.735  0.6617  0.0053  0.6916
 6127SOL     OW30013   0.168   3.209  14.704 -0.0634 -0.2989 -0.2613
 6127SOL    HW130014   0.194   3.296  14.672  1.5911 -1.0475 -0.9343
 6127SOL    HW230015   0.099   3.229  14.767 -0.6612  0.0586 -1.0288
 6128SOL     OW30016   4.659   1.861   1.562 -0.5221 -0.1888  0.3489
 6128SOL    HW130017   4.712   1.940   1.553 -1.5684  0.6700  1.7866
 6128SOL    HW230018   4.656   1.851   1.657  1.2779 -2.6015  0.1707
 6129SOL     OW30019   1.687   4.044   2.432  0.7495  0.4053  0.5609
 6129SOL    HW130020   1.679   4.139   2.421  0.8277  0.5493  1.7679
 6129SOL    HW230021   1.609   4.017   2.481  0.9062 -0.5362  0.2920
 6130SOL     OW30022   4.453   4.380   2.061 -0.0797  0.0213 -0.4419
 6130SOL    HW130023   4.383   4.435   2.096  0.9603  0.2107  1.3670
 6130SOL    HW230024   4.505   4.446   2.017 -0.1163  1.3595  1.5198
 6131SOL     OW30025   2.502   3.156   2.059  0.0230 -0.0866  0.2949
 6131SOL    HW130026   2.530   3.134   1.970  0.5878 -1.6524  0.8573
 6131SOL    HW230027   2.546   3.240   2.073 -0.4385  0.2094 -0.0262
 6132SOL     OW30028   1.290   0.873  16.561 -0.3775 -0.4183  1.4114
 6132SOL    HW130029   1.205   0.907  16.533  0.7825 -0.7464 -2.5733
 6132SOL    HW230030   1.318   0.808  16.496 -0.6432  1.5971 -0.7244
 6133SOL     OW30031   3.704   2.788   6.294  0.2357 -0.5988 -0.7259
 6133SOL    HW130032   3.713   2.879   6.322  1.0157 -1.1407  0.7758
 6133SOL    HW230033   3.609   2.781   6.297  0.2682 -1.1740 -1.0674
 6134SOL     OW30034   4.412   0.825   4.483  0.5976 -0.1598 -0.5346
 6134SOL    HW130035   4.499   0.844   4.517 -0.9498  1.2264  2.6201
 6134SOL    HW230036   4.361   0.904   4.500 -0.6779 -0.8398 -1.1459
 6135SOL     OW30037   4.122   0.792   7.840  0.2270 -0.4391  0.2004
 6135SOL    HW130038   4.194   0.761   7.895  1.3955 -1.2880 -1.8035
 6135SOL    HW230039   4.159   0.766   7.755 -1.1425 -0.7678 -0.2936
 6136SOL     OW30040   1.526   0.570   8.206 -0.6548  0.4308  0.8695
 6136SOL    HW130041   1.469   0.544   8.133  0.4669 -1.4593  0.6709
 6136SOL    HW230042   1.494   0.660   8.217 -0.2960  0.6442  0.1907
 6137SOL     OW30043   0.823   4.041   7.072 -0.4159 -0.2689 -0.1005
 6137SOL    HW130044   0.842   4.078   7.158 -0.2033  1.0093 -0.7000
 6137SOL    HW230045   0.742   4.087   7.048 -0.4035  0.3016  0.9373
 6138SOL     OW30046   0.896   1.090   6.559  0.4620  0.4037  0.8325
 6138SOL    HW130047   0.857   1.164   6.606  0.3412 -0.4229  2.0241
 6138SOL    HW230048   0.988   1.091   6.585 -0.7544  2.1033  5.0307
 6139SOL     OW30049   0.139   2.307   6.730  0.1888 -0.4282 -0.1531
 6139SOL    HW130050   0.091   2.384   6.762  0.0358 -1.0236  1.0394
 6139SOL    HW230051   0.076   2.238   6.748  0.1005 -0.3417 -0.1337
 6140SOL     OW30052   3.090   4.024   6.950 -0.3463 -0.1012  0.8913
 6140SOL    HW130053   3.142   4.103   6.938  0.9244 -1.1676 -0.5035
 6140SOL    HW230054   3.133   3.978   7.022  1.5024 -2.0220 -1.4820
 6141SOL     OW30055   0.202   0.933   4.018 -0.7402  0.1065 -0.1482
 6141SOL    HW130056   0.148   1.009   4.042  1.9056  1.7534  0.5394
 6141SOL    HW230057   0.167   0.868   4.078  0.4561 -0.8483 -0.5062
 6142SOL     OW30058   3.799   1.788   8.374  0.1992 -0.0017  0.3731
 6142SOL    HW130059   3.808   1.704   8.329 -0.3137  1.0854 -1.7826
 6142SOL    HW230060   3.785   1.841   8.295  2.1888  1.0355  0.7216
 6143SOL     OW30061   2.574   0.458   2.238 -0.0201  0.3610  1.0099
 6143SOL    HW130062   2.613   0.398   2.302  2.6088  1.8068  0.7914
 6143SOL    HW230063   2.579   0.401   2.161 -0.2546  0.9126  0.5843
 6144SOL     OW30064   0.181   0.474   0.551 -0.0277 -0.5600  0.5701
 6144SOL    HW130065   0.104   0.503   0.503  0.6204 -0.5923 -0.4872
 6144SOL    HW230066   0.163   0.514   0.637  1.3243  2.5606 -0.5735
 6145SOL     OW30067   3.904   1.494   6.917  0.1031  0.2276 -0.0074
 6145SOL    HW130068   3.838   1.558   6.891 -0.9853 -0.1332  1.8407
 6145SOL    HW230069   3.926   1.472   6.826  0.3024 -1.2551  0.3925
 6146SOL     OW30070   3.194   0.639   2.665  1.2595 -0.7545  0.3468
 6146SOL    HW130071   3.193   0.681   2.751 -1.7662 -0.4685  0.1615
 6146SOL    HW230072   3.114   0.586   2.670 -0.3105  1.5832 -0.0004
 6147SOL     OW30073   2.978   2.132   1.952 -0.7884  0.6128 -0.4433
 6147SOL    HW130074   3.022   2.053   1.984 -0.4857  1.0955  0.3195
 6147SOL    HW230075   2.978   2.181   2.034 -3.4081  1.7865 -1.1412
 6148SOL     OW30076   0.196   3.628   8.790 -0.3096  0.0374  0.0600
 6148SOL    HW130077   0.155   3.565   8.731 -0.0988 -0.4333  0.4114
 6148SOL    HW230078   0.275   3.573   8.797  0.2424  0.8415  0.1669
 6149SOL     OW30079   0.255   1.520   8.099 -0.7272 -0.0081  0.2216
 6149SOL    HW130080   0.166   1.532   8.132 -0.6716 -0.2590  0.4658
 6149SOL    HW230081   0.249   1.589   8.033 -1.8724 -0.0623  0.2625
 6150SOL     OW30082   2.087   1.109   7.934 -0.0448 -0.3317  0.4407
 6150SOL    HW130083   2.109   1.017   7.948 -1.2958 -0.5014  1.2925
 6150SOL    HW230084   2.026   1.112   7.861  0.8860 -0.0602 -0.3362
 6151SOL     OW30085   3.118   2.960   2.732 -0.5259 -0.2173 -0.1591
 6151SOL    HW130086   3.075   2.876   2.748  2.5941 -2.0127 -1.2100
 6151SOL    HW230087   3.200   2.945   2.780  0.4828  0.1823 -1.7737
 6152SOL     OW30088   3.553   1.199   3.131 -0.1621 -0.3365  0.2054
 6152SOL    HW130089   3.486   1.234   3.190 -0.5467 -0.7114 -0.0098
 6152SOL    HW230090   3.592   1.280   3.097  0.7122 -0.1845  1.5902
 6153SOL     OW30091   3.938   1.318   7.315  0.3070 -0.4708 -0.1981
 6153SOL    HW130092   3.984   1.245   7.274 -0.7122 -1.1844 -0.0547
 6153SOL    HW230093   3.971   1.305   7.404 -1.6632  1.9111  0.8811
 6154SOL     OW30094   2.736   1.560   5.054  0.1051  0.9256 -0.0194
 6154SOL    HW130095   2.770   1.573   5.142  0.8873  0.6986 -0.2860
 6154SOL    HW230096   2.711   1.468   5.066 -0.2801  0.8925 -1.0120
 6155SOL     OW30097   3.369   3.605   6.666  0.5061  0.4140 -0.1500
 6155SOL    HW130098   3.457   3.588   6.633  1.8785  0.0208  3.7121
 6155SOL    HW230099   3.314   3.564   6.599  1.0891 -1.7859  0.7417
 6156SOL     OW30100   2.119   0.327   2.190  0.6818 -0.4374  0.0603
 6156SOL    HW130101   2.059   0.390   2.230 -0.3071 -0.3342 -1.5751
 6156SOL    HW230102   2.069   0.303   2.112 -1.2806  0.6364  1.0040
 6157SOL     OW30103   0.359   3.848   1.712 -0.5091  0.1125 -0.0273
 6157SOL    HW130104   0.301   3.917   1.745 -0.4165  0.4561 -0.5907
 6157SOL    HW230105   0.398   3.816   1.793  0.7428 -0.3444 -0.8121
 6158SOL     OW30106   1.149   3.967  13.484 -0.2919  0.0257 -0.4882
 6158SOL    HW130107   1.131   3.878  13.512  0.5343  0.4537  1.4135
 6158SOL    HW230108   1.075   3.989  13.427  0.9068  1.2117 -1.5703
 6159SOL     OW30109   0.420   0.963  11.870  0.2306  0.4294  0.1450
 6159SOL    HW130110   0.493   1.025  11.877 -0.7328  1.2735  2.4647
 6159SOL    HW230111   0.467   0.882  11.851 -0.1647  0.3847 -0.6592
 6160SOL     OW30112   3.470   0.394   3.645 -0.0137 -0.3023  0.5646
 6160SOL    HW130113   3.469   0.420   3.553 -1.1205 -1.8885  0.1291
 6160SOL    HW230114   3.375   0.399   3.657  0.0187  0.9945  0.2558
 6161SOL     OW30115   2.924   3.805   7.262  0.4386 -0.7792  0.7935
 6161SOL    HW130116   3.002   3.816   7.317  0.3095  0.6967  0.6655
 6161SOL    HW230117   2.934   3.720   7.218  2.0264 -0.8370  1.2738
 6162SOL     OW30118   2.309   4.441  15.271 -0.1872  0.5394  0.4749
 6162SOL    HW130119   2.337   4.410  15.185 -0.9732 -0.0228  0.4198
 6162SOL    HW230120   2.385   4.496  15.292  0.2710 -0.8775  2.4940
 6163SOL     OW30121   4.036   4.354  14.999  0.2412 -0.0154 -0.3553
 6163SOL    HW130122   4.104   4.373  15.065 -0.3702 -1.5718  0.7337
 6163SOL    HW230123   4.089   4.298  14.943  1.2768 -0.2690  0.8841
 6164SOL     OW30124   1.377   0.916   5.438  0.8357  0.1059  0.2087
 6164SOL    HW130125   1.357   0.889   5.349  0.1857  2.0350 -0.2375
 6164SOL    HW230126   1.471   0.901   5.441  0.6292 -1.3910 -1.2592
 6165SOL     OW30127   0.877   2.944   5.721 -0.2330  0.3065  0.0311
 6165SOL    HW130128   0.917   2.900   5.796  0.3557 -0.6707 -0.8717
 6165SOL    HW230129   0.946   2.974   5.663 -0.3783  2.3655  0.9274
 6166SOL     OW30130   1.125   3.868  12.613  0.2461 -0.5186 -0.2874
 6166SOL    HW130131   1.147   3.961  12.610  2.9028 -1.1660 -0.9823
 6166SOL    HW230132   1.127   3.846  12.520 -0.9270  0.4452 -0.5501
 6167SOL     OW30133   1.963   1.018  10.216 -0.4327  0.1893 -0.1800
 6167SOL    HW130134   2.032   0.976  10.165  0.2877  0.4290  0.6117
 6167SOL    HW230135   1.909   0.942  10.241 -1.0750  1.1633  1.4209
 6168SOL     OW30136   2.145   1.668  16.197  0.0047 -0.0664 -0.5419
 6168SOL    HW130137   2.238   1.677  16.216  0.1034 -0.4945 -0.8134
 6168SOL    HW230138   2.148   1.607  16.123  1.2054 -0.6022 -0.0439
 6169SOL     OW30139   3.150   0.689   1.310  0.0014 -0.5299  0.2136
 6169SOL    HW130140   3.112   0.666   1.396  0.6042 -1.5625  0.2075
 6169SOL    HW230141   3.209   0.616   1.292 -1.2817 -1.6371  0.4204
 6170SOL     OW30142   1.568   0.479   9.219 -0.3016  0.0962 -0.2100
 6170SOL    HW130143   1.523   0.434   9.148 -1.5491 -2.0153  1.8972
 6170SOL    HW230144   1.654   0.439   9.208 -0.2485 -0.1421  1.0051
 6171SOL     OW30145   3.997   3.813   3.205  0.7224  0.2620  0.0320
 6171SOL    HW130146   3.954   3.730   3.224 -1.3727  2.0696  3.1993
 6171SOL    HW230147   4.057   3.814   3.280  0.2758  0.7359  0.3842
 6172SOL     OW30148   0.773   1.753   7.683 -0.2076  0.6543  0.3723
 6172SOL    HW130149   0.828   1.704   7.744  0.6031 -1.4919 -2.0834
 6172SOL    HW230150   0.727   1.815   7.739 -0.5769  1.7997 -1.1940
 6173SOL     OW30151   3.671   0.936  16.106  0.1424 -0.0552 -0.1394
 6173SOL    HW130152   3.701   0.949  16.016 -2.1236  0.9940 -0.7607
 6173SOL    HW230153   3.596   0.876  16.097 -0.4820  0.4914  1.3319
 6174SOL     OW30154   2.885   4.068  15.912  0.3470  0.1391  0.2794
 6174SOL    HW130155   2.877   4.021  15.996 -0.2457  0.0791  0.1857
 6174SOL    HW230156   2.826   4.141  15.926  0.5079  0.3611 -0.2081
 6175SOL     OW30157   3.364   2.030   8.010 -0.3715  0.1133  0.1742
 6175SOL    HW130158   3.318   2.024   8.093  0.0900 -1.0093  0.3562
 6175SOL    HW230159   3.334   2.112   7.972 -2.3114 -0.6153  0.1333
 6176SOL     OW30160   3.925   0.898   7.984  0.1459  0.0112  0.3728
 6176SOL    HW130161   3.977   0.911   8.064  2.6383 -0.3386 -1.1728
 6176SOL    HW230162   3.990   0.856   7.927 -1.7923 -1.2022 -0.9029
 6177SOL     OW30163   2.415   2.292   6.917  0.1668  0.4309 -0.0884
 6177SOL    HW130164   2.489   2.240   6.948  0.4151 -0.5520 -2.3692
 6177SOL    HW230165   2.425   2.287   6.822  0.9864 -0.6871  0.0585
 6178SOL     OW30166   3.378   2.841  17.481  0.8506 -0.5917  0.3967
 6178SOL    HW130167   3.461   2.803  17.451 -0.3432 -1.9534 -1.1585
 6178SOL    HW230168   3.324   2.765  17.504 -0.4570 -0.2939 -1.8031
 6179SOL     OW30169   2.070   1.703  13.664  0.3325  0.3743 -0.0558
 6179SOL    HW130170   2.072   1.689  13.758  0.9650  3.1436  0.3329
 6179SOL    HW230171   2.092   1.796  13.662  0.1037  0.4152 -0.8302
 6180SOL     OW30172   4.303   4.141  16.549  0.4893  0.1547 -0.8336
 6180SOL    HW130173   4.340   4.150  16.461 -0.7851  0.3263 -1.3574
 6180SOL    HW230174   4.237   4.074  16.535  0.8669 -1.0282  3.0027
 6181SOL     OW30175   0.792   2.601   5.411 -1.0803  0.3202 -0.1811
 6181SOL    HW130176   0.775   2.695   5.415  0.2311  0.4047  3.9572
 6181SOL    HW230177   0.702   2.578   5.387 -0.1629 -2.5828 -0.7908
 6182SOL     OW30178   2.816   1.475   2.031  0.2764 -0.1966  0.0851
 6182SOL    HW130179   2.758   1.536   1.986 -1.1201 -1.9415 -0.4725
 6182SOL    HW230180   2.873   1.532   2.084 -0.2091 -1.6755  2.2148
 6183SOL     OW30181   1.345   3.777   7.439 -0.1406 -0.1633 -0.1315
 6183SOL    HW130182   1.421   3.770   7.381 -0.0153  0.2291 -0.0132
 6183SOL    HW230183   1.337   3.688   7.473 -0.5644 -0.2469 -0.4582
 6184SOL     OW30184   3.282   0.032   4.138  0.2973  0.6030  0.1325
 6184SOL    HW130185   3.345   4.709   4.181  0.9458 -0.6898 -2.5443
 6184SOL    HW230186   3.277   4.723   4.053  0.0510  0.1343  0.3889
 6185SOL     OW30187   2.982   1.314   8.018  0.2930  0.1455 -0.2518
 6185SOL    HW130188   2.893   1.285   8.039  0.2602  0.3228 -0.1494
 6185SOL    HW230189   2.952   1.398   7.985  0.1843  0.1088 -0.2471
 6186SOL     OW30190   3.623   1.516   4.101 -0.3898 -0.1930  0.1729
 6186SOL    HW130191   3.589   1.540   4.187  1.3119  2.1445  0.1901
 6186SOL    HW230192   3.716   1.509   4.122 -0.2651 -0.5954 -0.5027
 6187SOL     OW30193   2.703   2.307   4.099 -0.2366  0.0146  0.0331
 6187SOL    HW130194   2.657   2.390   4.086 -0.5523 -0.4779 -1.9691
 6187SOL    HW230195   2.708   2.265   4.014  0.4908 -3.6468  1.9037
 6188SOL     OW30196   4.013   2.584   6.411  0.1080  0.0519  0.6101
 6188SOL    HW130197   4.023   2.675   6.382 -1.7558 -0.2039 -0.8802
 6188SOL    HW230198   4.103   2.553   6.408 -0.0643 -0.3253 -0.3680
 6189SOL     OW30199   0.437   0.308   4.513 -0.0683  0.8160  0.8599
 6189SOL    HW130200   0.364   0.263   4.555  0.7937  0.1275  1.6417
 6189SOL    HW230201   0.501   0.267   4.571 -2.2878 -0.8754  2.1172
 6190SOL     OW30202   3.247   1.511   5.079  0.0740  0.2565 -0.7914
 6190SOL    HW130203   3.219   1.554   4.998  0.8878  0.5887 -0.9067
 6190SOL    HW230204   3.170   1.530   5.132 -1.0928  0.0292 -2.4168
 6191SOL     OW30205   4.370   3.643   2.690 -1.1406  0.0458 -0.5066
 6191SOL    HW130206   4.314   3.578   2.648  1.5897 -2.5660 -0.1617
 6191SOL    HW230207   4.329   3.649   2.776  1.9055  2.2042  0.7789
 6192SOL     OW30208   4.284   3.881  16.013  0.2617 -0.1636 -0.2268
 6192SOL    HW130209   4.213   3.843  16.065  0.3904  0.8600  0.7009
 6192SOL    HW230210   4.355   3.819  16.033 -0.2591  0.1960  2.6987
 6193SOL     OW30211   3.745   1.688   5.999 -0.3938 -0.2803  0.3044
 6193SOL    HW130212   3.740   1.726   6.087  1.5718 -0.6919  0.5922
 6193SOL    HW230213   3.738   1.595   6.020  0.5802 -0.9199 -2.2043
 6194SOL     OW30214   3.126   4.320   0.722 -0.0353  0.4136 -0.0253
 6194SOL    HW130215   3.098   4.381   0.790  1.7540 -0.1688  1.2355
 6194SOL    HW230216   3.104   4.367   0.642 -0.4587 -0.7307 -0.5845
 6195SOL     OW30217   2.492   0.915   1.580  0.5091 -0.5270 -0.1957
 6195SOL    HW130218   2.544   0.902   1.501 -3.0249  0.3004 -2.6519
 6195SOL    HW230219   2.552   0.866   1.636  2.3153  1.7800 -0.0977
 6196SOL     OW30220   2.893   4.092   8.364  0.1958  0.5078  0.1709
 6196SOL    HW130221   2.935   4.155   8.306 -0.4947  2.4137  1.7223
 6196SOL    HW230222   2.808   4.076   8.324  1.3394 -1.0605 -1.6229
 6197SOL     OW30223   4.545   3.229   5.947  0.3196 -0.6063 -0.5078
 6197SOL    HW130224   4.488   3.214   6.022 -1.4309 -1.8862 -2.0699
 6197SOL    HW230225   4.482   3.219   5.875  0.9180  1.8987 -1.3589
 6198SOL     OW30226   4.733   0.944   9.097  0.1526  0.4710 -0.6359
 6198SOL    HW130227   4.699   0.995   9.024  2.4508  1.2515 -1.1715
 6198SOL    HW230228   4.655   0.941   9.153 -0.4080 -0.8827 -1.4849
 6199SOL     OW30229   1.386   0.860  15.909  0.3365 -0.1952 -0.2326
 6199SOL    HW130230   1.332   0.921  15.959 -0.0536  0.8662 -1.9596
 6199SOL    HW230231   1.403   0.926  15.841  2.4764 -2.4971 -1.9133
 6200SOL     OW30232   3.821   1.256  15.097  0.0398 -0.4450 -0.3378
 6200SOL    HW130233   3.750   1.319  15.081 -0.3546 -0.9614 -0.6427
 6200SOL    HW230234   3.903   1.305  15.094 -0.2933  0.1211 -0.1817
 6201SOL     OW30235   3.008   3.912   5.366  0.1631 -0.0299 -0.6517
 6201SOL    HW130236   3.048   3.994   5.338  2.9198 -0.2043  2.7771
 6201SOL    HW230237   3.038   3.858   5.294 -1.3782 -0.3342 -1.0701
 6202SOL     OW30238   4.059   0.777   6.135 -0.1996 -0.3754  0.1106
 6202SOL    HW130239   4.008   0.721   6.194  0.1626 -0.6552  0.1620
 6202SOL    HW230240   4.091   0.719   6.066  0.7235  0.2995 -0.0250
 6203SOL     OW30241   3.182   3.444   3.052  0.6594 -0.6621 -0.2723
 6203SOL    HW130242   3.172   3.351   3.032 -1.4917 -0.6158  0.5528
 6203SOL    HW230243   3.208   3.484   2.969 -2.8573 -1.8253 -1.9318
 6204SOL     OW30244   0.496   0.767   8.377  0.3215 -0.4503 -0.8009
 6204SOL    HW130245   0.587   0.773   8.348  0.0821  1.4809 -1.1323
 6204SOL    HW230246   0.491   0.682   8.421  0.1587  0.3254  0.6704
 6205SOL     OW30247   1.020   1.734  12.306 -0.6693 -0.1844  0.7458
 6205SOL    HW130248   1.092   1.680  12.272 -2.9990 -3.4756  1.0601
 6205SOL    HW230249   1.041   1.827  12.302 -0.2289 -0.3318 -0.2461
 6206SOL     OW30250   0.514   2.753   4.313  0.7084 -0.1833  0.5052
 6206SOL    HW130251   0.544   2.843   4.298 -1.6771  0.2618 -1.7158
 6206SOL    HW230252   0.580   2.703   4.266  0.8765  0.4217  0.0879
 6207SOL     OW30253   1.918   1.838   0.392  1.0447  0.2113 -0.8282
 6207SOL    HW130254   1.989   1.898   0.414 -0.4649  1.9023 -0.5787
 6207SOL    HW230255   1.878   1.813   0.475 -0.9515 -0.3043 -1.9512
 6208SOL     OW30256   4.089   3.604  11.524 -0.0800  0.1132 -0.7871
 6208SOL    HW130257   4.122   3.536  11.465 -1.2306  0.0627 -1.3709
 6208SOL    HW230258   4.099   3.683  11.472  0.6854  1.0129  0.7533
 6209SOL     OW30259   1.153   0.304   1.620  0.8284  0.5558 -0.0689
 6209SOL    HW130260   1.146   0.322   1.714 -1.8803 -0.4864 -0.0745
 6209SOL    HW230261   1.204   0.378   1.588  1.6019  1.1489  2.4650
 6210SOL     OW30262   0.824   1.801   4.839  0.1939 -0.4658 -0.0952
 6210SOL    HW130263   0.799   1.843   4.756 -1.7584 -1.5591 -0.0707
 6210SOL    HW230264   0.807   1.711   4.810 -0.6142 -0.4279  0.2673
 6211SOL     OW30265   3.309   1.465   3.729  0.4727 -0.0133  0.1769
 6211SOL    HW130266   3.222   1.462   3.768  0.8032 -1.9860  0.7624
 6211SOL    HW230267   3.320   1.555   3.696 -0.6471  0.5162  1.2610
 6212SOL     OW30268   4.021   3.431   1.958  0.0073  0.6602 -0.4031
 6212SOL    HW130269   3.937   3.432   1.911  0.2295  0.0749 -0.8135
 6212SOL    HW230270   4.080   3.472   1.895  1.3599 -0.2993  0.2362
 6213SOL     OW30271   0.056   2.484  17.043 -0.4238  0.4614 -0.0883
 6213SOL    HW130272   4.696   2.467  17.034 -0.4949  0.8913 -0.1462
 6213SOL    HW230273   0.079   2.515  16.955 -2.9124 -0.6184 -1.1331
 6214SOL     OW30274   3.063   0.175   8.619  0.1487 -0.1719 -0.5100
 6214SOL    HW130275   3.057   0.092   8.573  1.9715 -1.1482  1.0069
 6214SOL    HW230276   3.113   0.148   8.696 -1.4077 -0.2739  0.4626
 6215SOL     OW30277   3.816   2.064  10.137 -0.6271  0.3027 -0.2480
 6215SOL    HW130278   3.727   2.080  10.169 -0.6174  0.9949 -0.5859
 6215SOL    HW230279   3.854   1.998  10.195 -0.5480  1.2162  0.7332
 6216SOL     OW30280   1.277   2.466   4.767  0.3111 -0.0904 -0.2078
 6216SOL    HW130281   1.354   2.523   4.760  0.0888  0.3633  1.0110
 6216SOL    HW230282   1.222   2.523   4.820 -0.9021 -1.4527 -0.0051
 6217SOL     OW30283   4.072   0.842   5.428  0.1759 -0.7159  0.3518
 6217SOL    HW130284   4.134   0.902   5.389 -0.2239  0.1573  1.0402
 6217SOL    HW230285   4.087   0.833   5.522 -0.0412 -0.4065  0.4160
 6218SOL     OW30286   2.612   0.583  15.691  0.4695 -0.0878  0.2257
 6218SOL    HW130287   2.559   0.553  15.617 -1.0233  1.7793  0.5369
 6218SOL    HW230288   2.638   0.496  15.720  0.9352  0.3438  1.0930
 6219SOL     OW30289   4.037   2.904   7.912  0.2393 -0.4080  0.0276
 6219SOL    HW130290   4.053   2.934   7.823 -1.2589 -2.6232 -0.9946
 6219SOL    HW230291   4.022   2.986   7.958 -1.8947 -0.4779 -0.5547
 6220SOL     OW30292   2.036   1.283  16.459 -0.1506 -0.5903  0.4372
 6220SOL    HW130293   2.128   1.305  16.470 -0.2792 -0.7769  1.8359
 6220SOL    HW230294   2.019   1.228  16.535 -2.2449 -1.6930 -0.8000
 6221SOL     OW30295   4.121   1.990   9.990  0.3990  0.2253 -0.5875
 6221SOL    HW130296   4.170   1.999   9.909 -0.5865 -0.9039 -1.3119
 6221SOL    HW230297   4.031   1.993   9.958  0.6758 -2.5881 -1.5692
 6222SOL     OW30298   2.428   1.142   4.684  0.1246  0.0648  0.4792
 6222SOL    HW130299   2.427   1.067   4.624  4.1021 -1.4556  2.3216
 6222SOL    HW230300   2.358   1.195   4.647  1.0700 -0.0268 -1.5013
 6223SOL     OW30301   2.907   4.390  17.430  0.3435  0.3849  0.1494
 6223SOL    HW130302   2.953   4.364  17.350 -1.2358  0.5783 -0.8205
 6223SOL    HW230303   2.813   4.388  17.410  0.3376 -1.4195  0.3451
 6224SOL     OW30304   3.592   1.160   6.114 -0.3672  0.3715  0.0895
 6224SOL    HW130305   3.531   1.086   6.117  0.1870 -0.1329 -0.9192
 6224SOL    HW230306   3.539   1.234   6.086 -3.7758 -2.2359 -0.3750
 6225SOL     OW30307   2.013   3.775  13.073 -0.3006  0.2997 -0.3622
 6225SOL    HW130308   1.982   3.858  13.110  0.9366 -0.0445  1.4014
 6225SOL    HW230309   2.015   3.804  12.981  0.5853 -0.0089 -0.4320
 6226SOL     OW30310   0.826   2.107   3.595 -0.4432 -0.4178 -0.1640
 6226SOL    HW130311   0.871   2.145   3.671 -0.7347 -2.2011  0.9183
 6226SOL    HW230312   0.863   2.161   3.526  1.6421 -0.3415  0.9901
 6227SOL     OW30313   2.101   4.548   1.070  0.0720  0.1186  0.0910
 6227SOL    HW130314   2.132   4.559   1.160 -0.4320  1.4793  0.0971
 6227SOL    HW230315   2.162   4.478   1.046 -1.2689 -0.4877 -1.5358
 6228SOL     OW30316   0.251   2.418   9.296 -0.0897  0.1351  0.1687
 6228SOL    HW130317   0.222   2.361   9.368  2.4096 -0.4903  0.6660
 6228SOL    HW230318   0.335   2.374   9.285 -0.8975 -1.5349  0.5838
 6229SOL     OW30319   1.570   2.687  13.112  0.4105  0.7680  0.0877
 6229SOL    HW130320   1.651   2.708  13.159 -1.1417  1.4381  2.4938
 6229SOL    HW230321   1.597   2.703  13.022  3.1044  0.6819  0.8598
 6230SOL     OW30322   2.655   0.476   4.967  0.3082 -0.6469 -0.0151
 6230SOL    HW130323   2.708   0.401   4.942 -3.0717 -2.2149 -2.3609
 6230SOL    HW230324   2.678   0.480   5.060  0.5071 -2.3064  0.0079
 6231SOL     OW30325   1.157   2.159   6.513 -0.6675  0.0026 -0.2732
 6231SOL    HW130326   1.142   2.210   6.433  1.1986  1.3890  0.2555
 6231SOL    HW230327   1.234   2.205   6.546 -0.3035 -1.4189  0.8730
 6232SOL     OW30328   3.422   2.790  16.417 -0.0667  0.2895 -0.1268
 6232SOL    HW130329   3.415   2.795  16.321  1.1567 -3.0409 -0.4045
 6232SOL    HW230330   3.351   2.846  16.448  0.9200  1.1799  0.5200
 6233SOL     OW30331   2.341   2.702  16.055 -0.0981 -0.2711  0.2743
 6233SOL    HW130332   2.377   2.673  16.138  0.1550  2.6099  1.1494
 6233SOL    HW230333   2.271   2.764  16.078  0.5242  0.2452  0.7597
 6234SOL     OW30334   2.835   1.761   9.808 -0.1148 -0.4287  0.8035
 6234SOL    HW130335   2.747   1.726   9.795 -0.6277  0.9154  0.6726
 6234SOL    HW230336   2.865   1.784   9.719 -1.1485  1.3997  0.9254
 6235SOL     OW30337   2.013   2.301   4.168  0.1544 -0.0829 -0.0535
 6235SOL    HW130338   1.996   2.391   4.193 -0.1232  0.2296 -1.3792
 6235SOL    HW230339   1.930   2.278   4.127 -1.0361  1.5375  1.4629
 6236SOL     OW30340   3.073   4.436  15.643 -0.2638  0.4277 -0.1854
 6236SOL    HW130341   2.978   4.438  15.655 -0.1012 -0.3432  1.2655
 6236SOL    HW230342   3.099   4.364  15.701 -0.4169 -0.6873 -1.5116
 6237SOL     OW30343   4.297   3.812   4.819  0.1739 -0.5879  0.3023
 6237SOL    HW130344   4.230   3.837   4.755  0.1574  0.1638  0.6172
 6237SOL    HW230345   4.364   3.880   4.813  2.3009 -2.5287  1.7894
 6238SOL     OW30346   4.233   3.951   7.432 -0.3884 -0.6270  0.3730
 6238SOL    HW130347   4.188   3.924   7.511  1.2107 -1.0531  1.1478
 6238SOL    HW230348   4.326   3.941   7.455 -0.1459  0.1582 -0.2461
 6239SOL     OW30349   1.354   0.186  14.829 -0.1671  0.0437 -0.0260
 6239SOL    HW130350   1.364   0.251  14.760  0.0333  0.5961  0.5252
 6239SOL    HW230351   1.370   0.110  14.774  3.5392  0.0969  0.9799
 6240SOL     OW30352   1.285   3.522   7.541 -0.6426  0.2970 -0.4693
 6240SOL    HW130353   1.250   3.495   7.456 -2.5831  0.1275  0.4110
 6240SOL    HW230354   1.241   3.463   7.602  1.8060 -1.5588 -0.4909
 6241SOL     OW30355   2.300   1.832   3.875 -0.0395 -0.4084  0.0210
 6241SOL    HW130356   2.351   1.827   3.794  1.3862 -2.8746  1.0644
 6241SOL    HW230357   2.213   1.801   3.849  0.6747 -2.0992 -0.3128
 6242SOL     OW30358   4.549   4.312   5.993  0.5054  1.1532  0.2426
 6242SOL    HW130359   4.540   4.400   6.030 -0.7762  2.0732 -2.2410
 6242SOL    HW230360   4.568   4.332   5.902 -0.0440 -1.1578 -0.3899
 6243SOL     OW30361   1.407   0.526  13.817 -0.1119  0.2241 -0.0495
 6243SOL    HW130362   1.426   0.520  13.910  0.8236  0.0395 -0.2530
 6243SOL    HW230363   1.377   0.616  13.805 -2.5030 -0.3997  1.2127
 6244SOL     OW30364   4.498   0.538  15.596 -0.2943 -0.6930  0.6480
 6244SOL    HW130365   4.586   0.522  15.561 -1.8903 -1.2935 -3.1642
 6244SOL    HW230366   4.454   0.591  15.530 -1.0176  2.2143  3.5088
 6245SOL     OW30367   2.154   4.309   0.217 -0.2469 -0.2166 -0.0378
 6245SOL    HW130368   2.187   4.398   0.223 -0.0327 -0.3961  1.5429
 6245SOL    HW230369   2.229   4.255   0.192  0.6708 -0.2680  2.8084
 6246SOL     OW30370   3.988   0.656   4.804 -0.1489 -0.0033 -0.0826
 6246SOL    HW130371   3.987   0.704   4.721  1.3023  0.3609  0.1061
 6246SOL    HW230372   4.073   0.678   4.844  0.0513 -0.0765 -0.4700
 6247SOL     OW30373   2.640   1.238  12.646  0.0991  0.0727 -0.1170
 6247SOL    HW130374   2.656   1.146  12.623 -1.5980 -0.2528 -0.0270
 6247SOL    HW230375   2.653   1.284  12.563 -0.3927  1.9174  0.8172
 6248SOL     OW30376   3.130   3.055   4.338  0.4213 -0.5953 -0.6759
 6248SOL    HW130377   3.219   3.089   4.345  0.8421 -1.4825 -1.7138
 6248SOL    HW230378   3.134   3.009   4.254 -3.0844 -1.0064 -0.5991
 6249SOL     OW30379   2.932   3.191  16.930 -0.5117  0.0669 -0.3305
 6249SOL    HW130380   3.018   3.202  16.970  0.4641 -2.1363 -1.7832
 6249SOL    HW230381   2.870   3.238  16.985 -1.6092 -2.3202  0.4660
 6250SOL     OW30382   2.844   3.085   2.745  0.2086 -0.2421  0.0605
 6250SOL    HW130383   2.820   3.178   2.745 -1.2763 -0.6275 -2.6595
 6250SOL    HW230384   2.854   3.069   2.651 -1.7383 -2.0104  0.1716
 6251SOL     OW30385   0.772   0.088   6.780 -0.0815 -0.3471 -0.3787
 6251SOL    HW130386   0.852   0.119   6.822 -1.8061  2.5676  0.7732
 6251SOL    HW230387   0.781   0.127   6.693 -3.0057  0.9989 -0.0723
 6252SOL     OW30388   1.811   1.252  10.216  0.1601  0.2864 -0.0211
 6252SOL    HW130389   1.882   1.189  10.207 -0.5911 -0.3784 -1.3391
 6252SOL    HW230390   1.761   1.226  10.139  1.8766 -0.1517 -0.9818
 6253SOL     OW30391   1.289   1.460   5.732 -0.2465  0.3913  0.4426
 6253SOL    HW130392   1.297   1.471   5.827  2.9844  0.3535  0.1821
 6253SOL    HW230393   1.202   1.421   5.738 -0.4929  1.0832  1.2280
 6254SOL     OW30394   1.021   1.225   2.797 -0.2963 -0.6045 -0.3252
 6254SOL    HW130395   1.027   1.314   2.763  0.7794 -0.4202  0.3443
 6254SOL    HW230396   1.093   1.231   2.860 -0.5063 -0.5170 -0.0949
 6255SOL     OW30397   1.484   1.353   7.164  0.2169  0.3552 -0.2137
 6255SOL    HW130398   1.502   1.276   7.218 -0.8655  0.3687  0.1612
 6255SOL    HW230399   1.390   1.353   7.144 -0.0207 -0.8767  0.9403
 6256SOL     OW30400   1.444   3.767  13.531  0.0448  0.4177  0.0745
 6256SOL    HW130401   1.390   3.716  13.591  0.8251  1.3646  1.5905
 6256SOL    HW230402   1.432   3.851  13.575 -0.3744 -0.0514  0.8575
 6257SOL     OW30403   0.473   3.618   6.459 -0.0661 -0.1068 -0.4167
 6257SOL    HW130404   0.553   3.663   6.486 -0.8980  1.4091 -0.4968
 6257SOL    HW230405   0.481   3.613   6.363  1.6789  0.4199 -0.2998
 6258SOL     OW30406   1.816   1.804   8.098  0.0128  0.3957  0.4896
 6258SOL    HW130407   1.751   1.739   8.074  0.5388 -0.3485  1.0572
 6258SOL    HW230408   1.765   1.882   8.079  0.5525  0.7843  0.6210
 6259SOL     OW30409   2.530   2.444   6.017 -0.1249 -0.2311  0.6685
 6259SOL    HW130410   2.465   2.412   5.955  0.7271 -0.3669 -0.1550
 6259SOL    HW230411   2.481   2.488   6.086  1.3212  1.9292  0.3148
 6260SOL     OW30412   1.469   3.142   5.560 -0.2385  0.3520 -0.1270
 6260SOL    HW130413   1.421   3.067   5.525 -0.3189  0.8614 -1.0913
 6260SOL    HW230414   1.552   3.095   5.573 -0.0547  1.5040  3.0393
 6261SOL     OW30415   0.848   1.004   6.312 -0.6384 -0.2937 -0.1294
 6261SOL    HW130416   0.881   1.018   6.401 -0.7900 -0.0084 -0.1176
 6261SOL    HW230417   0.767   1.054   6.308  0.1797  0.9419 -1.5734
 6262SOL     OW30418   2.338   3.619   6.853 -0.7177 -0.5162  0.6547
 6262SOL    HW130419   2.268   3.674   6.888  2.0914  1.3285  3.3111
 6262SOL    HW230420   2.385   3.612   6.936  0.0606 -1.7715  0.1052
 6263SOL     OW30421   2.347   4.609  10.896 -0.5507  0.4108  0.2562
 6263SOL    HW130422   2.261   4.578  10.923  0.1849 -2.4115 -0.6567
 6263SOL    HW230423   2.392   4.533  10.859  2.2501  1.3844  1.6566
 6264SOL     OW30424   4.261   2.451   2.083  0.3337 -0.2422  0.0015
 6264SOL    HW130425   4.246   2.399   2.161  0.8107  0.4235  0.5322
 6264SOL    HW230426   4.172   2.480   2.062 -0.1630 -2.1905 -0.6151
 6265SOL     OW30427   0.866   0.291   5.877 -0.0606  0.6932 -0.0562
 6265SOL    HW130428   0.951   0.331   5.898 -0.1593 -0.4136  2.5343
 6265SOL    HW230429   0.885   0.234   5.803 -0.0277 -0.8027  1.0987
 6266SOL     OW30430   2.873   1.234   6.648  0.6986  0.0802  0.0580
 6266SOL    HW130431   2.951   1.225   6.704  1.5392  4.0856 -0.4883
 6266SOL    HW230432   2.874   1.150   6.602  2.1935 -0.5764  1.2498
 6267SOL     OW30433   0.602   4.137   8.015  0.2293  0.1674 -0.0652
 6267SOL    HW130434   0.515   4.127   8.055  1.2766 -2.1134  1.6717
 6267SOL    HW230435   0.642   4.219   8.042 -0.2422  0.2908  0.2555
 6268SOL     OW30436   2.927   1.287   4.291  0.0721  0.5440 -0.3103
 6268SOL    HW130437   2.876   1.302   4.212 -1.4997  1.1693  0.8205
 6268SOL    HW230438   2.981   1.213   4.263  0.7481  0.5887  0.8772
 6269SOL     OW30439   4.337   3.964   4.412  0.2984  0.4697 -0.2489
 6269SOL    HW130440   4.375   4.047   4.438  0.8409  0.3128 -0.5443
 6269SOL    HW230441   4.408   3.901   4.396 -0.5839 -0.3984 -0.7497
 6270SOL     OW30442   2.418   0.409   5.479  0.6126  0.4630  0.5960
 6270SOL    HW130443   2.405   0.436   5.389  0.8233 -0.6531  0.2326
 6270SOL    HW230444   2.325   0.414   5.500  0.6284  0.6580  0.6214
 6271SOL     OW30445   3.062   4.129   2.099  0.2404  0.0617 -0.0039
 6271SOL    HW130446   3.016   4.211   2.085 -0.1443 -0.6247 -2.6504
 6271SOL    HW230447   3.144   4.145   2.051  0.6562  0.1613  0.7355
 6272SOL     OW30448   1.596   1.059  13.092  0.1274  0.0189  0.6332
 6272SOL    HW130449   1.631   1.001  13.160 -0.3922 -1.1071 -0.0736
 6272SOL    HW230450   1.678   1.087  13.051 -0.1113 -0.8193 -0.3859
 6273SOL     OW30451   1.568   3.018  11.762 -0.3462 -0.1060  0.0832
 6273SOL    HW130452   1.559   2.948  11.698 -0.2826  1.9496 -2.1971
 6273SOL    HW230453   1.562   3.097  11.707  3.4015 -0.5885 -1.0155
 6274SOL     OW30454   2.778   4.442   1.177 -0.4168 -0.7190  0.6303
 6274SOL    HW130455   2.779   4.401   1.263  1.8091 -0.3634  0.7526
 6274SOL    HW230456   2.820   4.369   1.132 -1.6797 -0.0653 -1.6229
 6275SOL     OW30457   0.171   0.170   5.347 -0.6726 -0.2664  0.1325
 6275SOL    HW130458   0.243   0.232   5.353 -0.3018 -0.9955  2.8336
 6275SOL    HW230459   0.108   0.200   5.412  0.9386  1.7719  0.7425
 6276SOL     OW30460   4.158   4.271   6.945 -0.2967  0.3914 -0.6379
 6276SOL    HW130461   4.096   4.210   6.904 -0.1483 -1.9355  2.6145
 6276SOL    HW230462   4.106   4.351   6.935 -1.1313 -0.1141 -0.3961
 6277SOL     OW30463   2.781   2.793   9.002  0.2858  0.5067 -0.1648
 6277SOL    HW130464   2.795   2.887   8.986 -1.9962  0.4814 -2.3181
 6277SOL    HW230465   2.860   2.781   9.055 -0.1810  0.2108  0.4540
 6278SOL     OW30466   3.741   2.364   4.151 -0.3983  0.2148  0.4888
 6278SOL    HW130467   3.835   2.379   4.142 -0.3671 -0.8108 -0.8343
 6278SOL    HW230468   3.752   2.285   4.099 -0.2159  0.6133 -0.0668
 6279SOL     OW30469   0.870   2.183  15.987  0.2271 -0.3079  0.1038
 6279SOL    HW130470   0.884   2.126  16.062  1.0223 -3.1478 -2.2062
 6279SOL    HW230471   0.780   2.157  15.966  0.2587  0.3008 -0.7662
 6280SOL     OW30472   0.154   1.617   0.405 -0.0229  0.0344  0.0961
 6280SOL    HW130473   0.066   1.654   0.406 -0.1740 -0.3337  0.1200
 6280SOL    HW230474   0.123   1.527   0.414 -1.6388  0.2905 -2.8813
 6281SOL     OW30475   1.768   1.112   6.689 -0.6952 -0.8588  0.2753
 6281SOL    HW130476   1.715   1.035   6.669 -0.2784 -0.1617 -3.5595
 6281SOL    HW230477   1.707   1.184   6.705  1.5490  1.1650 -0.4346
 6282SOL     OW30478   0.162   4.524   7.166  0.3677  0.0852 -0.2157
 6282SOL    HW130479   0.184   4.589   7.099 -0.2640 -1.1339 -1.6149
 6282SOL    HW230480   0.215   4.564   7.235  1.0243 -0.8805 -0.1547
 6283SOL     OW30481   3.252   4.517   9.337  0.2486 -0.1819 -0.0532
 6283SOL    HW130482   3.176   4.498   9.283  0.9648  0.1358 -1.1750
 6283SOL    HW230483   3.218   4.590   9.389  1.1545  0.2959 -0.1311
 6284SOL     OW30484   1.847   4.659   5.746  0.2525  0.8745  0.6078
 6284SOL    HW130485   1.792   4.611   5.684  0.3996  0.1222  1.0665
 6284SOL    HW230486   1.910   4.594   5.778  0.4512  2.3770  3.2304
 6285SOL     OW30487   2.190   0.307   6.121  0.5799 -0.3792  0.3798
 6285SOL    HW130488   2.211   0.268   6.036 -2.6223  0.2462 -0.7056
 6285SOL    HW230489   2.105   0.268   6.140  0.6689 -1.7030 -1.8680
 6286SOL     OW30490   0.750   1.668   2.919  0.1670  0.2239 -0.8199
 6286SOL    HW130491   0.718   1.751   2.955  2.8160  1.4182 -1.2420
 6286SOL    HW230492   0.844   1.676   2.931  0.1503  1.2173 -1.3976
 6287SOL     OW30493   1.916   2.694   8.340  0.3229  0.3653 -0.0113
 6287SOL    HW130494   1.832   2.663   8.305  0.9345 -1.4282  0.1246
 6287SOL    HW230495   1.938   2.615   8.388 -0.0499 -0.7668 -1.6786
 6288SOL     OW30496   0.048   0.582   0.745 -0.7277 -0.5644  0.6165
 6288SOL    HW130497   0.014   0.633   0.818  2.0019  2.3417 -0.1360
 6288SOL    HW230498   4.734   0.605   0.666 -0.2906  0.6967  0.7038
 6289SOL     OW30499   3.201   1.686  16.540  0.3694 -0.2781  0.2155
 6289SOL    HW130500   3.180   1.750  16.608  2.2390  0.2498  0.3130
 6289SOL    HW230501   3.270   1.727  16.487 -0.4820 -1.6815 -1.9422
 6290SOL     OW30502   2.728   0.418   0.897 -0.5715 -0.3956  0.8311
 6290SOL    HW130503   2.684   0.370   0.967  0.2998 -0.7209  1.1577
 6290SOL    HW230504   2.775   0.348   0.851 -1.7993 -0.5382 -0.2169
 6291SOL     OW30505   4.501   3.059  14.716  0.1145 -0.8026 -0.2261
 6291SOL    HW130506   4.562   3.059  14.642 -0.0130  1.7222 -0.3563
 6291SOL    HW230507   4.446   3.133  14.691  0.4380 -1.0144 -1.5890
 6292SOL     OW30508   0.840   0.534   1.234 -0.4764 -0.0877 -0.2564
 6292SOL    HW130509   0.915   0.523   1.292  1.2710 -0.7360 -2.6305
 6292SOL    HW230510   0.830   0.629   1.240  0.6654  0.0217 -0.1363
 6293SOL     OW30511   1.826   4.674   4.478 -0.0806  0.5479  0.1975
 6293SOL    HW130512   1.848   4.649   4.568 -1.1478 -0.3880  0.2009
 6293SOL    HW230513   1.783   4.598   4.439 -1.2314  0.9675  0.6615
 6294SOL     OW30514   3.385   4.617   3.448 -0.0526 -0.4396  0.5364
 6294SOL    HW130515   3.378   4.712   3.463 -0.2160 -0.4360  0.4400
 6294SOL    HW230516   3.445   4.603   3.521  0.6061 -0.5161 -0.0274
 6295SOL     OW30517   0.106   3.974   2.392  0.2758 -0.1758  0.2012
 6295SOL    HW130518   0.074   4.014   2.473 -2.4183  1.5094 -1.6895
 6295SOL    HW230519   0.184   4.019   2.359 -0.1923 -2.5333 -4.0296
 6296SOL     OW30520   4.719   2.088   5.858 -0.3082  0.1830 -0.2328
 6296SOL    HW130521   0.042   2.033   5.804  0.4399 -0.6405  1.3842
 6296SOL    HW230522   4.644   2.107   5.802  0.7989  0.4954 -1.5989
 6297SOL     OW30523   0.964   2.232   3.809 -0.0273 -0.1732 -0.3531
 6297SOL    HW130524   1.044   2.189   3.838 -0.2511 -1.4252 -1.5643
 6297SOL    HW230525   0.974   2.324   3.836 -0.7443 -0.6353  1.4890
 6298SOL     OW30526   4.095   4.600   0.664 -0.2513 -0.5865  0.0191
 6298SOL    HW130527   4.127   4.559   0.744  1.0608  1.1988  0.4201
 6298SOL    HW230528   4.164   4.584   0.600  0.6694 -1.0065  1.1101
 6299SOL     OW30529   0.917   4.363  16.753  0.3797  0.3109  0.4728
 6299SOL    HW130530   0.954   4.297  16.695 -0.4728  3.3550 -3.4437
 6299SOL    HW230531   0.993   4.420  16.752  1.1584 -0.7644 -1.0121
 6300SOL     OW30532   2.235   0.159   1.659 -0.2723 -0.9969  0.0997
 6300SOL    HW130533   2.253   0.137   1.750  3.0354 -0.0986 -0.3549
 6300SOL    HW230534   2.292   0.097   1.615 -1.1355 -0.9359 -1.1114
 6301SOL     OW30535   0.400   4.221   1.822  0.2181 -0.4304  0.1233
 6301SOL    HW130536   0.488   4.182   1.818 -1.5761 -4.3595 -1.5651
 6301SOL    HW230537   0.372   4.202   1.912 -4.8132 -0.0920 -1.4001
 6302SOL     OW30538   3.703   2.915   7.850  0.0266  0.2599 -0.3549
 6302SOL    HW130539   3.645   2.926   7.774 -0.0536 -2.3292 -0.6703
 6302SOL    HW230540   3.724   3.005   7.873  1.2348 -0.6616  2.1532
 6303SOL     OW30541   1.898   0.198   0.388 -0.5694 -0.2250  0.0243
 6303SOL    HW130542   1.808   0.230   0.385 -0.0382  1.3621  1.2832
 6303SOL    HW230543   1.946   0.280   0.398 -3.1557  1.3773 -0.5784
 6304SOL     OW30544   3.817   2.030  16.418 -0.0195 -0.3596 -0.0690
 6304SOL    HW130545   3.735   2.007  16.375  0.7501  0.6841 -2.0569
 6304SOL    HW230546   3.832   1.951  16.471 -0.5891 -2.2283 -2.7292
 6305SOL     OW30547   2.561   1.766   5.646  0.2682  0.0615 -0.5170
 6305SOL    HW130548   2.572   1.741   5.554  2.3580 -0.3870 -0.1432
 6305SOL    HW230549   2.529   1.683   5.680 -1.6558  1.3404  0.8303
 6306SOL     OW30550   0.900   2.268   4.689 -0.6866  0.3890  0.2586
 6306SOL    HW130551   0.808   2.239   4.695  0.0307 -1.7190  1.0284
 6306SOL    HW230552   0.930   2.223   4.610 -1.9677 -0.3761  0.1969
 6307SOL     OW30553   1.924   1.475  10.339 -0.0740 -0.2238  0.1354
 6307SOL    HW130554   1.975   1.421  10.399  1.7228 -2.4177 -3.4115
 6307SOL    HW230555   1.855   1.418  10.306  0.5350 -1.2743  0.7156
 6308SOL     OW30556   3.702   0.966   2.343  0.1239 -0.1773 -0.3408
 6308SOL    HW130557   3.624   1.019   2.327 -1.1053 -1.4352  1.3264
 6308SOL    HW230558   3.726   0.943   2.254 -0.2094 -1.7749 -0.0190
 6309SOL     OW30559   0.335   1.191  16.684  0.1639  0.0610  0.1585
 6309SOL    HW130560   0.272   1.254  16.717 -0.2171  0.7810 -1.9187
 6309SOL    HW230561   0.283   1.119  16.721  0.4074  1.8946  4.0319
 6310SOL     OW30562   1.796   2.098   2.223  0.0720  0.6062 -0.4495
 6310SOL    HW130563   1.704   2.122   2.230 -0.2604 -0.0631 -2.5490
 6310SOL    HW230564   1.829   2.183   2.197 -0.5358  0.2533 -2.3653
 6311SOL     OW30565   0.493   1.276   3.301  0.4341 -0.4613 -0.4009
 6311SOL    HW130566   0.533   1.363   3.295  0.4673 -0.7217 -4.2856
 6311SOL    HW230567   0.405   1.296   3.267 -0.2140 -1.5345  0.6379
 6312SOL     OW30568   4.466   1.681   3.753 -0.0387 -0.7002  0.2250
 6312SOL    HW130569   4.497   1.769   3.728 -1.2780  0.0712  1.4423
 6312SOL    HW230570   4.409   1.646   3.684 -0.1855  0.1488 -0.0915
 6313SOL     OW30571   1.698   1.404   6.952 -0.0039  0.3794  0.1060
 6313SOL    HW130572   1.770   1.374   7.007  0.7471  0.0333 -1.0625
 6313SOL    HW230573   1.625   1.385   7.012  0.4970  2.8230  1.4878
 6314SOL     OW30574   0.524   2.688   8.534  0.2697 -0.0427 -0.5185
 6314SOL    HW130575   0.512   2.783   8.535 -0.5048 -0.1150 -2.2182
 6314SOL    HW230576   0.493   2.668   8.446 -3.4954 -3.2545  1.5095
 6315SOL     OW30577   0.506   0.275   6.492 -0.0270  0.7168 -0.1419
 6315SOL    HW130578   0.468   0.211   6.432  0.0008 -0.0531  0.6470
 6315SOL    HW230579   0.458   0.248   6.570  1.0594  0.5427  0.4791
 6316SOL     OW30580   3.645   0.615   7.798  0.3081 -0.4911 -0.7253
 6316SOL    HW130581   3.693   0.654   7.725 -0.3679  1.8299  0.0378
 6316SOL    HW230582   3.716   0.602   7.860  1.8089 -0.0080 -2.3392
 6317SOL     OW30583   2.966   0.663   3.370 -0.1235 -0.0202  0.1644
 6317SOL    HW130584   2.987   0.724   3.299 -0.3287 -1.3386 -1.0202
 6317SOL    HW230585   2.994   0.579   3.333 -0.7321 -0.1177 -0.0681
 6318SOL     OW30586   3.512   0.695  17.665  0.2064 -1.1253 -0.0415
 6318SOL    HW130587   3.448   0.704  17.735 -1.1487  0.8243 -1.5346
 6318SOL    HW230588   3.508   0.600  17.651 -0.1911 -0.9394 -1.1841
 6319SOL     OW30589   2.059   0.546   4.218  0.2771  0.3300  0.0865
 6319SOL    HW130590   1.994   0.572   4.283  0.1678 -1.1274  0.5541
 6319SOL    HW230591   2.002   0.503   4.155 -1.7567  0.0442  2.1442
 6320SOL     OW30592   2.396   1.984   5.278  0.1696 -0.0008 -0.0468
 6320SOL    HW130593   2.477   2.008   5.233  0.2240  2.6964  1.5101
 6320SOL    HW230594   2.368   1.921   5.211 -0.6459  0.8706 -0.5164
 6321SOL     OW30595   4.500   2.223  12.532 -0.6403 -0.0788  0.0944
 6321SOL    HW130596   4.504   2.128  12.523  0.3118  0.0479 -0.8626
 6321SOL    HW230597   4.492   2.237  12.626 -0.4419 -0.2774  0.1401
 6322SOL     OW30598   2.524   3.733   9.013 -0.0840  0.0312  0.1348
 6322SOL    HW130599   2.458   3.664   9.023 -1.0202  0.8638 -0.2106
 6322SOL    HW230600   2.608   3.688   9.003 -0.0659 -0.0997  0.9113
 6323SOL     OW30601   1.532   1.326   2.567  1.1101  0.2321  0.3656
 6323SOL    HW130602   1.456   1.287   2.611  0.2893  1.6297  0.1812
 6323SOL    HW230603   1.564   1.393   2.628  0.0889  0.3451  0.7730
 6324SOL     OW30604   1.562   4.613   4.382  0.5309 -0.4578  0.0570
 6324SOL    HW130605   1.511   4.591   4.460 -0.1002  1.0957  0.0860
 6324SOL    HW230606   1.621   4.680   4.416  0.2554 -0.4746  0.5634
 6325SOL     OW30607   2.206   4.211  12.705  0.5165  0.6479  0.3701
 6325SOL    HW130608   2.262   4.264  12.762 -2.6434  2.3630  1.8475
 6325SOL    HW230609   2.164   4.277  12.650 -1.3362 -1.1255 -0.3466
 6326SOL     OW30610   1.630   2.202   7.401  0.0512 -0.1902 -0.8560
 6326SOL    HW130611   1.650   2.137   7.469 -0.8059  1.5532  1.0638
 6326SOL    HW230612   1.549   2.180   7.356 -0.3218  1.2994 -0.9157
 6327SOL     OW30613   2.248   0.988   2.259  1.0918  0.1511  0.1553
 6327SOL    HW130614   2.310   0.951   2.322  2.1875  1.4914 -0.1392
 6327SOL    HW230615   2.220   0.902   2.229 -0.0820 -0.1871  2.1741
 6328SOL     OW30616   0.143   3.196  11.060 -0.3872 -0.0706 -0.0211
 6328SOL    HW130617   0.080   3.256  11.099 -1.3389  1.2818 -3.6370
 6328SOL    HW230618   0.169   3.162  11.145 -0.8201 -0.3461  0.0027
 6329SOL     OW30619   4.723   4.675   3.797 -0.1046  0.0326  0.2549
 6329SOL    HW130620   4.714   4.581   3.780  1.0726 -0.0856  0.3060
 6329SOL    HW230621   4.683   4.715   3.719  0.1197 -0.1756  0.0358
 6330SOL     OW30622   3.706   1.059   8.929  0.5048 -0.0258  0.3676
 6330SOL    HW130623   3.623   1.012   8.925  0.6462 -0.1735 -0.9414
 6330SOL    HW230624   3.748   0.990   8.979  0.3971 -1.4009 -1.4257
 6331SOL     OW30625   2.201   3.879  10.001 -0.0005 -0.4597  0.2049
 6331SOL    HW130626   2.121   3.828  10.013 -1.3639  2.0738  1.7408
 6331SOL    HW230627   2.157   3.962   9.983  4.1837  1.4835 -0.9101
 6332SOL     OW30628   3.686   1.555   5.172  0.8972  0.2514 -0.6672
 6332SOL    HW130629   3.677   1.617   5.100  0.5973  1.1800  0.1674
 6332SOL    HW230630   3.607   1.584   5.218  1.1499  2.1845 -1.4459
 6333SOL     OW30631   1.645   3.615   8.262 -0.2040  0.3687  0.3705
 6333SOL    HW130632   1.635   3.527   8.225  1.8747  0.7781 -1.1571
 6333SOL    HW230633   1.591   3.620   8.342 -2.3840  1.0859 -1.1267
 6334SOL     OW30634   4.409   3.422   3.568  0.1485 -0.5249 -0.2127
 6334SOL    HW130635   4.383   3.390   3.655  0.7549 -0.6068 -0.0618
 6334SOL    HW230636   4.499   3.448   3.587 -0.6974  1.0684  1.6053
 6335SOL     OW30637   3.528   0.304  14.405 -0.1565 -0.4868  0.3084
 6335SOL    HW130638   3.514   0.372  14.470  1.6866 -0.4497  0.6552
 6335SOL    HW230639   3.615   0.330  14.376 -0.5561 -0.6104 -1.0300
 6336SOL     OW30640   4.065   3.304   6.872  0.2217  0.0930  0.4856
 6336SOL    HW130641   4.148   3.269   6.907  1.5215 -0.1841 -2.8301
 6336SOL    HW230642   4.013   3.224   6.874  1.2758 -0.5209  3.4730
 6337SOL     OW30643   3.258   2.027  10.590 -0.2888  0.2069 -0.0519
 6337SOL    HW130644   3.301   2.002  10.672  1.1745  2.8752  0.0118
 6337SOL    HW230645   3.186   2.083  10.620  0.7381  0.0047  2.8005
 6338SOL     OW30646   0.247   3.332   5.168  0.3829 -0.0541  0.5321
 6338SOL    HW130647   0.165   3.381   5.171  0.9499  1.1822 -4.7810
 6338SOL    HW230648   0.229   3.268   5.237 -0.3125  1.1918  1.4999
 6339SOL     OW30649   3.395   4.721  14.614  0.4381  0.1481  0.1405
 6339SOL    HW130650   3.382   4.626  14.614 -1.2838  0.3805  2.8465
 6339SOL    HW230651   3.440   4.726  14.530  1.1830  2.1669  0.6609
 6340SOL     OW30652   2.848   3.924   3.574 -0.1089  0.2457  0.1413
 6340SOL    HW130653   2.912   3.953   3.509  0.3090 -2.6467 -0.7464
 6340SOL    HW230654   2.900   3.858   3.620 -0.9299 -0.1571  0.4917
 6341SOL     OW30655   2.613   0.987  11.967  0.0558  0.6798 -0.2128
 6341SOL    HW130656   2.570   0.902  11.981 -0.0057  0.9197  1.0901
 6341SOL    HW230657   2.706   0.964  11.965 -0.0520  0.1842  0.5831
 6342SOL     OW30658   0.779   4.076   9.679 -0.0011  0.2492  0.4319
 6342SOL    HW130659   0.817   3.990   9.697  0.7339  0.4573 -0.1219
 6342SOL    HW230660   0.685   4.065   9.691  0.3035 -0.5530  2.1456
 6343SOL     OW30661   3.120   3.527   3.804  0.1471 -0.1328 -0.1563
 6343SOL    HW130662   3.109   3.551   3.712  0.2667  0.0465 -0.1236
 6343SOL    HW230663   3.131   3.434   3.788  0.1962 -0.2981  0.8270
 6344SOL     OW30664   2.364   2.332   4.839  0.0249 -0.1016  0.4661
 6344SOL    HW130665   2.433   2.390   4.808 -1.2008  1.3081  0.3785
 6344SOL    HW230666   2.331   2.370   4.921 -0.0537 -0.2330  0.4957
 6345SOL     OW30667   2.093   3.122   3.519  0.7523 -0.6151  0.1638
 6345SOL    HW130668   2.034   3.075   3.459 -1.6859  0.3144  1.8121
 6345SOL    HW230669   2.148   3.048   3.544  1.6335  0.5523  1.6757
 6346SOL     OW30670   2.021   1.001  11.449 -0.3921  0.6203  0.0988
 6346SOL    HW130671   1.990   0.916  11.480  0.0579  0.3535 -0.1969
 6346SOL    HW230672   2.029   0.995  11.354  0.9399 -0.7925  0.3122
 6347SOL     OW30673   2.870   1.882  13.812  0.0208 -0.6101 -0.1200
 6347SOL    HW130674   2.790   1.841  13.779 -0.6473  1.3056 -0.8719
 6347SOL    HW230675   2.839   1.932  13.888  1.3273 -0.7010  0.4746
 6348SOL     OW30676   4.221   3.181   4.808  0.3329  0.7497 -0.1034
 6348SOL    HW130677   4.308   3.219   4.818 -0.0598  1.7258 -0.3239
 6348SOL    HW230678   4.178   3.234   4.875  0.4791  1.4985 -0.5908
 6349SOL     OW30679   4.716   0.752   1.817  0.2008 -0.5554  0.2768
 6349SOL    HW130680   4.716   0.666   1.775 -1.4168 -0.2708 -0.2992
 6349SOL    HW230681   4.650   0.729   1.882 -0.0718  0.2153  0.2781
 6350SOL     OW30682   0.804   4.342   5.748  0.0312  0.0801  0.3381
 6350SOL    HW130683   0.733   4.349   5.811 -1.0060  0.7995 -0.9003
 6350SOL    HW230684   0.763   4.349   5.661 -1.4315  3.1744  1.2760
 6351SOL     OW30685   3.968   1.745   3.579 -0.0189 -0.2655 -0.1354
 6351SOL    HW130686   3.964   1.806   3.505 -0.2025 -1.7620 -1.3605
 6351SOL    HW230687   4.013   1.673   3.535 -0.5357 -2.1619  2.4455
 6352SOL     OW30688   3.314   3.458  16.541  0.5241 -0.5381 -0.0354
 6352SOL    HW130689   3.266   3.458  16.458  0.4991 -0.3027 -0.0223
 6352SOL    HW230690   3.388   3.401  16.522 -0.5497 -0.9916 -2.8391
 6353SOL     OW30691   3.788   2.976   8.697  0.0830 -0.1693 -0.1494
 6353SOL    HW130692   3.741   2.954   8.617  2.7819 -1.2665 -1.4371
 6353SOL    HW230693   3.769   2.908   8.762  1.5545 -0.9942 -0.5710
 6354SOL     OW30694   3.637   0.779   8.675  0.9862 -0.2191 -0.3515
 6354SOL    HW130695   3.591   0.851   8.631  2.2510 -0.6618 -2.4263
 6354SOL    HW230696   3.569   0.743   8.733  0.9526  0.2806 -0.0814
 6355SOL     OW30697   0.900   2.941   9.018 -0.1068 -0.0230 -0.5214
 6355SOL    HW130698   0.890   2.866   9.076  0.0565  0.9965  0.8308
 6355SOL    HW230699   0.811   2.974   9.029 -0.4513 -1.3726  0.7744
 6356SOL     OW30700   3.352   3.171   5.996  0.2357  0.5882 -0.7065
 6356SOL    HW130701   3.305   3.171   5.913 -1.4281  0.2457  0.2303
 6356SOL    HW230702   3.283   3.198   6.056  0.9727 -2.2476  1.4550
 6357SOL     OW30703   2.649   0.791   3.544 -0.7982  0.3606 -0.4209
 6357SOL    HW130704   2.563   0.804   3.584 -1.3675  0.7662 -1.7800
 6357SOL    HW230705   2.701   0.766   3.620 -1.8816  0.4515  0.3565
 6358SOL     OW30706   3.227   0.254  10.338 -0.2786  0.1738  0.3406
 6358SOL    HW130707   3.205   0.199  10.263  0.9122  1.3326 -0.8424
 6358SOL    HW230708   3.229   0.345  10.309 -0.6269  0.5585  1.5375
 6359SOL     OW30709   2.608   1.701  14.822  0.6801 -0.2116  0.7378
 6359SOL    HW130710   2.581   1.680  14.733  0.2331 -3.4160  1.6316
 6359SOL    HW230711   2.698   1.731  14.811  0.5145 -0.2377 -0.6560
 6360SOL     OW30712   4.025   2.167  12.547  0.4229 -0.3293  0.0575
 6360SOL    HW130713   3.999   2.258  12.565 -0.4160 -0.2255 -1.7053
 6360SOL    HW230714   4.097   2.159  12.610  1.0940 -1.8988 -0.9020
 6361SOL     OW30715   1.622   4.623  13.516 -0.4988 -0.1876 -0.0285
 6361SOL    HW130716   1.600   4.548  13.461  1.2338  0.1004 -1.1121
 6361SOL    HW230717   1.714   4.636  13.494 -0.7316  1.0635 -0.2730
 6362SOL     OW30718   0.667   1.190   6.243 -0.3662  0.0411  0.1304
 6362SOL    HW130719   0.635   1.205   6.155 -0.3952  3.9381  0.7993
 6362SOL    HW230720   0.581   1.193   6.286  0.4909  0.1948  1.8734
 6363SOL     OW30721   2.282   1.113  10.776  0.0768 -0.1345  0.1061
 6363SOL    HW130722   2.244   1.161  10.850  0.0115  0.4856 -0.3331
 6363SOL    HW230723   2.357   1.079  10.825  2.0383  2.5603 -1.0680
 6364SOL     OW30724   2.094   0.037   2.471 -0.3826  0.3195  0.1531
 6364SOL    HW130725   2.004   0.068   2.458 -1.9027 -4.1569  0.2199
 6364SOL    HW230726   2.095   0.063   2.563 -0.5338  1.0341 -0.0408
 6365SOL     OW30727   0.777   2.839   4.137 -0.4137 -0.0023 -0.4845
 6365SOL    HW130728   0.754   2.750   4.163 -1.3793  1.0205  2.1736
 6365SOL    HW230729   0.772   2.894   4.216  1.1674 -0.2239 -0.2363
 6366SOL     OW30730   0.381   0.436   3.575 -0.2323 -0.3048  0.4860
 6366SOL    HW130731   0.445   0.508   3.579  2.7637 -2.7953 -3.0570
 6366SOL    HW230732   0.330   0.443   3.656  1.4254  0.6897  1.4417
 6367SOL     OW30733   2.949   4.500   0.860  0.1973 -0.1111 -0.0664
 6367SOL    HW130734   2.897   4.427   0.895  1.3857 -0.2284  1.4527
 6367SOL    HW230735   2.916   4.518   0.772 -2.1459 -1.8807  0.4518
 6368SOL     OW30736   1.940   4.304   3.163 -0.1166 -0.1785  0.0825
 6368SOL    HW130737   2.021   4.268   3.128 -0.4461 -2.2377  1.4290
 6368SOL    HW230738   1.975   4.368   3.225 -1.0078  1.6166 -1.2761
 6369SOL     OW30739   0.250   2.711  17.059 -0.7112  0.7596 -0.6456
 6369SOL    HW130740   0.289   2.714  17.146 -2.6343 -1.2322  0.2983
 6369SOL    HW230741   0.218   2.621  17.058 -1.1948  0.9206  1.8593
 6370SOL     OW30742   1.864   4.021   3.184 -0.3563  0.0217 -0.3022
 6370SOL    HW130743   1.942   3.997   3.234 -0.3015 -2.1633 -1.4681
 6370SOL    HW230744   1.880   4.116   3.179 -0.1271  0.1315  2.2298
 6371SOL     OW30745   3.175   2.789   6.178 -0.0170  0.1019 -0.1947
 6371SOL    HW130746   3.119   2.721   6.215 -2.4787  2.1662 -0.1224
 6371SOL    HW230747   3.147   2.870   6.222  4.1925  0.1319  2.5049
 6372SOL     OW30748   3.514   0.313   9.256 -0.2647  0.3927  0.1810
 6372SOL    HW130749   3.546   0.330   9.167  0.7873  1.4586  0.7661
 6372SOL    HW230750   3.432   0.268   9.236  0.7744 -2.0111  1.3531
 6373SOL     OW30751   0.348   4.617   2.541  0.5192 -0.4131 -0.2974
 6373SOL    HW130752   0.319   4.654   2.624  0.1207  2.6960 -1.8247
 6373SOL    HW230753   0.411   4.683   2.512 -1.3544  0.9890 -1.1513
 6374SOL     OW30754   3.874   2.879   2.298 -0.0956 -0.2050 -0.3218
 6374SOL    HW130755   3.909   2.812   2.355  0.3181  0.9851  0.8205
 6374SOL    HW230756   3.941   2.876   2.229  0.8265  1.5406  0.4901
 6375SOL     OW30757   1.324   2.070   9.180 -0.2670  0.1328  0.3225
 6375SOL    HW130758   1.342   2.000   9.243 -0.0522 -0.1734 -0.0805
 6375SOL    HW230759   1.238   2.097   9.211 -0.4879 -1.4531  1.0943
 6376SOL     OW30760   3.456   4.157   3.511 -0.5350 -0.1380 -0.7884
 6376SOL    HW130761   3.483   4.075   3.469 -0.2067 -1.3517  1.7496
 6376SOL    HW230762   3.482   4.223   3.447  0.2260  0.9259  0.6174
 6377SOL     OW30763   3.972   0.513  13.182  0.1594 -0.2230  0.1362
 6377SOL    HW130764   4.030   0.468  13.243 -2.6288 -1.7080  1.6640
 6377SOL    HW230765   4.013   0.600  13.179 -0.5454  0.0746 -1.0038
 6378SOL     OW30766   0.182   0.658   7.424 -0.1299 -0.3756 -0.0781
 6378SOL    HW130767   0.264   0.608   7.421  1.4848  2.2581  0.5592
 6378SOL    HW230768   0.210   0.732   7.371  0.3623 -1.1286 -0.8711
 6379SOL     OW30769   0.682   1.449  12.805 -0.5441  0.2887  0.0935
 6379SOL    HW130770   0.651   1.365  12.772  0.2129 -1.0024  2.6924
 6379SOL    HW230771   0.670   1.504  12.727  1.2852 -0.5620 -0.7747
 6380SOL     OW30772   4.209   3.056   6.103 -0.1418  0.2965 -0.0721
 6380SOL    HW130773   4.254   2.976   6.078 -0.3637  0.0054  0.4549
 6380SOL    HW230774   4.123   3.036   6.068 -1.1207  0.4456  2.2118
 6381SOL     OW30775   2.850   3.988  11.581  0.3658  0.0775  0.1108
 6381SOL    HW130776   2.892   4.049  11.641  2.3672 -0.8126 -0.4049
 6381SOL    HW230777   2.767   4.036  11.578  0.7718  0.8930  2.3962
 6382SOL     OW30778   0.344   0.381   5.374  0.4631 -0.3395  0.3472
 6382SOL    HW130779   0.324   0.433   5.452 -1.1946 -0.8137  0.2191
 6382SOL    HW230780   0.433   0.353   5.398  0.4492 -1.4778 -0.9162
 6383SOL     OW30781   1.067   1.119   6.821 -0.5521 -0.4417 -0.1498
 6383SOL    HW130782   1.017   1.085   6.895  0.6370  1.4491  1.4906
 6383SOL    HW230783   1.142   1.154   6.868  0.1317 -1.5325 -0.4296
 6384SOL     OW30784   1.121   3.708  15.367  0.9061 -0.0582  0.3618
 6384SOL    HW130785   1.202   3.691  15.415  0.9083  0.1323  0.4294
 6384SOL    HW230786   1.096   3.623  15.332 -2.7043  0.7166  1.0089
 6385SOL     OW30787   0.178   0.970   1.876 -0.2378 -0.2542  0.3256
 6385SOL    HW130788   0.189   0.933   1.964 -0.8928 -0.4230  0.3434
 6385SOL    HW230789   0.108   0.912   1.844 -0.8472  0.3920  0.4727
 6386SOL     OW30790   4.610   3.496   8.380  0.4208 -0.3437 -0.4159
 6386SOL    HW130791   4.562   3.558   8.436 -0.7657 -2.3591  0.8199
 6386SOL    HW230792   4.541   3.436   8.352 -0.2569  1.2265 -2.1384
 6387SOL     OW30793   1.996   0.412  11.855 -0.7081  0.1551  0.3253
 6387SOL    HW130794   1.913   0.381  11.818 -0.7126  0.1162  0.3677
 6387SOL    HW230795   2.016   0.343  11.918 -1.7717 -1.8571 -1.5362
 6388SOL     OW30796   4.689   0.012   7.201 -0.4405  0.3012  0.3673
 6388SOL    HW130797   0.023   4.694   7.243  1.2829 -0.2018 -3.0716
 6388SOL    HW230798   4.649   0.040   7.284  0.0558  0.3765  0.5824
 6389SOL     OW30799   4.515   1.704  12.632  0.5154 -0.5159 -0.2248
 6389SOL    HW130800   4.517   1.732  12.723 -2.4847 -0.3942 -0.2029
 6389SOL    HW230801   4.440   1.646  12.621 -1.2325  1.5187  1.2700
 6390SOL     OW30802   2.779   3.796   9.846  0.5187 -0.1249  0.1871
 6390SOL    HW130803   2.700   3.745   9.827  0.2352  1.4791 -2.9711
 6390SOL    HW230804   2.837   3.749   9.787 -1.1608 -1.8150 -0.1241
 6391SOL     OW30805   4.080   0.992   2.306  0.7676 -0.0525  0.3425
 6391SOL    HW130806   4.060   0.905   2.341  0.8559 -1.0584 -2.1019
 6391SOL    HW230807   4.015   1.037   2.359  1.2968  1.0669  0.0505
 6392SOL     OW30808   0.516   3.360   4.519 -0.0681  0.1501 -0.3527
 6392SOL    HW130809   0.584   3.411   4.562 -1.4095  0.1921  1.7333
 6392SOL    HW230810   0.501   3.401   4.433  0.0647  0.2490 -0.3285
 6393SOL     OW30811   0.329   0.211  10.002 -0.2320  0.4727  0.3609
 6393SOL    HW130812   0.332   0.217   9.906 -0.9187 -0.9202  0.2512
 6393SOL    HW230813   0.398   0.277  10.014  0.1216  0.0032  0.9010
 6394SOL     OW30814   1.182   3.872   7.671  0.0739 -0.7842 -0.3301
 6394SOL    HW130815   1.163   3.816   7.746 -0.1409  0.4626  0.5469
 6394SOL    HW230816   1.215   3.806   7.609  0.1045 -2.2050  1.2114
 6395SOL     OW30817   1.183   3.499   5.981 -0.1548 -0.2429 -0.1200
 6395SOL    HW130818   1.243   3.439   6.026 -0.3028  0.3343  0.8554
 6395SOL    HW230819   1.221   3.491   5.894  0.1306 -1.9271  0.1627
 6396SOL     OW30820   2.004   1.751   9.793  0.3524  0.0611  0.1716
 6396SOL    HW130821   2.023   1.794   9.709 -0.6798  2.1007  0.9947
 6396SOL    HW230822   2.049   1.668   9.779  0.9872  1.0030 -3.3686
 6397SOL     OW30823   4.271   4.507   2.215  0.9695  0.1884 -0.2281
 6397SOL    HW130824   4.181   4.488   2.241  1.6377  0.5336  2.2898
 6397SOL    HW230825   4.281   4.593   2.256  1.3473  1.5036 -3.0526
 6398SOL     OW30826   0.079   1.699   3.354 -0.8225  0.2412  0.7731
 6398SOL    HW130827   0.073   1.613   3.313 -1.2292  1.1681 -1.0689
 6398SOL    HW230828   0.074   1.670   3.446 -1.4221  1.7550  1.2198
 6399SOL     OW30829   4.356   3.070   0.636 -0.0361  0.2276  0.4370
 6399SOL    HW130830   4.396   3.102   0.555 -0.6080  0.8986  0.4161
 6399SOL    HW230831   4.426   3.086   0.700  0.9052 -1.0727 -0.2826
 6400SOL     OW30832   2.124   2.304  12.128  0.5477  0.1202  0.1037
 6400SOL    HW130833   2.108   2.322  12.220 -0.3888  1.6193 -0.3511
 6400SOL    HW230834   2.037   2.293  12.089 -0.0650  1.2941  1.1593
 6401SOL     OW30835   2.124   2.682   9.671  0.6533 -0.4747 -0.4206
 6401SOL    HW130836   2.096   2.728   9.591  0.8167 -1.3998 -1.0136
 6401SOL    HW230837   2.209   2.726   9.683 -0.4699  1.1846  1.4279
 6402SOL     OW30838   1.353   2.408   8.034  0.1698 -0.4457  0.1731
 6402SOL    HW130839   1.331   2.471   8.102  2.8469  0.7387 -0.0436
 6402SOL    HW230840   1.283   2.344   8.045 -0.9033  0.8726  1.0767
 6403SOL     OW30841   0.938   1.950   7.357  0.7277  0.2613 -0.6565
 6403SOL    HW130842   0.980   1.974   7.275 -0.5160  1.3457 -0.9716
 6403SOL    HW230843   0.991   1.885   7.404 -2.9880 -1.6505  0.8918
 6404SOL     OW30844   1.599   1.544   5.460  0.4972 -0.2756  0.2985
 6404SOL    HW130845   1.535   1.541   5.389 -0.2737 -0.4236  1.0006
 6404SOL    HW230846   1.548   1.577   5.534 -1.0461 -0.8544 -0.5135
 6405SOL     OW30847   0.076   1.214   5.685 -0.2824  0.3878  0.2720
 6405SOL    HW130848   0.034   1.292   5.648 -0.3242 -0.3472 -1.2568
 6405SOL    HW230849   0.082   1.228   5.779  1.4200  1.3823  0.0046
 6406SOL     OW30850   2.919   3.122   1.708  0.0903 -0.2556 -0.3578
 6406SOL    HW130851   2.849   3.067   1.742  0.3207  0.0094  0.5385
 6406SOL    HW230852   2.914   3.199   1.765 -1.8673 -0.1264 -0.7237
 6407SOL     OW30853   0.603   0.564   5.143  0.0058 -0.4013  0.7553
 6407SOL    HW130854   0.685   0.588   5.100  0.4706  0.3714  2.0614
 6407SOL    HW230855   0.605   0.472   5.118 -0.2390 -0.1730 -0.0965
 6408SOL     OW30856   4.533   4.387   3.525  0.1167 -0.0774 -0.1936
 6408SOL    HW130857   4.497   4.299   3.538  0.0895 -0.2602 -1.5044
 6408SOL    HW230858   4.553   4.384   3.432  2.0828  1.8701  0.1603
 6409SOL     OW30859   1.934   4.405   2.710 -0.3609  0.0939  0.0399
 6409SOL    HW130860   1.884   4.415   2.791 -0.3782 -0.2522  0.0743
 6409SOL    HW230861   1.872   4.435   2.643 -0.6792  1.5615  0.9914
 6410SOL     OW30862   0.124   0.297  10.189  0.6004  0.4555 -0.5171
 6410SOL    HW130863   0.196   0.260  10.139 -0.0222 -0.7875 -0.5027
 6410SOL    HW230864   0.088   0.349  10.118  1.4779  1.2047 -0.4128
 6411SOL     OW30865   3.035   4.566   7.025 -0.0994  0.1244 -0.2173
 6411SOL    HW130866   3.079   4.535   6.946  1.1398  3.8787 -1.0054
 6411SOL    HW230867   2.987   4.490   7.057  1.1013 -1.1864 -1.4935
 6412SOL     OW30868   0.217   2.806   7.477 -0.3943  0.1549  0.1775
 6412SOL    HW130869   0.249   2.716   7.472  0.0907  0.3030  0.6143
 6412SOL    HW230870   0.219   2.828   7.384  0.1246 -0.0653  0.1393
 6413SOL     OW30871   1.044   4.269   1.100 -0.8693  0.0306 -0.0384
 6413SOL    HW130872   1.018   4.250   1.010  0.6994 -0.1184 -0.4591
 6413SOL    HW230873   1.008   4.201   1.156 -2.9080  0.1665 -1.2039
 6414SOL     OW30874   3.773   1.594  13.189  0.2151  0.1511  0.5906
 6414SOL    HW130875   3.832   1.526  13.158 -0.4021 -0.4047  0.6314
 6414SOL    HW230876   3.765   1.654  13.114 -0.0317 -0.2177  0.3230
 6415SOL     OW30877   2.306   0.909  13.255 -0.4792 -0.5545  0.1764
 6415SOL    HW130878   2.365   0.927  13.182 -0.2184 -0.9079  0.3069
 6415SOL    HW230879   2.310   0.814  13.262  1.7291 -0.6048 -1.8039
 6416SOL     OW30880   1.637   3.308  15.790 -0.2350 -0.2813 -0.2310
 6416SOL    HW130881   1.546   3.329  15.809  0.3393  1.0749  1.0943
 6416SOL    HW230882   1.620   3.248  15.718 -0.3740 -0.1357 -0.3211
 6417SOL     OW30883   2.489   4.487   5.298  0.1627  0.0645  0.5168
 6417SOL    HW130884   2.575   4.474   5.258 -0.4360 -1.6111 -0.2339
 6417SOL    HW230885   2.503   4.478   5.393  2.8456  2.5909  0.3802
 6418SOL     OW30886   2.048   0.959   8.189 -0.1368 -0.3135 -0.0724
 6418SOL    HW130887   2.027   0.867   8.205 -1.3944  0.0380  0.2305
 6418SOL    HW230888   2.071   0.945   8.097 -3.3938 -1.8808 -0.6270
 6419SOL     OW30889   2.112   1.810   6.003 -0.1928 -0.3049  0.4607
 6419SOL    HW130890   2.103   1.799   5.909 -0.3617 -1.7682  0.6361
 6419SOL    HW230891   2.118   1.905   6.007  0.2866 -0.3732  1.3885
 6420SOL     OW30892   4.449   2.660   3.344  0.0376 -0.3194 -0.4305
 6420SOL    HW130893   4.401   2.682   3.423  1.5342  0.9040  0.1375
 6420SOL    HW230894   4.527   2.613   3.373 -0.0401  0.6199  1.2726
 6421SOL     OW30895   4.151   2.115   3.303 -0.0715  0.2815 -0.0084
 6421SOL    HW130896   4.211   2.073   3.240  0.9435  0.0375  1.1238
 6421SOL    HW230897   4.098   2.164   3.240  1.3639  1.4616 -0.2886
 6422SOL     OW30898   1.127   2.399   0.800  0.4309 -0.4479  0.6428
 6422SOL    HW130899   1.123   2.481   0.850  0.2597 -0.5960  0.8707
 6422SOL    HW230900   1.218   2.370   0.804  1.1499  1.7361  0.0222
 6423SOL     OW30901   1.352   4.731   2.576 -0.0470 -0.0825 -0.3114
 6423SOL    HW130902   1.336   4.651   2.627  0.0515 -0.6780 -1.2171
 6423SOL    HW230903   1.311   4.721   2.491 -2.8803  2.2414  0.7832
 6424SOL     OW30904   3.285   1.644   6.990  0.0159  0.0994 -0.0217
 6424SOL    HW130905   3.216   1.606   6.935 -1.8298  0.2802  2.1808
 6424SOL    HW230906   3.258   1.622   7.079 -0.6769  0.8999 -0.0368
 6425SOL     OW30907   2.822   1.785   5.745  0.7097  0.4037 -0.0113
 6425SOL    HW130908   2.862   1.712   5.698 -0.5300  0.3604 -1.0165
 6425SOL    HW230909   2.732   1.771   5.715 -0.1889  1.9572  1.9887
 6426SOL     OW30910   3.468   1.299  13.147 -0.5522  0.4830  0.0557
 6426SOL    HW130911   3.452   1.321  13.055  0.1802  1.4331  0.1643
 6426SOL    HW230912   3.398   1.235  13.158  0.3129 -0.4784  0.0241
 6427SOL     OW30913   3.066   4.648   7.320 -0.2077  0.0686 -0.0956
 6427SOL    HW130914   3.005   4.642   7.394 -0.7995  2.7158 -0.3676
 6427SOL    HW230915   3.015   4.608   7.250 -0.2253  0.7675 -0.4874
 6428SOL     OW30916   1.670   2.550   8.716  0.1733 -0.3221 -0.2245
 6428SOL    HW130917   1.742   2.613   8.721 -0.9548  0.8234  1.3565
 6428SOL    HW230918   1.596   2.605   8.691  1.9743  0.5498 -3.6947
 6429SOL     OW30919   3.192   0.036   3.257  0.1010 -0.3622 -0.2198
 6429SOL    HW130920   3.245   0.001   3.329 -0.9575  0.3439  0.9034
 6429SOL    HW230921   3.193   0.129   3.279  1.9309 -0.2404 -0.8536
 6430SOL     OW30922   2.327   4.334   6.631 -0.0015  0.5908 -0.1596
 6430SOL    HW130923   2.249   4.389   6.623  0.4116  0.9544 -1.7563
 6430SOL    HW230924   2.371   4.375   6.706  0.7396 -2.1237  0.8835
 6431SOL     OW30925   0.727   1.916   6.804  0.1477  0.3998 -0.3674
 6431SOL    HW130926   0.733   1.983   6.872  0.6572 -0.5660  0.5398
 6431SOL    HW230927   0.651   1.938   6.749  1.1993  3.4007 -0.5662
 6432SOL     OW30928   3.474   1.406   2.601 -0.1635 -0.0830  0.1129
 6432SOL    HW130929   3.564   1.393   2.572 -0.5205 -2.7662  0.2087
 6432SOL    HW230930   3.492   1.476   2.664 -0.9291  1.4049 -1.3279
 6433SOL     OW30931   0.151   0.369   7.227 -0.1875 -0.2821 -0.4577
 6433SOL    HW130932   0.159   0.288   7.175 -0.0306 -0.6799  0.1861
 6433SOL    HW230933   0.078   0.409   7.179  0.9566  3.7269  1.2157
 6434SOL     OW30934   4.268   3.639   6.456  0.3098 -0.0504 -0.4397
 6434SOL    HW130935   4.205   3.573   6.487  1.7296 -0.6005  1.2345
 6434SOL    HW230936   4.341   3.587   6.422  0.0484 -0.1829 -0.7965
 6435SOL     OW30937   0.747   3.390   2.087  1.3936  0.2070  0.3575
 6435SOL    HW130938   0.815   3.401   2.154  2.5388  0.8357 -0.9251
 6435SOL    HW230939   0.749   3.296   2.068 -0.6004  0.8700 -3.0442
 6436SOL     OW30940   4.314   4.446   4.833 -0.4636 -0.6514 -0.2073
 6436SOL    HW130941   4.333   4.534   4.865 -1.1735  0.3914 -2.6451
 6436SOL    HW230942   4.246   4.422   4.897 -0.8991  1.8476  0.2454
 6437SOL     OW30943   3.148   4.487   1.243  0.0862  0.2023  0.0476
 6437SOL    HW130944   3.172   4.436   1.165 -2.4823 -1.4428  0.3269
 6437SOL    HW230945   3.092   4.549   1.198  1.1377  0.0096 -1.5700
 6438SOL     OW30946   0.211   3.568  15.720 -0.3221 -0.1074  0.8674
 6438SOL    HW130947   0.277   3.512  15.678 -0.7523 -0.4674  0.6636
 6438SOL    HW230948   0.180   3.612  15.641  2.1083 -0.2882 -0.1853
 6439SOL     OW30949   0.009   1.499  14.128 -0.3604  0.2736 -0.3048
 6439SOL    HW130950   4.700   1.539  14.204  2.6524  0.7073  1.1972
 6439SOL    HW230951   4.714   1.408  14.134 -3.5942  1.3558  0.3732
 6440SOL     OW30952   3.360   0.872   8.385 -0.4241  0.0347 -0.2634
 6440SOL    HW130953   3.284   0.891   8.440 -0.1554 -2.1436  0.8716
 6440SOL    HW230954   3.426   0.935   8.415  1.5052 -1.8876 -0.5208
 6441SOL     OW30955   2.122   3.008   9.672 -0.0938  0.2144  0.2534
 6441SOL    HW130956   2.156   3.083   9.624 -0.2462 -0.8129 -1.4582
 6441SOL    HW230957   2.182   2.993   9.745 -1.0118  0.7615  1.1265
 6442SOL     OW30958   1.567   2.820  10.212  0.4872  0.1438  0.4966
 6442SOL    HW130959   1.643   2.782  10.255 -0.6866 -1.5099  1.0962
 6442SOL    HW230960   1.598   2.806  10.122 -0.3453 -0.4619  0.3062
 6443SOL     OW30961   0.117   4.282   6.544 -0.0003 -0.7678 -0.1856
 6443SOL    HW130962   0.207   4.302   6.517  0.3850 -0.1156  1.5495
 6443SOL    HW230963   0.078   4.365   6.569  0.5403 -0.0846 -1.6206
 6444SOL     OW30964   3.575   0.285  14.002 -0.1073 -0.0061  0.2536
 6444SOL    HW130965   3.639   0.231  13.956 -0.3253  0.1361 -0.2174
 6444SOL    HW230966   3.538   0.327  13.924  0.8509  0.8709  0.2781
 6445SOL     OW30967   0.882   2.635   8.072  0.1672 -0.4863 -0.4027
 6445SOL    HW130968   0.828   2.591   8.007  0.4839 -0.8052 -0.4501
 6445SOL    HW230969   0.816   2.676   8.130  1.7190 -1.7226  2.2445
 6446SOL     OW30970   1.665   4.715   2.466  0.1343 -0.3200  0.5070
 6446SOL    HW130971   1.587   0.033   2.486 -0.3951 -0.0879 -2.2370
 6446SOL    HW230972   1.669   4.729   2.371 -0.4108  1.5161  0.7452
 6447SOL     OW30973   1.673   3.374   2.746 -0.5123 -0.5741 -0.3024
 6447SOL    HW130974   1.753   3.390   2.796 -0.9417  0.1144  0.1640
 6447SOL    HW230975   1.608   3.353   2.813  1.5796  0.1948  1.9287
 6448SOL     OW30976   0.253   1.322   6.019  0.5979  0.0646  0.0938
 6448SOL    HW130977   0.176   1.349   5.970  0.0663 -1.0875  0.2969
 6448SOL    HW230978   0.263   1.378   6.096 -2.5789 -0.1436  0.6570
 6449SOL     OW30979   1.884   1.803   8.455  0.3553  0.3595  0.6459
 6449SOL    HW130980   1.814   1.791   8.390  1.4782  0.6429 -0.5985
 6449SOL    HW230981   1.876   1.899   8.458  3.1652  0.6543 -1.9943
 6450SOL     OW30982   4.019   1.112   6.595  0.2967 -0.1417  0.2438
 6450SOL    HW130983   3.930   1.093   6.625  0.2600 -0.0628  0.1844
 6450SOL    HW230984   4.020   1.073   6.508  0.8024 -1.7812  0.9856
 6451SOL     OW30985   2.575   1.168   4.063 -0.0021 -0.3964  0.5935
 6451SOL    HW130986   2.665   1.175   4.031  0.4210 -2.3188  1.3332
 6451SOL    HW230987   2.594   1.098   4.126  2.0037 -2.2813 -2.0801
 6452SOL     OW30988   0.933   2.201   0.837 -0.1982  0.2482  0.1235
 6452SOL    HW130989   0.987   2.122   0.842 -2.1723 -1.1938 -1.1080
 6452SOL    HW230990   1.002   2.267   0.840 -0.2120  0.2476  0.5735
 6453SOL     OW30991   4.393   4.383   7.055  0.0613 -0.1962 -0.0825
 6453SOL    HW130992   4.314   4.332   7.035  0.4570  0.6871 -3.9168
 6453SOL    HW230993   4.425   4.331   7.128 -0.6387 -2.4946 -1.4061
 6454SOL     OW30994   3.732   0.465   6.495  0.6837 -0.0008  0.2174
 6454SOL    HW130995   3.642   0.435   6.504  0.6931  0.3569  1.4526
 6454SOL    HW230996   3.762   0.476   6.585  1.6034 -0.9201  0.0268
 6455SOL     OW30997   4.502   0.235   0.234 -0.3522 -0.0547  0.0567
 6455SOL    HW130998   4.565   0.267   0.169 -1.4011 -0.3904 -1.1200
 6455SOL    HW230999   4.435   0.301   0.247  0.1767  0.8216 -1.6320
 6456SOL     OW31000   3.554   0.728  16.421  0.4387 -0.4392 -0.5155
 6456SOL    HW131001   3.551   0.685  16.335  0.0368 -0.4834 -0.4777
 6456SOL    HW231002   3.496   0.804  16.416 -1.1357 -1.6720 -1.0266
 6457SOL     OW31003   2.996   1.143   3.731 -0.1287  0.2110  0.2249
 6457SOL    HW131004   2.999   1.186   3.645 -1.4558 -0.1568 -0.0003
 6457SOL    HW231005   3.048   1.207   3.779  1.2229 -1.1789  0.6489
 6458SOL     OW31006   3.549   4.652   6.773  0.4720 -0.0221  0.5159
 6458SOL    HW131007   3.524   4.661   6.865  0.6459 -2.8240  0.8316
 6458SOL    HW231008   3.464   4.614   6.751  0.5178 -1.2246  2.3868
 6459SOL     OW31009   3.398   0.155   3.514  0.2250 -0.3480  0.4102
 6459SOL    HW131010   3.483   0.191   3.487 -0.5390  1.0308 -0.1136
 6459SOL    HW231011   3.341   0.196   3.449  0.0887 -1.1619  0.0135
 6460SOL     OW31012   4.015   3.482   5.610 -0.0272 -0.3779  0.2916
 6460SOL    HW131013   3.933   3.511   5.572 -0.2210  0.0625  1.0498
 6460SOL    HW231014   4.080   3.494   5.541 -1.5427  0.7910 -0.9200
 6461SOL     OW31015   2.635   1.001  11.532  0.5960  0.0034 -0.3266
 6461SOL    HW131016   2.670   0.938  11.595 -2.0457 -0.2492  0.8785
 6461SOL    HW231017   2.541   0.988  11.537  0.7025 -0.6745 -0.1082
 6462SOL     OW31018   2.082   2.422   6.121 -0.2393 -0.1888  0.4228
 6462SOL    HW131019   2.011   2.359   6.107  0.4555 -0.9189  0.1879
 6462SOL    HW231020   2.116   2.423   6.032 -0.8570 -2.0324  0.1607
 6463SOL     OW31021   1.624   0.298   6.392 -0.1059  0.0812 -0.3507
 6463SOL    HW131022   1.569   0.281   6.315 -1.9646  1.3163  0.6825
 6463SOL    HW231023   1.657   0.210   6.404  1.8993  0.5019 -2.6990
 6464SOL     OW31024   1.101   2.080   5.047  0.5626 -0.1948  0.0971
 6464SOL    HW131025   1.043   2.150   5.018  0.9379  1.0487  2.3515
 6464SOL    HW231026   1.043   2.006   5.062 -2.0957  2.2370  1.6580
 6465SOL     OW31027   3.505   0.609   1.508 -0.7120  0.5736  0.4922
 6465SOL    HW131028   3.436   0.648   1.561 -1.1380 -0.3340  0.5962
 6465SOL    HW231029   3.574   0.592   1.572 -1.4099 -1.1252  0.7733
 6466SOL     OW31030   0.416   3.000   6.318  0.2159  0.1839  0.3747
 6466SOL    HW131031   0.334   2.956   6.341 -0.5089  1.0897 -0.4494
 6466SOL    HW231032   0.430   3.048   6.400 -0.1959  0.4973  0.2653
 6467SOL     OW31033   3.710   3.395   9.087  0.0496  0.0529  0.0783
 6467SOL    HW131034   3.704   3.308   9.048 -0.1991 -0.2621  0.8134
 6467SOL    HW231035   3.673   3.386   9.175 -1.5715 -0.6053 -0.6641
 6468SOL     OW31036   0.191   4.139   9.425  1.0363  0.1137  0.0350
 6468SOL    HW131037   0.187   4.086   9.345 -3.0167  1.7632 -0.8589
 6468SOL    HW231038   0.140   4.092   9.492 -1.1461  0.4427 -1.4146
 6469SOL     OW31039   2.327   0.476   3.041 -0.0779 -0.0757  0.6804
 6469SOL    HW131040   2.276   0.496   2.962 -2.8781  1.0557  2.7960
 6469SOL    HW231041   2.416   0.473   3.004 -0.1244  2.1882  0.3948
 6470SOL     OW31042   0.789   0.250   6.135  0.5740  0.0525 -0.1165
 6470SOL    HW131043   0.819   0.230   6.046  1.1359 -0.8282  0.2715
 6470SOL    HW231044   0.849   0.322   6.156 -0.3752  0.4905  1.0724
 6471SOL     OW31045   3.323   2.120  15.824  0.3846 -0.4712  0.2153
 6471SOL    HW131046   3.254   2.152  15.883  0.8820  1.4116 -0.2315
 6471SOL    HW231047   3.406   2.114  15.871 -0.1071  2.1181  1.4089
 6472SOL     OW31048   0.605   3.808  13.316 -0.0200 -0.0289  0.1464
 6472SOL    HW131049   0.589   3.840  13.227 -0.5912 -0.4149  0.1062
 6472SOL    HW231050   0.700   3.797  13.323 -0.0541 -1.4315 -1.5659
 6473SOL     OW31051   2.500   0.144   4.771 -0.2000  0.2952  0.4496
 6473SOL    HW131052   2.548   0.179   4.696 -1.1207  1.4278  0.3908
 6473SOL    HW231053   2.409   0.162   4.749 -0.2032 -0.3657 -0.0586
 6474SOL     OW31054   0.862   2.628   1.715 -0.0133 -0.0663 -0.5616
 6474SOL    HW131055   0.784   2.573   1.728  0.8818 -0.5239  2.8693
 6474SOL    HW231056   0.938   2.575   1.737 -1.7001 -1.9557  0.6516
 6475SOL     OW31057   3.758   1.718   6.556  0.1081 -0.7092 -0.7533
 6475SOL    HW131058   3.835   1.774   6.565 -0.5474 -0.1037  1.1674
 6475SOL    HW231059   3.693   1.789   6.558 -0.9242 -1.6665 -0.1111
 6476SOL     OW31060   4.074   3.744   1.013 -0.0201 -0.2875 -0.0866
 6476SOL    HW131061   4.118   3.712   1.092 -0.1130 -0.7406 -0.2204
 6476SOL    HW231062   3.996   3.786   1.051 -0.9301 -2.7116  0.7013
 6477SOL     OW31063   1.323   2.923   6.230 -0.5853 -0.3576  0.4034
 6477SOL    HW131064   1.263   2.966   6.291  0.1040  2.3220 -0.8043
 6477SOL    HW231065   1.285   2.837   6.210 -1.7724  0.8474 -2.4711
 6478SOL     OW31066   2.694   0.947   3.126  0.3084  0.5602  0.0432
 6478SOL    HW131067   2.667   0.883   3.060  0.4608 -0.4915  1.0044
 6478SOL    HW231068   2.612   0.971   3.168  1.4189  0.1770  2.4556
 6479SOL     OW31069   3.013   3.617  13.344 -0.3836 -0.1465 -0.6161
 6479SOL    HW131070   3.038   3.651  13.258 -0.9593  0.4047 -0.5611
 6479SOL    HW231071   2.918   3.618  13.337 -0.4935 -0.6047  0.9678
 6480SOL     OW31072   2.539   1.602  11.260  0.3214 -0.6110 -0.3271
 6480SOL    HW131073   2.547   1.673  11.196 -0.4910  0.0471  0.3081
 6480SOL    HW231074   2.482   1.539  11.217  0.0042 -0.6385  0.1367
 6481SOL     OW31075   0.125   4.175   6.267 -0.5399  0.4358  0.2473
 6481SOL    HW131076   0.031   4.161   6.262 -0.5594 -0.3863  2.4576
 6481SOL    HW231077   0.132   4.190   6.361  3.0442  2.1387 -0.2886
 6482SOL     OW31078   3.919   2.759  11.627  0.1590 -1.2585  0.3934
 6482SOL    HW131079   3.843   2.741  11.682  1.0032 -1.4090  1.5115
 6482SOL    HW231080   3.906   2.679  11.575 -0.4191 -1.7690  1.3335
 6483SOL     OW31081   1.086   4.589   0.739  0.0690 -0.2985  0.3601
 6483SOL    HW131082   1.091   4.494   0.730 -2.6196 -0.5284  1.2546
 6483SOL    HW231083   1.061   4.607   0.648 -0.5887  1.3345  0.8646
 6484SOL     OW31084   1.023   1.966   9.150 -0.2596 -0.0798 -0.3676
 6484SOL    HW131085   1.037   1.879   9.188 -0.9233 -0.4241 -0.9320
 6484SOL    HW231086   0.946   1.944   9.098 -0.2524 -0.8731 -0.0397
 6485SOL     OW31087   0.964   3.531   1.818 -0.2202  0.1535 -0.1584
 6485SOL    HW131088   1.004   3.549   1.903 -3.4564  0.0521  1.3870
 6485SOL    HW231089   0.975   3.437   1.804 -0.0151  0.3851 -1.6010
 6486SOL     OW31090   2.745   4.223   6.629 -0.4319 -0.2693 -0.0779
 6486SOL    HW131091   2.799   4.289   6.585 -1.2712 -0.2119 -1.0169
 6486SOL    HW231092   2.735   4.262   6.716 -1.6931 -1.3075  0.2339
 6487SOL     OW31093   3.780   1.136   4.178  0.1228 -0.8596 -0.4146
 6487SOL    HW131094   3.709   1.071   4.180  0.8424 -1.6600 -0.6952
 6487SOL    HW231095   3.845   1.072   4.207  1.2350 -0.4148 -1.9585
 6488SOL     OW31096   2.241   2.777   9.983  0.2385  0.2311  0.3188
 6488SOL    HW131097   2.195   2.758  10.065  2.1950 -0.2342  1.2973
 6488SOL    HW231098   2.248   2.871   9.967  0.2066 -0.0009 -1.1220
 6489SOL     OW31099   1.914   1.179  16.944 -0.0609  0.3707 -0.2180
 6489SOL    HW131100   1.914   1.113  16.875  0.1086  0.4509 -0.2964
 6489SOL    HW231101   1.886   1.251  16.886 -2.1250  0.0746  0.4420
 6490SOL     OW31102   4.378   2.560   6.155  0.3248  0.3820 -0.2755
 6490SOL    HW131103   4.319   2.526   6.222 -2.1592  2.1580 -1.5846
 6490SOL    HW231104   4.457   2.511   6.180  2.0764  1.6941 -3.2065
 6491SOL     OW31105   0.007   0.571   8.198 -0.2949  0.0941 -0.1319
 6491SOL    HW131106   4.722   0.583   8.291  1.2295 -0.3407  0.2403
 6491SOL    HW231107   0.094   0.610   8.205 -0.5857  0.3344  1.9764
 6492SOL     OW31108   0.497   2.040   3.093 -0.0026  0.1442  0.1702
 6492SOL    HW131109   0.403   2.025   3.084  0.3548 -0.0669 -3.2449
 6492SOL    HW231110   0.505   2.093   3.172 -4.9863 -1.0426  1.5065
 6493SOL     OW31111   3.098   1.392   2.465  0.6878 -0.6290 -0.4207
 6493SOL    HW131112   3.125   1.408   2.375 -2.0464 -0.5525 -1.2189
 6493SOL    HW231113   3.152   1.455   2.513  0.1169 -0.5607  0.1475
 6494SOL     OW31114   4.448   0.356   8.768  0.5918  0.3479 -0.5029
 6494SOL    HW131115   4.397   0.383   8.691  1.7183  2.1651 -0.5962
 6494SOL    HW231116   4.455   0.439   8.815 -0.9943  0.2390 -0.0753
 6495SOL     OW31117   2.276   1.081   6.048 -0.2983 -0.1527 -0.3352
 6495SOL    HW131118   2.293   1.068   6.141 -0.6240  1.4955 -0.0414
 6495SOL    HW231119   2.216   1.009   6.025  0.8356 -0.5396 -2.1136
 6496SOL     OW31120   3.013   1.873   7.713 -0.2034  0.7540  0.1311
 6496SOL    HW131121   3.030   1.951   7.660  0.6764  0.5096  0.0593
 6496SOL    HW231122   3.087   1.813   7.699  0.2599  1.5998 -1.0100
 6497SOL     OW31123   3.374   2.633   8.123 -0.7469 -0.6364  0.0506
 6497SOL    HW131124   3.333   2.568   8.180 -1.9281 -0.2649 -0.3746
 6497SOL    HW231125   3.350   2.596   8.038 -1.2634 -0.4235  0.1029
 6498SOL     OW31126   2.088   1.222  10.023  0.1670  0.0158 -0.4754
 6498SOL    HW131127   1.996   1.212  10.050 -0.1187  0.5697 -1.2388
 6498SOL    HW231128   2.117   1.133  10.041  0.4625  0.2338  0.1351
 6499SOL     OW31129   0.800   4.726  15.329  0.3584  0.1879  0.4490
 6499SOL    HW131130   0.722   0.000  15.274  2.1871 -1.1539 -2.4006
 6499SOL    HW231131   0.841   4.644  15.300  1.3004  0.4104  1.1305
 6500SOL     OW31132   2.957   3.702   7.653  0.2409  0.3436 -0.2670
 6500SOL    HW131133   3.014   3.638   7.612 -0.6348  0.4592 -1.6434
 6500SOL    HW231134   2.891   3.637   7.678  1.3341  0.0080  1.7935
 6501SOL     OW31135   0.745   4.055  10.349  0.4086 -0.4575  0.0249
 6501SOL    HW131136   0.752   4.125  10.414  0.1597  0.4107 -0.8738
 6501SOL    HW231137   0.833   4.020  10.359  0.3689 -0.6777 -0.4170
 6502SOL     OW31138   1.735   2.135   8.254  0.3218 -0.4587  0.4481
 6502SOL    HW131139   1.806   2.086   8.297  0.9273 -0.4896 -0.5868
 6502SOL    HW231140   1.775   2.220   8.237 -1.9240  0.6324  0.6715
 6503SOL     OW31141   4.545   1.051  11.390  0.4376  0.2728 -0.1134
 6503SOL    HW131142   4.611   1.107  11.348  0.6744  0.8456  1.0445
 6503SOL    HW231143   4.598   1.030  11.466  0.2000  0.3754  0.0780
 6504SOL     OW31144   1.520   4.339   7.286  0.3482  0.0902  0.1787
 6504SOL    HW131145   1.584   4.276   7.320 -0.5275 -2.5897 -3.1747
 6504SOL    HW231146   1.448   4.281   7.261  0.9952 -1.4186  1.7944
 6505SOL     OW31147   2.126   0.999  16.455  0.1361  0.0171  0.1907
 6505SOL    HW131148   2.212   0.957  16.446 -0.4157 -0.8171 -1.2716
 6505SOL    HW231149   2.116   1.030  16.365 -1.6044  1.3000  0.8174
 6506SOL     OW31150   0.077   1.147   9.542  0.5262 -0.6031 -0.8172
 6506SOL    HW131151   0.129   1.119   9.618  1.5169 -1.2813 -1.7385
 6506SOL    HW231152   0.013   1.076   9.531  0.1874 -0.2398 -1.1673
 6507SOL     OW31153   1.799   3.757   5.462 -0.1297  0.0476 -0.0248
 6507SOL    HW131154   1.770   3.675   5.422 -0.6584  0.1495  0.1465
 6507SOL    HW231155   1.892   3.737   5.476  0.0529  1.2944  0.5535
 6508SOL     OW31156   3.206   0.677   0.431  0.6321 -0.6401 -0.2308
 6508SOL    HW131157   3.122   0.665   0.474 -0.7758  1.8667 -2.2335
 6508SOL    HW231158   3.248   0.595   0.457 -0.0602 -1.2025 -0.9034
 6509SOL     OW31159   1.032   0.799   7.540  0.1700 -0.3932 -0.1703
 6509SOL    HW131160   1.036   0.814   7.635 -1.9460  0.4655 -0.2159
 6509SOL    HW231161   1.121   0.765   7.530  0.2762  0.4471 -2.0910
 6510SOL     OW31162   2.671   4.558   6.422 -0.0675 -0.5204  0.4299
 6510SOL    HW131163   2.657   4.643   6.381  0.5039 -0.5447  0.1896
 6510SOL    HW231164   2.604   4.558   6.491 -0.5929 -0.8832 -0.0726
 6511SOL     OW31165   2.471   4.704   1.903  0.0347  0.5247 -0.1823
 6511SOL    HW131166   2.459   4.633   1.840 -0.4345  0.0738  0.4126
 6511SOL    HW231167   2.384   4.712   1.941 -0.5549 -2.1083 -1.0162
 6512SOL     OW31168   2.240   2.438   2.985 -0.2803  0.1635 -0.2800
 6512SOL    HW131169   2.174   2.428   2.916 -1.3620  0.7394  0.6560
 6512SOL    HW231170   2.312   2.468   2.930 -1.7236  2.9863 -0.6896
 6513SOL     OW31171   1.709   4.342   1.509 -0.7207  0.2950 -0.1200
 6513SOL    HW131172   1.666   4.259   1.490 -0.1910 -0.6553  2.8315
 6513SOL    HW231173   1.690   4.390   1.428 -2.2381  0.1823  0.1752
 6514SOL     OW31174   2.072   1.855   1.266  0.5311  0.0839 -0.7926
 6514SOL    HW131175   2.160   1.889   1.285  0.7987 -0.0361 -1.8241
 6514SOL    HW231176   2.108   1.766   1.253  1.1706  0.0934  0.9376
 6515SOL     OW31177   2.188   4.132  13.023  0.3142 -0.3284  0.1610
 6515SOL    HW131178   2.142   4.215  13.017  1.4964  0.3069 -0.1449
 6515SOL    HW231179   2.256   4.144  12.957 -0.3095  2.7866  0.1002
 6516SOL     OW31180   2.220   0.859   4.723 -0.7386 -0.1646  0.5404
 6516SOL    HW131181   2.166   0.936   4.704 -1.6116 -0.9433 -0.1310
 6516SOL    HW231182   2.154   0.790   4.715 -1.9948  1.2723 -1.6030
 6517SOL     OW31183   0.586   1.836   4.359 -0.2666 -0.5936 -0.1446
 6517SOL    HW131184   0.516   1.771   4.356 -0.2688 -0.6455  1.0226
 6517SOL    HW231185   0.666   1.785   4.371 -0.4132 -1.0690 -1.2481
 6518SOL     OW31186   2.070   1.101   7.590 -0.4884 -0.7388 -0.1803
 6518SOL    HW131187   2.014   1.055   7.528  0.7947 -1.6281 -0.6890
 6518SOL    HW231188   1.995   1.133   7.639 -0.8993 -1.4676 -0.3345
 6519SOL     OW31189   0.667   0.916   1.763  0.0851  0.7038  0.0549
 6519SOL    HW131190   0.687   0.861   1.839  0.4219 -0.1577 -0.6459
 6519SOL    HW231191   0.571   0.915   1.761  0.1168 -1.8669 -0.7521
 6520SOL     OW31192   4.009   3.348   3.849 -0.3676 -0.5366 -0.4305
 6520SOL    HW131193   3.947   3.357   3.777 -1.8100 -1.1986  0.7173
 6520SOL    HW231194   4.037   3.440   3.848  0.0337 -0.6364  1.2258
 6521SOL     OW31195   1.839   2.664   1.907 -0.2841 -0.2166 -0.2005
 6521SOL    HW131196   1.825   2.759   1.906  0.0624 -0.1518  1.6821
 6521SOL    HW231197   1.785   2.640   1.982 -0.3878  2.6752  0.6437
 6522SOL     OW31198   2.017   3.224   4.015 -0.5457 -0.4345  0.4158
 6522SOL    HW131199   1.986   3.271   3.938  2.1143  0.8902  0.1345
 6522SOL    HW231200   1.940   3.243   4.067 -0.5383 -1.2900  0.7395
 6523SOL     OW31201   2.025   0.323   0.169  0.3608  0.5512 -0.7717
 6523SOL    HW131202   1.931   0.316   0.151  0.3171 -1.0992  0.0333
 6523SOL    HW231203   2.025   0.387   0.240  0.3126 -2.7851  2.2664
 6524SOL     OW31204   3.933   1.184   9.648  0.2380 -0.1190 -0.0116
 6524SOL    HW131205   3.965   1.110   9.597  2.0097  0.2321  0.5892
 6524SOL    HW231206   3.846   1.204   9.613 -0.6842 -2.5308  0.9341
 6525SOL     OW31207   2.076   2.559  16.969 -0.4878  0.4161 -0.3542
 6525SOL    HW131208   2.048   2.619  16.900  0.0389  1.3326  0.2305
 6525SOL    HW231209   2.160   2.599  16.992  0.5854 -1.4847 -0.9828
 6526SOL     OW31210   3.667   3.146   4.947  0.2035 -0.2219  0.2349
 6526SOL    HW131211   3.632   3.058   4.932 -0.6715  0.0312  0.8273
 6526SOL    HW231212   3.750   3.128   4.904 -0.8665  2.3353 -2.9149
 6527SOL     OW31213   0.312   4.544  17.231 -0.5982  0.5140  0.0382
 6527SOL    HW131214   0.350   4.610  17.288  1.0510 -1.3183  1.0474
 6527SOL    HW231215   0.365   4.557  17.152 -0.6630 -3.2026 -0.6075
 6528SOL     OW31216   3.305   3.358   4.214  0.0280 -0.0223  0.4070
 6528SOL    HW131217   3.376   3.339   4.153 -0.5187 -1.3933  0.2064
 6528SOL    HW231218   3.292   3.451   4.193  2.5632  0.3646  0.5330
 6529SOL     OW31219   2.045   3.807   8.992  0.3144 -0.1052 -0.0624
 6529SOL    HW131220   2.094   3.885   8.964 -0.0716  0.0609 -0.2743
 6529SOL    HW231221   1.987   3.796   8.918 -1.5843 -0.9519  1.5538
 6530SOL     OW31222   3.980   3.640   7.523 -0.4018 -0.5449 -0.1931
 6530SOL    HW131223   4.047   3.642   7.456 -0.0085 -0.6793  0.1966
 6530SOL    HW231224   3.962   3.546   7.526 -2.2533 -0.1811  0.1896
 6531SOL     OW31225   4.084   4.218   8.136  0.0863 -0.2596  0.1571
 6531SOL    HW131226   4.140   4.262   8.199 -0.2363 -0.0127  0.2734
 6531SOL    HW231227   4.031   4.169   8.199 -1.5752 -0.8223 -1.6547
 6532SOL     OW31228   2.792   0.235  15.026 -0.1483 -0.3809 -0.4136
 6532SOL    HW131229   2.701   0.223  14.999 -1.1070  1.0830  2.2037
 6532SOL    HW231230   2.805   0.324  14.996  0.4664 -0.7635 -1.2590
 6533SOL     OW31231   3.330   3.309  10.727  0.2687 -0.0952  0.0197
 6533SOL    HW131232   3.347   3.385  10.784 -1.3228  1.6551 -1.8575
 6533SOL    HW231233   3.338   3.237  10.789  4.2025  0.5706  0.3150
 6534SOL     OW31234   2.394   1.466  13.578  0.2306  0.5395 -0.5644
 6534SOL    HW131235   2.412   1.456  13.671 -0.4658  0.3900 -0.4459
 6534SOL    HW231236   2.387   1.376  13.548  0.4116  1.0397 -2.1141
 6535SOL     OW31237   4.328   2.552  17.113 -0.3552  0.9989  0.1888
 6535SOL    HW131238   4.310   2.607  17.190 -0.2062  0.4816  0.5959
 6535SOL    HW231239   4.240   2.538  17.076  0.6670 -2.3657 -0.9585
 6536SOL     OW31240   0.243   3.882   7.741  0.3523  0.3115 -0.0364
 6536SOL    HW131241   0.327   3.837   7.755  1.3349  2.0139 -0.3825
 6536SOL    HW231242   0.181   3.812   7.757  0.8787 -0.3012 -0.6837
 6537SOL     OW31243   4.367   0.966   7.449 -0.1465  0.4722 -0.2932
 6537SOL    HW131244   4.327   0.985   7.534 -0.3871 -0.9379 -0.0859
 6537SOL    HW231245   4.462   0.968   7.462 -0.8652 -1.1899  5.4396
 6538SOL     OW31246   0.189   0.031  16.484 -0.4395  0.2174  0.0852
 6538SOL    HW131247   0.236   0.106  16.520 -0.3465  1.2745 -2.2123
 6538SOL    HW231248   0.241   0.024  16.404  1.7924 -2.2428  1.7162
 6539SOL     OW31249   3.852   4.536  14.167  0.2174 -0.6780 -0.2946
 6539SOL    HW131250   3.757   4.528  14.160 -0.0978  1.7907  1.0118
 6539SOL    HW231251   3.854   4.615  14.221  1.1805 -0.7679 -0.1971
 6540SOL     OW31252   0.465   3.174   7.715  0.1679 -0.0002  0.4737
 6540SOL    HW131253   0.483   3.171   7.621 -0.7815 -0.2861  0.3076
 6540SOL    HW231254   0.388   3.118   7.726  0.1357  0.0784  0.6435
 6541SOL     OW31255   4.259   0.479   3.049  0.5633 -0.3800 -0.9387
 6541SOL    HW131256   4.182   0.464   3.104  0.6597  1.0350 -0.4186
 6541SOL    HW231257   4.332   0.452   3.103  0.9599  1.1608 -0.7026
 6542SOL     OW31258   4.461   2.061   3.138 -0.4707  0.7155 -0.4965
 6542SOL    HW131259   4.520   2.020   3.201 -1.3410 -1.1739 -0.8944
 6542SOL    HW231260   4.478   2.155   3.130  2.3609  0.3705  1.4280
 6543SOL     OW31261   4.552   2.544   2.714  0.0301  0.3314  0.3243
 6543SOL    HW131262   4.587   2.570   2.629  0.9419  0.8206  0.8445
 6543SOL    HW231263   4.584   2.612   2.773 -1.2066 -0.4936  1.9497
 6544SOL     OW31264   4.517   4.288  16.905  0.0313 -0.3120 -0.1684
 6544SOL    HW131265   4.450   4.339  16.950  0.4582  0.7362 -0.7140
 6544SOL    HW231266   4.507   4.206  16.953  0.0837 -2.0856 -3.2002
 6545SOL     OW31267   4.633   0.194   6.220  0.4617 -0.5923  0.0795
 6545SOL    HW131268   4.610   0.211   6.128  2.5209 -0.7528 -0.4804
 6545SOL    HW231269   4.568   0.247   6.265  1.8206  0.7967  0.4199
 6546SOL     OW31270   3.640   1.715   3.147  0.0339  0.5913  0.0405
 6546SOL    HW131271   3.572   1.781   3.132 -0.2215  0.7480  1.9174
 6546SOL    HW231272   3.600   1.629   3.129 -0.7732  1.0707 -0.4478
 6547SOL     OW31273   3.458   2.880   8.365 -0.2097  0.2573 -0.2746
 6547SOL    HW131274   3.553   2.884   8.370 -0.2468 -0.5973  1.2195
 6547SOL    HW231275   3.428   2.956   8.315  2.3734  2.1815  1.1434
 6548SOL     OW31276   3.502   1.390   5.596  0.3304  0.3854 -0.3171
 6548SOL    HW131277   3.584   1.414   5.553  0.5020 -2.1102 -1.3850
 6548SOL    HW231278   3.527   1.316   5.651  2.5201  1.1181 -0.3377
 6549SOL     OW31279   2.468   0.916   1.190 -0.3804 -0.9874  0.6341
 6549SOL    HW131280   2.469   1.012   1.181 -0.8998 -0.9272  1.2016
 6549SOL    HW231281   2.525   0.914   1.266  0.1324  0.0753  0.2795
 6550SOL     OW31282   3.622   3.359   4.731  0.0010 -0.1351 -0.4986
 6550SOL    HW131283   3.565   3.388   4.660  0.6701  0.2397 -0.8923
 6550SOL    HW231284   3.605   3.265   4.736 -0.3570 -0.0885 -0.9331
 6551SOL     OW31285   4.514   3.005   6.906  0.4304 -0.1136 -0.3513
 6551SOL    HW131286   4.548   3.088   6.873 -1.8133  1.5540  1.5215
 6551SOL    HW231287   4.420   3.016   6.889  0.5949 -0.1980 -1.3286
 6552SOL     OW31288   4.624   0.214   2.228 -0.1025  0.2723  0.0155
 6552SOL    HW131289   4.703   0.249   2.185 -1.3245 -0.6206 -2.9326
 6552SOL    HW231290   4.667   0.149   2.283  0.5144 -0.0152 -0.8093
 6553SOL     OW31291   2.460   3.176   5.361  0.4826  0.2356  0.3431
 6553SOL    HW131292   2.517   3.111   5.321 -3.8869 -2.7452 -0.9915
 6553SOL    HW231293   2.477   3.260   5.318  1.0647  0.2101  0.5268
 6554SOL     OW31294   2.802   2.579   5.978 -0.1122 -0.1169 -0.2233
 6554SOL    HW131295   2.753   2.651   6.017  0.5377 -0.5029  1.3285
 6554SOL    HW231296   2.733   2.513   5.970  1.5962 -2.1979  1.9920
 6555SOL     OW31297   2.983   0.744  10.396 -0.0597  0.2134 -0.5376
 6555SOL    HW131298   2.951   0.660  10.365 -1.4732 -0.3013  2.3166
 6555SOL    HW231299   2.996   0.789  10.312  0.6833  3.1338  1.1391
 6556SOL     OW31300   0.034   3.898   5.721  0.3884  0.1997  0.8375
 6556SOL    HW131301   0.089   3.851   5.784  1.4971 -0.8888 -0.9447
 6556SOL    HW231302   4.689   3.912   5.773 -0.6511 -1.8665 -0.1762
 6557SOL     OW31303   4.180   0.253  14.367 -0.3575  0.0090  0.3338
 6557SOL    HW131304   4.088   0.240  14.389 -0.9296 -1.3021 -2.8201
 6557SOL    HW231305   4.231   0.293  14.438  1.9800 -1.0859 -0.7293
 6558SOL     OW31306   4.445   1.498   5.510  0.7723 -0.1180 -0.3883
 6558SOL    HW131307   4.388   1.421   5.507  0.7931 -0.3089  3.9309
 6558SOL    HW231308   4.436   1.539   5.424 -0.1156  1.4123  0.4368
 6559SOL     OW31309   0.738   3.795   9.484 -0.0161 -0.2331 -0.2363
 6559SOL    HW131310   0.703   3.708   9.466  2.3926 -1.3164  0.2412
 6559SOL    HW231311   0.658   3.847   9.480  0.6632  0.8543  0.3138
 6560SOL     OW31312   0.572   2.534   3.820 -0.0411 -0.6647  0.5036
 6560SOL    HW131313   0.566   2.625   3.848 -1.8524 -0.4583 -0.5956
 6560SOL    HW231314   0.481   2.511   3.803  0.2489 -0.4373 -1.3599
 6561SOL     OW31315   1.236   2.315  13.201  0.3643 -0.6642 -0.1313
 6561SOL    HW131316   1.279   2.341  13.119  0.6973  1.3527  0.7027
 6561SOL    HW231317   1.146   2.314  13.170  0.2459  0.0524  0.1984
 6562SOL     OW31318   1.981   3.556   4.927 -0.4230 -0.0743  0.2174
 6562SOL    HW131319   1.942   3.629   4.974 -0.7647 -0.2446  0.1976
 6562SOL    HW231320   2.068   3.571   4.964  0.8645 -1.6129 -2.1655
 6563SOL     OW31321   3.087   1.110   9.309 -0.4073  0.3748 -0.5840
 6563SOL    HW131322   3.021   1.129   9.243 -1.4193  1.2993  0.6885
 6563SOL    HW231323   3.034   1.045   9.354 -1.1381  2.2317  1.2472
 6564SOL     OW31324   1.274   2.038   7.037  0.3344  0.4823  0.3521
 6564SOL    HW131325   1.317   1.979   7.099  0.2521  0.0915  0.0389
 6564SOL    HW231326   1.351   2.046   6.980  0.7806 -0.6624  0.7856
 6565SOL     OW31327   1.374   1.076   3.056  0.3262 -0.1126  0.1787
 6565SOL    HW131328   1.462   1.098   3.025 -0.0657 -0.4834 -1.1620
 6565SOL    HW231329   1.359   1.146   3.121  0.7040 -1.6927  1.9705
 6566SOL     OW31330   4.455   0.337   6.358  0.2683  0.6898  0.1823
 6566SOL    HW131331   4.521   0.387   6.405 -0.6759  1.5628  0.5943
 6566SOL    HW231332   4.424   0.409   6.302  1.8345  0.2412 -1.2441
 6567SOL     OW31333   2.159   3.601   2.816  0.2149  0.5107  0.2716
 6567SOL    HW131334   2.247   3.570   2.836  0.2638  2.7943  3.5329
 6567SOL    HW231335   2.168   3.608   2.721  0.1983 -0.2949  0.2096
 6568SOL     OW31336   3.627   3.837   0.935 -0.1849  0.8241 -0.3416
 6568SOL    HW131337   3.683   3.801   0.866 -0.4693  2.4893 -1.4336
 6568SOL    HW231338   3.665   3.924   0.938 -2.9330  2.0787 -1.7435
 6569SOL     OW31339   2.232   1.710   5.709 -0.0937 -0.2340  0.0728
 6569SOL    HW131340   2.173   1.645   5.747  0.4742 -0.6421  0.2555
 6569SOL    HW231341   2.222   1.681   5.618 -1.4326  1.1036 -0.2084
 6570SOL     OW31342   0.824   0.544   3.093 -0.1671  0.5914  0.1370
 6570SOL    HW131343   0.746   0.559   3.041 -0.8319 -0.2009  0.8896
 6570SOL    HW231344   0.841   0.632   3.127 -0.0420  0.0307  1.5303
 6571SOL     OW31345   0.229   2.370   4.254 -0.3110  0.0294 -0.0573
 6571SOL    HW131346   0.263   2.450   4.214  1.0087  0.4390  1.9208
 6571SOL    HW231347   0.151   2.408   4.296  0.4087  1.7451 -0.2603
 6572SOL     OW31348   3.594   1.461   3.022  0.3535 -0.0810 -0.4565
 6572SOL    HW131349   3.644   1.457   2.941  1.3267  1.0805  0.0927
 6572SOL    HW231350   3.656   1.456   3.095 -0.7347  1.2726  0.5428
 6573SOL     OW31351   1.330   0.042   0.185  1.2680 -0.3785  0.4015
 6573SOL    HW131352   1.323   0.130   0.221  0.8186 -0.0925 -0.3770
 6573SOL    HW231353   1.317   4.731   0.268  1.4114 -0.8290  0.1805
 6574SOL     OW31354   1.153   2.487   5.589  0.2828  0.6488 -0.3022
 6574SOL    HW131355   1.148   2.441   5.673 -1.0283 -0.3029 -0.8991
 6574SOL    HW231356   1.216   2.434   5.540  0.5418  0.8952 -0.2357
 6575SOL     OW31357   1.280   2.349   2.258 -0.2688 -0.5574 -0.0755
 6575SOL    HW131358   1.230   2.425   2.291 -0.1611 -0.8264  0.7130
 6575SOL    HW231359   1.215   2.318   2.195  0.4398 -1.1435 -0.5043
 6576SOL     OW31360   3.365   3.408   8.139  0.4350  0.4375  0.3134
 6576SOL    HW131361   3.366   3.489   8.190 -0.1888  0.2031  0.7003
 6576SOL    HW231362   3.287   3.421   8.086  0.1630 -1.4363  0.2433
 6577SOL     OW31363   0.911   3.664  17.602  0.1822  0.3077 -0.7180
 6577SOL    HW131364   0.959   3.606  17.661 -1.6898  0.3822  0.8901
 6577SOL    HW231365   0.852   3.600  17.561  1.7220 -0.4138 -1.8226
 6578SOL     OW31366   1.930   0.860   2.042 -0.5132  0.2413 -0.1055
 6578SOL    HW131367   1.982   0.815   1.976 -0.8382  1.5273 -1.2318
 6578SOL    HW231368   1.944   0.952   2.020 -0.7330  0.0872 -0.8752
 6579SOL     OW31369   2.582   3.113   5.617 -0.6548  0.0938  0.3582
 6579SOL    HW131370   2.676   3.095   5.610 -0.3355  2.1660 -0.7533
 6579SOL    HW231371   2.556   3.091   5.528 -2.5213  2.7628  0.2567
 6580SOL     OW31372   2.567   2.897   8.538  0.0246 -0.3284  0.1977
 6580SOL    HW131373   2.562   2.813   8.493  2.5022  0.0420 -0.7684
 6580SOL    HW231374   2.652   2.888   8.581 -0.3953  0.0700  1.1157
 6581SOL     OW31375   0.205   2.635  15.187 -0.1276  0.4869  0.0875
 6581SOL    HW131376   0.149   2.558  15.184  0.5075  0.0608 -0.6429
 6581SOL    HW231377   0.249   2.624  15.103  0.3265 -1.4755  0.5747
 6582SOL     OW31378   2.724   4.415   5.757 -0.1188 -0.4364 -0.4998
 6582SOL    HW131379   2.755   4.345   5.700  1.2060  0.5036 -0.9302
 6582SOL    HW231380   2.799   4.447   5.807 -1.3617  0.8999  0.4959
 6583SOL     OW31381   4.600   2.319   5.590  0.0540  0.2483  0.0420
 6583SOL    HW131382   4.694   2.301   5.595  0.2468  1.3196  0.1666
 6583SOL    HW231383   4.557   2.233   5.597  1.9936 -0.5520  2.2025
 6584SOL     OW31384   0.810   4.484   2.678  0.0329 -0.2428  0.4517
 6584SOL    HW131385   0.789   4.391   2.692  1.0233 -0.6131 -0.4810
 6584SOL    HW231386   0.852   4.475   2.592 -1.6853  2.7486 -0.6708
 6585SOL     OW31387   2.738   3.690  11.403 -0.7271  0.0185 -0.0175
 6585SOL    HW131388   2.796   3.624  11.365 -0.2395  0.6866 -0.4214
 6585SOL    HW231389   2.751   3.672  11.496 -2.8746 -4.1497 -0.5058
 6586SOL     OW31390   2.790   0.473  11.411  0.0773 -0.0468 -0.9750
 6586SOL    HW131391   2.726   0.539  11.437  1.3115  1.0226 -0.6637
 6586SOL    HW231392   2.875   0.516  11.400  0.2398  0.4643  2.2635
 6587SOL     OW31393   2.012   4.453  17.439  0.3104  0.1191  0.3691
 6587SOL    HW131394   2.045   4.464  17.529 -0.0610 -0.3331  0.5628
 6587SOL    HW231395   1.924   4.434  17.470  0.1195  0.9366  0.3325
 6588SOL     OW31396   3.639   0.942   4.852  0.5332  0.1014 -0.0274
 6588SOL    HW131397   3.548   0.913   4.851  0.5275  0.0547  1.1659
 6588SOL    HW231398   3.641   1.006   4.923 -2.6607 -1.3886  1.4493
 6589SOL     OW31399   4.575   3.068   6.463  0.5273 -0.1267  0.1167
 6589SOL    HW131400   4.570   2.996   6.526  0.1507  1.0265  1.4057
 6589SOL    HW231401   4.505   3.116   6.508  0.8366 -0.1309  0.6010
 6590SOL     OW31402   0.701   3.591   1.755 -0.4170 -0.8313 -0.1504
 6590SOL    HW131403   0.786   3.556   1.784  0.4367  0.1456 -1.4658
 6590SOL    HW231404   0.720   3.614   1.664 -1.7211  0.0051 -0.2065
 6591SOL     OW31405   0.908   2.466   9.300 -0.2130 -0.0893 -0.7141
 6591SOL    HW131406   0.952   2.491   9.381 -1.0137  1.2389 -0.6877
 6591SOL    HW231407   0.901   2.370   9.303 -0.8142  0.0292  1.4233
 6592SOL     OW31408   0.968   2.084   8.355  0.0112 -0.1780 -0.1980
 6592SOL    HW131409   0.897   2.117   8.301  1.8057  2.0299 -1.1632
 6592SOL    HW231410   0.927   2.000   8.377  2.0502 -0.3779  2.8628
 6593SOL     OW31411   0.990   1.628   3.107 -0.4411 -0.1460 -0.3602
 6593SOL    HW131412   0.988   1.537   3.137 -0.5100 -0.8785 -2.6006
 6593SOL    HW231413   0.952   1.677   3.180  0.1102 -2.1793  1.3017
 6594SOL     OW31414   2.458   3.246   6.634  0.3870  0.1805 -0.6022
 6594SOL    HW131415   2.491   3.336   6.632  0.7517  0.0498 -0.4146
 6594SOL    HW231416   2.459   3.240   6.729 -0.0966 -0.9647 -0.6705
 6595SOL     OW31417   1.557   2.082   3.514  0.1278 -0.9685  0.2724
 6595SOL    HW131418   1.500   2.015   3.476 -0.4998 -0.6144  0.5866
 6595SOL    HW231419   1.526   2.090   3.605 -0.5902 -2.2419  0.1561
 6596SOL     OW31420   3.180   1.569   5.773  0.0699 -0.5115  0.1768
 6596SOL    HW131421   3.271   1.539   5.780  0.5283  0.9378  0.3310
 6596SOL    HW231422   3.160   1.571   5.867 -1.3987 -0.6699 -0.1386
 6597SOL     OW31423   1.218   2.894  10.338 -0.1980 -0.4810  0.4188
 6597SOL    HW131424   1.288   2.828  10.338  0.2688  0.0039  1.9062
 6597SOL    HW231425   1.137   2.844  10.349 -1.6291  1.8437  0.3630
 6598SOL     OW31426   0.670   3.404  17.020 -0.1249 -0.2947 -0.1159
 6598SOL    HW131427   0.720   3.401  17.102  0.1479  1.5794 -0.2164
 6598SOL    HW231428   0.654   3.498  17.014  0.1030 -0.4278 -2.9987
 6599SOL     OW31429   0.737   3.648   1.505 -0.2049  0.1009 -0.1754
 6599SOL    HW131430   0.802   3.580   1.488  2.0932  1.7302  1.9954
 6599SOL    HW231431   0.700   3.665   1.418 -2.0840  1.4557  0.8802
 6600SOL     OW31432   0.359   1.659  11.617 -0.1285 -0.6983 -0.3478
 6600SOL    HW131433   0.329   1.673  11.528  0.6815  0.7827 -0.3865
 6600SOL    HW231434   0.317   1.734  11.660  2.7225  0.1382  1.0025
 6601SOL     OW31435   1.284   2.413  16.153  0.0675  0.2541  0.1964
 6601SOL    HW131436   1.288   2.506  16.174  0.5395  0.4623 -0.8250
 6601SOL    HW231437   1.315   2.414  16.062 -2.7715  2.2798 -0.7359
 6602SOL     OW31438   3.482   3.447  12.303  0.0085 -0.3024 -0.1897
 6602SOL    HW131439   3.436   3.368  12.274 -2.2664  0.4132  1.4583
 6602SOL    HW231440   3.503   3.419  12.392 -0.8296 -0.0781  0.0817
 6603SOL     OW31441   0.529   4.383  11.416  0.0967  0.2816 -0.3380
 6603SOL    HW131442   0.497   4.415  11.500 -0.5286  0.9141 -0.8205
 6603SOL    HW231443   0.440   4.357  11.393  0.5457 -1.6348  0.0443
 6604SOL     OW31444   1.970   0.999   6.256  0.3205  0.2173  0.1082
 6604SOL    HW131445   1.964   1.089   6.223 -0.3262  0.7585  1.7048
 6604SOL    HW231446   1.929   1.020   6.340 -0.6657 -0.9050 -0.0912
 6605SOL     OW31447   1.157   0.915   3.046  0.3158 -0.2256  0.6235
 6605SOL    HW131448   1.148   0.852   2.976  0.6839 -0.3217  0.6638
 6605SOL    HW231449   1.229   0.971   3.017  1.3213 -3.4583 -3.0319
 6606SOL     OW31450   0.756   0.306   5.533  0.3496  0.3226  0.7061
 6606SOL    HW131451   0.846   0.288   5.507 -0.6874 -2.9129 -0.7579
 6606SOL    HW231452   0.753   0.398   5.508 -0.8461 -0.2612 -1.3488
 6607SOL     OW31453   1.691   4.024  15.230  0.2432  0.0296 -0.0834
 6607SOL    HW131454   1.688   4.051  15.322 -0.1960 -2.0130  0.4998
 6607SOL    HW231455   1.776   4.048  15.192  1.1120 -1.3006  1.0092
 6608SOL     OW31456   3.478   4.584   7.250 -0.1915  0.1027  0.6181
 6608SOL    HW131457   3.531   4.516   7.293 -0.6238 -1.1813 -0.8914
 6608SOL    HW231458   3.539   4.591   7.177 -1.4338 -1.1986 -0.5322
 6609SOL     OW31459   4.071   2.353  16.298 -0.1163  0.6478  0.2818
 6609SOL    HW131460   4.004   2.350  16.367 -0.7987  2.2098 -0.3239
 6609SOL    HW231461   4.050   2.270  16.256 -0.9296 -0.0073  1.9557
 6610SOL     OW31462   4.685   1.661   2.690 -0.5035 -0.2362 -0.6555
 6610SOL    HW131463   4.686   1.655   2.594 -1.2280 -1.6075 -0.5742
 6610SOL    HW231464   4.714   1.751   2.706  1.0425 -0.9580  0.5304
 6611SOL     OW31465   3.197   0.422  11.659  0.8504  0.3687  0.2932
 6611SOL    HW131466   3.282   0.392  11.625  1.3116  3.1691 -1.0470
 6611SOL    HW231467   3.202   0.514  11.635  0.1156  0.1238 -0.7572
 6612SOL     OW31468   0.207   4.702   5.722  0.8194  0.1604  0.0610
 6612SOL    HW131469   0.154   0.041   5.754  0.8691 -0.7316  2.1385
 6612SOL    HW231470   0.275   4.703   5.790  1.5545 -0.1419 -0.6683
 6613SOL     OW31471   2.352   3.378   4.579 -0.5932 -0.2556 -0.0478
 6613SOL    HW131472   2.444   3.354   4.566 -0.5291  0.9139 -1.6277
 6613SOL    HW231473   2.314   3.298   4.542  0.9801 -0.6897 -0.7293
 6614SOL     OW31474   1.325   0.330  13.154 -0.2538  0.3663 -0.3637
 6614SOL    HW131475   1.398   0.392  13.155  0.4617 -0.4828 -0.4559
 6614SOL    HW231476   1.246   0.381  13.171 -0.2351 -0.1006  1.1018
 6615SOL     OW31477   0.439   1.700   6.037 -0.4220  0.1400 -0.1263
 6615SOL    HW131478   0.414   1.610   6.056  1.6856 -0.2869  0.6128
 6615SOL    HW231479   0.364   1.744   5.997 -2.0320  0.7719  3.5473
 6616SOL     OW31480   2.050   1.003  15.694  0.0044  0.8167  0.2475
 6616SOL    HW131481   2.040   0.908  15.696  0.5796  0.7369 -1.0382
 6616SOL    HW231482   1.963   1.037  15.672 -0.7609  0.7033  3.0826
 6617SOL     OW31483   1.819   2.723   6.753  0.6675 -0.3732  0.4200
 6617SOL    HW131484   1.786   2.786   6.689 -0.2824 -0.7308  0.5605
 6617SOL    HW231485   1.745   2.663   6.758 -0.0303  0.3596 -1.2160
 6618SOL     OW31486   3.938   1.657  14.680 -0.5558 -0.5700  0.4554
 6618SOL    HW131487   3.950   1.729  14.617 -0.0125  0.4455  1.7315
 6618SOL    HW231488   3.890   1.595  14.625  2.2060 -1.4544 -0.9475
 6619SOL     OW31489   2.561   4.643   0.625 -0.0201  0.4666  0.0125
 6619SOL    HW131490   2.652   4.635   0.595 -0.9803 -0.0889 -2.7454
 6619SOL    HW231491   2.547   4.567   0.681  0.3768  1.2336  1.1285
 6620SOL     OW31492   0.777   1.294   5.675  0.1194  0.1491 -0.3596
 6620SOL    HW131493   0.725   1.250   5.743 -0.7266  2.6206  0.5815
 6620SOL    HW231494   0.818   1.223   5.625  0.5491 -0.4247  0.7854
 6621SOL     OW31495   0.648   4.080  12.277  0.4708 -0.1841  0.2511
 6621SOL    HW131496   0.602   3.999  12.297  0.8303 -0.4307  0.0734
 6621SOL    HW231497   0.735   4.047  12.298  0.3608 -1.4599 -1.3044
 6622SOL     OW31498   3.465   2.138   4.817  0.1183  0.6297 -0.3313
 6622SOL    HW131499   3.459   2.222   4.772 -0.2183  1.1205  0.6318
 6622SOL    HW231500   3.459   2.079   4.742 -0.1264  1.0979 -0.6759
 6623SOL     OW31501   2.505   3.776   2.647  0.1106 -0.0199  0.2097
 6623SOL    HW131502   2.413   3.774   2.674  0.7383 -3.0856  2.1515
 6623SOL    HW231503   2.502   3.869   2.623  0.1391  0.0483  0.4640
 6624SOL     OW31504   4.010   4.414   2.258 -0.0906 -0.3887 -0.3288
 6624SOL    HW131505   4.003   4.501   2.220  0.7102 -0.2639 -0.1800
 6624SOL    HW231506   4.012   4.365   2.175 -1.2078  0.7084 -0.9927
 6625SOL     OW31507   2.396   0.795   2.458 -0.1333 -0.2711  0.2494
 6625SOL    HW131508   2.322   0.748   2.420  0.0367  0.2183 -0.6802
 6625SOL    HW231509   2.356   0.852   2.524  3.0794  1.6906  0.5131
 6626SOL     OW31510   0.084   2.970   5.625  0.1529  0.1571  0.0377
 6626SOL    HW131511   0.170   2.976   5.585  0.3946  1.5134  0.7594
 6626SOL    HW231512   0.032   2.939   5.550  0.8831 -1.1461  0.0738
 6627SOL     OW31513   4.452   2.483   7.780  0.2034 -0.2365 -0.5907
 6627SOL    HW131514   4.426   2.499   7.871  0.1036 -1.1916 -0.4486
 6627SOL    HW231515   4.545   2.504   7.788  0.1844  0.1252 -1.3425
 6628SOL     OW31516   3.579   1.657  16.532 -0.3012  0.7011 -0.2629
 6628SOL    HW131517   3.537   1.635  16.615  0.4522 -1.1333 -0.3732
 6628SOL    HW231518   3.646   1.718  16.564 -0.5147 -0.1808  1.8349
 6629SOL     OW31519   1.473   0.132   3.711 -0.4169  0.0256  0.2289
 6629SOL    HW131520   1.549   0.134   3.768 -0.4130 -1.0995  0.2801
 6629SOL    HW231521   1.505   0.183   3.636  0.8350 -0.8713  0.1466
 6630SOL     OW31522   0.425   1.135   2.145 -0.4283  0.1617 -0.0537
 6630SOL    HW131523   0.415   1.109   2.053  0.5245 -0.9784  0.1663
 6630SOL    HW231524   0.519   1.154   2.153 -0.9390  2.1060  1.3717
 6631SOL     OW31525   4.160   2.790   4.874 -0.0388 -0.2869 -0.3350
 6631SOL    HW131526   4.230   2.738   4.913 -1.3281 -3.2590 -1.9749
 6631SOL    HW231527   4.214   2.831   4.807  1.3538 -2.4012 -0.4878
 6632SOL     OW31528   2.449   4.152   7.855 -0.5199 -0.1368  0.5840
 6632SOL    HW131529   2.412   4.094   7.922  0.6741 -0.0606  1.3031
 6632SOL    HW231530   2.374   4.203   7.825 -1.0084 -0.3905  1.3609
 6633SOL     OW31531   2.843   0.967   3.446 -0.0974  0.0421  0.7861
 6633SOL    HW131532   2.785   0.899   3.480 -0.2741  0.2813  0.9678
 6633SOL    HW231533   2.915   0.947   3.506 -0.4043  0.0410  1.1554
 6634SOL     OW31534   4.165   0.594   5.953 -0.3862 -0.2885 -0.1854
 6634SOL    HW131535   4.227   0.643   5.900  0.6212 -0.8623  0.4561
 6634SOL    HW231536   4.136   0.527   5.890 -0.1203 -0.6647  0.0905
 6635SOL     OW31537   4.417   2.585   1.125 -0.0701  0.1421 -0.7265
 6635SOL    HW131538   4.425   2.619   1.214 -1.2516  1.3121 -1.0776
 6635SOL    HW231539   4.476   2.644   1.078  1.9786 -1.4746 -0.1849
 6636SOL     OW31540   2.514   0.964   8.142 -0.0772 -0.2475 -0.7201
 6636SOL    HW131541   2.484   0.995   8.057  0.2260 -0.5703 -0.9469
 6636SOL    HW231542   2.513   1.046   8.191 -1.8088 -0.8624  0.2805
 6637SOL     OW31543   4.547   4.529  11.591  0.3164  0.1254 -0.2732
 6637SOL    HW131544   4.483   4.564  11.529  1.5374 -1.5469 -2.4811
 6637SOL    HW231545   4.490   4.464  11.632  1.3352 -1.3603 -1.2196
 6638SOL     OW31546   3.535   0.774   3.248 -0.1391 -0.5696  0.3860
 6638SOL    HW131547   3.448   0.807   3.271  0.3148  1.3364 -0.6603
 6638SOL    HW231548   3.559   0.841   3.184 -0.5028 -1.2650 -0.4810
 6639SOL     OW31549   1.228   3.481  16.231 -0.0410 -0.1431 -0.1467
 6639SOL    HW131550   1.179   3.403  16.255 -1.0716  0.2685 -0.8967
 6639SOL    HW231551   1.284   3.442  16.163  0.1794  0.9593 -0.6032
 6640SOL     OW31552   2.226   3.682  16.338  0.1969  0.1537 -0.0969
 6640SOL    HW131553   2.157   3.659  16.401  0.0392 -0.5972 -0.5457
 6640SOL    HW231554   2.304   3.641  16.374 -1.6755 -3.2539  0.1149
 6641SOL     OW31555   3.219   0.035   9.505  0.5049 -0.1083 -0.1405
 6641SOL    HW131556   3.288   0.096   9.532 -0.9744  0.8775  1.4268
 6641SOL    HW231557   3.201   0.006   9.594 -0.8423  0.3509 -0.2514
 6642SOL     OW31558   0.463   1.365   7.391 -0.1239  0.0052  0.2465
 6642SOL    HW131559   0.521   1.289   7.394  0.9625  0.7850 -0.9289
 6642SOL    HW231560   0.504   1.421   7.457 -3.5314  0.9500  1.5972
 6643SOL     OW31561   1.651   0.246   7.464 -0.4371  0.2314 -0.2709
 6643SOL    HW131562   1.568   0.203   7.442 -1.6453  2.7491 -0.6232
 6643SOL    HW231563   1.642   0.263   7.558 -2.1835 -2.7302  0.1025
 6644SOL     OW31564   0.695   0.343   2.006  0.0420  0.4291  0.1766
 6644SOL    HW131565   0.685   0.333   1.911  1.4471  1.7719 -0.1129
 6644SOL    HW231566   0.633   0.414   2.018  1.9335  2.1078  0.0129
 6645SOL     OW31567   2.463   1.416  10.866  0.6152  0.4409 -0.6372
 6645SOL    HW131568   2.418   1.392  10.785  1.0076 -0.6071 -0.5463
 6645SOL    HW231569   2.477   1.337  10.918 -1.5125  1.4357  1.4604
 6646SOL     OW31570   4.706   1.211  13.326  0.3595 -0.1461  0.0955
 6646SOL    HW131571   4.707   1.221  13.231 -1.6415 -3.7008 -0.3322
 6646SOL    HW231572   4.617   1.238  13.349  0.6689  1.3341 -0.4576
 6647SOL     OW31573   1.529   2.508   3.035  0.0624 -0.0165  0.1942
 6647SOL    HW131574   1.518   2.540   2.946  1.9043 -3.7461 -1.3998
 6647SOL    HW231575   1.618   2.471   3.040  1.2641  3.0372  1.2747
 6648SOL     OW31576   3.851   2.699   9.455 -0.5383  0.5087  0.5199
 6648SOL    HW131577   3.807   2.642   9.517  2.8914 -3.0623 -0.3354
 6648SOL    HW231578   3.809   2.685   9.370 -1.3147 -0.2840  1.0411
 6649SOL     OW31579   2.657   1.722  15.943  0.5209  0.1592  0.1239
 6649SOL    HW131580   2.624   1.807  15.971 -1.1142 -0.7128  0.8559
 6649SOL    HW231581   2.580   1.667  15.930  1.1137 -0.7475  0.4703
 6650SOL     OW31582   4.648   1.015   4.425  0.2863  0.0805  0.3102
 6650SOL    HW131583   4.713   0.951   4.454  0.0587 -1.2450 -2.0747
 6650SOL    HW231584   4.690   1.100   4.439 -1.9039  1.3962 -1.1791
 6651SOL     OW31585   4.258   1.721  12.511 -0.4955  0.2332  0.0582
 6651SOL    HW131586   4.325   1.786  12.493  1.1598 -2.2495 -2.7622
 6651SOL    HW231587   4.215   1.721  12.425  0.0456  0.9538 -0.2102
 6652SOL     OW31588   2.461   0.407  12.420 -0.3157 -0.2859  0.1656
 6652SOL    HW131589   2.504   0.405  12.505  0.7168 -0.8100 -0.3617
 6652SOL    HW231590   2.534   0.397  12.359 -0.3300 -0.3179  0.1532
 6653SOL     OW31591   4.306   1.174   8.387  0.2036 -0.5275  0.3673
 6653SOL    HW131592   4.312   1.135   8.474  0.5661  1.4297  1.2318
 6653SOL    HW231593   4.375   1.123   8.344  1.2613  0.2205  1.1636
 6654SOL     OW31594   2.358   0.634  13.208 -0.3492  0.7958  0.5578
 6654SOL    HW131595   2.311   0.594  13.282 -0.3589 -0.3829 -0.0890
 6654SOL    HW231596   2.404   0.554  13.184  1.2814  2.7385 -2.8392
 6655SOL     OW31597   2.407   1.554   6.607 -0.3924 -0.7639 -0.6383
 6655SOL    HW131598   2.434   1.464   6.588 -2.0290 -1.0097 -1.7709
 6655SOL    HW231599   2.326   1.538   6.656  0.5510  2.1415  1.8484
 6656SOL     OW31600   2.519   0.264   2.872  0.2085  0.2235 -0.8969
 6656SOL    HW131601   2.459   0.205   2.917  0.5272  0.5467 -0.0484
 6656SOL    HW231602   2.530   0.209   2.795 -0.1365  0.0029 -0.7899
 6657SOL     OW31603   0.893   3.546   3.934  0.3843 -0.3772 -0.4092
 6657SOL    HW131604   0.916   3.627   3.980  0.3124 -0.6058  0.0336
 6657SOL    HW231605   0.817   3.511   3.981  0.4807  0.3900  0.3112
 6658SOL     OW31606   3.827   3.140   1.188  0.2783  0.1672 -0.2732
 6658SOL    HW131607   3.784   3.225   1.195 -1.8421 -0.8716 -0.7124
 6658SOL    HW231608   3.891   3.161   1.120  1.6441 -0.3022  0.8795
 6659SOL     OW31609   0.405   0.527   1.506 -0.3511 -0.1515 -0.7638
 6659SOL    HW131610   0.431   0.436   1.518  0.2085  0.0034 -0.8060
 6659SOL    HW231611   0.456   0.571   1.574  0.8910 -0.2681 -1.6290
 6660SOL     OW31612   4.269   4.189   2.101  0.1443 -0.6810 -0.6732
 6660SOL    HW131613   4.285   4.172   2.193  0.5378 -2.0893 -0.9896
 6660SOL    HW231614   4.337   4.252   2.079 -0.6897  1.6805  3.6344
 6661SOL     OW31615   0.854   0.094   2.414  0.6061 -0.1618 -1.0667
 6661SOL    HW131616   0.839   0.141   2.332  0.5758  2.7448  0.5965
 6661SOL    HW231617   0.948   0.104   2.431  0.0652  2.1988  0.5108
 6662SOL     OW31618   4.558   2.526   5.871  0.0990 -0.1337 -0.2417
 6662SOL    HW131619   4.514   2.603   5.837 -2.9441 -0.5380  2.8188
 6662SOL    HW231620   4.609   2.495   5.796  2.3931  2.2386  0.3023
 6663SOL     OW31621   0.343   0.753   3.434 -0.2835  0.7359  0.2817
 6663SOL    HW131622   0.424   0.736   3.386 -0.7232 -2.5649  0.7362
 6663SOL    HW231623   0.298   0.669   3.431  1.1763 -0.0574  0.2483
 6664SOL     OW31624   0.096   3.077  10.308  0.0939 -0.3367 -0.2437
 6664SOL    HW131625   0.019   3.026  10.332 -1.0852  1.6083  0.1464
 6664SOL    HW231626   0.167   3.013  10.305  0.2323 -0.1297 -1.3817
 6665SOL     OW31627   4.473   4.571   3.901 -0.4274 -0.2695  0.0903
 6665SOL    HW131628   4.503   4.480   3.895 -0.9749 -0.4352 -0.2342
 6665SOL    HW231629   4.555   4.617   3.917 -0.6499  0.6229 -1.3286
 6666SOL     OW31630   0.114   0.523   5.952  0.2850  0.1835  0.2033
 6666SOL    HW131631   0.067   0.485   5.878 -1.6986  3.9255 -0.5133
 6666SOL    HW231632   0.198   0.480   5.941  0.1780  0.0601 -0.1070
 6667SOL     OW31633   3.530   2.173   3.784  0.0728 -0.0345 -0.0310
 6667SOL    HW131634   3.588   2.194   3.857  0.6487  2.3411 -1.1831
 6667SOL    HW231635   3.599   2.146   3.724  0.0948  1.2292 -0.5867
 6668SOL     OW31636   3.166   0.709  13.467  0.4654  0.1505  0.0370
 6668SOL    HW131637   3.086   0.660  13.486  1.0140 -0.4100  0.8892
 6668SOL    HW231638   3.171   0.785  13.525  0.5113 -0.9101  1.4282
 6669SOL     OW31639   2.624   4.177   2.310 -0.8737 -0.4327  0.1385
 6669SOL    HW131640   2.651   4.166   2.401 -2.6395  0.3957  0.7703
 6669SOL    HW231641   2.564   4.102   2.302 -1.5487  0.2062 -0.7327
 6670SOL     OW31642   0.763   3.750  13.571 -0.4984 -0.0124 -0.3943
 6670SOL    HW131643   0.675   3.715  13.565 -0.4423 -0.5213  1.7733
 6670SOL    HW231644   0.740   3.830  13.618 -3.2665 -0.0375 -1.6891
 6671SOL     OW31645   2.687   1.317   5.185 -0.3744  0.7473 -0.4872
 6671SOL    HW131646   2.602   1.280   5.162 -0.0072 -0.0553 -0.5609
 6671SOL    HW231647   2.682   1.318   5.281  1.9810  1.3037 -0.3822
 6672SOL     OW31648   0.604   1.195  11.895  0.1553 -0.7101  0.0180
 6672SOL    HW131649   0.648   1.270  11.856 -0.7966 -0.9895 -1.5927
 6672SOL    HW231650   0.672   1.170  11.957 -0.7839  0.9425  1.7330
 6673SOL     OW31651   2.246   0.319   2.550 -0.0734 -0.0040  0.3070
 6673SOL    HW131652   2.266   0.297   2.459  2.7455 -0.1683  0.9749
 6673SOL    HW231653   2.160   0.360   2.540  0.6726  1.6839  0.8154
 6674SOL     OW31654   3.374   4.407   7.946  0.4813 -0.1606  0.4126
 6674SOL    HW131655   3.361   4.320   7.910  2.0242 -0.6780  1.1133
 6674SOL    HW231656   3.407   4.393   8.035 -0.6262  1.6537  1.1099
 6675SOL     OW31657   3.122   1.920   1.393 -0.6124 -0.2463  0.5034
 6675SOL    HW131658   3.060   1.992   1.405 -2.5504 -1.9294  0.7981
 6675SOL    HW231659   3.058   1.851   1.411 -1.9463  0.9096  0.1942
 6676SOL     OW31660   0.785   4.039   0.833  0.3539  0.5415  0.7296
 6676SOL    HW131661   0.833   3.958   0.850 -0.5375  0.0675  1.0505
 6676SOL    HW231662   0.711   3.995   0.790  2.2879 -1.2954 -0.7000
 6677SOL     OW31663   2.387   3.404   1.870  0.3049  0.0183  0.8487
 6677SOL    HW131664   2.424   3.426   1.784 -0.4571  1.4751  0.8893
 6677SOL    HW231665   2.424   3.316   1.882  1.0458 -0.0395 -1.7066
 6678SOL     OW31666   4.328   0.671  16.515 -0.5550  0.8146 -0.2836
 6678SOL    HW131667   4.250   0.718  16.488 -1.7913 -0.5387  0.9304
 6678SOL    HW231668   4.340   0.602  16.449 -0.3142  0.7511 -0.1743
 6679SOL     OW31669   3.074   3.270  16.680 -0.8338 -1.0298  0.5453
 6679SOL    HW131670   3.109   3.351  16.718 -1.2998  0.3149 -1.8413
 6679SOL    HW231671   3.024   3.225  16.748 -0.4460  0.0292  1.5130
 6680SOL     OW31672   0.677   3.276   8.921 -0.4282  0.3519 -0.0106
 6680SOL    HW131673   0.738   3.347   8.901  0.6471 -0.6018 -0.0772
 6680SOL    HW231674   0.691   3.274   9.015 -1.3788  0.2193  0.1288
 6681SOL     OW31675   4.285   1.201   5.986 -0.7130 -0.0144  0.1967
 6681SOL    HW131676   4.344   1.252   6.042 -2.1895  1.6645  0.2091
 6681SOL    HW231677   4.313   1.247   5.907 -0.1801 -1.3390 -0.3974
 6682SOL     OW31678   3.070   3.341   7.804  0.8359 -0.0315  0.1374
 6682SOL    HW131679   3.128   3.321   7.730 -0.1385  1.5402 -1.0810
 6682SOL    HW231680   2.984   3.328   7.763  0.8848 -0.3618  0.1406
 6683SOL     OW31681   3.433   3.144   8.723  0.5278  0.1288 -0.1776
 6683SOL    HW131682   3.366   3.142   8.656  0.4318 -1.1295 -0.0400
 6683SOL    HW231683   3.511   3.171   8.673 -0.5347  1.0395 -1.3335
 6684SOL     OW31684   3.431   3.901   7.878 -0.2322 -0.2499 -0.2441
 6684SOL    HW131685   3.512   3.916   7.829 -0.5999  2.6619  0.0152
 6684SOL    HW231686   3.454   3.823   7.928  3.8062  1.0253 -0.1141
 6685SOL     OW31687   3.097   2.268  15.379  0.1721  0.0719  0.7095
 6685SOL    HW131688   3.180   2.263  15.426  0.3409 -1.3394  0.2631
 6685SOL    HW231689   3.098   2.356  15.342 -1.2606 -0.0445  0.3773
 6686SOL     OW31690   1.430   3.738  11.239 -0.2798  0.8294  0.2426
 6686SOL    HW131691   1.488   3.814  11.232  0.6773  0.1218  0.5448
 6686SOL    HW231692   1.423   3.714  11.331  0.1162  1.3845  0.4160
 6687SOL     OW31693   3.024   2.621   3.481 -0.2694  0.0020  0.7941
 6687SOL    HW131694   2.949   2.662   3.438  0.5684 -0.2628 -0.9457
 6687SOL    HW231695   2.984   2.558   3.541 -2.2981 -0.1329 -0.7404
 6688SOL     OW31696   2.418   4.127   7.178  0.6103 -0.0537 -0.3997
 6688SOL    HW131697   2.493   4.123   7.237 -0.0770 -0.6781  0.4365
 6688SOL    HW231698   2.454   4.088   7.098  1.1871 -0.7048  0.1734
 6689SOL     OW31699   0.773   0.266  16.414 -0.1853 -0.1734  0.2884
 6689SOL    HW131700   0.788   0.276  16.508  0.5101 -3.1015  0.5050
 6689SOL    HW231701   0.686   0.303  16.400  0.2912  0.4267 -1.1006
 6690SOL     OW31702   0.923   4.005  12.259  0.1118  0.2495 -0.1904
 6690SOL    HW131703   0.933   4.085  12.311 -1.2295  0.3247 -0.0615
 6690SOL    HW231704   0.964   4.034  12.178  0.0124  1.5663  0.2302
 6691SOL     OW31705   3.581   0.614  14.821 -0.5761 -0.3669  0.0426
 6691SOL    HW131706   3.623   0.677  14.762 -0.9785  0.3689  0.5321
 6691SOL    HW231707   3.531   0.674  14.877  0.9372  1.0836 -0.1581
 6692SOL     OW31708   4.142   0.014   7.977  0.4553  0.9453  0.4567
 6692SOL    HW131709   4.151   4.660   8.012 -1.8726  0.6540  0.2672
 6692SOL    HW231710   4.229   0.041   7.947  0.9253  1.0030  1.8717
 6693SOL     OW31711   3.933   3.350   7.509  0.0082 -0.2335  0.0625
 6693SOL    HW131712   3.861   3.310   7.461 -0.5595  1.2390 -0.3003
 6693SOL    HW231713   4.001   3.342   7.442  0.1655  1.4126  0.0283
 6694SOL     OW31714   2.329   2.553   3.564 -0.1638 -0.0893  0.1622
 6694SOL    HW131715   2.417   2.579   3.538 -0.7741  0.3910 -1.4295
 6694SOL    HW231716   2.326   2.462   3.533 -0.5740  1.0277 -3.0442
 6695SOL     OW31717   1.779   3.923   1.844  0.0373  0.0060  0.5034
 6695SOL    HW131718   1.707   3.982   1.865  0.7851  1.1212 -0.1025
 6695SOL    HW231719   1.849   3.966   1.893 -0.5316  0.8884  0.5340
 6696SOL     OW31720   0.318   0.414  13.007  0.3185 -0.5067 -0.0977
 6696SOL    HW131721   0.287   0.346  12.947 -3.4038 -1.0216  2.4334
 6696SOL    HW231722   0.320   0.490  12.949  2.0500  0.6664  1.5010
 6697SOL     OW31723   0.017   1.088   3.384 -0.3306  0.3135 -0.0128
 6697SOL    HW131724   0.019   0.992   3.383  1.4450  0.3608 -1.3674
 6697SOL    HW231725   4.679   1.104   3.322 -1.9866 -0.9749  1.5447
 6698SOL     OW31726   3.016   3.803  11.664 -0.4429  0.6778 -0.0051
 6698SOL    HW131727   2.969   3.884  11.643  0.5092  1.1020 -0.5328
 6698SOL    HW231728   2.944   3.748  11.693  0.9199  0.1825  2.3953
 6699SOL     OW31729   1.637   1.502  10.503 -0.2947  0.1085  0.0456
 6699SOL    HW131730   1.716   1.556  10.508  0.3688 -0.8241 -0.2897
 6699SOL    HW231731   1.676   1.417  10.525 -1.0572  0.2840  2.0745
 6700SOL     OW31732   0.585   3.945   8.929  0.1840 -0.1604 -0.5333
 6700SOL    HW131733   0.522   3.931   8.999  2.3969  0.3242  1.5600
 6700SOL    HW231734   0.587   4.041   8.935 -1.1993 -0.1782  0.3370
 6701SOL     OW31735   3.927   2.047  16.752 -0.4293  0.4089  0.3342
 6701SOL    HW131736   3.842   2.060  16.793  0.3364 -1.6826  2.6254
 6701SOL    HW231737   3.978   1.986  16.807 -1.5233  1.0285  2.0301
 6702SOL     OW31738   1.025   2.770   7.340  0.5600 -0.4758  0.1283
 6702SOL    HW131739   1.086   2.827   7.293  0.7962 -2.4490 -1.9717
 6702SOL    HW231740   0.976   2.843   7.378 -0.4842 -0.1172 -1.9229
 6703SOL     OW31741   0.003   1.577   5.145 -0.5435  0.1326 -0.0971
 6703SOL    HW131742   0.063   1.586   5.219  0.1911  0.6165 -0.7392
 6703SOL    HW231743   0.039   1.645   5.088 -2.3915  0.9457 -0.2902
 6704SOL     OW31744   4.695   4.090   6.866 -0.1738  0.8578  0.1309
 6704SOL    HW131745   4.610   4.045   6.865  0.6098 -0.6376 -0.0001
 6704SOL    HW231746   0.009   4.016   6.827  0.4873 -0.9615  4.3430
 6705SOL     OW31747   2.954   3.638   6.562  0.0181 -0.0359  0.3000
 6705SOL    HW131748   2.880   3.649   6.502  1.5112  1.1135 -1.3309
 6705SOL    HW231749   2.964   3.730   6.586  1.1751 -0.6214  2.0640
 6706SOL     OW31750   0.020   1.666   3.642 -0.1608  0.2551 -0.1116
 6706SOL    HW131751   4.695   1.594   3.664  0.2662  0.0155  0.2531
 6706SOL    HW231752   0.091   1.635   3.698 -0.6377 -0.3497  0.1451
 6707SOL     OW31753   3.621   2.089   8.981  0.7794 -0.2289  0.1836
 6707SOL    HW131754   3.526   2.079   8.982  0.6761  0.9108  1.2304
 6707SOL    HW231755   3.647   1.999   8.965 -0.8972 -0.9355  1.4779
 6708SOL     OW31756   2.523   1.225   8.241 -0.1196  0.0250 -0.2410
 6708SOL    HW131757   2.517   1.318   8.223  0.1633  0.7517  3.2991
 6708SOL    HW231758   2.463   1.214   8.315 -0.1089  2.8033  0.1779
 6709SOL     OW31759   2.583   3.239   2.881 -0.4611 -0.0316  0.0247
 6709SOL    HW131760   2.544   3.200   2.959 -1.0678 -0.7305 -0.6232
 6709SOL    HW231761   2.509   3.269   2.829 -1.6774  1.3532  2.5742
 6710SOL     OW31762   0.873   2.307   1.547  0.4521 -0.4114  0.0863
 6710SOL    HW131763   0.859   2.225   1.595 -1.6185 -0.0315  0.1138
 6710SOL    HW231764   0.918   2.345   1.623  1.9188 -0.4502 -0.7532
 6711SOL     OW31765   2.768   3.098   6.568 -1.0021  0.4627 -0.3582
 6711SOL    HW131766   2.829   3.083   6.496  3.3164 -1.2424  3.6011
 6711SOL    HW231767   2.775   3.194   6.568 -1.0379  0.4650 -0.5370
 6712SOL     OW31768   1.247   1.353  11.446 -0.2885  0.3876  0.0530
 6712SOL    HW131769   1.307   1.352  11.521  1.0869  0.2697 -1.0533
 6712SOL    HW231770   1.297   1.296  11.387  1.3325  1.9607 -0.1069
 6713SOL     OW31771   3.719   0.476   9.633  0.3270 -0.3595  0.0347
 6713SOL    HW131772   3.798   0.423   9.643  0.8836  0.5135  0.3047
 6713SOL    HW231773   3.748   0.545   9.694 -0.0755 -0.1837  0.0332
 6714SOL     OW31774   4.291   1.368  15.429 -0.0827 -0.4469  0.0568
 6714SOL    HW131775   4.229   1.395  15.361 -0.8129  0.3091  1.0257
 6714SOL    HW231776   4.280   1.439  15.493 -0.6932 -0.7586  0.2940
 6715SOL     OW31777   2.321   1.196   5.305  0.2667 -0.5515 -0.3692
 6715SOL    HW131778   2.350   1.193   5.396 -2.4553  1.4116  0.5893
 6715SOL    HW231779   2.227   1.201   5.322  0.1743  0.6633 -1.1818
 6716SOL     OW31780   3.593   4.506   7.836 -0.3505  0.3208  0.2486
 6716SOL    HW131781   3.545   4.515   7.753 -1.6888 -2.1490  0.7467
 6716SOL    HW231782   3.520   4.468   7.884 -0.4984  0.0266 -0.2005
 6717SOL     OW31783   1.127   2.522  10.840 -0.2453  0.5032 -0.4410
 6717SOL    HW131784   1.153   2.606  10.878  0.2607  0.8027 -1.4320
 6717SOL    HW231785   1.129   2.550  10.748  1.3877 -0.7199 -0.7805
 6718SOL     OW31786   1.240   3.763   3.333 -0.5213 -0.2357 -0.1380
 6718SOL    HW131787   1.231   3.693   3.398  2.1371 -0.2291  0.2356
 6718SOL    HW231788   1.151   3.798   3.337 -1.6056 -3.0431  0.2411
 6719SOL     OW31789   0.808   2.869   7.481 -0.3378  0.5573 -0.1480
 6719SOL    HW131790   0.832   2.777   7.467  0.1294  0.5793  0.5352
 6719SOL    HW231791   0.841   2.887   7.569 -1.5072  3.5337 -0.3041
 6720SOL     OW31792   0.691   0.935  10.698 -0.1716  0.6384 -0.1706
 6720SOL    HW131793   0.746   0.859  10.678 -1.8448  0.1964 -2.9659
 6720SOL    HW231794   0.620   0.904  10.753  0.4683  0.6381  0.6621
 6721SOL     OW31795   2.215   0.972   1.868 -0.1931 -0.4917  0.1329
 6721SOL    HW131796   2.210   0.910   1.795 -2.5965 -0.3936  0.2126
 6721SOL    HW231797   2.235   0.911   1.939 -1.5995 -0.3785  0.6409
 6722SOL     OW31798   1.640   2.025  10.352  0.3639 -0.4885 -0.1044
 6722SOL    HW131799   1.709   2.048  10.290  1.1214 -0.5625  0.6964
 6722SOL    HW231800   1.697   2.012  10.429  0.8523 -0.2259 -0.4207
 6723SOL     OW31801   3.516   1.482   4.334 -0.4652 -0.3386  0.1682
 6723SOL    HW131802   3.458   1.465   4.408 -2.7224  0.5420 -1.3944
 6723SOL    HW231803   3.575   1.409   4.356 -3.5193 -2.8422  0.0973
 6724SOL     OW31804   3.460   1.305  13.710  0.3738  0.0835 -0.7504
 6724SOL    HW131805   3.406   1.378  13.681 -1.6441 -0.7352  0.9308
 6724SOL    HW231806   3.489   1.276  13.624 -2.4623 -1.4842 -1.1618
 6725SOL     OW31807   1.093   1.598   8.096  0.2146  0.2770 -0.9599
 6725SOL    HW131808   1.072   1.524   8.153 -0.6138 -1.0981 -3.0523
 6725SOL    HW231809   1.148   1.556   8.029 -0.1918 -0.3314 -0.9065
 6726SOL     OW31810   0.118   3.458   4.361 -1.0197  0.1811 -0.0023
 6726SOL    HW131811   0.116   3.501   4.446 -0.0006 -1.5947  0.9354
 6726SOL    HW231812   0.165   3.378   4.385  1.5348  1.2490 -1.4959
 6727SOL     OW31813   4.228   2.257   6.907  0.5980  0.2599 -0.6193
 6727SOL    HW131814   4.251   2.215   6.989 -1.1447  0.1383 -0.1934
 6727SOL    HW231815   4.142   2.293   6.930  0.6696 -1.0058  1.5990
 6728SOL     OW31816   3.367   1.997   7.659  0.2161  0.0639  0.0801
 6728SOL    HW131817   3.375   1.913   7.704  0.2418  1.6373  3.0081
 6728SOL    HW231818   3.438   1.975   7.598 -0.5284  3.9710 -2.1952
 6729SOL     OW31819   4.566   3.402   4.767 -0.1893 -0.1310  0.4508
 6729SOL    HW131820   4.546   3.335   4.833 -1.7487  1.9038  2.0430
 6729SOL    HW231821   4.564   3.481   4.820 -1.4909  0.8486 -1.0400
 6730SOL     OW31822   1.985   0.398   8.028  0.3400  0.0389  0.0965
 6730SOL    HW131823   1.948   0.453   8.096 -0.4065 -0.0499 -0.2406
 6730SOL    HW231824   1.915   0.391   7.962  1.0167 -0.0251 -0.6208
 6731SOL     OW31825   2.116   3.993   1.468 -0.1111  0.9651  0.5192
 6731SOL    HW131826   2.075   4.070   1.508  0.8131  1.2620  0.9137
 6731SOL    HW231827   2.198   4.017   1.512 -0.1741  0.4297  0.9134
 6732SOL     OW31828   0.631   3.812   1.858 -0.4104  0.9706  0.1227
 6732SOL    HW131829   0.643   3.774   1.945  1.9852 -1.3637 -1.2103
 6732SOL    HW231830   0.653   3.734   1.807 -0.6349  0.0701  1.4070
 6733SOL     OW31831   3.952   4.346   6.492  0.4518  0.6991  0.0132
 6733SOL    HW131832   3.953   4.390   6.408 -0.3144  1.7446  0.5638
 6733SOL    HW231833   3.984   4.257   6.474 -0.2281  0.5993 -0.6636
 6734SOL     OW31834   0.674   3.438   8.116  0.4899  0.1142 -0.0308
 6734SOL    HW131835   0.710   3.383   8.186 -0.6360 -0.9651 -0.3230
 6734SOL    HW231836   0.602   3.383   8.088  0.8929 -1.1437  1.4072
 6735SOL     OW31837   2.855   2.157   3.300 -0.1042  0.6784 -0.5087
 6735SOL    HW131838   2.768   2.153   3.341 -0.0352  0.1289 -0.4157
 6735SOL    HW231839   2.842   2.230   3.239 -0.8131  1.8823  1.0712
 6736SOL     OW31840   2.318   0.276   0.965 -0.0123 -0.2229 -0.0577
 6736SOL    HW131841   2.257   0.271   1.038 -3.0678  2.7557 -2.3770
 6736SOL    HW231842   2.258   0.278   0.890 -1.9133  2.1886  1.5297
 6737SOL     OW31843   2.678   4.351  16.818  0.3197 -0.0294 -0.1129
 6737SOL    HW131844   2.656   4.425  16.875 -1.9946 -2.0700  1.6455
 6737SOL    HW231845   2.696   4.394  16.735 -1.7778  2.2108  0.5826
 6738SOL     OW31846   1.565   3.720   9.650  0.0274 -0.1452 -0.1275
 6738SOL    HW131847   1.550   3.775   9.573  0.7177  1.0165  0.5682
 6738SOL    HW231848   1.578   3.783   9.720  0.3434 -0.9013  0.4981
 6739SOL     OW31849   4.493   2.943   3.025 -0.1730 -0.2967 -1.1389
 6739SOL    HW131850   4.455   3.023   3.061 -2.4612 -2.2215  0.6520
 6739SOL    HW231851   4.412   2.908   2.989 -0.2044 -1.1152 -0.2504
 6740SOL     OW31852   4.239   0.100   4.443 -0.2553  0.1536 -0.0994
 6740SOL    HW131853   4.164   0.116   4.386 -1.6510  0.9731  1.9513
 6740SOL    HW231854   4.300   0.173   4.432 -0.9935  0.7417 -0.3587
 6741SOL     OW31855   4.638   0.747   7.102  0.0176 -0.1114  0.5998
 6741SOL    HW131856   4.621   0.718   7.191 -0.4265  1.0358  0.8921
 6741SOL    HW231857   4.604   0.837   7.109  0.9751  0.2320  0.9527
 6742SOL     OW31858   2.163   3.754   3.763 -0.2303  1.0572 -0.0569
 6742SOL    HW131859   2.253   3.762   3.731 -0.5198 -0.7032 -1.3231
 6742SOL    HW231860   2.130   3.844   3.758  1.8519  1.7851 -1.1566
 6743SOL     OW31861   2.695   3.939  11.284  0.1214  0.0500 -0.0516
 6743SOL    HW131862   2.733   3.875  11.345 -1.2290 -0.7937 -0.0949
 6743SOL    HW231863   2.631   3.979  11.342 -0.0024  0.2197 -0.3031
 6744SOL     OW31864   1.912   0.928   9.595 -0.3451 -0.3090 -0.4632
 6744SOL    HW131865   1.825   0.960   9.617  0.1401  0.2286  0.6884
 6744SOL    HW231866   1.970   1.000   9.621 -0.5887 -0.3748  0.2608
 6745SOL     OW31867   0.205   4.159  16.186  0.1521 -0.0428 -0.2167
 6745SOL    HW131868   0.286   4.188  16.145 -0.3117  0.1675 -0.9722
 6745SOL    HW231869   0.213   4.195  16.275 -0.0760  0.1447 -0.2743
 6746SOL     OW31870   1.375   1.521  15.391 -1.0017 -0.2192 -0.0409
 6746SOL    HW131871   1.449   1.474  15.431 -1.0824  0.6718  1.1407
 6746SOL    HW231872   1.412   1.609  15.392  0.0290 -0.6443 -0.3801
 6747SOL     OW31873   3.198   3.157   5.762  0.9825 -0.4476  0.3466
 6747SOL    HW131874   3.176   3.149   5.670  1.5485  0.9696  0.0890
 6747SOL    HW231875   3.117   3.188   5.804  0.3397 -3.0807  1.0427
 6748SOL     OW31876   3.142   4.236  15.807 -0.6657 -0.0879 -0.3425
 6748SOL    HW131877   3.172   4.252  15.896  0.6023 -0.6962 -0.6625
 6748SOL    HW231878   3.059   4.189  15.808 -0.3010 -0.8462 -4.2626
 6749SOL     OW31879   0.697   2.221   1.333  0.3137 -0.1628 -0.6407
 6749SOL    HW131880   0.782   2.261   1.353 -0.4086  1.0218  0.0398
 6749SOL    HW231881   0.668   2.192   1.419  0.3176  0.2775 -0.4896
 6750SOL     OW31882   2.667   1.956   8.591 -0.1763  0.1019  0.1530
 6750SOL    HW131883   2.704   1.868   8.582  0.7018  0.3772  1.2271
 6750SOL    HW231884   2.726   2.007   8.536  0.8650 -0.6624  0.5662
 6751SOL     OW31885   3.661   1.963  11.958  0.2387 -0.0504  0.6947
 6751SOL    HW131886   3.620   1.966  12.044 -3.3187 -0.9011 -0.9686
 6751SOL    HW231887   3.751   1.983  11.983  2.3008 -0.9834 -5.7754
 6752SOL     OW31888   3.299   2.883   5.610 -0.1446  0.5619  0.2021
 6752SOL    HW131889   3.268   2.794   5.596 -0.7314  0.6282  1.0925
 6752SOL    HW231890   3.287   2.890   5.705 -0.0626 -0.3567  0.2830
 6753SOL     OW31891   0.203   1.690   3.013  0.2071 -0.0658  0.1176
 6753SOL    HW131892   0.226   1.631   3.085  0.9699 -0.8583 -0.7669
 6753SOL    HW231893   0.109   1.671   3.018  0.5425 -1.3919  1.5823
 6754SOL     OW31894   2.440   2.834   2.013 -0.2775 -0.3222  0.5723
 6754SOL    HW131895   2.353   2.859   2.044 -0.2560 -2.4723  2.3738
 6754SOL    HW231896   2.422   2.777   1.938 -1.6501 -0.1352  0.7633
 6755SOL     OW31897   3.284   2.809  15.846  0.0157  0.3594 -0.0370
 6755SOL    HW131898   3.375   2.819  15.820 -0.4014 -0.1804 -1.6793
 6755SOL    HW231899   3.251   2.757  15.773 -1.3861 -0.4519  1.1691
 6756SOL     OW31900   4.655   0.952  13.316 -0.0119 -0.2873 -0.5581
 6756SOL    HW131901   4.563   0.941  13.343  0.2549 -1.4831 -0.1573
 6756SOL    HW231902   4.677   1.044  13.329  0.3258 -0.1292 -2.2245
 6757SOL     OW31903   1.437   1.893  10.105 -0.5162 -0.2925  0.8678
 6757SOL    HW131904   1.483   1.810  10.097 -0.2271  0.1027 -1.5776
 6757SOL    HW231905   1.424   1.921  10.014  0.5013 -3.6176 -0.2893
 6758SOL     OW31906   2.091   2.406   9.017  0.3344  0.2321  0.2525
 6758SOL    HW131907   2.006   2.362   9.011  0.0644  0.5021  2.1367
 6758SOL    HW231908   2.156   2.344   8.983  0.3060 -1.4196  3.2453
 6759SOL     OW31909   3.629   4.559   3.606 -0.0196 -0.5641  0.0435
 6759SOL    HW131910   3.644   4.650   3.631  0.2418 -0.2466 -1.2589
 6759SOL    HW231911   3.637   4.512   3.689  0.2055 -0.0841  0.2919
 6760SOL     OW31912   2.680   2.271   8.882 -0.4102  0.2789  0.7201
 6760SOL    HW131913   2.774   2.257   8.868 -0.3978 -0.3613  1.4403
 6760SOL    HW231914   2.692   2.358   8.919  1.1463  0.1034  0.6608
 6761SOL     OW31915   2.212   0.544   2.766  0.4166  0.2779  0.4059
 6761SOL    HW131916   2.139   0.509   2.715  0.7109  2.8044 -1.7934
 6761SOL    HW231917   2.290   0.543   2.711 -0.1456 -0.0194 -0.3808
 6762SOL     OW31918   0.450   2.121   2.160  0.6682  0.1718  0.2241
 6762SOL    HW131919   0.544   2.129   2.177  0.4656 -0.5696  1.7493
 6762SOL    HW231920   0.426   2.052   2.221 -1.0174 -0.5525 -1.2924
 6763SOL     OW31921   3.278   1.385   7.782 -0.4396 -0.2533  0.3905
 6763SOL    HW131922   3.211   1.440   7.741  0.5549 -0.0817 -0.9936
 6763SOL    HW231923   3.301   1.438   7.858 -0.0646 -1.7473  1.3228
 6764SOL     OW31924   0.676   2.210  17.564 -0.4750 -0.3528 -0.2346
 6764SOL    HW131925   0.584   2.186  17.570  0.0869 -2.4451 -0.0764
 6764SOL    HW231926   0.677   2.252  17.478  0.9132  0.2952  0.0914
 6765SOL     OW31927   3.359   0.485   6.946  1.0787 -0.0144 -0.7236
 6765SOL    HW131928   3.353   0.579   6.931  0.1170 -0.0917 -0.8307
 6765SOL    HW231929   3.431   0.484   7.009 -1.7060  0.7186  2.4048
 6766SOL     OW31930   2.879   1.949   3.869  0.0753  0.1074 -0.1492
 6766SOL    HW131931   2.878   1.930   3.775 -0.5782 -0.5682 -0.0078
 6766SOL    HW231932   2.863   1.863   3.907  1.5128  0.8899  2.2009
 6767SOL     OW31933   3.029   4.126   7.427 -0.4763 -0.2928  0.2525
 6767SOL    HW131934   3.028   4.214   7.465 -1.3546 -0.0949 -0.2363
 6767SOL    HW231935   3.010   4.143   7.335 -2.1983 -2.1131  0.2911
 6768SOL     OW31936   4.459   3.886  15.026  0.0232  0.2061 -0.1135
 6768SOL    HW131937   4.439   3.818  14.962  0.0053 -0.7634  0.9269
 6768SOL    HW231938   4.555   3.882  15.020  0.0343  1.1240 -0.5155
 6769SOL     OW31939   1.175   1.037  12.598 -0.2841  0.0491  0.8077
 6769SOL    HW131940   1.201   1.057  12.509 -0.4685 -1.7598  0.3414
 6769SOL    HW231941   1.080   1.035  12.584 -0.0212  0.8646 -1.1160
 6770SOL     OW31942   1.146   3.761   5.961 -0.1518 -0.7951 -0.3371
 6770SOL    HW131943   1.067   3.770   5.908  1.1194  2.1133 -1.7148
 6770SOL    HW231944   1.151   3.666   5.975  2.3657 -0.4628  0.8962
 6771SOL     OW31945   3.939   3.440   0.688 -1.0284  0.3328 -0.2877
 6771SOL    HW131946   3.917   3.385   0.613 -0.0728 -0.5609  0.0848
 6771SOL    HW231947   4.034   3.425   0.685 -1.1968 -0.6065 -0.8233
 6772SOL     OW31948   0.763   2.938   0.656 -0.0970 -0.0941 -0.1020
 6772SOL    HW131949   0.831   2.979   0.709 -0.7700  1.8455 -0.7442
 6772SOL    HW231950   0.715   3.018   0.635  0.3383  0.1004 -0.3590
 6773SOL     OW31951   1.981   4.722  12.389  0.3925  0.2833 -0.7721
 6773SOL    HW131952   1.900   4.728  12.439 -0.0797 -2.1078 -1.2451
 6773SOL    HW231953   1.990   4.626  12.389 -0.8693  0.1599 -2.3026
 6774SOL     OW31954   0.885   4.112   3.254  0.2887 -0.1559  0.5372
 6774SOL    HW131955   0.875   4.096   3.160 -1.9827  0.6303  0.6401
 6774SOL    HW231956   0.805   4.161   3.272 -0.4497 -1.5967  1.1502
 6775SOL     OW31957   2.803   0.341   7.537 -0.2502 -0.6129  0.1929
 6775SOL    HW131958   2.861   0.270   7.565 -0.0233 -1.7722 -3.1807
 6775SOL    HW231959   2.847   0.361   7.454 -1.4252 -2.2377 -0.8293
 6776SOL     OW31960   2.368   1.182  13.518  0.1567  0.0344 -0.3377
 6776SOL    HW131961   2.397   1.093  13.500 -1.0503 -0.6162  0.8971
 6776SOL    HW231962   2.298   1.163  13.581 -0.6478  0.8439 -0.9723
 6777SOL     OW31963   0.516   2.803   9.506  0.8137  0.2751 -0.0624
 6777SOL    HW131964   0.486   2.753   9.430 -0.2988 -0.4098  0.8186
 6777SOL    HW231965   0.609   2.784   9.512  0.7456  0.1478  0.5254
 6778SOL     OW31966   3.768   0.772   9.563 -0.9191  0.2009 -0.0955
 6778SOL    HW131967   3.809   0.721   9.494 -1.5589 -0.0712 -0.2764
 6778SOL    HW231968   3.806   0.738   9.645  0.6077  0.5574 -0.6590
 6779SOL     OW31969   0.784   0.260   6.542  0.0678 -0.1920 -0.7440
 6779SOL    HW131970   0.817   0.342   6.580  0.9700 -1.2398  0.6930
 6779SOL    HW231971   0.697   0.290   6.518 -0.4852 -1.5609 -0.4115
 6780SOL     OW31972   2.175   3.522  10.989 -0.2250  0.2036 -0.8594
 6780SOL    HW131973   2.156   3.605  10.945  0.1910  0.7075 -0.1041
 6780SOL    HW231974   2.208   3.480  10.910  1.3560 -0.3347  0.0742
 6781SOL     OW31975   0.755   2.497   4.683 -1.2889 -0.2999 -0.0169
 6781SOL    HW131976   0.795   2.411   4.693  0.7271  0.2437 -3.2363
 6781SOL    HW231977   0.663   2.473   4.689 -1.3967 -0.6028 -2.6030
 6782SOL     OW31978   4.284   3.268   5.545 -0.1467 -0.1160  0.0384
 6782SOL    HW131979   4.324   3.331   5.486 -0.8206  0.5251  0.2637
 6782SOL    HW231980   4.238   3.209   5.485 -0.9819  1.4475 -0.8611
 6783SOL     OW31981   1.407   0.476   8.748  0.5460 -0.1387 -0.1149
 6783SOL    HW131982   1.466   0.409   8.714  1.2355  0.6579 -0.4853
 6783SOL    HW231983   1.328   0.427   8.767  0.5325 -0.1028 -0.0775
 6784SOL     OW31984   4.565   3.254   2.654  0.0663  0.3000 -0.2206
 6784SOL    HW131985   4.493   3.208   2.697 -1.2150  3.3763  0.8806
 6784SOL    HW231986   4.591   3.313   2.724 -0.0197  0.4893 -0.3460
 6785SOL     OW31987   1.932   4.357   6.824 -0.1675 -0.1441  0.3898
 6785SOL    HW131988   1.929   4.323   6.734 -3.8286  0.3884  0.3272
 6785SOL    HW231989   2.021   4.390   6.837  0.1319  0.8557 -3.9819
 6786SOL     OW31990   3.462   1.616  10.773  0.4723  1.0494 -0.1992
 6786SOL    HW131991   3.553   1.592  10.789  0.6543  1.5230 -0.5136
 6786SOL    HW231992   3.460   1.712  10.777  2.2124  1.0863 -0.4751
 6787SOL     OW31993   1.658   0.856   7.674 -0.3165  0.1894 -0.5809
 6787SOL    HW131994   1.716   0.862   7.750 -0.0347 -1.3982 -0.6842
 6787SOL    HW231995   1.584   0.805   7.705  0.5979 -0.5313  0.4060
 6788SOL     OW31996   0.706   2.117   2.544 -0.6909  0.0936 -0.2276
 6788SOL    HW131997   0.698   2.175   2.619 -2.3975 -0.9074  0.3544
 6788SOL    HW231998   0.613   2.098   2.537 -0.5691 -0.7879  0.5152
 6789SOL     OW31999   1.859   0.062   7.408  0.2041 -0.1555 -0.6822
 6789SOL    HW132000   1.772   0.102   7.403  0.3257  0.1756 -0.1044
 6789SOL    HW232001   1.880   0.085   7.317 -1.2656 -1.7540 -1.4297
 6790SOL     OW32002   0.073   3.112   2.728  0.0841  0.1460  0.0143
 6790SOL    HW132003   4.720   3.152   2.719 -0.5438 -1.3811 -0.6615
 6790SOL    HW232004   0.126   3.191   2.716  2.3901 -1.5189 -0.7091
 6791SOL     OW32005   0.796   3.974   5.279 -0.4429 -0.5576  0.0562
 6791SOL    HW132006   0.836   3.888   5.284  0.8643  0.2260  3.2179
 6791SOL    HW232007   0.848   4.025   5.342  2.0458 -2.2394 -0.6447
 6792SOL     OW32008   1.444   2.211  16.221  0.3632 -0.1396  0.0954
 6792SOL    HW132009   1.399   2.296  16.222  2.2077  0.8329  0.7848
 6792SOL    HW232010   1.537   2.225  16.239  1.0091 -1.9723 -1.8608
 6793SOL     OW32011   2.914   0.504  13.860 -0.1535 -0.4316 -0.7520
 6793SOL    HW132012   2.995   0.453  13.857  0.4624  0.5665 -0.8175
 6793SOL    HW232013   2.853   0.451  13.912 -0.6833  1.8728  0.9677
 6794SOL     OW32014   1.418   4.227   5.542 -0.1739  0.1488  0.4989
 6794SOL    HW132015   1.332   4.221   5.582  0.7186 -3.5946  1.8833
 6794SOL    HW232016   1.464   4.202   5.623 -0.5899 -0.7052  0.4714
 6795SOL     OW32017   4.366   0.681   3.571  0.1844  0.1178 -0.1686
 6795SOL    HW132018   4.298   0.748   3.576  0.1179  0.1624 -1.7292
 6795SOL    HW232019   4.439   0.731   3.534  1.1959 -1.3569 -0.1631
 6796SOL     OW32020   0.936   1.800   8.343  0.0650  0.5736 -0.0698
 6796SOL    HW132021   0.868   1.774   8.405  0.7968 -0.2465  0.3834
 6796SOL    HW232022   1.005   1.783   8.407  1.2471  0.4111 -1.3921
 6797SOL     OW32023   1.424   3.055   4.128  0.1333  0.6093 -0.5582
 6797SOL    HW132024   1.491   2.993   4.101  0.3824  0.1545  1.1061
 6797SOL    HW232025   1.403   3.031   4.219 -0.4744 -0.0601 -0.8799
 6798SOL     OW32026   1.322   3.311   9.731  0.4948 -0.1911 -0.2899
 6798SOL    HW132027   1.399   3.255   9.729 -1.0332 -2.2901 -0.4578
 6798SOL    HW232028   1.266   3.241   9.765  0.9456 -1.3771 -2.0199
 6799SOL     OW32029   0.622   4.680   2.388 -0.0328 -0.0935  0.4476
 6799SOL    HW132030   0.650   4.593   2.363  0.6120  0.3428 -0.3444
 6799SOL    HW232031   0.702   4.732   2.398  0.2418  0.1760 -3.5039
 6800SOL     OW32032   0.374   0.925   8.584  0.5258 -0.2191  0.2612
 6800SOL    HW132033   0.404   0.880   8.504 -0.7750  0.2488 -0.4856
 6800SOL    HW232034   0.399   1.016   8.565 -0.6313  0.4923  2.2126
 6801SOL     OW32035   0.889   3.082  11.212 -0.1963 -0.1043  0.5397
 6801SOL    HW132036   0.899   3.009  11.151 -1.1884  0.7845 -0.7028
 6801SOL    HW232037   0.818   3.138  11.178  1.3789  1.8533  0.4843
 6802SOL     OW32038   3.804   3.149   0.601 -0.2617 -0.2683 -0.1849
 6802SOL    HW132039   3.830   3.179   0.514 -1.3939 -0.7186 -0.6821
 6802SOL    HW232040   3.884   3.115   0.639 -1.0003  1.6706  3.0416
 6803SOL     OW32041   1.943   4.219   0.428 -0.1223  0.0585  0.7184
 6803SOL    HW132042   2.020   4.214   0.371 -1.1589  1.0100 -0.7822
 6803SOL    HW232043   1.871   4.224   0.365  1.1574  3.8615 -0.3971
 6804SOL     OW32044   0.341   2.152   2.855  0.3677  0.3289 -0.4236
 6804SOL    HW132045   0.322   2.069   2.899 -1.3567  0.7711 -0.3122
 6804SOL    HW232046   0.258   2.196   2.877  0.5906  0.8305 -0.5789
 6805SOL     OW32047   4.511   0.841   5.200  0.3655 -0.9363  0.7158
 6805SOL    HW132048   4.507   0.791   5.118 -2.1182 -1.2238  1.0261
 6805SOL    HW232049   4.420   0.845   5.229  0.5696 -0.9851  1.3787
 6806SOL     OW32050   2.407   2.562   2.768 -0.4910  0.1931  0.5324
 6806SOL    HW132051   2.492   2.523   2.748 -1.6570 -1.9090 -0.3165
 6806SOL    HW232052   2.372   2.553   2.680  0.7223 -1.6109  0.2282
 6807SOL     OW32053   2.121   3.984  16.753  0.1187  0.7139  0.6516
 6807SOL    HW132054   2.158   3.973  16.665  0.3020  0.9647  0.6979
 6807SOL    HW232055   2.198   4.000  16.807 -0.1976  2.1795  0.6778
 6808SOL     OW32056   2.953   3.811   5.598  0.0412  0.5305  0.1165
 6808SOL    HW132057   2.978   3.900   5.625  1.0506  0.9504 -2.1633
 6808SOL    HW232058   2.991   3.811   5.510 -0.9519  0.2236 -0.3060
 6809SOL     OW32059   1.560   3.672   4.067  0.1649  0.0833 -0.0409
 6809SOL    HW132060   1.637   3.718   4.100  1.8210 -2.3950 -0.4527
 6809SOL    HW232061   1.553   3.709   3.979  0.8720 -0.5252 -0.3578
 6810SOL     OW32062   0.051   1.678   5.533  0.5848 -0.1854 -0.0374
 6810SOL    HW132063   4.730   1.743   5.490 -1.5965 -1.1547  1.2791
 6810SOL    HW232064   0.130   1.700   5.485  0.9307 -2.2804 -0.4429
 6811SOL     OW32065   0.197   0.089   6.170 -0.3368 -0.1755  0.3844
 6811SOL    HW132066   0.130   0.042   6.219 -0.6914  1.1368  1.1585
 6811SOL    HW232067   0.214   0.160   6.232 -0.2607  0.4036 -0.2936
 6812SOL     OW32068   3.552   4.663   6.472  0.0531  0.6044 -0.0719
 6812SOL    HW132069   3.476   4.619   6.434  1.3967  0.3560 -2.4866
 6812SOL    HW232070   3.599   4.587   6.505  1.6338  2.4063  1.8286
 6813SOL     OW32071   1.534   3.835   4.945  0.1487  0.2137  0.0852
 6813SOL    HW132072   1.620   3.872   4.927  0.3957 -0.2134  0.3835
 6813SOL    HW232073   1.541   3.740   4.952 -1.4618  0.2411  2.1457
 6814SOL     OW32074   0.972   3.394   3.570  0.4019  0.3259 -1.0275
 6814SOL    HW132075   0.996   3.348   3.650  0.6896  0.9278 -0.7663
 6814SOL    HW232076   0.884   3.423   3.594  0.3146 -0.4152 -0.4760
 6815SOL     OW32077   0.719   3.192  17.703 -0.0526 -0.3846  0.1376
 6815SOL    HW132078   0.673   3.147  17.633 -1.0347 -2.7861  2.3016
 6815SOL    HW232079   0.658   3.188   0.042  2.5948 -0.6158  2.3216
 6816SOL     OW32080   3.787   3.621   4.556 -0.0779  0.0895 -0.6125
 6816SOL    HW132081   3.765   3.604   4.647  1.4019 -1.4144 -0.5274
 6816SOL    HW232082   3.882   3.611   4.547  0.0847  0.7764  0.2760
 6817SOL     OW32083   1.091   2.253   6.986 -0.8160 -0.1781  0.2625
 6817SOL    HW132084   1.032   2.232   6.914 -3.4168 -1.2202  2.6985
 6817SOL    HW232085   1.139   2.171   6.994 -0.0708  0.0500 -1.9889
 6818SOL     OW32086   4.390   3.543  11.557  0.7610 -0.9384  0.1046
 6818SOL    HW132087   4.362   3.625  11.597  1.6187 -0.9924  0.8040
 6818SOL    HW232088   4.326   3.484  11.596 -0.9974  0.9122  0.0231
 6819SOL     OW32089   1.332   0.490   9.349 -0.1468 -0.5363  0.2005
 6819SOL    HW132090   1.417   0.477   9.307 -0.6631 -1.5448 -0.5315
 6819SOL    HW232091   1.350   0.497   9.443 -0.0300 -2.0378  0.2899
 6820SOL     OW32092   1.392   0.687   2.985  0.4884 -0.2662  0.0252
 6820SOL    HW132093   1.410   0.682   2.892  1.8128 -0.9602  0.3193
 6820SOL    HW232094   1.296   0.693   2.982  0.5245 -0.9767 -2.3776
 6821SOL     OW32095   1.680   2.320   5.341  0.5582  0.0541  0.0162
 6821SOL    HW132096   1.736   2.248   5.371  1.0883  0.6452  0.4682
 6821SOL    HW232097   1.602   2.274   5.310  2.0376 -1.7294 -1.0286
 6822SOL     OW32098   3.781   2.002   8.195 -0.4105  0.5074  0.2008
 6822SOL    HW132099   3.738   2.049   8.267  0.2231 -1.3567  1.7913
 6822SOL    HW232100   3.778   2.072   8.129 -2.1998 -0.3969 -0.6966
 6823SOL     OW32101   3.450   4.041   4.676  0.1787 -0.1957 -0.1466
 6823SOL    HW132102   3.433   4.008   4.765 -0.0260  4.1652  1.4573
 6823SOL    HW232103   3.382   3.993   4.630 -0.1781 -0.4985  0.6928
 6824SOL     OW32104   0.103   2.434   8.692  0.3453  0.2892 -0.8526
 6824SOL    HW132105   0.080   2.344   8.669 -2.2028  0.2279  1.9331
 6824SOL    HW232106   0.034   2.452   8.756  0.8487  4.0102 -1.3742
 6825SOL     OW32107   4.300   3.827   2.935 -0.5478 -0.5148  0.5181
 6825SOL    HW132108   4.309   3.774   3.014  0.8626 -0.4877  0.3832
 6825SOL    HW232109   4.227   3.877   2.972 -2.8695 -1.9481 -2.1629
 6826SOL     OW32110   4.427   4.178   1.308 -0.8010 -0.1494 -0.0564
 6826SOL    HW132111   4.372   4.257   1.314 -2.0847 -0.9850 -0.7638
 6826SOL    HW232112   4.369   4.118   1.355 -0.1000 -2.0893 -1.6994
 6827SOL     OW32113   3.925   1.476   1.882  0.1450  0.3134  0.1325
 6827SOL    HW132114   3.902   1.398   1.832 -0.9286  1.5898 -1.3810
 6827SOL    HW232115   3.858   1.472   1.950 -2.7096 -0.0929 -2.7003
 6828SOL     OW32116   1.340   0.306   6.074 -0.1698  0.2376 -0.1732
 6828SOL    HW132117   1.431   0.327   6.094  0.8727 -1.3138 -3.2355
 6828SOL    HW232118   1.335   0.326   5.980 -2.4896  0.8925  0.0835
 6829SOL     OW32119   1.637   0.722   9.238 -0.1191 -0.4476 -0.8043
 6829SOL    HW132120   1.609   0.630   9.241 -1.1880 -0.0640  1.1408
 6829SOL    HW232121   1.695   0.732   9.313 -0.7845 -0.3318 -0.3081
 6830SOL     OW32122   2.548   3.010   6.196  1.0293  0.5822 -0.0469
 6830SOL    HW132123   2.540   3.012   6.291  1.0547  0.8622 -0.0502
 6830SOL    HW232124   2.487   3.081   6.174 -0.1002 -0.8978 -1.6870
 6831SOL     OW32125   2.577   1.878   1.489  0.5967  0.7576  0.0194
 6831SOL    HW132126   2.486   1.850   1.497  1.5051 -2.1663  0.4061
 6831SOL    HW232127   2.580   1.945   1.556 -1.6689  1.0481 -0.1640
 6832SOL     OW32128   3.637   2.306  15.166  0.1330  0.4842 -0.0187
 6832SOL    HW132129   3.609   2.241  15.231  1.0486 -0.7840 -0.8865
 6832SOL    HW232130   3.591   2.286  15.085  2.0205  0.6301 -1.1401
 6833SOL     OW32131   4.204   0.545  12.254 -0.1109  0.0768 -0.1121
 6833SOL    HW132132   4.224   0.600  12.329 -0.4376 -1.0449  0.8000
 6833SOL    HW232133   4.195   0.607  12.181 -0.0329  0.6942  0.4072
 6834SOL     OW32134   3.020   1.096   1.932  0.3999 -0.5182  0.0626
 6834SOL    HW132135   2.966   1.103   1.853  1.1955  1.4768 -0.3327
 6834SOL    HW232136   2.945   1.077   1.987 -0.3612  0.2326 -0.7049
 6835SOL     OW32137   0.136   0.168   7.010 -0.0789  0.1971 -0.1742
 6835SOL    HW132138   0.100   0.094   7.058  0.4396 -0.0129 -0.1172
 6835SOL    HW232139   0.093   0.155   6.925  0.3090  0.2647 -0.3819
 6836SOL     OW32140   3.633   0.022   0.928 -0.1345  0.1215 -0.7742
 6836SOL    HW132141   3.667   0.064   0.849 -0.8675 -1.0726 -1.7264
 6836SOL    HW232142   3.650   4.664   0.907  0.5339 -0.4586  2.2317
 6837SOL     OW32143   1.644   3.210  12.060 -0.0619 -0.5946 -0.1352
 6837SOL    HW132144   1.592   3.131  12.049  0.6948 -1.0317 -0.5854
 6837SOL    HW232145   1.730   3.175  12.083 -1.1530 -1.1316  3.0347
 6838SOL     OW32146   1.775   2.918   6.559  0.0630  0.3762  0.0382
 6838SOL    HW132147   1.712   2.896   6.490 -0.0749  0.3062  0.1873
 6838SOL    HW232148   1.849   2.930   6.499  0.8365 -0.0854  0.9025
 6839SOL     OW32149   1.927   2.407  17.144 -0.4220 -0.0772 -0.2150
 6839SOL    HW132150   1.963   2.476  17.089 -0.4255 -0.5777 -0.8435
 6839SOL    HW232151   1.942   2.441  17.232  2.5918  1.3566 -1.2873
 6840SOL     OW32152   1.281   3.249   1.625  0.3814  0.6278  0.2269
 6840SOL    HW132153   1.297   3.161   1.657  0.0916  1.0866  1.6413
 6840SOL    HW232154   1.222   3.282   1.693 -1.2096 -2.3285  0.2374
 6841SOL     OW32155   2.702   3.726   1.237 -0.2333  0.1381  0.0725
 6841SOL    HW132156   2.771   3.662   1.254 -1.0288 -0.7856 -0.2057
 6841SOL    HW232157   2.657   3.721   1.321  0.3623 -0.8476  0.3354
 6842SOL     OW32158   3.975   0.295   7.033  0.0388 -0.1383 -1.0459
 6842SOL    HW132159   3.896   0.286   6.980 -0.8712 -0.8108  0.4196
 6842SOL    HW232160   3.950   0.366   7.093 -0.7005 -0.0564 -1.4418
 6843SOL     OW32161   4.029   0.301   4.744  0.3357  0.0972 -0.3065
 6843SOL    HW132162   4.045   0.345   4.660  1.1107 -0.5093 -0.4707
 6843SOL    HW232163   4.091   0.343   4.804 -0.6696  0.9637  0.1260
 6844SOL     OW32164   4.523   3.251   1.891  0.0019  0.4493  0.1623
 6844SOL    HW132165   4.464   3.232   1.817  0.6038 -0.1994 -0.1478
 6844SOL    HW232166   4.458   3.285   1.953 -2.4683  0.1380 -2.2598
 6845SOL     OW32167   0.617   0.214  12.659 -0.7249 -0.3933 -0.0012
 6845SOL    HW132168   0.592   0.137  12.607  0.0448 -0.9367  0.4333
 6845SOL    HW232169   0.554   0.280  12.631 -1.0447 -1.0027 -0.7387
 6846SOL     OW32170   3.046   3.809   5.106 -0.1454  0.3960  0.3591
 6846SOL    HW132171   2.995   3.751   5.050  0.6595  1.6600 -1.7233
 6846SOL    HW232172   3.134   3.774   5.092  1.0988  2.3726  3.3811
 6847SOL     OW32173   3.718   2.619   7.073 -0.6889  0.4491  0.0846
 6847SOL    HW132174   3.675   2.634   7.158  0.9023  3.4652  0.3737
 6847SOL    HW232175   3.655   2.556   7.040 -0.2231 -0.1740  0.3975
 6848SOL     OW32176   0.617   1.638   4.089  0.4505 -0.1153 -0.5788
 6848SOL    HW132177   0.554   1.577   4.127  0.1830 -1.2329 -2.7969
 6848SOL    HW232178   0.569   1.721   4.089  2.3410  0.9934  1.0656
 6849SOL     OW32179   0.950   2.453   7.803 -0.0719  0.1488 -0.2649
 6849SOL    HW132180   1.000   2.535   7.804 -0.0195  0.1160 -0.2087
 6849SOL    HW232181   0.859   2.483   7.797 -0.2217  0.0444  1.4972
 6850SOL     OW32182   1.259   0.949   9.622  0.3864 -0.3554  0.2835
 6850SOL    HW132183   1.279   0.935   9.529 -0.8810 -0.3528  0.0202
 6850SOL    HW232184   1.276   0.861   9.656  3.1033  0.2862  0.6111
 6851SOL     OW32185   2.890   1.445   4.824  0.1226  0.3742  0.2064
 6851SOL    HW132186   2.858   1.520   4.873  0.0226  1.4482 -1.5013
 6851SOL    HW232187   2.814   1.414   4.775  0.2213 -0.0932  0.3487
 6852SOL     OW32188   0.919   0.005   2.812  0.5498 -0.5650 -0.6496
 6852SOL    HW132189   0.943   4.647   2.801  1.1147 -0.7023  1.8018
 6852SOL    HW232190   0.975   0.026   2.887 -1.9418  1.1600  0.7007
 6853SOL     OW32191   3.429   0.604   9.086  0.2516  0.4416  0.5211
 6853SOL    HW132192   3.353   0.585   9.031  1.3478  0.6105 -1.0348
 6853SOL    HW232193   3.390   0.660   9.154 -0.2912  1.7397 -0.8464
 6854SOL     OW32194   1.203   2.473   5.240  0.0312  0.5143  0.1027
 6854SOL    HW132195   1.122   2.426   5.258  0.8085 -0.7928  0.2020
 6854SOL    HW232196   1.241   2.460   5.327  2.4972  1.6483 -0.7854
 6855SOL     OW32197   1.540   0.860   7.390 -1.0411 -0.0485  0.0973
 6855SOL    HW132198   1.611   0.827   7.336  1.6586  1.4580  2.7348
 6855SOL    HW232199   1.592   0.905   7.457  0.6253 -1.2901 -0.3753
 6856SOL     OW32200   1.211   2.741  15.658 -0.1472  0.4694  0.5364
 6856SOL    HW132201   1.168   2.816  15.616 -1.6223 -0.2622  0.7434
 6856SOL    HW232202   1.141   2.686  15.694  0.5656 -1.7815 -1.5481
 6857SOL     OW32203   2.333   3.134   8.906 -0.3914 -0.3486 -0.4373
 6857SOL    HW132204   2.380   3.051   8.896  1.0947  0.4493 -0.0158
 6857SOL    HW232205   2.322   3.145   8.812 -2.0790 -2.2578 -0.4695
 6858SOL     OW32206   2.453   0.165  10.118 -0.2256  0.0844  0.8574
 6858SOL    HW132207   2.391   0.131  10.182  0.8347 -2.9811  0.2662
 6858SOL    HW232208   2.451   0.257  10.145 -0.0282  0.3700 -0.1092
 6859SOL     OW32209   1.787   1.000   7.082 -0.3638  0.1722 -0.5270
 6859SOL    HW132210   1.717   1.010   7.017  1.6122  1.3410 -2.4905
 6859SOL    HW232211   1.867   1.040   7.047 -0.6565  2.1402  1.0333
 6860SOL     OW32212   0.125   1.435   4.879  0.0823  0.0147 -0.4151
 6860SOL    HW132213   0.047   1.395   4.918  0.9571  1.6193  2.9855
 6860SOL    HW232214   0.183   1.398   4.946  0.7438  1.7664 -0.0213
 6861SOL     OW32215   2.984   3.789   6.121 -0.3644 -0.8928  0.3314
 6861SOL    HW132216   2.917   3.758   6.060 -0.3025 -0.0137 -0.1861
 6861SOL    HW232217   2.943   3.866   6.160 -0.4169 -1.8525  2.1597
 6862SOL     OW32218   4.304   3.660   3.151  0.8930  0.6131 -0.2045
 6862SOL    HW132219   4.391   3.637   3.183  1.2538  1.4953 -0.5488
 6862SOL    HW232220   4.267   3.709   3.224 -1.2136  0.1487 -0.9779
 6863SOL     OW32221   0.528   2.549   5.280 -0.2190 -0.4968 -0.3911
 6863SOL    HW132222   0.542   2.518   5.191 -1.3340 -0.9821 -0.4052
 6863SOL    HW232223   0.461   2.613   5.257 -1.0085 -1.7508 -1.5725
 6864SOL     OW32224   0.154   2.717   4.967 -0.3253 -0.6331  0.3456
 6864SOL    HW132225   0.130   2.671   5.048  2.6929 -1.9101  0.5222
 6864SOL    HW232226   0.144   2.654   4.896 -1.3103 -0.3360  0.2222
 6865SOL     OW32227   0.074   3.144   4.363  0.6090 -0.2511  0.3057
 6865SOL    HW132228   0.161   3.107   4.374  0.9783  0.0928 -1.4541
 6865SOL    HW232229   0.077   3.209   4.434  0.5119  0.4814 -0.3546
 6866SOL     OW32230   4.662   0.135   7.973 -0.5370 -0.4206  0.1990
 6866SOL    HW132231   4.707   0.194   7.913 -2.7402 -1.0798 -2.1190
 6866SOL    HW232232   4.683   0.148   8.065 -3.6913 -1.1339  1.0421
 6867SOL     OW32233   3.186   0.383  13.874  0.6476  0.0599 -0.7618
 6867SOL    HW132234   3.208   0.332  13.952  1.9999  0.7469 -0.6980
 6867SOL    HW232235   3.234   0.460  13.903 -1.6845  1.6258 -1.0658
 6868SOL     OW32236   2.678   2.510   5.557  0.4708 -0.6091  0.5823
 6868SOL    HW132237   2.762   2.492   5.600  0.2409  0.1975  1.3639
 6868SOL    HW232238   2.641   2.422   5.550  0.3725 -0.2773 -2.8628
 6869SOL     OW32239   3.486   0.387   9.801  0.4563  0.1575  0.0343
 6869SOL    HW132240   3.415   0.429   9.753  0.1389 -0.2964  0.1099
 6869SOL    HW232241   3.560   0.410   9.745  0.4396 -4.2275 -1.7644
 6870SOL     OW32242   1.990   0.235   7.609  0.4625 -0.3394  0.4094
 6870SOL    HW132243   1.953   0.305   7.555  0.2567  0.1050  1.1184
 6870SOL    HW232244   1.950   0.160   7.566  0.1810 -1.3378  2.4183
 6871SOL     OW32245   0.367   3.807  15.729  0.3283  0.0321 -0.4928
 6871SOL    HW132246   0.378   3.821  15.823 -3.6462  0.9518 -0.1603
 6871SOL    HW232247   0.312   3.730  15.742 -1.1139  0.8609 -1.7329
 6872SOL     OW32248   2.997   0.798   6.557 -0.1435 -0.0350 -0.1323
 6872SOL    HW132249   3.083   0.775   6.593  0.1438  2.9344  1.0936
 6872SOL    HW232250   2.942   0.801   6.636 -1.5706 -0.3147 -1.1253
 6873SOL     OW32251   0.899   0.459   0.515 -0.0653  0.6860  0.1278
 6873SOL    HW132252   0.988   0.445   0.547  0.0805 -1.3180 -1.1025
 6873SOL    HW232253   0.913   0.488   0.425 -0.5536  0.0792 -0.1523
 6874SOL     OW32254   2.190   0.711  10.200  0.4554 -0.5606 -0.3000
 6874SOL    HW132255   2.196   0.710  10.295  2.8741  0.3724 -0.4304
 6874SOL    HW232256   2.283   0.716  10.175  1.1999 -2.5363  2.1742
 6875SOL     OW32257   4.731   0.725   5.319 -0.2750  0.7010 -0.4087
 6875SOL    HW132258   4.675   0.794   5.283 -0.6772 -0.3797 -1.8909
 6875SOL    HW232259   4.665   0.660   5.346 -0.7590  1.0383 -0.7796
 6876SOL     OW32260   4.653   1.914   3.324 -0.0622 -0.1793 -0.0475
 6876SOL    HW132261   4.698   1.994   3.349 -2.6993  0.7862  1.6458
 6876SOL    HW232262   4.710   1.845   3.357 -1.2951 -0.1374  2.1443
 6877SOL     OW32263   0.263   1.253   5.036 -0.5993 -0.0085  0.1321
 6877SOL    HW132264   0.303   1.208   4.961  1.5116  1.9871  0.0419
 6877SOL    HW232265   0.339   1.268   5.093 -1.4241  0.0010  1.2215
 6878SOL     OW32266   0.151   2.227  16.931 -0.0121 -0.1636  0.3543
 6878SOL    HW132267   0.242   2.204  16.911  0.2110  1.8324 -0.8379
 6878SOL    HW232268   0.164   2.309  16.977 -0.5273 -0.3590  0.8385
 6879SOL     OW32269   3.507   2.393  15.968 -0.0432  0.1298 -0.7045
 6879SOL    HW132270   3.579   2.455  15.956  0.8823 -1.0208 -1.0765
 6879SOL    HW232271   3.497   2.400  16.063 -0.5009 -1.4090 -0.6457
 6880SOL     OW32272   0.860   2.898   3.454 -0.2191 -0.0382  0.2852
 6880SOL    HW132273   0.825   2.964   3.394  0.3735 -1.5248 -1.7285
 6880SOL    HW232274   0.886   2.824   3.398 -0.4739 -0.2142  0.3981
 6881SOL     OW32275   4.329   1.913   8.452  0.3702  0.2943  0.4714
 6881SOL    HW132276   4.368   1.826   8.447 -0.1968 -0.0013  1.2142
 6881SOL    HW232277   4.240   1.908   8.417  0.2581  2.4117  0.4242
 6882SOL     OW32278   2.045   1.467   2.305  0.0889 -0.4944  0.3178
 6882SOL    HW132279   1.978   1.446   2.370 -2.3145  0.4099 -1.8841
 6882SOL    HW232280   2.061   1.376   2.282  1.5119 -0.0056 -0.6398
 6883SOL     OW32281   2.905   4.441   5.978 -0.1485  0.2042 -0.2567
 6883SOL    HW132282   2.950   4.487   5.907  1.1541 -1.0863 -0.2549
 6883SOL    HW232283   2.853   4.516   6.007 -1.3026 -0.2334 -1.2069
 6884SOL     OW32284   2.716   0.179  10.042 -0.4494  0.6587 -0.7312
 6884SOL    HW132285   2.740   0.101  10.092 -1.1994  0.2726 -0.9688
 6884SOL    HW232286   2.620   0.175  10.035 -0.3723  0.4376 -1.6307
 6885SOL     OW32287   3.647   0.235   3.344 -0.0414  0.2866 -0.0439
 6885SOL    HW132288   3.654   0.325   3.311 -1.3382  0.1248 -0.7519
 6885SOL    HW232289   3.645   0.182   3.265 -0.2936 -0.9628  0.7910
 6886SOL     OW32290   4.167   1.147   7.956  0.1717 -0.1216  0.2612
 6886SOL    HW132291   4.086   1.165   8.004 -0.1511  2.7211 -1.3563
 6886SOL    HW232292   4.196   1.061   7.986 -1.0752 -0.6673 -0.0839
 6887SOL     OW32293   0.850   0.911   5.867 -0.1355 -0.5054  0.7025
 6887SOL    HW132294   0.929   0.964   5.861 -0.6056  0.2261  1.0174
 6887SOL    HW232295   0.868   0.839   5.927  0.4913 -1.0775 -0.1682
 6888SOL     OW32296   2.200   0.333   3.653  0.1065  0.1585 -0.6752
 6888SOL    HW132297   2.135   0.266   3.677  1.6445 -0.2315  2.5099
 6888SOL    HW232298   2.216   0.370   3.740  2.2427  0.9513 -1.4098
 6889SOL     OW32299   2.148   4.523  17.679 -0.1599 -0.4260  0.1459
 6889SOL    HW132300   2.217   4.458  17.685  1.6150  1.4521 -0.0126
 6889SOL    HW232301   2.191   4.603  17.712  1.5092 -0.5319 -1.8150
 6890SOL     OW32302   4.280   4.654  13.931 -0.4051 -0.4460  0.7832
 6890SOL    HW132303   4.286   4.587  13.998 -0.3590  0.7514  1.9707
 6890SOL    HW232304   4.254   4.725  13.990  0.1763  2.0993 -2.0066
 6891SOL     OW32305   0.831   3.032   3.074 -0.1295 -0.5186 -0.6496
 6891SOL    HW132306   0.813   2.940   3.055 -0.5153 -0.7544  0.8188
 6891SOL    HW232307   0.788   3.042   3.159 -0.2312 -3.5356 -0.3404
 6892SOL     OW32308   1.869   3.440   9.295  0.1911 -0.4371 -0.2383
 6892SOL    HW132309   1.798   3.436   9.358  0.2898 -2.1198 -0.2379
 6892SOL    HW232310   1.875   3.529   9.260  0.7084  0.9664  3.4283
 6893SOL     OW32311   2.568   4.702   8.561 -0.2545 -0.1775  0.0792
 6893SOL    HW132312   2.650   0.011   8.536 -1.1676  0.2768 -2.1460
 6893SOL    HW232313   2.555   0.013   8.645  1.5010 -0.3429  0.4288
 6894SOL     OW32314   0.612   3.516  11.167 -0.3436  0.1902  0.3837
 6894SOL    HW132315   0.691   3.561  11.199 -0.9922  0.8280  1.0809
 6894SOL    HW232316   0.604   3.544  11.076  0.6076  1.6282  0.7361
 6895SOL     OW32317   2.167   2.858   2.108  0.3898 -0.2905 -0.5206
 6895SOL    HW132318   2.121   2.783   2.073 -3.1169  1.9997 -0.7997
 6895SOL    HW232319   2.116   2.928   2.067  1.1277 -0.1857 -1.2667
 6896SOL     OW32320   4.536   1.481   3.252  0.1427 -0.2062  0.0226
 6896SOL    HW132321   4.605   1.446   3.309 -0.7312 -0.3819  0.9606
 6896SOL    HW232322   4.455   1.441   3.282 -0.2065  0.6084  0.1612
 6897SOL     OW32323   3.482   3.272   1.707  0.6285 -0.2832  0.0833
 6897SOL    HW132324   3.495   3.183   1.673 -1.9638 -0.5059 -0.3353
 6897SOL    HW232325   3.523   3.319   1.635  1.5050  0.8451  1.3139
 6898SOL     OW32326   0.893   1.124   4.387  0.2418 -0.2128 -0.1050
 6898SOL    HW132327   0.947   1.089   4.316  0.9297  0.3032  0.1650
 6898SOL    HW232328   0.851   1.200   4.346 -3.4309 -1.3144  1.6744
 6899SOL     OW32329   1.626   4.190   4.986  0.1840 -0.0709 -0.2315
 6899SOL    HW132330   1.570   4.141   5.047  0.2115 -0.8902 -0.8727
 6899SOL    HW232331   1.698   4.128   4.979  1.6348  1.6574 -0.6884
 6900SOL     OW32332   3.899   4.600  14.966  0.2730 -0.2771  0.2166
 6900SOL    HW132333   3.900   4.614  15.061  0.4337 -2.2739  0.5106
 6900SOL    HW232334   3.954   4.523  14.954  0.1741 -0.4915  1.1445
 6901SOL     OW32335   1.131   2.549   7.023  0.3309  0.1362  0.0163
 6901SOL    HW132336   1.039   2.541   7.049 -0.5319  1.7560 -2.5486
 6901SOL    HW232337   1.161   2.458   7.022  0.9521  0.3396  0.6701
 6902SOL     OW32338   2.665   0.617   7.406 -0.1748 -0.6240 -0.1509
 6902SOL    HW132339   2.759   0.616   7.428  0.2793 -2.1576 -2.1723
 6902SOL    HW232340   2.637   0.708   7.398  1.1696 -0.2906 -1.1508
 6903SOL     OW32341   1.184   4.422  11.436 -0.3508 -0.4199 -0.6227
 6903SOL    HW132342   1.240   4.486  11.392  0.0607 -0.6599 -0.4492
 6903SOL    HW232343   1.249   4.368  11.480  1.1765  1.8579 -0.0525
 6904SOL     OW32344   4.715   4.382   9.267  0.0144 -0.0668 -0.4392
 6904SOL    HW132345   0.016   4.467   9.239  0.9372  0.3795  2.0775
 6904SOL    HW232346   0.031   4.359   9.345  0.4574  1.5377 -0.2569
 6905SOL     OW32347   0.502   0.988   7.153  0.0864  0.1876 -0.7103
 6905SOL    HW132348   0.420   1.037   7.158 -1.0875 -1.6959 -1.8193
 6905SOL    HW232349   0.504   0.955   7.243  0.8616 -0.7023 -1.0502
 6906SOL     OW32350   0.671   1.398   5.050 -0.1908  0.0980  0.5281
 6906SOL    HW132351   0.712   1.390   5.136  0.8599 -0.3080 -0.0010
 6906SOL    HW232352   0.643   1.307   5.042 -0.3115  0.1620  0.2056
 6907SOL     OW32353   0.998   4.619   5.612  0.0425  0.0857  0.2724
 6907SOL    HW132354   0.942   4.614   5.690 -0.4576 -2.4263 -0.2443
 6907SOL    HW232355   1.049   4.538   5.613 -0.2911 -0.1281 -0.8020
 6908SOL     OW32356   4.061   3.122   0.313 -0.2794  0.2705  0.0977
 6908SOL    HW132357   4.081   3.034   0.344  1.1315 -0.0622 -1.7460
 6908SOL    HW232358   4.141   3.145   0.266  0.7449  0.9839  2.1593
 6909SOL     OW32359   3.983   2.685  10.369  0.1746  0.0739  0.5426
 6909SOL    HW132360   3.995   2.779  10.386 -0.5027  0.2195  0.2066
 6909SOL    HW232361   4.051   2.648  10.425 -1.0312 -3.2968 -0.2366
 6910SOL     OW32362   2.743   0.552  17.567 -0.1164 -0.3448 -0.1831
 6910SOL    HW132363   2.699   0.525  17.487  0.0158 -1.3619  0.0868
 6910SOL    HW232364   2.824   0.505  17.547  0.8964  1.2500  0.1434
 6911SOL     OW32365   3.190   1.623   2.646  0.2717 -0.3355 -0.8867
 6911SOL    HW132366   3.240   1.690   2.599 -2.2278  1.5635 -0.8258
 6911SOL    HW232367   3.254   1.591   2.710  0.5272 -2.1360 -2.0253
 6912SOL     OW32368   1.818   4.156   2.885 -0.3351 -0.4657 -0.0858
 6912SOL    HW132369   1.811   4.197   2.971  0.5339  1.2018 -0.8123
 6912SOL    HW232370   1.726   4.136   2.868 -0.3410 -1.5049  1.2448
 6913SOL     OW32371   2.500   3.727  13.742  0.0173  0.1091  0.0080
 6913SOL    HW132372   2.411   3.761  13.736 -0.0619 -0.5455 -2.8499
 6913SOL    HW232373   2.507   3.664  13.669 -0.7532 -0.3297  0.3067
 6914SOL     OW32374   1.764   0.281   0.095 -0.5823  0.3542 -0.0182
 6914SOL    HW132375   1.682   0.317   0.128  0.0093  0.3618  1.4175
 6914SOL    HW232376   1.725   0.200   0.062  1.8259 -1.1727  0.8915
 6915SOL     OW32377   1.413   0.731   8.869  0.1202  0.4755 -0.4332
 6915SOL    HW132378   1.417   0.636   8.868 -0.5282  0.4598 -1.7719
 6915SOL    HW232379   1.342   0.742   8.806 -0.6178 -0.4903  0.2252
 6916SOL     OW32380   4.209   1.576   7.513  0.4357  0.1885 -0.1690
 6916SOL    HW132381   4.224   1.488   7.479  0.7807 -0.4778  1.6726
 6916SOL    HW232382   4.256   1.576   7.597  0.6035  2.7487 -0.2688
 6917SOL     OW32383   3.175   3.441  12.109  0.1669  0.1072  0.3569
 6917SOL    HW132384   3.182   3.516  12.051 -1.6126  0.6666  0.8810
 6917SOL    HW232385   3.210   3.378  12.046  0.3834  0.5475  0.0411
 6918SOL     OW32386   1.189   1.808   4.233 -0.4590  0.4539 -0.1745
 6918SOL    HW132387   1.214   1.869   4.303 -1.6249 -0.7609  1.3156
 6918SOL    HW232388   1.240   1.730   4.255 -0.9877  0.1408 -0.0361
 6919SOL     OW32389   0.591   1.199   0.984  0.1758  0.2182  0.1658
 6919SOL    HW132390   0.508   1.187   0.937  1.5646 -5.6000 -0.8673
 6919SOL    HW232391   0.626   1.255   0.914  0.1578 -0.3366 -0.2874
 6920SOL     OW32392   4.281   2.795   7.735  0.0163 -0.3880 -0.2822
 6920SOL    HW132393   4.376   2.806   7.730 -0.0644  1.8363  2.8174
 6920SOL    HW232394   4.253   2.865   7.676  0.7012 -0.2692 -0.4581
 6921SOL     OW32395   4.339   0.504   6.167 -0.4697 -0.7798 -0.2034
 6921SOL    HW132396   4.281   0.428   6.159 -0.5250 -0.8145  0.4988
 6921SOL    HW232397   4.288   0.567   6.115 -0.7505  0.1493  1.1848
 6922SOL     OW32398   1.352   3.703   8.579  0.1786  0.0912 -0.3757
 6922SOL    HW132399   1.317   3.759   8.649  1.1609  0.9657 -0.5808
 6922SOL    HW232400   1.327   3.617   8.611 -0.1838  0.2824 -0.1433
 6923SOL     OW32401   1.002   0.063  14.696  0.1354  0.1711 -0.0655
 6923SOL    HW132402   1.011   0.038  14.604 -1.3553  1.5453 -0.5877
 6923SOL    HW232403   1.022   4.712  14.735 -3.2359 -0.6111 -0.0612
 6924SOL     OW32404   4.537   2.884   3.647  0.6536  0.6669 -0.3792
 6924SOL    HW132405   4.460   2.830   3.663  1.7727 -1.2565 -1.4179
 6924SOL    HW232406   4.518   2.924   3.562  0.9344  1.3131 -0.1331
 6925SOL     OW32407   2.517   3.314  15.774 -0.5509 -0.1008  0.1275
 6925SOL    HW132408   2.579   3.282  15.840 -1.1370 -1.8183 -0.1600
 6925SOL    HW232409   2.463   3.370  15.830  0.1841  0.2411  0.4899
 6926SOL     OW32410   4.372   3.561   8.525 -0.0255  0.1498  0.2865
 6926SOL    HW132411   4.289   3.513   8.526 -0.5921  1.1939  2.7429
 6926SOL    HW232412   4.339   3.638   8.479 -1.4282  0.5355  1.9427
 6927SOL     OW32413   1.630   3.503   9.467  0.1820  0.0329  0.0343
 6927SOL    HW132414   1.604   3.527   9.378  0.3523 -0.8069 -0.2388
 6927SOL    HW232415   1.600   3.578   9.518 -0.9891 -1.2797  1.2672
 6928SOL     OW32416   4.521   1.752   8.126  0.0787  0.0832 -0.2346
 6928SOL    HW132417   4.591   1.687   8.131 -2.0673 -2.0388  2.5896
 6928SOL    HW232418   4.482   1.749   8.039  0.2863 -1.2253 -0.2793
 6929SOL     OW32419   0.344   4.103   1.095 -0.1173  0.0370 -0.3681
 6929SOL    HW132420   0.326   4.019   1.137 -1.3777  0.0575 -0.8562
 6929SOL    HW232421   0.437   4.111   1.115  0.0825  0.6862 -1.5842
 6930SOL     OW32422   0.785   0.152   4.935 -0.1424  0.6657  0.4506
 6930SOL    HW132423   0.820   0.155   4.846 -0.3710  1.3472  0.3806
 6930SOL    HW232424   0.819   0.069   4.967 -1.9857 -0.1402  0.2713
 6931SOL     OW32425   3.006   0.790   8.746  0.0710  0.3375  0.0444
 6931SOL    HW132426   2.966   0.810   8.661 -2.3149 -2.2946  0.5536
 6931SOL    HW232427   3.093   0.757   8.725 -0.1966 -0.3096 -0.0509
 6932SOL     OW32428   2.621   4.416  10.554 -0.2255 -0.1912 -0.7595
 6932SOL    HW132429   2.712   4.447  10.555 -0.3052 -0.0896  1.6500
 6932SOL    HW232430   2.604   4.407  10.460  0.6505  2.7074 -1.2214
 6933SOL     OW32431   3.582   0.196   8.423 -0.5719  0.1047  0.8479
 6933SOL    HW132432   3.522   0.242   8.364 -1.1008 -0.5814  0.8557
 6933SOL    HW232433   3.660   0.195   8.367 -2.3636  1.1915 -1.6612
 6934SOL     OW32434   3.213   0.923   9.091  0.4260 -0.2783 -0.2462
 6934SOL    HW132435   3.226   0.988   9.160  1.2996  0.8080 -1.4397
 6934SOL    HW232436   3.201   0.837   9.132  0.3570 -0.3425 -0.4046
 6935SOL     OW32437   1.817   1.900   4.853 -0.0660 -0.5133  0.0694
 6935SOL    HW132438   1.817   1.847   4.773  0.0155 -2.8469  1.6377
 6935SOL    HW232439   1.838   1.849   4.931  1.1782 -1.2526 -0.7488
 6936SOL     OW32440   0.163   4.250   3.624 -0.0820  0.2565  0.3995
 6936SOL    HW132441   0.207   4.281   3.545 -0.5169  0.4645  0.2347
 6936SOL    HW232442   0.239   4.243   3.681 -1.9155 -0.1263  2.8322
 6937SOL     OW32443   1.027   4.195   6.633  0.4588 -0.1147  0.8040
 6937SOL    HW132444   1.047   4.114   6.587  1.1487  0.6492 -0.2368
 6937SOL    HW232445   0.934   4.188   6.655  0.4716 -1.1789  0.5175
 6938SOL     OW32446   3.139   1.258   4.806 -0.4840 -0.2733  0.2669
 6938SOL    HW132447   3.062   1.315   4.814  0.1382  0.2155  2.8007
 6938SOL    HW232448   3.102   1.177   4.770 -1.2411  0.7023 -1.1475
 6939SOL     OW32449   2.133   0.422   1.722  0.0221  0.0898  0.0144
 6939SOL    HW132450   2.071   0.453   1.656  0.7569 -0.1317 -0.7839
 6939SOL    HW232451   2.152   0.341   1.674  1.2653  0.5322 -0.2360
 6940SOL     OW32452   3.010   4.436   2.303  0.2081 -0.3472  0.1681
 6940SOL    HW132453   2.923   4.454   2.268 -0.1568  0.5220  1.5407
 6940SOL    HW232454   3.062   4.495   2.248  0.3518 -0.7558 -0.1364
 6941SOL     OW32455   3.887   0.791  11.988  0.0173 -0.1034  0.3218
 6941SOL    HW132456   3.850   0.870  12.027  1.3915  0.4400  0.5178
 6941SOL    HW232457   3.873   0.804  11.894  2.9756 -1.7863 -0.3610
 6942SOL     OW32458   0.221   0.966   2.407  0.5517 -0.6946 -0.0766
 6942SOL    HW132459   0.201   0.938   2.496 -0.2142  1.3866  0.3822
 6942SOL    HW232460   0.294   0.908   2.382  1.3764  0.5126 -0.4837
 6943SOL     OW32461   4.123   3.513   8.939 -0.1508  0.0965  0.4461
 6943SOL    HW132462   4.196   3.542   8.993 -0.6342  2.7484 -0.3087
 6943SOL    HW232463   4.145   3.554   8.855 -0.0770 -2.9421 -1.0288
 6944SOL     OW32464   3.958   1.216   8.454  0.5151 -0.2216  0.2627
 6944SOL    HW132465   4.011   1.233   8.531  1.3585 -1.5301 -0.0271
 6944SOL    HW232466   3.965   1.120   8.454  1.1549 -0.1716  0.1497
 6945SOL     OW32467   2.334   0.786  10.795  0.2190  0.0040 -0.5556
 6945SOL    HW132468   2.327   0.697  10.830 -1.7621  0.7805  1.0190
 6945SOL    HW232469   2.424   0.780  10.762  1.1175 -1.0704  2.0869
 6946SOL     OW32470   0.039   1.097   4.754  0.2196 -0.0703  0.2013
 6946SOL    HW132471   0.047   1.147   4.672 -3.0105 -0.3025 -0.2763
 6946SOL    HW232472   0.130   1.096   4.783 -0.2641  0.2299  1.7166
 6947SOL     OW32473   4.030   2.055   0.553  0.3946  0.4087  0.2702
 6947SOL    HW132474   3.974   1.977   0.555  1.3109 -0.2276  0.8607
 6947SOL    HW232475   4.060   2.064   0.643 -0.7915  0.2475  0.6910
 6948SOL     OW32476   2.289   1.402   9.955  0.1894 -0.0418 -0.1424
 6948SOL    HW132477   2.215   1.362  10.000 -0.1644  0.2462 -0.4678
 6948SOL    HW232478   2.244   1.456   9.890 -0.5418  1.4808  1.6484
 6949SOL     OW32479   2.244   2.786   5.420  0.5319  0.0958 -0.0270
 6949SOL    HW132480   2.293   2.815   5.496 -1.3771  1.2957  0.7576
 6949SOL    HW232481   2.180   2.856   5.404  0.2907  0.3657  2.2187
 6950SOL     OW32482   1.193   0.993  16.044  0.1223  0.1431  0.1523
 6950SOL    HW132483   1.183   1.070  15.989 -0.7096 -0.1761 -0.1493
 6950SOL    HW232484   1.119   1.003  16.104  0.3494 -0.6552  0.5780
 6951SOL     OW32485   0.049   2.319   3.125 -0.2211  0.1414 -0.1022
 6951SOL    HW132486   4.689   2.326   3.105 -0.1964 -0.2677 -0.3578
 6951SOL    HW232487   0.085   2.330   3.037  1.1916 -0.8183  0.3613
 6952SOL     OW32488   2.212   3.768   8.733 -0.3740 -0.4377  0.5656
 6952SOL    HW132489   2.167   3.817   8.665  0.5753  0.1252  0.3506
 6952SOL    HW232490   2.145   3.707   8.765 -0.9485 -0.9049 -1.5203
 6953SOL     OW32491   0.625   0.722   7.020 -0.1360  0.4103 -0.8535
 6953SOL    HW132492   0.703   0.777   7.028  1.7138 -2.5370  1.2015
 6953SOL    HW232493   0.559   0.791   7.015 -1.4106 -0.6694  1.1701
 6954SOL     OW32494   0.355   3.512   7.360  0.1662 -0.1767 -0.2421
 6954SOL    HW132495   0.282   3.476   7.310 -0.8940 -1.5391  2.2964
 6954SOL    HW232496   0.380   3.574   7.291 -1.0240 -2.4278 -2.7192
 6955SOL     OW32497   1.598   1.406   4.519 -0.6884  0.2625  0.0564
 6955SOL    HW132498   1.598   1.471   4.448  1.3325  0.6005  0.3405
 6955SOL    HW232499   1.504   1.400   4.536 -0.5393 -0.4183  0.6253
 6956SOL     OW32500   2.063   2.552  10.135  0.5465 -0.3070  0.1224
 6956SOL    HW132501   2.023   2.495  10.200  3.3408 -1.4198  0.8672
 6956SOL    HW232502   2.059   2.638  10.178 -0.7252 -0.1390 -0.3316
 6957SOL     OW32503   3.035   3.469  10.147 -1.0314 -0.3663 -0.2050
 6957SOL    HW132504   3.125   3.495  10.165 -1.6108  1.9672 -0.6760
 6957SOL    HW232505   3.000   3.549  10.107 -1.0625  0.2809  1.1215
 6958SOL     OW32506   2.707   2.303   8.083  0.1874 -0.4072 -0.3566
 6958SOL    HW132507   2.726   2.388   8.122  1.7367 -1.6240  1.5094
 6958SOL    HW232508   2.772   2.299   8.013  1.0751 -0.3650  0.4663
 6959SOL     OW32509   4.641   1.140   7.400 -0.1259  0.5138  0.1702
 6959SOL    HW132510   4.682   1.159   7.315 -1.2731  0.4069 -0.4146
 6959SOL    HW232511   4.710   1.113   7.460  0.3190 -4.1428 -2.3581
 6960SOL     OW32512   0.787   0.810   8.631 -0.5232  1.1276 -0.0782
 6960SOL    HW132513   0.708   0.828   8.682 -0.0855  2.6399  0.0706
 6960SOL    HW232514   0.840   0.888   8.644  0.1946  0.9847 -2.1099
 6961SOL     OW32515   3.610   1.402  14.120  0.2298  0.2049  0.5767
 6961SOL    HW132516   3.576   1.313  14.107 -0.6673  0.7550 -0.9366
 6961SOL    HW232517   3.645   1.418  14.032 -2.1185 -1.0235 -0.6242
 6962SOL     OW32518   1.121   0.074  12.922 -0.1546 -0.1269 -0.0859
 6962SOL    HW132519   1.145   0.097  12.832 -2.1168 -1.0574 -0.8533
 6962SOL    HW232520   1.062   0.148  12.938  0.5901  0.8910 -2.1105
 6963SOL     OW32521   1.135   0.001   5.172 -0.1653  0.1271 -0.1367
 6963SOL    HW132522   1.202   0.020   5.237  3.3017 -0.9779 -3.4182
 6963SOL    HW232523   1.150   4.641   5.156  0.0407  0.2326 -0.5384
 6964SOL     OW32524   0.093   4.603  12.186  0.2495 -0.1118  0.1974
 6964SOL    HW132525   0.041   4.551  12.125  0.5179 -0.9253  0.6516
 6964SOL    HW232526   0.040   4.615  12.265  1.1784 -0.5668  0.8977
 6965SOL     OW32527   1.247   2.544   0.500  0.4538  0.1529 -0.0743
 6965SOL    HW132528   1.278   2.454   0.512  1.9140  0.8602  1.3550
 6965SOL    HW232529   1.323   2.594   0.470  0.3174  0.8865  0.8032
 6966SOL     OW32530   4.319   1.047  13.144 -0.5344 -0.0773 -0.1349
 6966SOL    HW132531   4.330   0.964  13.190 -1.1856  0.3473  0.7797
 6966SOL    HW232532   4.347   1.114  13.206  0.6180 -0.5709 -0.1251
 6967SOL     OW32533   2.981   2.998  14.373 -0.2427  0.3494 -0.6345
 6967SOL    HW132534   2.934   3.059  14.431  1.3883  0.3286  0.7040
 6967SOL    HW232535   2.907   2.956  14.329 -0.5737  1.2761 -0.9488
 6968SOL     OW32536   3.905   0.751   3.552  0.3143 -0.2264 -0.2769
 6968SOL    HW132537   3.858   0.756   3.469 -0.0178  2.0378  0.0344
 6968SOL    HW232538   3.968   0.822   3.539  0.9096 -0.2339  2.4224
 6969SOL     OW32539   0.519   1.716   1.052 -0.7268 -0.0454  0.2022
 6969SOL    HW132540   0.525   1.758   1.138 -2.1101  0.1218  0.2116
 6969SOL    HW232541   0.598   1.751   1.011 -1.5178  0.9693 -0.4661
 6970SOL     OW32542   3.629   3.836   2.418  0.1699  0.4506 -0.2003
 6970SOL    HW132543   3.695   3.768   2.432 -0.5178 -0.1815 -0.0654
 6970SOL    HW232544   3.555   3.777   2.432  2.5387 -2.6950 -0.9878
 6971SOL     OW32545   1.620   0.139   2.965 -0.0163  0.2427  0.2349
 6971SOL    HW132546   1.551   0.109   3.024  2.3594 -2.1467  1.8024
 6971SOL    HW232547   1.595   0.231   2.959  0.0685  0.1340 -1.9081
 6972SOL     OW32548   2.284   1.293   6.903 -0.0602 -0.4534 -0.2215
 6972SOL    HW132549   2.360   1.275   6.958  0.1011 -0.5836 -0.4860
 6972SOL    HW232550   2.272   1.216   6.848  1.0648 -0.4827 -0.4192
 6973SOL     OW32551   2.144   4.654   4.242  0.7558 -0.0346 -0.5908
 6973SOL    HW132552   2.093   4.578   4.270  1.2496  1.1151  3.3721
 6973SOL    HW232553   2.086   4.730   4.239  1.5950  0.6410  0.3020
 6974SOL     OW32554   3.464   0.583   6.040 -0.2086  0.9498 -0.0318
 6974SOL    HW132555   3.530   0.596   6.108  0.9988 -1.3178 -0.7988
 6974SOL    HW232556   3.388   0.553   6.090  1.5585  1.6037  3.0574
 6975SOL     OW32557   1.473   1.824   4.798  0.0540 -0.2054 -0.2783
 6975SOL    HW132558   1.481   1.775   4.880  0.0853  3.7294  2.0819
 6975SOL    HW232559   1.560   1.806   4.763  0.4786  2.1824 -0.4192
 6976SOL     OW32560   3.360   3.633   4.147 -0.3739 -0.2144  0.3900
 6976SOL    HW132561   3.381   3.649   4.055 -0.5177 -1.6777  0.1070
 6976SOL    HW232562   3.440   3.656   4.195 -0.0187  0.8613 -0.7182
 6977SOL     OW32563   4.435   0.196   9.680  0.1964  0.2873 -0.0661
 6977SOL    HW132564   4.486   0.196   9.761  1.3614  1.3950 -0.7836
 6977SOL    HW232565   4.506   0.226   9.623  1.3507  0.5915  1.5267
 6978SOL     OW32566   3.444   4.482   7.593  0.0597 -0.5145 -0.1770
 6978SOL    HW132567   3.447   4.387   7.604 -1.0459 -0.7085 -1.6487
 6978SOL    HW232568   3.372   4.483   7.531 -0.0975  0.7489  0.0272
 6979SOL     OW32569   3.296   2.482   3.586  0.3258 -0.0211  1.0457
 6979SOL    HW132570   3.213   2.528   3.584 -0.1737 -0.9852 -0.6837
 6979SOL    HW232571   3.340   2.526   3.659  0.8359 -0.1804  0.8398
 6980SOL     OW32572   2.942   2.410   7.945  0.5012  0.3138 -0.1119
 6980SOL    HW132573   2.910   2.470   8.012 -0.7178 -0.4726  0.0055
 6980SOL    HW232574   2.959   2.466   7.869 -0.9158 -1.2756 -1.5866
 6981SOL     OW32575   0.732   2.381   1.846  0.2268 -0.0747 -0.0092
 6981SOL    HW132576   0.648   2.370   1.891 -1.9512  1.3526 -3.7094
 6981SOL    HW232577   0.787   2.362   1.921  0.3352  0.0628 -0.0545
 6982SOL     OW32578   2.375   0.786   8.551  0.1099 -0.2160 -0.1258
 6982SOL    HW132579   2.329   0.850   8.497  0.0579  0.0011  0.1701
 6982SOL    HW232580   2.351   0.703   8.511  0.0931  0.0890 -0.7487
 6983SOL     OW32581   0.596   2.050  11.834 -0.3570  0.0359 -0.0713
 6983SOL    HW132582   0.623   2.129  11.788  2.2015 -0.3540  0.7485
 6983SOL    HW232583   0.624   1.978  11.777 -2.6776 -1.5048  0.7243
 6984SOL     OW32584   3.235   1.766   7.361  0.1726 -0.2164  0.7343
 6984SOL    HW132585   3.178   1.843   7.364 -0.3752 -0.5942  0.0943
 6984SOL    HW232586   3.207   1.717   7.438 -0.5418 -1.9099 -0.6139
 6985SOL     OW32587   0.267   2.231  10.853 -0.5531 -0.4731 -0.1055
 6985SOL    HW132588   0.242   2.163  10.791  0.1088  0.7287 -1.6912
 6985SOL    HW232589   0.182   2.273  10.862 -1.1241 -2.1986  2.4342
 6986SOL     OW32590   0.654   1.369  14.734 -0.1889  0.3366 -0.7684
 6986SOL    HW132591   0.722   1.435  14.724 -0.6826  0.9835  0.0842
 6986SOL    HW232592   0.577   1.416  14.767  0.7928  1.1031  0.4394
 6987SOL     OW32593   0.330   3.018   3.582  0.1078  0.1989 -0.2810
 6987SOL    HW132594   0.312   2.968   3.661 -1.6558  0.9086 -0.2278
 6987SOL    HW232595   0.381   2.955   3.531 -1.1047 -1.1918  0.2155
 6988SOL     OW32596   1.130   1.200   6.030 -0.4122 -0.1200 -0.1930
 6988SOL    HW132597   1.125   1.276   6.089  0.1674 -0.2435  0.0160
 6988SOL    HW232598   1.083   1.219   5.949  1.6602 -1.2121 -1.6455
 6989SOL     OW32599   2.478   1.535   7.926 -0.2764  0.6123  0.1716
 6989SOL    HW132600   2.491   1.522   8.020 -2.4055  0.7364  0.4775
 6989SOL    HW232601   2.402   1.478   7.919 -0.8153  1.1022  2.2127
 6990SOL     OW32602   1.568   3.233   8.839 -0.2311  0.2704  0.2143
 6990SOL    HW132603   1.494   3.262   8.893 -0.4362  2.1949 -1.0610
 6990SOL    HW232604   1.592   3.160   8.895 -3.2837 -1.4247 -0.6615
 6991SOL     OW32605   0.797   3.942   2.072 -0.8183 -0.5808  0.4118
 6991SOL    HW132606   0.806   3.957   1.978  0.9004  1.3806  0.8794
 6991SOL    HW232607   0.785   3.847   2.069  2.3388 -1.0450  2.5556
 6992SOL     OW32608   3.624   1.886  11.135  0.6382 -0.2461  0.4227
 6992SOL    HW132609   3.598   1.911  11.224  0.0516  1.9930 -0.3740
 6992SOL    HW232610   3.716   1.870  11.156  1.2544 -0.5301 -2.4345
 6993SOL     OW32611   2.475   2.165  17.563  0.3048 -0.5771  0.1981
 6993SOL    HW132612   2.557   2.179  17.516  0.7796 -0.6482  1.0106
 6993SOL    HW232613   2.417   2.116  17.504  1.2481 -0.7921 -0.5459
 6994SOL     OW32614   4.300   2.266   7.707  0.0905  0.9440 -0.0086
 6994SOL    HW132615   4.253   2.308   7.779 -0.9606 -2.1450  1.0686
 6994SOL    HW232616   4.362   2.338   7.694 -0.3089  1.1589 -0.7351
 6995SOL     OW32617   1.983   0.703  16.296 -0.5990  0.3633  0.0963
 6995SOL    HW132618   2.018   0.781  16.339 -0.9009  1.0030 -0.8185
 6995SOL    HW232619   2.027   0.635  16.348 -0.4654  1.2186  1.1048
 6996SOL     OW32620   2.940   4.386   4.803 -0.2906 -0.1941 -0.2662
 6996SOL    HW132621   3.006   4.349   4.744 -0.1357 -1.2762  0.5925
 6996SOL    HW232622   2.902   4.302   4.830  2.0954 -0.8201  1.2044
 6997SOL     OW32623   3.297   1.681   8.959 -0.0543 -0.0949  0.1249
 6997SOL    HW132624   3.261   1.592   8.968 -2.0492  0.5278 -1.5830
 6997SOL    HW232625   3.232   1.737   9.000  2.4375  2.1264  0.9969
 6998SOL     OW32626   4.649   4.312   7.782  0.0987  0.4670  0.0889
 6998SOL    HW132627   4.636   4.246   7.850  0.8061  0.7629  0.5084
 6998SOL    HW232628   4.557   4.335   7.772 -0.2715 -0.6583  0.9106
 6999SOL     OW32629   3.474   2.301  10.584 -0.5404  0.1221 -0.2357
 6999SOL    HW132630   3.494   2.308  10.490 -0.9930 -1.2763 -0.4510
 6999SOL    HW232631   3.548   2.344  10.625 -1.1765  0.3894  0.6207
 7000SOL     OW32632   3.940   2.640  16.805 -0.1112 -0.5008 -0.3021
 7000SOL    HW132633   3.887   2.665  16.730  0.3013  0.3195 -0.3117
 7000SOL    HW232634   3.976   2.723  16.834 -0.3320 -0.2720 -0.6896
 7001SOL     OW32635   3.313   3.138   7.085 -0.1235 -0.0447 -0.4758
 7001SOL    HW132636   3.343   3.171   7.000 -2.5494 -0.8569 -1.6383
 7001SOL    HW232637   3.395   3.158   7.129 -0.7907  1.3907  0.1000
 7002SOL     OW32638   2.785   2.180   2.684 -0.0245 -0.4107  0.1130
 7002SOL    HW132639   2.847   2.181   2.758 -0.8870  1.2324  0.8226
 7002SOL    HW232640   2.709   2.135   2.720  1.1319 -0.1313  2.9647
 7003SOL     OW32641   4.311   4.025   8.639  0.2073  0.2983  0.9849
 7003SOL    HW132642   4.216   4.018   8.638  0.2863 -0.6577  0.9088
 7003SOL    HW232643   4.317   4.113   8.601  0.5788  0.0635  0.4955
 7004SOL     OW32644   1.967   1.113  16.668  0.3907 -0.1323 -0.0033
 7004SOL    HW132645   1.891   1.055  16.669  0.2237  0.0671 -0.8405
 7004SOL    HW232646   2.025   1.071  16.604 -0.2208  0.7624 -1.1494
 7005SOL     OW32647   1.894   2.162  15.055 -0.0907 -0.8819  0.1783
 7005SOL    HW132648   1.840   2.234  15.023  0.1707  1.2171  4.3195
 7005SOL    HW232649   1.970   2.192  15.106 -0.3027  0.3229 -0.2204
 7006SOL     OW32650   3.453   4.414   8.212 -0.2249 -0.3372 -0.1504
 7006SOL    HW132651   3.496   4.489   8.253 -2.0910  1.0210 -0.6804
 7006SOL    HW232652   3.486   4.342   8.267 -0.8904 -1.5804 -1.3763
 7007SOL     OW32653   1.660   2.307   6.534  0.2721 -0.3299 -0.4187
 7007SOL    HW132654   1.707   2.229   6.563  2.6275  0.7519 -1.3374
 7007SOL    HW232655   1.653   2.287   6.441 -3.0276 -2.7739  0.3379
 7008SOL     OW32656   4.429   0.693   2.712 -0.0280 -0.5090 -0.0447
 7008SOL    HW132657   4.372   0.696   2.789  0.2648  2.2691  0.0798
 7008SOL    HW232658   4.485   0.768   2.734 -1.1023  0.4925 -0.7686
 7009SOL     OW32659   3.472   0.760   2.195  0.4495  0.4694  0.0180
 7009SOL    HW132660   3.397   0.819   2.189 -0.1219 -0.2091  0.5305
 7009SOL    HW232661   3.461   0.725   2.283 -1.7591 -0.1556 -0.5196
 7010SOL     OW32662   2.834   0.621   1.052 -0.4334  0.1419  0.2816
 7010SOL    HW132663   2.840   0.568   0.972  0.7735 -0.3684  0.7042
 7010SOL    HW232664   2.750   0.588   1.083  0.0462 -0.9257  0.4716
 7011SOL     OW32665   1.269   2.253   9.825  0.1255  0.4972 -0.0514
 7011SOL    HW132666   1.210   2.182   9.851  1.5744 -0.8548 -0.4805
 7011SOL    HW232667   1.353   2.221   9.855 -0.2676 -1.6745 -1.2420
 7012SOL     OW32668   1.078   3.825   1.415  0.0976  0.1744  0.4807
 7012SOL    HW132669   1.136   3.881   1.364  0.5117 -0.6947  0.0038
 7012SOL    HW232670   1.057   3.755   1.353  1.3868  0.4113 -0.2212
 7013SOL     OW32671   1.723   2.180   2.944  0.3441 -0.0441  0.1968
 7013SOL    HW132672   1.673   2.237   2.885  1.1265 -1.7852 -2.1630
 7013SOL    HW232673   1.790   2.139   2.889 -0.2386  3.0188 -2.8219
 7014SOL     OW32674   0.354   1.865   3.631  0.1853  0.2655 -0.0869
 7014SOL    HW132675   0.379   1.821   3.550 -0.7845 -0.5589  0.0654
 7014SOL    HW232676   0.442   1.891   3.659  0.0417  0.3908  0.2448
 7015SOL     OW32677   0.654   1.763  10.016 -0.1856 -0.2073 -0.5004
 7015SOL    HW132678   0.730   1.822  10.004 -0.6332  0.3719 -0.4849
 7015SOL    HW232679   0.642   1.774  10.110 -0.9704  3.2852 -0.9858
 7016SOL     OW32680   3.321   1.497  15.271  0.1588 -0.0779  0.1458
 7016SOL    HW132681   3.377   1.420  15.283  0.1064 -0.4351 -1.9032
 7016SOL    HW232682   3.327   1.514  15.177 -1.4687 -0.5930 -0.0565
 7017SOL     OW32683   1.771   0.627   1.966 -0.0739  0.4946 -0.4719
 7017SOL    HW132684   1.774   0.691   2.037 -0.4350 -0.5904  0.5169
 7017SOL    HW232685   1.819   0.549   1.995 -0.7467  0.4569  0.5227
 7018SOL     OW32686   0.837   0.805   6.839  0.2480  0.3588 -0.1976
 7018SOL    HW132687   0.853   0.895   6.867  1.3435  0.0323  0.2429
 7018SOL    HW232688   0.771   0.811   6.770  0.9092 -1.1440 -0.9906
 7019SOL     OW32689   3.330   4.438   8.918 -0.2531 -0.5076 -0.5370
 7019SOL    HW132690   3.240   4.442   8.950 -0.4415 -0.1687 -1.1105
 7019SOL    HW232691   3.342   4.352   8.879  0.6114 -0.9495  0.7035
 7020SOL     OW32692   1.219   2.220  12.436  0.2647 -0.6560 -0.0486
 7020SOL    HW132693   1.237   2.266  12.519  0.4384 -0.7241 -0.0481
 7020SOL    HW232694   1.126   2.236  12.421  0.5192  2.0937  1.1417
 7021SOL     OW32695   0.819   0.109   9.572  0.0714 -0.0401  0.0807
 7021SOL    HW132696   0.846   0.033   9.521  3.1807  0.8707  0.3464
 7021SOL    HW232697   0.897   0.159   9.599 -1.3619  2.9659 -1.3643
 7022SOL     OW32698   0.277   0.865   0.251 -0.3736  0.5402 -0.3877
 7022SOL    HW132699   0.296   0.958   0.250 -1.1975  0.7295  1.7246
 7022SOL    HW232700   0.304   0.854   0.342  0.1622 -1.3377 -0.7634
 7023SOL     OW32701   1.148   2.052   3.913 -0.1721 -0.1165 -0.1541
 7023SOL    HW132702   1.107   1.972   3.947 -2.3394  0.3335 -1.7093
 7023SOL    HW232703   1.203   2.084   3.984  0.1266  0.4367 -0.6416
 7024SOL     OW32704   3.731   3.415   6.708 -0.3082  0.0009 -0.1871
 7024SOL    HW132705   3.695   3.373   6.786 -1.8679  1.5320 -0.0989
 7024SOL    HW232706   3.802   3.457   6.757 -0.4157 -0.8666  0.7178
 7025SOL     OW32707   0.327   2.626  13.482 -0.1272  0.6711 -0.0258
 7025SOL    HW132708   0.298   2.586  13.400 -1.7674 -1.4582  1.5842
 7025SOL    HW232709   0.340   2.717  13.458  0.0131  0.2215 -1.6502
 7026SOL     OW32710   3.942   0.966   3.225  0.1063 -0.7153  0.1792
 7026SOL    HW132711   4.038   0.969   3.229  0.1214  0.1561 -0.7926
 7026SOL    HW232712   3.928   1.048   3.179 -1.8314 -2.2029 -1.9175
 7027SOL     OW32713   1.887   1.631   7.104 -0.3246 -0.2069 -0.2237
 7027SOL    HW132714   1.946   1.561   7.073  0.9399  0.7899 -0.0894
 7027SOL    HW232715   1.836   1.580   7.167  1.2965  0.8128  1.9316
 7028SOL     OW32716   3.526   0.158   2.463 -0.7040  0.1678 -0.1199
 7028SOL    HW132717   3.460   0.111   2.413 -3.0353  3.0074  0.2469
 7028SOL    HW232718   3.503   0.246   2.433 -1.6189  0.5695  1.7727
 7029SOL     OW32719   0.675   0.295   2.957 -0.4435  0.2245  0.1642
 7029SOL    HW132720   0.726   0.284   3.038 -0.8206  1.9273  0.6358
 7029SOL    HW232721   0.626   0.377   2.967 -0.2340  0.1961  1.4832
 7030SOL     OW32722   0.697   0.796   2.025  0.6773 -0.1265 -0.1509
 7030SOL    HW132723   0.641   0.724   2.052  1.3877 -0.8271 -0.5317
 7030SOL    HW232724   0.782   0.752   2.029  0.6197 -0.3403 -1.0944
 7031SOL     OW32725   0.651   0.401  17.534 -0.3766  0.1219 -0.8061
 7031SOL    HW132726   0.579   0.393  17.471  0.1592 -0.7576 -1.3118
 7031SOL    HW232727   0.603   0.414  17.615  1.5076 -1.2949  0.5183
 7032SOL     OW32728   2.277   3.047   9.902  0.2362  0.4553 -0.8476
 7032SOL    HW132729   2.364   3.074   9.934 -0.4099 -1.2670  2.3964
 7032SOL    HW232730   2.241   3.134   9.885 -1.8504  0.2826  2.6431
 7033SOL     OW32731   0.992   2.300   4.950 -0.2745  0.0042 -0.4480
 7033SOL    HW132732   1.030   2.387   4.933 -3.1387  1.6951  1.8819
 7033SOL    HW232733   0.942   2.286   4.870  0.1044  1.3099 -0.9290
 7034SOL     OW32734   1.507   2.008   5.746  0.2891  0.2189 -0.3549
 7034SOL    HW132735   1.428   1.954   5.750  0.7655 -0.4763 -0.2373
 7034SOL    HW232736   1.564   1.953   5.801 -0.8944  1.4753  2.0969
 7035SOL     OW32737   3.503   1.531   1.953  0.0345  0.4488 -0.3159
 7035SOL    HW132738   3.534   1.604   1.900  1.5957  0.1676  0.2161
 7035SOL    HW232739   3.436   1.571   2.008 -1.6693 -2.9674  0.1096
 7036SOL     OW32740   2.592   1.656   9.749 -0.1746 -0.6906  0.1222
 7036SOL    HW132741   2.542   1.685   9.825 -0.9452 -0.7999 -0.3424
 7036SOL    HW232742   2.524   1.628   9.687  0.5122 -0.4880 -0.7351
 7037SOL     OW32743   4.197   1.507   7.982 -0.2276 -0.2321 -1.0218
 7037SOL    HW132744   4.271   1.458   7.948  0.2270 -0.4778  0.3110
 7037SOL    HW232745   4.176   1.452   8.058 -0.9856  0.0219 -1.0422
 7038SOL     OW32746   2.363   0.201   2.153  0.3236 -0.2533  0.5820
 7038SOL    HW132747   2.271   0.225   2.140  0.5447 -0.4922 -1.4060
 7038SOL    HW232748   2.379   0.177   2.062  1.3579 -1.3362  1.0539
 7039SOL     OW32749   1.848   3.912   1.377 -0.1552 -0.1591 -0.3245
 7039SOL    HW132750   1.805   3.871   1.452  0.8533 -0.4045  0.1203
 7039SOL    HW232751   1.866   3.996   1.418 -0.0233  0.0861 -0.8940
 7040SOL     OW32752   2.523   3.402   6.234 -0.3564  0.4204  0.1141
 7040SOL    HW132753   2.447   3.457   6.249  0.7619  2.2788 -1.0081
 7040SOL    HW232754   2.475   3.327   6.200 -0.2974  0.8639 -0.9216
 7041SOL     OW32755   0.428   2.317   3.640 -0.4008  0.2188 -0.3768
 7041SOL    HW132756   0.499   2.365   3.597  0.5987 -0.7965  0.1280
 7041SOL    HW232757   0.367   2.318   3.566  0.1929 -2.1568 -0.9062
 7042SOL     OW32758   0.333   2.047   4.078  0.0253 -0.3699  0.4720
 7042SOL    HW132759   0.413   2.005   4.045 -0.3188  0.9893 -2.1311
 7042SOL    HW232760   0.366   2.091   4.156  1.1697  0.7607 -0.6451
 7043SOL     OW32761   1.172   4.130   5.392  0.1647 -0.5290 -0.4980
 7043SOL    HW132762   1.215   4.061   5.443 -1.3009 -0.8502  0.2838
 7043SOL    HW232763   1.083   4.107   5.417  0.1204 -0.3263 -0.4755
 7044SOL     OW32764   0.888   0.923  14.261  0.1491  0.2237 -0.1325
 7044SOL    HW132765   0.925   1.007  14.234 -1.4133  0.5523 -1.2534
 7044SOL    HW232766   0.877   0.876  14.179  0.6250 -0.7545  0.3691
 7045SOL     OW32767   1.787   4.733  16.372  0.5506 -0.6888  0.2096
 7045SOL    HW132768   1.805   0.087  16.341  1.0879 -0.7193  0.4307
 7045SOL    HW232769   1.876   4.697  16.381 -0.1118 -2.6740 -1.2056
 7046SOL     OW32770   2.488   4.381   3.773 -0.8735 -0.0063 -0.1835
 7046SOL    HW132771   2.457   4.336   3.852  0.4170 -0.3227  0.1484
 7046SOL    HW232772   2.584   4.381   3.778 -0.8108  3.0962 -1.5875
 7047SOL     OW32773   3.185   0.719   6.744 -0.2862 -0.4545 -0.8760
 7047SOL    HW132774   3.159   0.756   6.829  2.7382 -0.2503 -0.0383
 7047SOL    HW232775   3.154   0.632   6.769  1.4688 -1.0016 -0.5692
 7048SOL     OW32776   1.132   3.832   1.873  0.4731 -0.2669  0.1547
 7048SOL    HW132777   1.073   3.817   1.798  1.7758 -1.5269 -0.6298
 7048SOL    HW232778   1.110   3.757   1.928 -1.8880  0.1365 -0.2077
 7049SOL     OW32779   4.728   3.770   3.532  0.5888 -0.3425 -0.1068
 7049SOL    HW132780   4.665   3.746   3.600 -0.4473 -0.0929 -0.9701
 7049SOL    HW232781   0.075   3.742   3.573 -0.7145  0.0986  2.7674
 7050SOL     OW32782   0.788   0.213  17.367  0.0768  0.3767 -0.4121
 7050SOL    HW132783   0.805   0.265  17.288  0.7646  2.1039  0.8545
 7050SOL    HW232784   0.733   0.271  17.420 -0.4672 -0.5644  0.0578
 7051SOL     OW32785   3.387   0.537  13.435  0.2336 -0.4073 -0.1606
 7051SOL    HW132786   3.424   0.556  13.349  1.8987  0.8776  0.8390
 7051SOL    HW232787   3.293   0.556  13.438  0.2038 -0.4272 -0.8870
 7052SOL     OW32788   2.519   3.036   6.461  0.2881  0.3813 -0.4469
 7052SOL    HW132789   2.604   3.023   6.503  0.8829  1.3400 -1.3335
 7052SOL    HW232790   2.486   3.106   6.517 -1.4233  0.6986 -1.8380
 7053SOL     OW32791   4.038   1.978  12.325 -0.8053 -0.5382  0.8621
 7053SOL    HW132792   4.048   2.024  12.408 -0.1020 -0.7341  0.8871
 7053SOL    HW232793   4.128   1.950  12.307 -1.1425  0.2741 -2.0565
 7054SOL     OW32794   2.619   4.581   3.576  0.2108 -0.1357  0.1594
 7054SOL    HW132795   2.556   4.650   3.597 -1.2391 -1.5149  0.3464
 7054SOL    HW232796   2.604   4.519   3.647  0.3046 -0.9555 -0.5258
 7055SOL     OW32797   4.248   3.591   1.904 -0.0908  0.3916 -0.2577
 7055SOL    HW132798   4.169   3.638   1.929 -0.7699 -0.6429 -0.4512
 7055SOL    HW232799   4.302   3.659   1.862 -0.1821 -0.6241 -2.0387
 7056SOL     OW32800   4.304   4.139   2.370 -1.0669  0.2163 -0.1373
 7056SOL    HW132801   4.311   4.061   2.425  1.3267  0.8695  0.4805
 7056SOL    HW232802   4.242   4.190   2.421  0.5581  0.6769  1.3838
 7057SOL     OW32803   3.877   0.796   5.044 -0.1613  0.7349  0.1874
 7057SOL    HW132804   3.957   0.771   4.998 -0.4098 -0.2426  0.2801
 7057SOL    HW232805   3.819   0.788   4.968 -0.7557 -0.7359  0.7829
 7058SOL     OW32806   1.068   3.216   5.679 -0.1417 -0.3604  0.1922
 7058SOL    HW132807   1.134   3.210   5.748 -2.1005  0.1429  2.1382
 7058SOL    HW232808   1.064   3.128   5.642  1.9229 -0.2028 -0.3809
 7059SOL     OW32809   3.908   3.094  10.849  0.0603  0.2435  0.3449
 7059SOL    HW132810   3.836   3.032  10.854  2.3404 -2.2570  1.9817
 7059SOL    HW232811   3.950   3.089  10.935 -2.4960  0.0757  1.5707
 7060SOL     OW32812   4.527   4.552   8.370 -0.1686  0.5792 -0.0190
 7060SOL    HW132813   4.458   4.597   8.322  0.5876  0.2235 -1.4243
 7060SOL    HW232814   4.607   4.597   8.342 -0.6253  0.6381 -1.2061
 7061SOL     OW32815   2.572   4.049   1.956 -0.8398 -0.1563  0.1576
 7061SOL    HW132816   2.582   4.131   2.004 -0.2210 -0.2771  0.2282
 7061SOL    HW232817   2.664   4.030   1.940 -0.7851  1.9256 -2.1024
 7062SOL     OW32818   1.952   1.194   2.827  0.1059  0.1153 -0.0242
 7062SOL    HW132819   1.957   1.269   2.886  0.0929 -1.4689  1.9772
 7062SOL    HW232820   2.038   1.200   2.785  0.8584  0.4165  1.5833
 7063SOL     OW32821   1.573   3.242  17.143  0.5478  0.3360  0.2494
 7063SOL    HW132822   1.612   3.327  17.122 -1.4336  0.5132 -2.5673
 7063SOL    HW232823   1.567   3.252  17.238  1.9885  0.7485  0.3047
 7064SOL     OW32824   3.530   3.698  10.018  0.1850  0.6747 -0.0977
 7064SOL    HW132825   3.532   3.786   9.978 -1.4043 -0.4151 -2.6059
 7064SOL    HW232826   3.598   3.645   9.976 -1.0902  0.7668 -2.2829
 7065SOL     OW32827   1.897   1.914  15.192 -0.2060  0.2017  0.0137
 7065SOL    HW132828   1.894   1.861  15.113 -1.7697 -0.7011  0.6678
 7065SOL    HW232829   1.889   2.002  15.153 -1.4122 -1.0070 -2.4434
 7066SOL     OW32830   3.968   3.849   2.617  0.1638 -0.4402 -0.1038
 7066SOL    HW132831   3.991   3.884   2.531  0.9759 -2.1154 -0.5826
 7066SOL    HW232832   4.004   3.917   2.673  2.6570 -3.1391  1.5234
 7067SOL     OW32833   2.319   4.562   0.273  0.0008  0.0568 -1.0377
 7067SOL    HW132834   2.369   4.642   0.261  0.0276 -0.2157 -2.7212
 7067SOL    HW232835   2.290   4.576   0.363 -1.1441 -0.2862 -1.3414
 7068SOL     OW32836   2.386   3.534  11.632 -0.2613 -0.0659  0.3213
 7068SOL    HW132837   2.413   3.591  11.560  0.1077  2.1914  2.2757
 7068SOL    HW232838   2.328   3.470  11.590  0.7421 -1.7754  1.5267
 7069SOL     OW32839   3.448   1.423   2.278 -0.1701  0.7269  0.0501
 7069SOL    HW132840   3.417   1.452   2.192 -0.6039  2.2931  0.7368
 7069SOL    HW232841   3.446   1.511   2.316  0.3846  1.2644 -1.1683
 7070SOL     OW32842   2.069   1.312   8.613 -0.2001 -0.0303  0.3194
 7070SOL    HW132843   2.026   1.370   8.551 -2.7936  0.8647  2.9788
 7070SOL    HW232844   2.021   1.229   8.612  1.3164 -0.9269  2.0869
 7071SOL     OW32845   4.065   0.837   6.429  0.0431  0.2690  0.1558
 7071SOL    HW132846   4.011   0.765   6.396 -0.8223  1.7092 -1.4991
 7071SOL    HW232847   4.034   0.906   6.371  0.7579 -0.1918 -0.7679
 7072SOL     OW32848   4.517   2.630   4.501  0.0586  0.1275  0.0733
 7072SOL    HW132849   4.511   2.578   4.581 -1.2943 -2.0201 -1.4259
 7072SOL    HW232850   4.549   2.714   4.534  0.4292  0.3508 -0.8584
 7073SOL     OW32851   0.508   1.118  10.526  0.0790  0.1536  0.5606
 7073SOL    HW132852   0.460   1.095  10.605 -3.1113  1.4937 -0.9969
 7073SOL    HW232853   0.436   1.117  10.464  0.8947 -2.0950 -0.3478
 7074SOL     OW32854   2.574   4.120   9.318  0.1992  0.2068  0.1818
 7074SOL    HW132855   2.651   4.078   9.356  0.9438  1.6473  0.2711
 7074SOL    HW232856   2.546   4.056   9.253 -1.9077  1.0125  0.2656
 7075SOL     OW32857   3.916   3.335   0.429  0.1131  0.0863 -0.2492
 7075SOL    HW132858   3.878   3.392   0.362 -0.9457 -2.7229 -2.0199
 7075SOL    HW232859   3.965   3.269   0.381 -0.4075 -0.6576  0.2389
 7076SOL     OW32860   1.022   1.003   9.737  0.1825 -0.2407  0.3561
 7076SOL    HW132861   1.096   0.976   9.683 -0.4496  0.6896 -0.9683
 7076SOL    HW232862   0.959   1.005   9.665  1.3679  0.6274 -0.6642
 7077SOL     OW32863   4.020   0.320  15.263  0.2999 -0.2424 -0.6488
 7077SOL    HW132864   4.003   0.335  15.170  1.4157 -1.3469 -1.0312
 7077SOL    HW232865   4.053   0.230  15.261 -1.7206 -0.9671 -1.0575
 7078SOL     OW32866   0.120   3.959   9.208 -0.3157  0.3577 -0.1710
 7078SOL    HW132867   0.027   3.953   9.183 -1.2130 -1.1468  3.4934
 7078SOL    HW232868   0.143   3.866   9.210  1.6708  0.8129 -2.1588
 7079SOL     OW32869   1.976   1.018   3.477 -0.2462 -0.4837  0.4285
 7079SOL    HW132870   1.996   1.074   3.402  1.3042  0.5502  1.5989
 7079SOL    HW232871   2.016   0.936   3.448  1.6495  1.4016 -2.2590
 7080SOL     OW32872   0.524   2.375   7.790  0.1787 -0.3567  0.5795
 7080SOL    HW132873   0.535   2.469   7.778  1.5082 -0.2773  2.2183
 7080SOL    HW232874   0.523   2.349   7.698  0.9169  0.6971  0.2794
 7081SOL     OW32875   2.797   1.581  12.670  0.0383  0.5264  0.3616
 7081SOL    HW132876   2.812   1.554  12.579  1.5171 -0.6589  0.9512
 7081SOL    HW232877   2.710   1.542  12.680  0.7732 -1.2041  0.1803
 7082SOL     OW32878   3.685   0.564   7.336  0.5722  0.2578 -0.6767
 7082SOL    HW132879   3.648   0.651   7.345  0.5386 -0.0275  2.0141
 7082SOL    HW232880   3.735   0.560   7.418 -1.2381 -1.7690  0.3336
 7083SOL     OW32881   4.422   1.383  11.298  0.1343  0.0762  0.4050
 7083SOL    HW132882   4.441   1.364  11.390 -0.0825 -1.9724  0.0098
 7083SOL    HW232883   4.486   1.453  11.286  0.3196  0.1555  1.8163
 7084SOL     OW32884   2.726   0.265   9.085  0.0024 -0.2279 -0.2203
 7084SOL    HW132885   2.707   0.332   9.019 -2.2026  0.2550  0.9049
 7084SOL    HW232886   2.807   0.230   9.049 -0.3776  1.0472 -2.3087
 7085SOL     OW32887   4.242   4.169  14.068  0.1984  0.4008  0.2575
 7085SOL    HW132888   4.334   4.187  14.050  0.0388  0.8664 -0.0983
 7085SOL    HW232889   4.245   4.079  14.101 -1.3486  0.4565  0.5457
 7086SOL     OW32890   4.423   0.767   3.118  0.3917  0.8133 -0.1701
 7086SOL    HW132891   4.489   0.782   3.050  0.1636 -2.3340 -1.0628
 7086SOL    HW232892   4.366   0.843   3.101 -2.1287 -1.1205 -0.4305
 7087SOL     OW32893   2.605   1.322   8.679  0.0968 -0.2017  0.2703
 7087SOL    HW132894   2.555   1.254   8.725 -1.8319  1.9245  1.3584
 7087SOL    HW232895   2.548   1.397   8.694 -2.5891 -1.9884 -0.8758
 7088SOL     OW32896   3.108   3.451   4.942 -0.2094  0.6519  0.7276
 7088SOL    HW132897   3.107   3.409   5.028  0.2658 -2.5588 -0.7969
 7088SOL    HW232898   3.041   3.518   4.952  0.5423  0.9800  3.4756
 7089SOL     OW32899   0.793   0.879   8.948  0.4622 -0.1131 -0.6606
 7089SOL    HW132900   0.780   0.963   8.903  1.4010  0.7608  0.6845
 7089SOL    HW232901   0.711   0.839   8.921 -0.9340  0.9053  2.1156
 7090SOL     OW32902   1.637   2.471   9.260 -0.1508 -0.1405 -0.1852
 7090SOL    HW132903   1.708   2.501   9.203 -0.4451  1.9915  0.5546
 7090SOL    HW232904   1.590   2.417   9.196  0.8871  0.6205 -1.5822
 7091SOL     OW32905   4.573   0.495   8.002 -0.0707  0.0667  0.1723
 7091SOL    HW132906   4.634   0.437   7.955 -0.8067  0.3804 -1.1839
 7091SOL    HW232907   4.631   0.518   8.074  1.0544 -0.7485 -0.4642
 7092SOL     OW32908   3.446   1.682  11.112 -0.0162  0.3689  0.4395
 7092SOL    HW132909   3.498   1.759  11.132 -0.4277  1.1622 -1.5492
 7092SOL    HW232910   3.513   1.615  11.101 -0.5518 -0.2102  0.6477
 7093SOL     OW32911   3.492   0.209   0.659  0.6448 -0.4006  0.0282
 7093SOL    HW132912   3.487   0.142   0.590  0.0548 -2.8843  2.4769
 7093SOL    HW232913   3.588   0.210   0.667  0.5574 -1.3479  1.1448
 7094SOL     OW32914   3.306   2.204  15.557  0.1584 -0.6310 -0.6650
 7094SOL    HW132915   3.303   2.130  15.618 -0.3046 -1.4366 -1.6600
 7094SOL    HW232916   3.308   2.280  15.615  0.5013  0.7045 -2.4279
 7095SOL     OW32917   2.870   0.991   7.669  0.1800  0.2687 -0.0820
 7095SOL    HW132918   2.843   0.900   7.670  0.5524  0.1755  1.5858
 7095SOL    HW232919   2.965   0.986   7.656  0.4135  2.5919  0.6902
 7096SOL     OW32920   2.401   1.177  15.945 -0.1024  0.6305  0.3383
 7096SOL    HW132921   2.484   1.221  15.927  0.8870 -1.3516  0.0740
 7096SOL    HW232922   2.356   1.210  15.868  0.5405 -1.7299 -1.0419
 7097SOL     OW32923   1.581   3.406   0.829  0.2153  0.1887  0.1733
 7097SOL    HW132924   1.640   3.480   0.812  2.0797 -1.0579  1.1867
 7097SOL    HW232925   1.601   3.388   0.921 -0.1007 -0.6284  0.0840
 7098SOL     OW32926   0.675   0.276   2.683  0.2467  0.1868  0.1714
 7098SOL    HW132927   0.681   0.323   2.766 -0.6628 -1.3620  1.0999
 7098SOL    HW232928   0.693   0.186   2.710 -0.7523 -0.5579 -1.6498
 7099SOL     OW32929   0.140   1.935   2.425 -0.4283 -0.1127 -0.5040
 7099SOL    HW132930   0.219   1.924   2.371  0.5509  2.4955  0.4338
 7099SOL    HW232931   0.145   2.029   2.441 -0.2094 -0.3110  0.5880
 7100SOL     OW32932   2.956   0.892   9.439 -0.2346  0.2280 -0.2398
 7100SOL    HW132933   2.938   0.810   9.394 -0.8944  0.3209 -0.1400
 7100SOL    HW232934   2.898   0.890   9.516  1.3330 -2.0853  0.8784
 7101SOL     OW32935   3.886   2.801  13.540 -0.0233 -0.1020 -0.6835
 7101SOL    HW132936   3.840   2.875  13.501 -2.3244 -0.0711  2.1167
 7101SOL    HW232937   3.816   2.749  13.578  0.7880 -0.7817 -0.1072
 7102SOL     OW32938   2.639   4.703   1.482 -0.0649 -0.1948  0.0974
 7102SOL    HW132939   2.723   4.673   1.446  1.0257  1.3643  1.3666
 7102SOL    HW232940   2.573   4.667   1.424  1.0587 -0.4324 -1.0339
 7103SOL     OW32941   4.582   3.742  12.154 -0.2282  0.0263  0.2834
 7103SOL    HW132942   4.582   3.742  12.250  0.0829  0.4995  0.2818
 7103SOL    HW232943   4.663   3.786  12.130 -1.8345  3.0525  0.3487
 7104SOL     OW32944   2.392   2.465  16.442 -0.3445  0.4136 -0.3826
 7104SOL    HW132945   2.323   2.434  16.501 -0.9785  1.3391 -0.6426
 7104SOL    HW232946   2.459   2.401  16.464 -0.4182 -0.0224 -1.4263
 7105SOL     OW32947   3.265   0.564   8.042  0.0366 -0.2176 -0.2871
 7105SOL    HW132948   3.209   0.490   8.065  0.8312 -0.3901  1.1090
 7105SOL    HW232949   3.296   0.595   8.127 -1.9390 -1.5440  0.9416
 7106SOL     OW32950   4.336   1.320   7.842 -0.4467  0.1460  0.0324
 7106SOL    HW132951   4.384   1.248   7.800 -1.0064 -0.4256  0.3622
 7106SOL    HW232952   4.280   1.269   7.901  1.1826 -1.7550 -0.0533
 7107SOL     OW32953   2.811   0.221   8.208 -0.4569 -0.6606 -0.6522
 7107SOL    HW132954   2.787   0.313   8.222 -1.3228 -1.0137  0.2288
 7107SOL    HW232955   2.906   0.224   8.200 -0.3995 -0.3133  0.1021
 7108SOL     OW32956   0.053   3.347   6.000 -0.1486  0.2575  0.2532
 7108SOL    HW132957   0.083   3.275   5.945  2.0016  1.0017  0.4467
 7108SOL    HW232958   4.695   3.321   6.013  0.0608 -0.5414  0.1190
 7109SOL     OW32959   0.952   0.293   8.082  0.2800  0.0284  0.2737
 7109SOL    HW132960   0.918   0.242   8.156 -0.8129  0.8865  0.3684
 7109SOL    HW232961   1.044   0.272   8.095 -0.4892 -1.8229  2.7020
 7110SOL     OW32962   2.647   4.357   1.922  0.1225  0.7774  0.4443
 7110SOL    HW132963   2.579   4.384   1.861  0.2646 -1.1290 -0.5476
 7110SOL    HW232964   2.707   4.424   1.890 -0.0883  0.9583  0.4303
 7111SOL     OW32965   2.898   4.163   4.005  0.1943 -0.3827  0.6354
 7111SOL    HW132966   2.955   4.154   3.928  0.3906  0.6586  0.6669
 7111SOL    HW232967   2.830   4.100   3.981  0.1098 -0.3125  0.6920
 7112SOL     OW32968   1.885   1.988  16.153 -0.4028  0.7512  0.0142
 7112SOL    HW132969   1.863   1.895  16.153 -1.6923  1.0360  2.8026
 7112SOL    HW232970   1.829   2.020  16.224 -1.4536 -1.2849  0.0897
 7113SOL     OW32971   0.469   0.254   3.179 -0.1695 -0.1707  0.3239
 7113SOL    HW132972   0.509   0.240   3.264  3.2139  1.5213 -0.9694
 7113SOL    HW232973   0.394   0.197   3.192 -0.5215  0.5458  1.4183
 7114SOL     OW32974   2.757   0.807  17.506  0.2315 -0.4357 -0.6753
 7114SOL    HW132975   2.733   0.856  17.585  0.1213 -0.4437 -0.7041
 7114SOL    HW232976   2.742   0.720  17.543  2.8202 -0.6585 -0.1756
 7115SOL     OW32977   1.901   3.247   3.759  1.0250  0.2007  0.0505
 7115SOL    HW132978   1.917   3.191   3.682 -1.0318 -1.9421  1.1875
 7115SOL    HW232979   1.932   3.330   3.723 -1.3166  1.0189 -0.0846
 7116SOL     OW32980   0.906   3.153   1.551  0.7869 -0.6564  0.2336
 7116SOL    HW132981   0.937   3.070   1.516 -0.8304  0.1282 -3.0605
 7116SOL    HW232982   0.817   3.144   1.517  0.9549 -3.3354  0.5278
 7117SOL     OW32983   1.280   4.712  13.094  0.1709 -0.0506  0.4692
 7117SOL    HW132984   1.213   4.656  13.133 -0.1568  0.4437  0.6222
 7117SOL    HW232985   1.218   0.035  13.047 -0.8791 -1.5854  0.0182
 7118SOL     OW32986   0.557   1.354   2.310  0.3543  0.1114  0.2848
 7118SOL    HW132987   0.612   1.291   2.357 -0.0341 -0.9797 -0.7301
 7118SOL    HW232988   0.471   1.321   2.334  0.3550  0.0804  0.2447
 7119SOL     OW32989   0.460   3.434   2.065 -0.1910  0.9127  0.0746
 7119SOL    HW132990   0.435   3.427   1.973 -0.1080  2.1775 -0.0394
 7119SOL    HW232991   0.555   3.425   2.060 -0.1955  2.3472 -2.2895
 7120SOL     OW32992   2.309   3.558  15.921  0.5426 -0.5669 -0.0505
 7120SOL    HW132993   2.237   3.596  15.972  1.0405 -0.8023  0.8213
 7120SOL    HW232994   2.298   3.588  15.830  0.8911  0.4795  0.2516
 7121SOL     OW32995   4.571   1.465  10.592  0.4491 -0.3125  0.1631
 7121SOL    HW132996   4.558   1.553  10.627  1.0372 -0.2322  0.1825
 7121SOL    HW232997   4.614   1.479  10.507 -0.4239 -1.1393 -0.4242
 7122SOL     OW32998   0.480   2.232   3.319  0.2083 -0.0217  0.2845
 7122SOL    HW132999   0.427   2.179   3.377  1.5320  0.8862  2.3145
 7122SOL    HW233000   0.422   2.308   3.311 -0.4018 -0.6857 -1.7293
 7123SOL     OW33001   1.104   3.670   8.439  0.0822  0.6741 -0.2630
 7123SOL    HW133002   1.182   3.724   8.453 -0.2185  1.0683 -0.0880
 7123SOL    HW233003   1.127   3.617   8.363 -2.8721 -0.7567 -0.1710
 7124SOL     OW33004   3.861   1.351   5.824 -0.1844  0.0509 -0.3423
 7124SOL    HW133005   3.948   1.387   5.844  0.3283 -0.5378 -1.5111
 7124SOL    HW233006   3.892   1.261   5.825  1.1604  0.5389  1.3458
 7125SOL     OW33007   3.369   3.249   3.548 -0.1639  0.7056 -0.0558
 7125SOL    HW133008   3.449   3.201   3.531  0.3508  0.9416  1.7252
 7125SOL    HW233009   3.348   3.283   3.461  0.1886 -0.6463 -0.6632
 7126SOL     OW33010   2.819   4.409   5.390 -0.3933  0.3974  0.3857
 7126SOL    HW133011   2.769   4.337   5.428  1.9212 -1.2985  0.1829
 7126SOL    HW233012   2.803   4.386   5.298  1.5945  1.1832 -0.1667
 7127SOL     OW33013   1.908   0.005  17.651  0.0806 -0.2520  0.3437
 7127SOL    HW133014   1.971   4.674  17.619  1.7701  0.2139  2.7757
 7127SOL    HW233015   1.835   4.686  17.685  0.1658 -0.7454 -0.2487
 7128SOL     OW33016   1.476   0.631   5.247 -0.0987  0.3253 -0.1977
 7128SOL    HW133017   1.529   0.576   5.304 -1.1221  0.4166  0.8396
 7128SOL    HW233018   1.501   0.723   5.255 -0.8324  0.6533 -1.5752
 7129SOL     OW33019   3.224   1.121   2.135 -0.3091  0.1698 -0.8005
 7129SOL    HW133020   3.148   1.064   2.143  1.0108 -1.5569 -0.4745
 7129SOL    HW233021   3.175   1.201   2.117  0.3250  0.2321 -2.2621
 7130SOL     OW33022   1.777   3.030   5.829  0.0437  0.5286  0.4764
 7130SOL    HW133023   1.835   3.067   5.895  0.0225 -0.3770  0.9932
 7130SOL    HW233024   1.756   3.107   5.776 -0.1642  1.4714  1.9399
 7131SOL     OW33025   2.827   1.808   0.427 -0.2066  0.1925  0.1493
 7131SOL    HW133026   2.820   1.885   0.484 -1.6916  0.5769 -0.5568
 7131SOL    HW233027   2.907   1.836   0.385 -0.0776  1.1960  1.0665
 7132SOL     OW33028   3.546   0.216  14.806  0.0026  0.0629 -0.2886
 7132SOL    HW133029   3.494   0.222  14.726 -0.7278 -0.8229  0.1080
 7132SOL    HW233030   3.566   0.122  14.804  3.2248  0.7743 -1.2962
 7133SOL     OW33031   0.512   0.037   8.422 -0.4134  0.1230 -0.1916
 7133SOL    HW133032   0.489   4.711   8.494  0.3230 -1.3972 -1.2342
 7133SOL    HW233033   0.510   4.716   8.344 -0.8265 -2.5202  1.6643
 7134SOL     OW33034   0.708   1.612   7.083  0.6237  0.4778  0.0174
 7134SOL    HW133035   0.615   1.588   7.086  0.0726  2.5984  0.0125
 7134SOL    HW233036   0.697   1.700   7.121  0.0889  0.7465 -0.7485
 7135SOL     OW33037   3.206   1.431   8.977  0.0141 -0.3041  0.2665
 7135SOL    HW133038   3.285   1.378   8.988  0.1188 -0.4872 -1.3826
 7135SOL    HW233039   3.174   1.401   8.891  1.5805 -1.8469  0.2202
 7136SOL     OW33040   3.416   3.000   2.673  0.1939  0.6693  0.0672
 7136SOL    HW133041   3.327   3.036   2.680 -0.3961 -0.8089  0.1933
 7136SOL    HW233042   3.465   3.081   2.684 -0.1486  0.9006 -0.1088
 7137SOL     OW33043   2.671   2.891  16.552  0.4356 -0.8150 -0.1881
 7137SOL    HW133044   2.622   2.971  16.536  1.3651  0.0696  1.4034
 7137SOL    HW233045   2.596   2.835  16.575 -1.5401  1.5446 -0.9557
 7138SOL     OW33046   0.372   3.445   4.841  0.2928  0.3412 -0.0091
 7138SOL    HW133047   0.404   3.534   4.834  0.4696  0.2874  0.1166
 7138SOL    HW233048   0.430   3.410   4.909 -2.0204 -1.5325  1.0324
 7139SOL     OW33049   2.516   1.468   9.375  0.7199 -0.1856  0.1611
 7139SOL    HW133050   2.557   1.382   9.372 -2.2043 -1.4760 -2.9528
 7139SOL    HW233051   2.587   1.518   9.334 -0.0301  0.6004 -0.1801
 7140SOL     OW33052   0.544   0.132   9.553  0.2853  0.2937 -0.3291
 7140SOL    HW133053   0.536   0.049   9.507  1.1929 -1.1750  2.1759
 7140SOL    HW233054   0.638   0.135   9.573  0.1130 -0.7059  0.5944
 7141SOL     OW33055   4.239   0.214   5.802  0.4349 -0.3822 -0.2327
 7141SOL    HW133056   4.167   0.272   5.777  1.3835  0.6296 -0.5885
 7141SOL    HW233057   4.223   0.138   5.746 -2.2415 -0.9689  1.3011
 7142SOL     OW33058   0.274   0.517   5.597  0.3454 -0.5892 -0.4063
 7142SOL    HW133059   0.195   0.480   5.637  0.8673 -1.4376 -0.1594
 7142SOL    HW233060   0.241   0.602   5.566 -1.1708 -0.8899  0.3836
 7143SOL     OW33061   0.169   3.865  11.547 -0.3039 -0.3468 -0.4091
 7143SOL    HW133062   0.227   3.798  11.583 -1.0480 -0.2608  0.9716
 7143SOL    HW233063   0.082   3.839  11.577 -0.7290  0.6716 -0.7454
 7144SOL     OW33064   3.779   4.658   2.178  0.8636 -0.3087 -0.7687
 7144SOL    HW133065   3.742   4.654   2.266  0.4780 -0.2674 -0.9272
 7144SOL    HW233066   3.697   4.659   2.128 -0.2119 -0.8884  0.9964
 7145SOL     OW33067   2.081   3.914   7.414 -0.0663  0.4387  0.0756
 7145SOL    HW133068   2.007   3.901   7.473  0.4762 -0.4280  0.5561
 7145SOL    HW233069   2.158   3.914   7.470 -0.5081 -0.8833  0.6711
 7146SOL     OW33070   2.180   2.320  16.915  0.0001 -0.2261  0.2224
 7146SOL    HW133071   2.172   2.250  16.979 -0.2138 -1.1635 -0.8210
 7146SOL    HW233072   2.123   2.390  16.949  0.7035  0.6681 -0.4389
 7147SOL     OW33073   1.720   1.928  12.593  0.1698 -0.3013  0.2685
 7147SOL    HW133074   1.720   1.996  12.526 -0.0282 -0.6697 -0.1075
 7147SOL    HW233075   1.635   1.887  12.576  0.3847 -1.0024  0.8459
 7148SOL     OW33076   1.742   1.843   5.343 -0.9291  0.4012  0.0836
 7148SOL    HW133077   1.655   1.866   5.310 -1.3921 -0.9214  0.4096
 7148SOL    HW233078   1.722   1.769   5.400  1.9843  0.1834  0.8233
 7149SOL     OW33079   3.475   1.331  14.607  0.5329  0.3334 -0.3526
 7149SOL    HW133080   3.506   1.357  14.520  1.2438 -2.0933 -0.8471
 7149SOL    HW233081   3.435   1.411  14.640 -0.5433 -0.8305  1.1845
 7150SOL     OW33082   4.369   2.679   5.244 -0.0402  0.2085 -0.3424
 7150SOL    HW133083   4.387   2.619   5.316  1.3246  2.4050  1.1591
 7150SOL    HW233084   4.275   2.691   5.257 -0.3338 -1.3200 -1.0392
 7151SOL     OW33085   1.472   4.706   4.656 -0.2865 -0.1609  0.3525
 7151SOL    HW133086   1.392   4.709   4.709 -1.2367 -1.1228 -1.0284
 7151SOL    HW233087   1.536   4.666   4.714 -0.9630 -0.5343  0.8373
 7152SOL     OW33088   3.082   1.312   6.406  0.3967  0.4788  0.1247
 7152SOL    HW133089   3.053   1.222   6.395 -0.6766  0.7690  0.6237
 7152SOL    HW233090   3.153   1.301   6.470 -0.5244  0.8656  1.2080
 7153SOL     OW33091   1.390   4.546   8.715 -0.2385  0.0793 -0.3243
 7153SOL    HW133092   1.423   4.513   8.632 -1.2712 -1.1761 -0.2293
 7153SOL    HW233093   1.297   4.555   8.696 -0.6688 -0.6144  1.4437
 7154SOL     OW33094   1.025   0.301  14.820 -0.7782 -0.4343  0.3780
 7154SOL    HW133095   0.966   0.283  14.894 -1.2430  1.0678  0.3690
 7154SOL    HW233096   1.015   0.230  14.757  0.5567  1.9142 -2.4409
 7155SOL     OW33097   3.253   0.784  17.414  0.4229 -0.0095  0.2110
 7155SOL    HW133098   3.230   0.845  17.484 -1.6862  1.0434 -1.4152
 7155SOL    HW233099   3.180   0.723  17.423  0.6464 -0.3618 -0.4011
 7156SOL     OW33100   3.520   0.457   4.433  0.0666  0.1201 -0.0320
 7156SOL    HW133101   3.583   0.386   4.423  1.4959  1.4925 -0.7567
 7156SOL    HW233102   3.511   0.461   4.529  0.2509  0.3814 -0.0272
 7157SOL     OW33103   3.450   2.358  10.877  0.7228  0.6231 -0.2585
 7157SOL    HW133104   3.523   2.373  10.937 -0.3139  4.1077  0.1105
 7157SOL    HW233105   3.493   2.390  10.797 -2.0036 -0.0132 -1.9769
 7158SOL     OW33106   3.424   1.269  11.972  0.1202  0.1384 -0.0799
 7158SOL    HW133107   3.396   1.300  12.058 -0.7737  0.0731 -0.3401
 7158SOL    HW233108   3.410   1.352  11.927 -2.5318 -0.6601 -0.7774
 7159SOL     OW33109   0.907   3.442   1.482  0.0557  0.4932 -0.1136
 7159SOL    HW133110   0.918   3.350   1.504  0.9702  0.2703 -1.5266
 7159SOL    HW233111   0.973   3.454   1.414 -0.5014 -1.2707 -0.9619
 7160SOL     OW33112   0.594   4.570  11.070 -0.4272 -0.2129  0.1134
 7160SOL    HW133113   0.605   4.488  11.022 -0.6673  0.6794 -1.4531
 7160SOL    HW233114   0.672   4.568  11.127 -0.2781 -1.0633 -0.1265
 7161SOL     OW33115   2.721   3.739   2.900  0.3961 -0.3290  0.1631
 7161SOL    HW133116   2.662   3.664   2.896  2.8318 -2.2527  0.1493
 7161SOL    HW233117   2.767   3.718   2.819 -0.0485 -0.7654  0.0250
 7162SOL     OW33118   2.570   3.664   5.424 -0.2742 -0.3565 -0.3200
 7162SOL    HW133119   2.535   3.737   5.475 -0.1929 -0.7739  0.3333
 7162SOL    HW233120   2.487   3.641   5.383 -0.4752  0.9886 -0.6942
 7163SOL     OW33121   2.254   1.183  17.030  0.1399 -0.5904 -0.0199
 7163SOL    HW133122   2.339   1.178  17.073  0.2884 -0.8749 -0.3487
 7163SOL    HW233123   2.272   1.151  16.941  2.2853  0.4261  0.0376
 7164SOL     OW33124   1.096   0.377   7.584 -0.3893  0.3994 -0.4108
 7164SOL    HW133125   1.189   0.393   7.601 -0.5600  0.8428  0.1170
 7164SOL    HW233126   1.087   0.284   7.565 -0.5068  0.2276  0.5044
 7165SOL     OW33127   0.182   2.149   4.463  0.3529  0.7608  0.7904
 7165SOL    HW133128   0.124   2.220   4.491  0.4833  1.2608 -0.1855
 7165SOL    HW233129   0.252   2.205   4.428  1.4583 -1.3168 -0.2964
 7166SOL     OW33130   2.405   4.717   9.148  0.5354  0.0702  0.2783
 7166SOL    HW133131   2.370   4.652   9.209  1.1193 -1.0610 -0.5762
 7166SOL    HW233132   2.471   0.033   9.196  0.7779 -0.8794  0.9423
 7167SOL     OW33133   1.648   3.671  13.383  0.0974 -0.0340 -0.8552
 7167SOL    HW133134   1.570   3.704  13.426  1.9669  1.5942  1.2677
 7167SOL    HW233135   1.662   3.739  13.318  2.2294  1.5784  1.3078
 7168SOL     OW33136   0.628   4.159   2.130 -0.0106  0.9128 -0.0171
 7168SOL    HW133137   0.670   4.233   2.087  0.6767  1.5400  1.7263
 7168SOL    HW233138   0.686   4.087   2.106 -0.5635  0.4710 -0.0366
 7169SOL     OW33139   0.027   1.272  17.455 -0.1569 -0.0339  0.0411
 7169SOL    HW133140   4.720   1.357  17.439  0.8315  0.4453  0.0613
 7169SOL    HW233141   4.732   1.255  17.545 -1.2516  0.7268 -0.1827
 7170SOL     OW33142   1.006   1.994   0.527  0.2973 -0.3340  0.0961
 7170SOL    HW133143   1.058   2.004   0.607  1.1964  0.9899 -0.6438
 7170SOL    HW233144   1.008   2.081   0.486  3.5556 -0.4865 -0.0390
 7171SOL     OW33145   3.787   3.409   2.173  0.1452 -0.0278  0.3475
 7171SOL    HW133146   3.757   3.378   2.087  4.3268 -0.4977 -0.9480
 7171SOL    HW233147   3.882   3.408   2.165  0.0347 -1.1958 -0.8987
 7172SOL     OW33148   0.430   0.246   2.549 -0.0565  0.4129  0.0097
 7172SOL    HW133149   0.502   0.237   2.611 -0.6339 -0.5357  0.5481
 7172SOL    HW233150   0.386   0.330   2.557 -2.8377 -1.2876  2.6117
 7173SOL     OW33151   0.325   1.672  11.342 -0.1471  0.7394  0.7853
 7173SOL    HW133152   0.351   1.753  11.297  1.1813 -0.8293 -1.2867
 7173SOL    HW233153   0.405   1.627  11.313  0.6664  2.1731  0.8123
 7174SOL     OW33154   2.486   3.400   3.232  0.4014 -0.3395 -0.4185
 7174SOL    HW133155   2.496   3.334   3.301  1.3025  1.3153  1.0257
 7174SOL    HW233156   2.411   3.366   3.183 -0.1806  0.6772 -0.2216
 7175SOL     OW33157   2.401   0.099   0.188 -0.0351  0.2707 -0.1753
 7175SOL    HW133158   2.419   0.112   0.281 -1.9230 -3.3904  0.7215
 7175SOL    HW233159   2.305   0.108   0.184 -0.3009 -1.0216  3.3179
 7176SOL     OW33160   3.307   3.057   3.073  0.2896 -0.3967 -0.4831
 7176SOL    HW133161   3.294   2.970   3.035  1.5402  0.4378 -2.8615
 7176SOL    HW233162   3.384   3.031   3.124  1.6892  0.1806 -2.3020
 7177SOL     OW33163   1.958   1.452  10.766  0.0928 -0.1794 -0.4096
 7177SOL    HW133164   2.013   1.482  10.838 -0.5372  1.3452 -0.5583
 7177SOL    HW233165   2.033   1.440  10.708  0.3606 -0.4370 -0.0066
 7178SOL     OW33166   2.862   4.418   3.063 -0.1554  0.0036 -0.5572
 7178SOL    HW133167   2.835   4.503   3.028  1.8719 -0.1035 -2.2964
 7178SOL    HW233168   2.956   4.434   3.063  0.0125 -0.9677  1.4878
 7179SOL     OW33169   0.088   1.464   6.584  0.1227  0.5902 -0.1939
 7179SOL    HW133170   0.166   1.476   6.638  0.1172 -2.5323  0.4760
 7179SOL    HW233171   0.062   1.376   6.612  1.8283  0.2330  0.2797
 7180SOL     OW33172   1.675   1.651  14.114  0.0700  0.6328 -0.0574
 7180SOL    HW133173   1.588   1.616  14.094 -0.5656  1.7268  0.7554
 7180SOL    HW233174   1.727   1.575  14.140 -1.3523  0.2761  1.7662
 7181SOL     OW33175   2.462   2.832   8.178  0.4211 -0.4309 -0.1197
 7181SOL    HW133176   2.495   2.921   8.172 -2.3262  0.4874 -1.5124
 7181SOL    HW233177   2.372   2.852   8.153 -0.2508 -4.8496 -1.2573
 7182SOL     OW33178   1.816   1.126   2.278 -0.4191  0.0549 -0.0429
 7182SOL    HW133179   1.868   1.147   2.200 -2.0184 -2.2823 -1.7272
 7182SOL    HW233180   1.728   1.129   2.241  0.7882  2.7967 -2.6536
 7183SOL     OW33181   4.220   1.237   5.019  0.2380  0.0471 -0.2355
 7183SOL    HW133182   4.239   1.299   5.090 -0.5635  0.8956 -0.7649
 7183SOL    HW233183   4.125   1.241   5.022  0.2681  0.1071  0.7718
 7184SOL     OW33184   3.545   3.936   9.890 -0.3255  0.3076 -0.1081
 7184SOL    HW133185   3.586   3.942   9.804  0.2523  2.4815  0.3177
 7184SOL    HW233186   3.613   3.980   9.941  0.1586  0.7926 -1.1665
 7185SOL     OW33187   2.535   4.440   7.985  0.4307 -0.1330  0.0513
 7185SOL    HW133188   2.572   4.357   7.957  1.4032  0.2763  0.1237
 7185SOL    HW233189   2.500   4.478   7.904  0.6047 -1.3560 -0.5962
 7186SOL     OW33190   2.912   2.157   6.711 -0.1359 -0.4595 -0.2479
 7186SOL    HW133191   2.979   2.200   6.658 -1.0054  0.5780 -0.5186
 7186SOL    HW233192   2.917   2.065   6.685 -1.5645 -0.0317 -2.0655
 7187SOL     OW33193   0.241   3.625   6.639 -0.5348  0.0212  0.1834
 7187SOL    HW133194   0.202   3.555   6.586 -0.0750 -1.6004  2.0229
 7187SOL    HW233195   0.315   3.648   6.583 -0.3490  0.3045  0.5452
 7188SOL     OW33196   1.853   3.285   7.044  0.4305  0.0262 -0.3493
 7188SOL    HW133197   1.926   3.237   7.084  0.1296  0.6654  0.9678
 7188SOL    HW233198   1.788   3.216   7.042  1.4445 -0.8945 -1.8569
 7189SOL     OW33199   2.223   4.065   5.761 -0.4291 -0.1639  0.0950
 7189SOL    HW133200   2.203   4.046   5.853  0.7480 -0.3951  0.2997
 7189SOL    HW233201   2.221   3.983   5.712 -1.1779 -0.8917  1.3628
 7190SOL     OW33202   4.659   3.224  14.288  0.1235  0.7776 -0.7620
 7190SOL    HW133203   4.679   3.316  14.266 -0.2295  0.6009 -1.8500
 7190SOL    HW233204   4.670   3.183  14.202  1.0903  2.8938 -1.6557
 7191SOL     OW33205   0.954   2.911   1.381 -0.6560 -0.1078 -0.0121
 7191SOL    HW133206   0.982   2.968   1.309  3.0197 -1.2863  0.5095
 7191SOL    HW233207   0.990   2.826   1.360 -0.1406  0.9050 -3.1939
 7192SOL     OW33208   1.578   1.032   1.103 -0.0662 -0.3486 -0.1903
 7192SOL    HW133209   1.638   1.102   1.078  0.9070 -0.3980  2.0170
 7192SOL    HW233210   1.596   0.970   1.032  0.2207 -1.5321  0.9192
 7193SOL     OW33211   0.713   2.856  10.158  0.1897  0.3008 -0.6638
 7193SOL    HW133212   0.618   2.868  10.153  0.1301  0.8581  1.6270
 7193SOL    HW233213   0.726   2.810  10.075  0.1817 -0.2256 -0.3685
 7194SOL     OW33214   1.145   2.835   8.818  0.6562  0.1288  0.1766
 7194SOL    HW133215   1.143   2.750   8.862 -1.6983 -0.2007 -0.5912
 7194SOL    HW233216   1.215   2.880   8.866  1.4934  0.5507 -1.4464
 7195SOL     OW33217   0.026   0.999   8.175 -0.0041 -0.5140 -0.1043
 7195SOL    HW133218   0.102   1.053   8.197  0.3694 -1.4444  0.9002
 7195SOL    HW233219   0.066   0.941   8.110  0.6102 -1.8935  1.4971
 7196SOL     OW33220   1.607   0.316   8.618  0.1935 -0.5737 -0.3241
 7196SOL    HW133221   1.668   0.321   8.691 -2.3321  2.7026  1.5701
 7196SOL    HW233222   1.588   0.223   8.609 -1.5129 -0.2704  0.0912
 7197SOL     OW33223   0.883   0.424   8.412 -0.2581  0.2795  0.2638
 7197SOL    HW133224   0.820   0.353   8.418 -0.4688  0.5727  1.7113
 7197SOL    HW233225   0.965   0.380   8.435 -0.1154 -0.8736 -2.5490
 7198SOL     OW33226   4.540   0.550   5.453 -0.1769 -0.2253 -0.1116
 7198SOL    HW133227   4.605   0.488   5.486 -1.0520 -0.7227  0.7089
 7198SOL    HW233228   4.457   0.511   5.482  0.9587 -1.4595  1.4677
 7199SOL     OW33229   2.447   4.496   7.224  0.3511 -0.0306  0.1957
 7199SOL    HW133230   2.457   4.429   7.293 -0.4429 -1.0831 -0.7215
 7199SOL    HW233231   2.477   4.575   7.270 -0.6991 -0.9268  2.4260
 7200SOL     OW33232   2.959   1.603   2.212 -0.0537 -0.3223 -0.1350
 7200SOL    HW133233   2.879   1.631   2.257 -0.3831  0.4402 -1.2059
 7200SOL    HW233234   3.028   1.660   2.248  2.6035 -2.7970 -1.3562
 7201SOL     OW33235   3.164   1.652   1.871  0.3767 -0.2046 -0.3194
 7201SOL    HW133236   3.189   1.575   1.820  2.5216  0.3856 -0.1329
 7201SOL    HW233237   3.193   1.726   1.817 -0.3705  1.6334  1.7771
 7202SOL     OW33238   3.685   3.579   1.468  0.4379  0.4151  0.0892
 7202SOL    HW133239   3.686   3.673   1.447 -0.1053 -0.0775 -2.1925
 7202SOL    HW233240   3.775   3.558   1.442  0.0554  0.0967 -0.9836
 7203SOL     OW33241   0.371   0.096  11.465 -0.1963 -0.3758  0.3602
 7203SOL    HW133242   0.399   0.051  11.386 -0.2425  2.0529 -1.0375
 7203SOL    HW233243   0.380   0.022  11.525 -0.7937 -0.0888  0.8018
 7204SOL     OW33244   0.932   3.540   5.536  0.1641 -0.5214 -0.0276
 7204SOL    HW133245   0.938   3.500   5.622 -1.5322 -1.1691 -0.2142
 7204SOL    HW233246   0.959   3.470   5.477  0.8721 -1.5476  1.5126
 7205SOL     OW33247   2.172   2.421   7.779  0.3352  0.1479 -0.0667
 7205SOL    HW133248   2.217   2.342   7.750 -1.0151 -0.8771  0.6304
 7205SOL    HW233249   2.180   2.478   7.702  2.0322  1.6912  1.2540
 7206SOL     OW33250   1.034   2.416   1.766  0.1455  0.0021  0.5572
 7206SOL    HW133251   1.056   2.437   1.857  0.3496 -0.8344  0.7028
 7206SOL    HW233252   1.097   2.345   1.754  1.3082  0.5482  3.4919
 7207SOL     OW33253   0.768   2.721   6.536 -0.6032  0.9669  0.1895
 7207SOL    HW133254   0.675   2.698   6.530 -0.3847 -0.0286  0.6890
 7207SOL    HW233255   0.774   2.749   6.627  2.0598 -1.4579  0.7472
 7208SOL     OW33256   2.615   0.746   6.088 -0.4528 -0.1168 -0.4461
 7208SOL    HW133257   2.658   0.778   6.008  2.1484  0.9604  1.4194
 7208SOL    HW233258   2.530   0.709   6.060  0.4972 -2.1810 -0.6254
 7209SOL     OW33259   0.101   1.026  16.350  0.1448  0.8570 -0.4766
 7209SOL    HW133260   0.149   1.106  16.368  4.1773 -1.8573  0.9636
 7209SOL    HW233261   0.126   0.980  16.430 -0.5493  0.0062 -0.7488
 7210SOL     OW33262   4.669   3.472  16.443  0.0026  0.5079 -0.1437
 7210SOL    HW133263   4.719   3.391  16.432  0.1237  0.4061  1.1342
 7210SOL    HW233264   4.651   3.475  16.537 -0.6484 -0.6886 -0.2349
 7211SOL     OW33265   2.111   2.923   4.014  0.0906 -0.2330  0.5280
 7211SOL    HW133266   2.098   3.018   4.014 -0.6052 -0.3242 -0.3432
 7211SOL    HW233267   2.199   2.920   3.976 -1.0141  1.3415 -2.1991
 7212SOL     OW33268   3.227   3.894   7.168 -0.1385  0.0865  0.3512
 7212SOL    HW133269   3.195   3.913   7.256 -1.7446  3.3453 -0.9596
 7212SOL    HW233270   3.313   3.932   7.186  0.2022 -0.6708  0.3436
 7213SOL     OW33271   4.316   3.358   2.009  0.3558  0.3502 -0.2467
 7213SOL    HW133272   4.315   3.450   1.983  2.8169  0.6762  0.8408
 7213SOL    HW233273   4.221   3.351   2.002  0.1160  0.2264  2.8903
 7214SOL     OW33274   2.010   3.689  10.011  0.5491  0.4424  0.3707
 7214SOL    HW133275   1.930   3.728  10.047  0.1166  0.4171 -0.5741
 7214SOL    HW233276   2.064   3.666  10.087 -2.3842  0.5650  2.4758
 7215SOL     OW33277   3.402   3.879   1.504  0.4243 -0.6275 -0.3565
 7215SOL    HW133278   3.390   3.806   1.443 -0.5103 -0.0356 -0.8717
 7215SOL    HW233279   3.388   3.838   1.589  1.8810  0.8795  0.6203
 7216SOL     OW33280   0.163   4.110   7.907  0.3993  0.2304  0.1564
 7216SOL    HW133281   0.200   4.067   7.829  0.9425 -2.1402  1.7264
 7216SOL    HW233282   0.069   4.118   7.889  0.4197 -1.3186 -0.6175
 7217SOL     OW33283   1.698   2.014   7.971 -0.6727 -0.0380 -0.0720
 7217SOL    HW133284   1.610   1.976   7.968 -1.6388  2.1655 -0.0247
 7217SOL    HW233285   1.681   2.108   7.960 -1.3184 -0.0924  0.4912
 7218SOL     OW33286   3.250   3.017   2.347  0.0478  0.0235  0.3674
 7218SOL    HW133287   3.167   3.065   2.348 -0.1702 -0.3642  1.2474
 7218SOL    HW233288   3.298   3.049   2.271  0.5307 -1.0368  0.2293
 7219SOL     OW33289   1.364   2.336   3.286  0.3831 -0.2536 -0.2579
 7219SOL    HW133290   1.460   2.331   3.276  0.3819  0.6511 -0.7351
 7219SOL    HW233291   1.330   2.262   3.237 -0.1374 -1.5015  1.9890
 7220SOL     OW33292   1.537   2.950  17.301  0.1345 -0.5782  0.0103
 7220SOL    HW133293   1.465   2.939  17.239 -0.0303 -2.6967  0.5977
 7220SOL    HW233294   1.557   3.044  17.305 -0.2660 -0.6495  4.2855
 7221SOL     OW33295   3.946   2.998   1.432  0.4630 -0.5723 -0.0377
 7221SOL    HW133296   3.879   3.047   1.480  0.8019  0.0093 -0.1624
 7221SOL    HW233297   3.889   2.932   1.394  0.4994  0.4893 -1.8971
 7222SOL     OW33298   3.783   1.459   3.472 -0.2417 -0.6613 -0.3003
 7222SOL    HW133299   3.744   1.468   3.559  1.9774 -2.0827  0.8495
 7222SOL    HW233300   3.782   1.364   3.457 -1.4762 -0.5153 -1.1330
 7223SOL     OW33301   1.072   0.328  10.176 -0.0177  0.2752 -0.3474
 7223SOL    HW133302   1.079   0.419  10.206  2.1239 -0.1216  0.4022
 7223SOL    HW233303   1.097   0.280  10.255 -0.0922  0.9150  0.0665
 7224SOL     OW33304   3.123   3.892   1.758 -0.0433  0.0034  0.4984
 7224SOL    HW133305   3.198   3.874   1.815 -0.5047 -0.0152  1.0997
 7224SOL    HW233306   3.163   3.961   1.705 -1.3591 -0.5459 -1.2261
 7225SOL     OW33307   1.327   2.903  10.653  0.4078  0.1139  0.0280
 7225SOL    HW133308   1.313   2.982  10.601 -1.0558  0.2855  0.6731
 7225SOL    HW233309   1.422   2.908  10.659  0.3236 -0.4816  1.6800
 7226SOL     OW33310   0.959   0.028   9.839 -0.4767  0.0180 -0.4090
 7226SOL    HW133311   0.893   0.076   9.888  0.3595  1.1674 -0.4129
 7226SOL    HW233312   1.028   0.009   9.902 -1.0653  1.1693  0.5594
 7227SOL     OW33313   0.986   3.811   1.668 -0.3183  0.5148  0.1029
 7227SOL    HW133314   0.932   3.732   1.667 -0.6604  0.7560 -0.2590
 7227SOL    HW233315   1.025   3.810   1.580  1.6067  1.4305  0.9432
 7228SOL     OW33316   1.166   0.353   1.281  0.3068 -0.4037 -0.6075
 7228SOL    HW133317   1.256   0.382   1.267  0.8258 -2.6160 -1.8456
 7228SOL    HW233318   1.134   0.337   1.192  0.1111 -0.9981 -0.4323
 7229SOL     OW33319   3.938   2.127  16.200 -0.1868 -0.2237  0.0496
 7229SOL    HW133320   3.876   2.095  16.135 -0.0198  1.2487 -0.8324
 7229SOL    HW233321   3.910   2.080  16.279 -0.1364 -0.7310 -0.2369
 7230SOL     OW33322   0.383   0.272   9.732  0.0807  0.2558  0.1075
 7230SOL    HW133323   0.438   0.228   9.667 -1.3757 -1.0198 -0.2636
 7230SOL    HW233324   0.388   0.366   9.712  0.5350  0.1494 -0.2792
 7231SOL     OW33325   3.039   1.281   0.857 -0.4000  0.6045  0.2204
 7231SOL    HW133326   3.055   1.364   0.900  0.5129 -0.6705  2.3407
 7231SOL    HW233327   3.061   1.216   0.924 -1.1087  0.0953 -0.0331
 7232SOL     OW33328   3.016   0.674  17.441  0.2306 -0.1990 -0.6431
 7232SOL    HW133329   2.990   0.613  17.373  1.5328  0.2488 -1.5328
 7232SOL    HW233330   2.948   0.741  17.439 -1.7004 -2.0993  1.1325
 7233SOL     OW33331   3.306   3.775   6.253 -0.4424  0.3614 -0.5741
 7233SOL    HW133332   3.261   3.811   6.177  2.1378  0.7569 -1.9110
 7233SOL    HW233333   3.345   3.696   6.217 -1.0163  0.0184 -0.4497
 7234SOL     OW33334   2.438   0.918  17.079 -0.5317 -0.1874 -0.0149
 7234SOL    HW133335   2.499   0.913  17.152 -1.9651  0.6214  1.2324
 7234SOL    HW233336   2.486   0.870  17.012  0.0070  0.7017 -0.2655
 7235SOL     OW33337   2.386   3.318   6.891  0.1063 -0.4080  0.0642
 7235SOL    HW133338   2.312   3.283   6.940 -0.6278 -0.7800 -1.3086
 7235SOL    HW233339   2.349   3.406   6.885  1.4589  0.1300 -0.3822
 7236SOL     OW33340   3.177   2.903   7.516 -0.1349  0.6975 -0.0764
 7236SOL    HW133341   3.227   2.963   7.460  0.8877 -0.6440 -0.5898
 7236SOL    HW233342   3.099   2.896   7.461  0.5370  0.2729 -0.9685
 7237SOL     OW33343   0.192   0.868  16.584  0.5456 -0.3141  0.2005
 7237SOL    HW133344   0.113   0.825  16.616  0.3481  0.7008  1.0847
 7237SOL    HW233345   0.203   0.931  16.655  0.8877  0.5302 -0.6020
 7238SOL     OW33346   0.243   0.056   9.633  0.0849 -0.0401  0.1738
 7238SOL    HW133347   0.304   4.725   9.668  0.7767 -0.7069 -2.3191
 7238SOL    HW233348   0.297   0.133   9.653  1.0377 -1.2853  2.5072
 7239SOL     OW33349   0.512   0.400  16.409  0.1695 -0.3419  0.0314
 7239SOL    HW133350   0.451   0.348  16.462  2.0147 -0.7626  1.7611
 7239SOL    HW233351   0.516   0.488  16.447 -1.2866 -0.4439  0.4204
 7240SOL     OW33352   0.942   3.728   9.105 -0.0672 -0.3838  0.2593
 7240SOL    HW133353   0.858   3.682   9.102  1.2799 -2.8552  1.0422
 7240SOL    HW233354   1.003   3.660   9.133  0.9143  0.6670  0.6846
 7241SOL     OW33355   4.682   0.731   9.585  0.4335  0.8533 -0.3988
 7241SOL    HW133356   4.637   0.810   9.555  0.3826  1.2967  0.8418
 7241SOL    HW233357   0.030   0.734   9.536 -0.0121  0.7546 -1.1529
 7242SOL     OW33358   0.101   0.765   8.362 -0.1199 -0.6869 -0.3960
 7242SOL    HW133359   0.121   0.828   8.293  0.6005 -1.0161 -0.4863
 7242SOL    HW233360   0.017   0.805   8.387  0.6649 -0.5229  1.9873
 7243SOL     OW33361   3.754   2.800   3.858 -0.3652 -0.3101  0.1933
 7243SOL    HW133362   3.815   2.750   3.804  0.6920  2.6484 -1.2970
 7243SOL    HW233363   3.670   2.758   3.838  0.8148 -2.5892 -0.0198
 7244SOL     OW33364   0.455   2.970   9.726  0.1530 -0.6106 -0.6950
 7244SOL    HW133365   0.471   2.926   9.643 -3.1783 -3.1452  0.0381
 7244SOL    HW233366   0.403   3.037   9.682  1.9434  1.5242  0.4169
 7245SOL     OW33367   1.458   0.873   6.049 -0.4421 -0.1418 -0.1083
 7245SOL    HW133368   1.541   0.916   6.071  0.0550 -0.6601 -0.9499
 7245SOL    HW233369   1.489   0.819   5.976 -0.5105  1.2988 -1.2070
 7246SOL     OW33370   3.675   4.084   5.078  0.7111 -0.3628  0.0196
 7246SOL    HW133371   3.614   4.019   5.112  2.4086 -1.3720  1.1447
 7246SOL    HW233372   3.720   4.110   5.158  1.1634 -1.7996  0.2317
 7247SOL     OW33373   2.420   1.233   9.155 -0.6161  0.8852 -0.0520
 7247SOL    HW133374   2.377   1.159   9.196  0.0505  0.3204 -0.3753
 7247SOL    HW233375   2.466   1.268   9.231 -1.9963 -0.2399  1.2922
 7248SOL     OW33376   3.787   0.358   7.881  0.6849  0.0855 -0.5153
 7248SOL    HW133377   3.700   0.346   7.844  1.2546 -2.3997 -1.0659
 7248SOL    HW233378   3.823   0.269   7.884  1.6320  0.4496 -1.2352
 7249SOL     OW33379   4.453   1.407   6.139  0.5140  0.0934  0.0270
 7249SOL    HW133380   4.495   1.385   6.222 -0.8794 -0.4058  0.6092
 7249SOL    HW233381   4.511   1.477   6.108 -0.3815  0.4412 -0.8935
 7250SOL     OW33382   1.342   0.528  10.435  0.0558  0.3061  0.2552
 7250SOL    HW133383   1.343   0.500  10.343  1.0495 -1.0295  0.6720
 7250SOL    HW233384   1.367   0.444  10.473  0.5434 -0.3856 -1.5637
 7251SOL     OW33385   3.997   4.281   0.914  0.6489 -0.6207  0.6233
 7251SOL    HW133386   4.027   4.226   0.841  2.8359  0.0729  0.9840
 7251SOL    HW233387   4.067   4.334   0.952 -0.5604 -0.0748  2.0805
 7252SOL     OW33388   3.617   3.718   3.241 -0.5486 -0.0010  1.1190
 7252SOL    HW133389   3.595   3.771   3.164  0.1851 -0.6372  0.4704
 7252SOL    HW233390   3.664   3.641   3.210 -3.6239 -1.6540  0.5715
 7253SOL     OW33391   0.688   1.028   3.947  0.0438  0.2746  0.1591
 7253SOL    HW133392   0.731   1.027   3.862  1.3545 -0.5227  0.8198
 7253SOL    HW233393   0.744   0.961   3.988  0.2856  1.0485  1.0857
 7254SOL     OW33394   1.585   3.200   0.624 -0.1315  0.7633 -0.2181
 7254SOL    HW133395   1.547   3.284   0.650  0.2133  0.7418  0.3540
 7254SOL    HW233396   1.520   3.177   0.557 -0.0644 -0.5365  0.1546
 7255SOL     OW33397   1.574   2.828   6.368  0.2675  0.4009 -0.8358
 7255SOL    HW133398   1.606   2.799   6.283  3.5402 -0.8375  0.8509
 7255SOL    HW233399   1.482   2.848   6.348 -0.2050  0.0693  1.0578
 7256SOL     OW33400   2.784   3.497   6.272 -0.5937  0.2919  0.5165
 7256SOL    HW133401   2.724   3.456   6.334 -0.6894  0.2040  0.3658
 7256SOL    HW233402   2.726   3.536   6.206 -2.1512  0.1982  1.8296
 7257SOL     OW33403   3.932   0.496   3.189  0.4411 -0.1774  0.1293
 7257SOL    HW133404   3.848   0.519   3.230  0.8458 -0.2610  0.9981
 7257SOL    HW233405   3.987   0.564   3.228  0.5718  0.3012 -0.8771
 7258SOL     OW33406   2.698   0.172  16.550  0.5427  0.3877  0.1100
 7258SOL    HW133407   2.710   0.230  16.475 -1.1220 -2.7146 -2.5669
 7258SOL    HW233408   2.686   0.086  16.509 -0.5763  1.6776 -2.2548
 7259SOL     OW33409   2.176   0.077   7.687 -0.1311 -0.1592  0.1182
 7259SOL    HW133410   2.241   0.138   7.652 -0.2674 -1.4654 -2.3618
 7259SOL    HW233411   2.113   0.139   7.726 -0.5762  0.8295 -2.1684
 7260SOL     OW33412   2.746   1.206  11.649  0.1583  0.8890  0.4959
 7260SOL    HW133413   2.707   1.136  11.597  0.4844  1.3846 -0.4071
 7260SOL    HW233414   2.834   1.211  11.612 -0.3116 -0.2235 -0.7611
 7261SOL     OW33415   1.173   0.672   1.630 -0.2133 -0.4581  0.2819
 7261SOL    HW133416   1.246   0.612   1.614  1.3091  1.5426 -0.2846
 7261SOL    HW233417   1.210   0.744   1.579  2.3604 -2.0781 -0.1480
 7262SOL     OW33418   1.709   1.307   9.766 -0.6225  1.0423 -0.0113
 7262SOL    HW133419   1.652   1.283   9.839 -0.5148  2.9602  0.6819
 7262SOL    HW233420   1.682   1.397   9.753 -2.1598  0.0891 -3.3439
 7263SOL     OW33421   0.649   4.141   4.390  0.0682 -0.3573  0.4852
 7263SOL    HW133422   0.637   4.235   4.377  1.4163  0.4254  4.9205
 7263SOL    HW233423   0.560   4.123   4.420 -0.5914 -0.2169 -1.4045
 7264SOL     OW33424   2.343   2.041   3.635 -0.0235  0.2239  0.8699
 7264SOL    HW133425   2.251   2.059   3.652 -0.0052  0.4773  0.6893
 7264SOL    HW233426   2.345   1.950   3.605  3.5288  1.1658 -1.6900
 7265SOL     OW33427   1.303   0.584   4.023  0.3543  0.3986 -0.2987
 7265SOL    HW133428   1.316   0.531   4.101 -0.1010  1.2339  0.3385
 7265SOL    HW233429   1.348   0.536   3.953  0.8442 -1.1337  1.0678
 7266SOL     OW33430   2.570   1.799  11.086  0.2283 -0.4274 -0.3883
 7266SOL    HW133431   2.587   1.874  11.143  1.6658 -0.0433 -1.3298
 7266SOL    HW233432   2.641   1.817  11.024 -0.5167  3.1060 -0.2136
 7267SOL     OW33433   3.385   2.451   6.581 -0.3400  0.0877 -0.1635
 7267SOL    HW133434   3.391   2.546   6.596 -1.6111  0.2222 -0.5349
 7267SOL    HW233435   3.377   2.426   6.673  0.0646  1.0612  0.1371
 7268SOL     OW33436   2.176   1.334   4.741  0.1762  0.1794  0.2482
 7268SOL    HW133437   2.096   1.293   4.774  1.2348 -1.1314  1.1973
 7268SOL    HW233438   2.150   1.413   4.695 -0.5137 -1.9135 -2.9963
 7269SOL     OW33439   0.052   4.623   8.805  0.1703  0.2927 -0.5812
 7269SOL    HW133440   0.075   4.530   8.803  0.9958  0.4419  2.1928
 7269SOL    HW233441   4.702   4.625   8.759 -0.1172 -2.0883 -0.1627
 7270SOL     OW33442   1.806   3.035   1.622 -0.0583  0.9341 -0.0854
 7270SOL    HW133443   1.726   3.088   1.632 -2.3145 -2.6834  1.2811
 7270SOL    HW233444   1.855   3.064   1.699 -0.0562 -0.5393  0.4580
 7271SOL     OW33445   0.880   0.426  17.168 -0.3713  0.4015  0.0518
 7271SOL    HW133446   0.955   0.368  17.158  1.5966  2.8355  0.4361
 7271SOL    HW233447   0.915   0.498  17.115 -0.0880  0.3992  0.2309
 7272SOL     OW33448   3.174   2.316   5.115  0.5856 -0.0583 -0.8377
 7272SOL    HW133449   3.261   2.284   5.138  0.9903 -0.0814 -2.3813
 7272SOL    HW233450   3.189   2.353   5.028 -1.8421  1.6342 -0.5355
 7273SOL     OW33451   0.044   4.498  13.503  0.0377 -0.3651  0.0919
 7273SOL    HW133452   4.698   4.541  13.474 -0.5243 -0.4451  1.4889
 7273SOL    HW233453   0.104   4.542  13.443  0.1736 -1.7223 -0.7727
 7274SOL     OW33454   3.205   4.364   5.813  0.0839  0.2233 -0.3419
 7274SOL    HW133455   3.295   4.365   5.781  0.3952 -0.5785  0.4956
 7274SOL    HW233456   3.197   4.272   5.840 -0.4626 -0.0869 -1.5577
 7275SOL     OW33457   4.333   4.458  17.022 -0.2694 -0.3215  0.2995
 7275SOL    HW133458   4.324   4.373  17.066  0.0133 -0.2989  0.4008
 7275SOL    HW233459   4.297   4.506  17.096 -2.5212 -0.1406 -0.9151
 7276SOL     OW33460   2.317   3.022   7.810 -0.3450 -0.4523  0.1553
 7276SOL    HW133461   2.329   2.965   7.886  0.8002  0.2364  0.4970
 7276SOL    HW233462   2.308   2.955   7.742  1.2538 -0.7900  0.2757
 7277SOL     OW33463   3.793   4.400   5.285 -0.4116 -0.8194  0.1672
 7277SOL    HW133464   3.855   4.467   5.256 -1.4014 -0.2206 -0.5480
 7277SOL    HW233465   3.726   4.406   5.217 -0.1700 -2.1622 -0.2045
 7278SOL     OW33466   4.278   4.558   5.452 -0.0478  0.5732  0.2538
 7278SOL    HW133467   4.196   4.604   5.435 -1.3098 -1.0408  1.9400
 7278SOL    HW233468   4.334   4.630   5.480 -0.7466  0.1857  2.6752
 7279SOL     OW33469   0.940   1.804   3.337  0.0850  0.5491  0.4295
 7279SOL    HW133470   0.959   1.895   3.314 -2.1927  1.2529  1.3423
 7279SOL    HW233471   0.845   1.812   3.328  0.0131 -0.1444  0.5574
 7280SOL     OW33472   1.688   2.392  15.092  0.5564 -0.0765  0.5698
 7280SOL    HW133473   1.627   2.334  15.136 -1.1675  1.1870 -0.1479
 7280SOL    HW233474   1.651   2.399  15.004 -0.7647  2.2685  1.3142
 7281SOL     OW33475   3.397   0.940   6.725 -0.0572  0.6121 -0.0748
 7281SOL    HW133476   3.462   0.941   6.795  1.3047 -0.9741 -1.3265
 7281SOL    HW233477   3.340   0.865   6.741  1.1392 -0.1963  0.3226
 7282SOL     OW33478   0.028   1.254  10.528 -0.0655 -0.4164  0.1548
 7282SOL    HW133479   0.100   1.280  10.470 -0.7911 -0.9304 -0.9979
 7282SOL    HW233480   0.071   1.229  10.609 -1.2130  1.8480  1.4527
 7283SOL     OW33481   3.851   2.143   2.324  0.2461 -0.1334 -0.5271
 7283SOL    HW133482   3.874   2.196   2.248  3.2096 -0.2847  0.2730
 7283SOL    HW233483   3.903   2.186   2.391 -2.0862 -0.4708  1.5134
 7284SOL     OW33484   3.048   4.063   4.971  0.5509  0.1588 -0.3097
 7284SOL    HW133485   3.026   3.978   5.009 -1.7817 -0.4335 -3.0350
 7284SOL    HW233486   3.045   4.024   4.884  0.0559  1.3606 -0.8300
 7285SOL     OW33487   1.219   1.408   3.721 -0.2986  0.6434  0.0180
 7285SOL    HW133488   1.305   1.404   3.763  0.3832 -3.3352 -1.7307
 7285SOL    HW233489   1.169   1.442   3.795 -0.4532 -1.9592  1.1101
 7286SOL     OW33490   2.845   3.329   0.787  0.1968 -0.1339 -0.3664
 7286SOL    HW133491   2.811   3.251   0.744  0.2224 -0.6654  0.5725
 7286SOL    HW233492   2.814   3.305   0.875  2.0216 -1.8898 -0.2112
 7287SOL     OW33493   2.197   1.237   1.954  0.3646 -0.2162  0.1936
 7287SOL    HW133494   2.206   1.155   1.905  3.4823  0.6381 -0.6724
 7287SOL    HW233495   2.175   1.303   1.889  0.6665 -0.0819  0.2268
 7288SOL     OW33496   2.155   0.728   2.240 -0.0548 -0.7235  0.0064
 7288SOL    HW133497   2.086   0.663   2.252 -0.3345 -0.2303  1.0697
 7288SOL    HW233498   2.226   0.690   2.188 -0.1609  0.0527 -0.7080
 7289SOL     OW33499   0.232   3.158  15.927 -0.1223  0.3049  0.6875
 7289SOL    HW133500   0.278   3.242  15.936  0.0853  0.4507 -1.8452
 7289SOL    HW233501   0.159   3.182  15.985 -0.5971  2.7410 -0.9166
 7290SOL     OW33502   3.731   1.730   7.149 -0.2047  0.0727  0.0108
 7290SOL    HW133503   3.644   1.721   7.189  0.4834 -1.2944  1.2259
 7290SOL    HW233504   3.747   1.636   7.143 -0.7401 -0.0698  0.7622
 7291SOL     OW33505   1.250   0.652   4.777  0.2158 -0.2032  0.2632
 7291SOL    HW133506   1.196   0.588   4.730 -1.7073  1.0732  0.7075
 7291SOL    HW233507   1.274   0.598   4.852  1.2549 -0.1510 -0.0255
 7292SOL     OW33508   2.824   3.441   7.641 -0.3519 -0.0155  0.3436
 7292SOL    HW133509   2.865   3.450   7.555  0.8826  0.9701  1.0504
 7292SOL    HW233510   2.815   3.346   7.649  0.8246 -0.1002  0.6347
 7293SOL     OW33511   1.346   4.695   2.288  0.1719  0.2578 -0.6262
 7293SOL    HW133512   1.368   4.639   2.213 -0.9908  2.0429 -2.2639
 7293SOL    HW233513   1.252   4.683   2.301  0.4043 -1.4817 -0.5569
 7294SOL     OW33514   1.137   3.779   3.893 -0.3123 -0.2602 -0.2714
 7294SOL    HW133515   1.183   3.729   3.960  0.4141 -2.3042 -2.3056
 7294SOL    HW233516   1.061   3.809   3.942 -0.4576  0.2132 -0.7872
 7295SOL     OW33517   1.614   2.350   4.110  0.3241  0.2968  0.1844
 7295SOL    HW133518   1.660   2.268   4.130  0.8522  1.7679  4.9265
 7295SOL    HW233519   1.556   2.348   4.186  1.4922  0.5171  1.0824
 7296SOL     OW33520   3.852   3.814   8.682 -0.1192 -0.2359  0.2615
 7296SOL    HW133521   3.763   3.833   8.711 -0.0586  0.6618 -0.1603
 7296SOL    HW233522   3.880   3.778   8.766  0.2051 -1.9469 -0.5674
 7297SOL     OW33523   3.760   0.362  14.801  0.1745  0.4530 -0.3655
 7297SOL    HW133524   3.692   0.295  14.805 -1.6948  2.4304  1.6605
 7297SOL    HW233525   3.697   0.433  14.786 -1.7643 -1.1153  0.4251
 7298SOL     OW33526   2.647   2.298  10.437 -0.1756 -0.0681 -0.3252
 7298SOL    HW133527   2.559   2.329  10.413 -0.3167 -1.5391 -1.6626
 7298SOL    HW233528   2.627   2.220  10.488  0.8185 -1.2758 -1.7892
 7299SOL     OW33529   0.519   1.415   9.635  0.0511  0.5934  0.4887
 7299SOL    HW133530   0.573   1.474   9.689  0.9825  0.2867 -0.1119
 7299SOL    HW233531   0.568   1.333   9.640  2.3312  2.0481  2.0696
 7300SOL     OW33532   4.038   2.418   6.147 -0.0646  0.5140 -0.4668
 7300SOL    HW133533   4.018   2.474   6.222 -2.9719  1.4675 -1.9521
 7300SOL    HW233534   4.076   2.482   6.087 -1.2382  0.9153 -0.7702
 7301SOL     OW33535   1.834   3.592   1.429 -0.3055 -0.4578  0.4746
 7301SOL    HW133536   1.819   3.498   1.442  1.5418 -1.0753 -1.7505
 7301SOL    HW233537   1.755   3.618   1.381  0.4214  0.9463  0.0649
 7302SOL     OW33538   1.495   1.479  10.225  0.3598  0.0636 -0.4624
 7302SOL    HW133539   1.516   1.412  10.290 -0.6945  0.0297 -0.1567
 7302SOL    HW233540   1.582   1.495  10.189  0.9961  0.2391  1.1701
 7303SOL     OW33541   0.528   3.755   5.204  1.1008  0.3404 -0.0361
 7303SOL    HW133542   0.616   3.731   5.175  1.7724  1.0561  1.4013
 7303SOL    HW233543   0.506   3.686   5.266  1.9191  4.1370  4.4195
 7304SOL     OW33544   4.073   3.135   0.680 -0.4234 -0.1013  0.3854
 7304SOL    HW133545   4.166   3.116   0.671 -0.4054  0.0590  0.2391
 7304SOL    HW233546   4.068   3.202   0.612  3.3240 -1.4779 -1.2409
 7305SOL     OW33547   4.125   4.067   3.491 -0.3674 -0.1509  0.3432
 7305SOL    HW133548   4.077   4.031   3.565  0.7971 -0.5097  0.9167
 7305SOL    HW233549   4.171   3.998   3.442 -0.5511  0.0847 -0.1633
 7306SOL     OW33550   2.495   0.783   2.963  0.4194  0.0525  0.7111
 7306SOL    HW133551   2.537   0.717   2.908  0.9367  0.8183  0.1937
 7306SOL    HW233552   2.472   0.837   2.888  0.7225 -1.2094 -0.2826
 7307SOL     OW33553   2.088   1.233  14.870 -0.4092  0.2822  0.0700
 7307SOL    HW133554   2.110   1.293  14.942  0.6137 -1.5373  1.2595
 7307SOL    HW233555   2.028   1.172  14.912 -0.0490 -0.0314  0.1286
 7308SOL     OW33556   2.909   0.191   1.084 -0.7298 -0.4433 -0.2813
 7308SOL    HW133557   2.823   0.185   1.042  0.6163  0.1785 -3.1275
 7308SOL    HW233558   2.927   0.097   1.074 -0.1209 -0.3149 -0.4308
 7309SOL     OW33559   4.320   0.629  14.903  0.3734 -0.2175 -0.6156
 7309SOL    HW133560   4.402   0.616  14.854  0.9561  2.3380 -0.3323
 7309SOL    HW233561   4.344   0.701  14.961 -2.1409  0.6387 -0.6656
 7310SOL     OW33562   2.592   1.335   3.018  0.2198 -0.2712  0.6100
 7310SOL    HW133563   2.547   1.251   3.023 -0.4907  0.0800  0.0678
 7310SOL    HW233564   2.656   1.311   2.951  1.3349  0.1456  1.5264
 7311SOL     OW33565   2.298   4.614  11.752  0.3072  0.4060  0.1467
 7311SOL    HW133566   2.301   4.630  11.846  0.1447 -1.0426  0.3879
 7311SOL    HW233567   2.390   4.637  11.738  0.7289 -1.1547  0.4513
 7312SOL     OW33568   4.533   3.288   8.614  0.2193 -0.2157 -0.5067
 7312SOL    HW133569   4.515   3.355   8.680 -1.6028 -1.1385 -0.0813
 7312SOL    HW233570   4.535   3.208   8.666 -1.7224  0.1908  0.1896
 7313SOL     OW33571   0.042   2.138   8.708  0.1496  0.3746  0.0513
 7313SOL    HW133572   4.686   2.146   8.739 -0.2083 -0.5978 -0.7402
 7313SOL    HW233573   0.054   2.044   8.715 -0.5637  0.2406 -0.5152
 7314SOL     OW33574   1.963   3.229   9.578 -0.3840  0.1215 -0.0870
 7314SOL    HW133575   1.982   3.160   9.642  0.0105  0.5814  0.2941
 7314SOL    HW233576   1.886   3.264   9.622 -0.8082  0.4538 -1.1051
 7315SOL     OW33577   2.631   4.464  11.892  0.3414 -0.0279  0.0332
 7315SOL    HW133578   2.556   4.416  11.927  1.0846 -1.5410 -0.4577
 7315SOL    HW233579   2.705   4.413  11.926 -0.0265 -0.2056  0.5638
 7316SOL     OW33580   1.453   4.057   5.157 -0.5133 -0.1837  0.4410
 7316SOL    HW133581   1.464   4.019   5.245 -1.2297 -0.8323  0.2503
 7316SOL    HW233582   1.450   3.971   5.115  0.2863 -0.4150  0.8519
 7317SOL     OW33583   2.368   4.297   5.532  0.2601 -0.0815  0.3242
 7317SOL    HW133584   2.453   4.252   5.540 -0.2484 -1.1108 -0.0815
 7317SOL    HW233585   2.331   4.276   5.617  3.1152 -0.8792  1.3847
 7318SOL     OW33586   2.394   2.683  11.330  0.8724 -0.4364 -0.2406
 7318SOL    HW133587   2.393   2.590  11.308  0.8980  0.2742 -3.1302
 7318SOL    HW233588   2.413   2.676  11.424 -1.4939 -1.4643  0.1710
 7319SOL     OW33589   2.381   1.152   1.695  0.3406  0.3729  0.3720
 7319SOL    HW133590   2.374   1.095   1.618  2.0962  1.5334 -0.6614
 7319SOL    HW233591   2.354   1.087   1.759 -0.6652 -1.2237 -1.6682
 7320SOL     OW33592   2.108   0.316   6.547 -0.2092 -0.1325 -0.3139
 7320SOL    HW133593   2.085   0.296   6.638  1.5033 -0.4721  0.0484
 7320SOL    HW233594   2.086   0.237   6.498 -1.2188  0.7826 -1.3259
 7321SOL     OW33595   2.498   0.763  12.097 -0.0992 -0.8109  0.0285
 7321SOL    HW133596   2.454   0.799  12.174  1.4400  2.6045 -0.6801
 7321SOL    HW233597   2.546   0.691  12.139  1.1713 -0.1644 -0.3186
 7322SOL     OW33598   3.576   3.794   1.789 -0.1635  0.0659 -0.5869
 7322SOL    HW133599   3.514   3.736   1.745  1.5811 -2.3452  0.1194
 7322SOL    HW233600   3.626   3.729   1.838  2.2301  1.5796 -1.0250
 7323SOL     OW33601   1.740   3.025  10.461  0.3209  0.6532 -0.3951
 7323SOL    HW133602   1.724   2.958  10.527  0.5015  2.8330  1.8683
 7323SOL    HW233603   1.655   3.031  10.418 -0.2191  0.3197  0.6602
 7324SOL     OW33604   1.895   0.046  13.133 -0.0236  0.3353  0.2351
 7324SOL    HW133605   1.908   4.695  13.173 -0.5844  0.3882  0.5187
 7324SOL    HW233606   1.822   0.084  13.181 -1.1345  0.1271 -1.2994
 7325SOL     OW33607   3.079   0.350   8.174 -0.4671  0.1775 -1.0345
 7325SOL    HW133608   3.021   0.418   8.138  0.8265 -0.9849 -5.2958
 7325SOL    HW233609   3.083   0.380   8.265  0.5813  0.6548 -1.2400
 7326SOL     OW33610   2.880   0.169   2.195 -0.4682  0.2516  0.6836
 7326SOL    HW133611   2.962   0.188   2.240 -1.0247  1.5308  1.1519
 7326SOL    HW233612   2.860   0.083   2.230 -0.9240 -0.4155 -1.2167
 7327SOL     OW33613   4.361   2.975   7.524 -0.0291 -0.2759  0.3173
 7327SOL    HW133614   4.321   3.057   7.553  0.5349 -0.0499  0.4609
 7327SOL    HW233615   4.446   3.006   7.492 -1.0904  0.9604 -1.2949
 7328SOL     OW33616   1.269   1.313   3.149 -0.4064  0.1285  0.0225
 7328SOL    HW133617   1.311   1.323   3.234  1.1252 -0.0108 -0.7104
 7328SOL    HW233618   1.176   1.317   3.172 -0.4967  3.1148 -0.9525
 7329SOL     OW33619   2.056   1.616   9.229  0.7514  0.5563  0.2434
 7329SOL    HW133620   2.131   1.569   9.192  1.0592  0.5152  0.9204
 7329SOL    HW233621   2.077   1.708   9.211 -0.7937  0.5948 -1.4319
 7330SOL     OW33622   2.725   1.046   3.804  0.3458 -0.6289 -0.3037
 7330SOL    HW133623   2.753   0.956   3.790  1.8278  0.0864 -1.8916
 7330SOL    HW233624   2.803   1.100   3.797 -0.4091  0.1120 -3.0333
 7331SOL     OW33625   2.594   3.964   6.328  0.0525  0.0880  0.0076
 7331SOL    HW133626   2.545   4.036   6.367  1.0360 -0.5355  2.4085
 7331SOL    HW233627   2.673   3.951   6.381  0.1690  0.5155 -0.0643
 7332SOL     OW33628   3.543   0.636   3.510 -0.2436  0.0368  0.1849
 7332SOL    HW133629   3.580   0.683   3.435 -1.0507 -0.5602 -0.5940
 7332SOL    HW233630   3.453   0.632   3.477  0.1722  1.9091 -1.1523
 7333SOL     OW33631   2.878   3.382   5.121 -0.6443 -0.1777 -0.4768
 7333SOL    HW133632   2.789   3.349   5.121 -1.0292  0.8566 -0.0084
 7333SOL    HW233633   2.926   3.328   5.184 -2.1361 -1.9881 -0.9277
 7334SOL     OW33634   0.260   0.097   6.491 -0.5022  0.4477  0.1963
 7334SOL    HW133635   0.205   0.105   6.569 -0.6434 -3.4741  0.5128
 7334SOL    HW233636   0.249   0.182   6.450 -1.8783 -0.4501 -1.3402
 7335SOL     OW33637   4.534   1.743  14.796 -0.1322  0.1341  0.3716
 7335SOL    HW133638   4.450   1.780  14.769 -0.0359 -1.1240 -1.5815
 7335SOL    HW233639   4.512   1.667  14.850  0.5788  1.4638  2.5457
 7336SOL     OW33640   2.441   3.786   5.144  0.3994  0.3528  0.5609
 7336SOL    HW133641   2.527   3.759   5.177  0.8198  1.9536  0.7923
 7336SOL    HW233642   2.448   3.880   5.161 -0.5497  0.4817  0.2289
 7337SOL     OW33643   4.264   0.426  15.606 -0.3273  0.5802 -0.0051
 7337SOL    HW133644   4.274   0.398  15.697  0.7780  1.0048  0.0025
 7337SOL    HW233645   4.355   0.443  15.583  0.1256 -0.4974  0.9866
 7338SOL     OW33646   3.743   0.679  11.508 -0.1428 -0.1400  0.1624
 7338SOL    HW133647   3.807   0.722  11.565  1.5985  1.8432 -3.2492
 7338SOL    HW233648   3.698   0.607  11.552  3.0194 -2.2149 -0.0105
 7339SOL     OW33649   2.452   3.908   4.019 -0.0440  0.2318 -0.3089
 7339SOL    HW133650   2.384   3.931   3.955  0.4656 -1.0082 -1.3143
 7339SOL    HW233651   2.454   3.815   3.998 -1.3802  0.0025  0.5793
 7340SOL     OW33652   1.072   3.109   3.514  0.0742 -0.3128  0.1495
 7340SOL    HW133653   1.024   3.192   3.514 -1.1385 -1.0174 -0.3125
 7340SOL    HW233654   1.067   3.091   3.420  0.3224  0.2971  0.0174
 7341SOL     OW33655   2.225   0.545   8.737 -0.4596 -0.2752 -0.3022
 7341SOL    HW133656   2.136   0.526   8.707 -0.1252 -0.4549 -1.1860
 7341SOL    HW233657   2.222   0.633   8.775 -0.7532 -0.9440  1.2143
 7342SOL     OW33658   3.052   4.066   3.386  0.7101  0.0406  1.0430
 7342SOL    HW133659   3.118   4.123   3.346  0.0349  2.4218  3.3698
 7342SOL    HW233660   2.994   4.127   3.431 -0.8616 -1.3697  0.9105
 7343SOL     OW33661   3.584   0.063   3.807  0.2853  0.2658 -0.7466
 7343SOL    HW133662   3.638   0.139   3.827  0.0983 -0.7980  3.6422
 7343SOL    HW233663   3.610   4.733   3.873  0.0407  0.7460 -0.1912
 7344SOL     OW33664   1.726   4.078   8.587  0.5144 -0.4976  0.3219
 7344SOL    HW133665   1.798   4.082   8.524  1.2680 -0.0072  1.2095
 7344SOL    HW233666   1.651   4.127   8.554  0.2172  0.2598  2.1339
 7345SOL     OW33667   3.230   0.305   7.806 -0.3697  0.2343 -0.3411
 7345SOL    HW133668   3.299   0.239   7.801 -1.0117 -0.6625  2.7249
 7345SOL    HW233669   3.281   0.386   7.813  0.3472 -0.3332  1.1469
 7346SOL     OW33670   3.458   4.490   0.361 -0.6589  0.0770  0.0446
 7346SOL    HW133671   3.417   4.430   0.300 -0.7080 -0.0601  0.2115
 7346SOL    HW233672   3.550   4.478   0.336 -0.9619 -1.7897 -0.1629
 7347SOL     OW33673   3.305   3.820  10.774 -0.0436 -0.2210 -0.3004
 7347SOL    HW133674   3.237   3.847  10.836  1.0012 -0.2923  0.8668
 7347SOL    HW233675   3.299   3.724  10.777  1.9942 -0.3914 -1.5219
 7348SOL     OW33676   1.636   2.142   4.956  0.4913  0.7991  0.2025
 7348SOL    HW133677   1.667   2.176   5.040 -1.3826  0.2511  1.1340
 7348SOL    HW233678   1.541   2.133   4.960  0.5018  0.5603 -0.0867
 7349SOL     OW33679   1.809   0.339   9.141  0.1534  0.4894 -0.1748
 7349SOL    HW133680   1.884   0.392   9.164 -0.2780  1.2913 -0.6294
 7349SOL    HW233681   1.844   0.253   9.165  0.0361  0.0650 -1.5183
 7350SOL     OW33682   3.842   1.264   0.303  0.1984 -0.2872  0.2321
 7350SOL    HW133683   3.788   1.313   0.364  0.9648  0.8743 -0.0248
 7350SOL    HW233684   3.790   1.184   0.291 -0.0077 -0.1328  0.0979
 7351SOL     OW33685   1.394   0.380   2.034  0.1348 -0.3474 -0.8954
 7351SOL    HW133686   1.328   0.434   1.989 -1.0366 -0.1595  1.0692
 7351SOL    HW233687   1.382   0.414   2.122 -0.5422 -2.3823 -0.2326
 7352SOL     OW33688   4.630   3.680   6.991  0.2847 -0.1675  0.5062
 7352SOL    HW133689   4.708   3.691   6.938 -0.1957 -1.3696 -0.4603
 7352SOL    HW233690   4.564   3.643   6.932 -1.1360  0.0373  1.9845
 7353SOL     OW33691   3.572   2.233   2.384 -0.4851  0.1611 -0.4499
 7353SOL    HW133692   3.597   2.229   2.291 -1.0797 -1.3982 -0.5449
 7353SOL    HW233693   3.622   2.314   2.394  0.6141 -0.6616  0.7177
 7354SOL     OW33694   1.424   3.980   2.519  0.1336 -0.6061  0.3871
 7354SOL    HW133695   1.372   4.019   2.449  0.2982 -2.1339 -0.5827
 7354SOL    HW233696   1.431   4.052   2.581 -1.2372 -1.2961  1.3532
 7355SOL     OW33697   1.599   4.162   6.474  0.0825 -0.0477  0.4270
 7355SOL    HW133698   1.515   4.202   6.450  0.9912  2.3450  1.1781
 7355SOL    HW233699   1.648   4.189   6.396 -0.1534  1.7016  0.8779
 7356SOL     OW33700   4.720   3.197  17.201  0.2753  0.0779 -0.7002
 7356SOL    HW133701   0.005   3.225  17.112  2.3727  0.2419 -0.1848
 7356SOL    HW233702   0.057   3.227  17.258 -1.6105 -1.0155  2.2214
 7357SOL     OW33703   2.379   3.329   2.695 -0.6121 -0.2649 -0.4529
 7357SOL    HW133704   2.301   3.283   2.664 -1.8059  0.1250  1.9648
 7357SOL    HW233705   2.410   3.351   2.608  0.9224  1.7819  0.6171
 7358SOL     OW33706   4.356   1.679   2.463  0.1764 -0.6933 -0.1629
 7358SOL    HW133707   4.428   1.631   2.423 -0.0469 -1.4571  0.3383
 7358SOL    HW233708   4.380   1.658   2.554 -0.8188  2.3068  0.7894
 7359SOL     OW33709   1.138   1.801   6.555 -0.7691 -0.4919  0.3178
 7359SOL    HW133710   1.065   1.814   6.615  0.0334 -1.3829  1.5089
 7359SOL    HW233711   1.178   1.720   6.587  0.4443  0.3071  0.8407
 7360SOL     OW33712   3.978   0.342   5.479  0.1527 -0.0386 -0.0437
 7360SOL    HW133713   3.927   0.414   5.442  2.1329  1.2065 -0.3443
 7360SOL    HW233714   3.918   0.274   5.507 -1.3412  0.8055 -1.1986
 7361SOL     OW33715   2.039   4.422  15.564  0.3929  0.0630  0.4246
 7361SOL    HW133716   2.032   4.508  15.605 -0.9398 -0.5740  1.5122
 7361SOL    HW233717   2.018   4.358  15.632 -0.7921  1.0637  0.9836
 7362SOL     OW33718   2.391   2.364   5.163 -0.4172 -0.3469 -0.6131
 7362SOL    HW133719   2.397   2.270   5.176  0.6697  0.1260  2.1893
 7362SOL    HW233720   2.478   2.403   5.169 -0.2414 -0.8595  0.0303
 7363SOL     OW33721   2.880   0.399   5.437  0.4144 -0.5219 -0.3455
 7363SOL    HW133722   2.923   0.318   5.412  1.6288 -0.6188  2.0020
 7363SOL    HW233723   2.933   0.433   5.510  1.3678  1.0655 -1.7773
 7364SOL     OW33724   4.078   2.690   8.059 -0.1471  0.0668  0.2971
 7364SOL    HW133725   4.051   2.771   8.015 -0.1318 -0.6325 -0.9993
 7364SOL    HW233726   3.996   2.642   8.053  0.5177 -0.5523 -3.4255
 7365SOL     OW33727   0.092   4.464   6.072  0.1830 -0.0388  0.2382
 7365SOL    HW133728   0.093   4.413   5.991 -0.4359  0.9006 -0.3681
 7365SOL    HW233729   0.176   4.509   6.076 -0.9242  1.9660  1.1027
 7366SOL     OW33730   2.348   4.073   1.595 -0.2127 -0.4772  0.1816
 7366SOL    HW133731   2.442   4.054   1.603 -0.3853 -0.9366  1.0892
 7366SOL    HW233732   2.316   4.073   1.685 -0.7144  1.7106 -0.0051
 7367SOL     OW33733   3.901   1.667   4.590  0.1527 -0.1359  0.1554
 7367SOL    HW133734   3.807   1.656   4.602  0.4085 -0.9032  1.4942
 7367SOL    HW233735   3.936   1.579   4.604  1.0498  0.2897  0.5574
 7368SOL     OW33736   2.983   3.560   2.027 -0.0831  0.1423  0.2029
 7368SOL    HW133737   3.026   3.541   2.110 -1.8425 -1.4354  0.7286
 7368SOL    HW233738   2.934   3.640   2.046 -0.1568  0.0140  0.5448
 7369SOL     OW33739   2.961   0.168   3.457 -0.1380 -0.1114  0.2469
 7369SOL    HW133740   2.983   0.080   3.427  0.4856  0.0165  0.3320
 7369SOL    HW233741   2.967   0.151   3.551 -0.0932 -0.3961  0.1928
 7370SOL     OW33742   3.123   0.505   0.671 -0.2159 -0.6226 -0.2491
 7370SOL    HW133743   3.211   0.503   0.634  0.3058 -1.0636  1.0288
 7370SOL    HW233744   3.135   0.483   0.763 -1.4373 -0.7568 -0.1267
 7371SOL     OW33745   0.856   3.221   7.573  0.1071  0.7198 -0.1173
 7371SOL    HW133746   0.856   3.173   7.490 -1.6893 -0.2059  0.4073
 7371SOL    HW233747   0.845   3.145   7.629 -0.6882  0.5083 -0.5517
 7372SOL     OW33748   0.378   0.498  13.696 -0.0428 -0.5150 -0.0947
 7372SOL    HW133749   0.394   0.478  13.789  0.2443 -0.4477 -0.1283
 7372SOL    HW233750   0.463   0.468  13.663  0.9463  0.3003  1.6882
 7373SOL     OW33751   2.561   4.600   4.552 -0.2393 -0.4911 -0.3740
 7373SOL    HW133752   2.655   4.602   4.535 -0.5005 -0.1957 -1.7546
 7373SOL    HW233753   2.556   4.509   4.582 -0.7083 -0.3456 -0.0055
 7374SOL     OW33754   3.881   1.633  16.795  0.0425 -0.4673  0.1471
 7374SOL    HW133755   3.856   1.582  16.872  0.2214 -0.1725  0.3969
 7374SOL    HW233756   3.931   1.704  16.834 -0.7619  0.4429 -0.4418
 7375SOL     OW33757   4.671   3.484  14.227  0.5137  0.3117  0.1970
 7375SOL    HW133758   4.727   3.552  14.188 -0.6824  1.4102  0.4019
 7375SOL    HW233759   4.600   3.497  14.165  1.0648  0.7748 -0.3467
 7376SOL     OW33760   3.384   2.147  12.288 -0.3603  0.3903  0.6640
 7376SOL    HW133761   3.327   2.148  12.365  0.1189  1.9390  0.9947
 7376SOL    HW233762   3.445   2.216  12.317  0.6620 -0.3722  0.3081
 7377SOL     OW33763   0.232   0.740   6.239  0.3761  0.3394  0.0807
 7377SOL    HW133764   0.247   0.832   6.219 -0.3257  0.4099 -0.1079
 7377SOL    HW233765   0.141   0.730   6.210 -0.1871  2.9973  0.9870
 7378SOL     OW33766   1.124   3.000   5.009  0.2453  0.4289 -0.5802
 7378SOL    HW133767   1.093   2.957   5.088  0.1967  0.5558 -0.5305
 7378SOL    HW233768   1.041   3.045   4.994  0.5303  1.6091  1.4131
 7379SOL     OW33769   0.787   2.755   9.552  0.1776  0.4103  0.0051
 7379SOL    HW133770   0.854   2.805   9.505 -0.3692  1.6006  0.4666
 7379SOL    HW233771   0.803   2.776   9.644 -2.8609  0.1011  0.6134
 7380SOL     OW33772   2.715   3.555   2.400  0.1983  0.0963 -0.2287
 7380SOL    HW133773   2.680   3.470   2.427 -2.7087  1.5105  0.3565
 7380SOL    HW233774   2.791   3.525   2.351 -1.3488 -3.0389 -0.6843
 7381SOL     OW33775   2.369   2.283  15.996 -0.4274  0.2796  0.2150
 7381SOL    HW133776   2.297   2.276  15.934  1.4569  0.3636 -1.9978
 7381SOL    HW233777   2.422   2.207  15.973  0.3485  1.4489 -1.8218
 7382SOL     OW33778   0.510   0.946   3.540 -0.4372 -0.4147 -0.1446
 7382SOL    HW133779   0.544   0.992   3.463  0.7196 -1.3619 -0.1948
 7382SOL    HW233780   0.440   0.889   3.506 -1.2345 -0.5061  1.6325
 7383SOL     OW33781   2.521   3.858   7.647 -0.0359 -0.3843 -0.1540
 7383SOL    HW133782   2.557   3.773   7.672 -0.4185 -0.3017  0.6973
 7383SOL    HW233783   2.605   3.903   7.641 -0.2283  0.1762  1.2696
 7384SOL     OW33784   2.688   1.846   9.095 -0.4342  0.1017 -0.5817
 7384SOL    HW133785   2.710   1.753   9.106  0.6672  0.3244 -0.9112
 7384SOL    HW233786   2.742   1.876   9.022  0.2698 -2.4440 -1.0952
 7385SOL     OW33787   4.157   0.387   2.214 -0.2622 -0.1673 -0.2340
 7385SOL    HW133788   4.155   0.379   2.309 -0.4455  0.2493 -0.1994
 7385SOL    HW233789   4.064   0.394   2.194 -0.5845 -2.8543  0.3865
 7386SOL     OW33790   2.129   1.981  13.677 -0.3860 -0.3453  0.0040
 7386SOL    HW133791   2.052   2.036  13.663 -0.3962 -0.7605 -1.4900
 7386SOL    HW233792   2.176   2.041  13.735  1.2679 -1.5641 -0.0767
 7387SOL     OW33793   1.792   0.769   6.741 -0.6502  0.5329 -0.1391
 7387SOL    HW133794   1.819   0.741   6.828 -1.6073 -0.1564 -0.0728
 7387SOL    HW233795   1.716   0.712   6.729 -0.9166  0.9283 -0.3627
 7388SOL     OW33796   3.420   0.769   4.670 -0.0898 -0.1137  0.3097
 7388SOL    HW133797   3.504   0.762   4.625 -0.1612 -0.1645  0.1816
 7388SOL    HW233798   3.454   0.732   4.751 -0.7224  0.8216  1.0014
 7389SOL     OW33799   1.732   2.449   1.751 -0.1638  0.1275  0.0709
 7389SOL    HW133800   1.758   2.540   1.762  0.7331  0.2270 -2.9188
 7389SOL    HW233801   1.639   2.466   1.732  0.2746  1.5380 -0.8024
 7390SOL     OW33802   2.704   2.400   2.322  0.3714 -0.0288  0.2320
 7390SOL    HW133803   2.783   2.435   2.363  0.2562 -0.4027  0.7673
 7390SOL    HW233804   2.665   2.353   2.395  0.6489  1.1075  1.1057
 7391SOL     OW33805   0.796   3.909   5.781 -0.0452 -0.3443 -0.8353
 7391SOL    HW133806   0.775   3.882   5.871  0.5396  1.3480 -0.1917
 7391SOL    HW233807   0.846   3.989   5.800  0.5273 -1.6357  3.0926
 7392SOL     OW33808   1.745   4.629   0.471 -0.2663  0.0776 -0.7995
 7392SOL    HW133809   1.812   4.636   0.539 -0.4092  2.2744 -0.8981
 7392SOL    HW233810   1.798   4.644   0.393  0.5953  0.5297 -0.1267
 7393SOL     OW33811   4.610   4.694  14.862 -0.2931 -0.2238 -0.0007
 7393SOL    HW133812   4.658   4.663  14.938  0.1014 -0.6589 -0.4258
 7393SOL    HW233813   4.634   4.624  14.801  1.9664  0.3797  0.1754
 7394SOL     OW33814   3.719   2.476  12.568  1.0292 -0.3012  0.3780
 7394SOL    HW133815   3.775   2.503  12.495  0.6941 -2.2733 -0.6085
 7394SOL    HW233816   3.682   2.395  12.533  0.1562  0.9642 -1.6226
 7395SOL     OW33817   2.914   0.424   6.368 -0.1301  0.0658  0.3091
 7395SOL    HW133818   2.909   0.333   6.340 -0.8843  1.6834 -4.8192
 7395SOL    HW233819   3.007   0.440   6.383  0.0433 -0.1557 -0.5351
 7396SOL     OW33820   1.358   2.145   4.982 -0.1436  0.3634  0.1309
 7396SOL    HW133821   1.342   2.106   4.896  1.6079 -0.8267  0.3454
 7396SOL    HW233822   1.272   2.135   5.025 -0.0786 -2.6603 -0.4319
 7397SOL     OW33823   0.281   2.647   9.616 -0.1844  0.7780 -0.3894
 7397SOL    HW133824   0.319   2.719   9.565  1.2504 -1.0089 -1.8016
 7397SOL    HW233825   0.359   2.597   9.641 -0.2133  2.4275  3.0705
 7398SOL     OW33826   3.782   3.050   4.544  0.3334  0.1211  0.1471
 7398SOL    HW133827   3.833   2.977   4.506 -0.4572  0.4075 -1.4918
 7398SOL    HW233828   3.829   3.128   4.514  0.3873  0.8421  2.1536
 7399SOL     OW33829   0.829   0.967   9.555 -0.7589 -0.1972  0.0489
 7399SOL    HW133830   0.897   0.950   9.490 -1.1484 -3.1931  0.4320
 7399SOL    HW233831   0.780   0.889   9.530 -1.1717  0.0441  0.1195
 7400SOL     OW33832   2.773   3.966   6.540 -0.1049 -0.3762 -0.1658
 7400SOL    HW133833   2.753   4.046   6.588  1.7244 -0.3492  0.5261
 7400SOL    HW233834   2.868   3.963   6.548 -0.2158 -0.5246  1.0351
 7401SOL     OW33835   3.492   3.876   3.797  0.7838 -0.0370  0.2131
 7401SOL    HW133836   3.451   3.791   3.815 -0.3899  0.1878 -1.3750
 7401SOL    HW233837   3.455   3.889   3.710  0.3262  2.0945  0.7438
 7402SOL     OW33838   1.817   1.854   1.847  0.0418 -0.6764 -0.1734
 7402SOL    HW133839   1.893   1.890   1.893 -0.3520 -1.3585  0.9901
 7402SOL    HW233840   1.775   1.937   1.825  1.2774 -0.1152 -0.4327
 7403SOL     OW33841   1.564   4.086   2.811 -0.2201 -0.6021  0.4319
 7403SOL    HW133842   1.528   4.153   2.754 -0.6517  1.4300  3.1060
 7403SOL    HW233843   1.502   4.013   2.804 -1.0141  0.0921  0.2041
 7404SOL     OW33844   3.898   0.090   4.438 -0.3359  0.3196 -0.1103
 7404SOL    HW133845   3.880   0.157   4.372 -0.4742  0.5471  0.1603
 7404SOL    HW233846   3.877   0.006   4.397  1.0627 -0.6980  1.2714
 7405SOL     OW33847   3.807   4.136   3.091 -0.2615  0.2786  1.3196
 7405SOL    HW133848   3.752   4.209   3.119  1.4991  1.1850  2.3814
 7405SOL    HW233849   3.782   4.123   2.999  0.9126  0.2895  0.9954
 7406SOL     OW33850   3.549   4.394   6.182  0.2582 -0.1731  0.7606
 7406SOL    HW133851   3.609   4.468   6.190  0.1932  0.3558 -3.9199
 7406SOL    HW233852   3.598   4.333   6.127  1.7247  1.0157  0.7625
 7407SOL     OW33853   1.683   2.363   6.191  0.0556  0.0120 -0.0106
 7407SOL    HW133854   1.773   2.349   6.160 -0.1619 -1.0219 -0.1736
 7407SOL    HW233855   1.642   2.287   6.150  3.5171 -1.5266 -0.6804
 7408SOL     OW33856   3.784   1.630   1.662 -0.1282 -0.1090 -0.9264
 7408SOL    HW133857   3.866   1.661   1.624 -0.4641  2.7258  0.6675
 7408SOL    HW233858   3.817   1.542   1.682 -0.5169 -0.0136  0.1513
 7409SOL     OW33859   1.597   2.565   2.709 -0.3332  0.1432 -0.5227
 7409SOL    HW133860   1.595   2.596   2.619  1.0497  0.1793 -0.5346
 7409SOL    HW233861   1.585   2.654   2.741 -1.0620  0.1438 -0.7975
 7410SOL     OW33862   2.145   3.891   4.916 -0.4743 -0.3186  0.0526
 7410SOL    HW133863   2.187   3.816   4.958 -2.7796 -1.8880 -0.4241
 7410SOL    HW233864   2.085   3.845   4.857 -0.3441 -0.2584 -0.1255
 7411SOL     OW33865   4.435   2.353  17.352 -0.1275  0.2641 -0.2787
 7411SOL    HW133866   4.445   2.443  17.322  1.9053  0.0142 -0.3732
 7411SOL    HW233867   4.358   2.364  17.409 -1.5340 -0.1619 -2.0969
 7412SOL     OW33868   4.251   4.592   8.575  0.6753  0.1696 -0.0024
 7412SOL    HW133869   4.260   4.687   8.576  0.0917  0.2114  1.5190
 7412SOL    HW233870   4.162   4.591   8.541 -0.2106  1.4410  2.3066
 7413SOL     OW33871   1.917   3.827   7.130  0.0779 -0.2255  0.3877
 7413SOL    HW133872   1.907   3.758   7.065  2.3013  0.5888 -0.7739
 7413SOL    HW233873   2.011   3.841   7.135 -0.1100  1.6028 -1.3177
 7414SOL     OW33874   0.898   0.116   7.093  0.1179  0.5601 -0.1967
 7414SOL    HW133875   0.911   0.103   7.187  1.8048  2.6454 -0.1453
 7414SOL    HW233876   0.863   0.027   7.081 -1.0882  1.0997 -0.7246
 7415SOL     OW33877   0.076   2.874   0.836  0.4121  0.1202  0.5788
 7415SOL    HW133878   0.146   2.813   0.860  1.0070  0.4681 -0.2965
 7415SOL    HW233879   4.731   2.830   0.869 -1.1217  1.9554 -0.7327
 7416SOL     OW33880   0.571   3.439   6.906  0.3904 -0.1346 -0.1849
 7416SOL    HW133881   0.541   3.417   6.818  2.2690 -1.4891 -0.4634
 7416SOL    HW233882   0.491   3.428   6.957  2.1085 -1.9168  2.0847
 7417SOL     OW33883   3.970   2.757   7.321  0.1192  0.9267 -0.0673
 7417SOL    HW133884   3.993   2.836   7.272  2.1982  1.1040  1.2016
 7417SOL    HW233885   3.900   2.800   7.369 -1.1342  0.2962 -1.3506
 7418SOL     OW33886   4.521   3.814   6.548  0.0100 -0.5803  0.1460
 7418SOL    HW133887   4.480   3.893   6.512  0.6816  0.7589  2.3524
 7418SOL    HW233888   4.466   3.783   6.620  0.2777 -1.2258  0.0769
 7419SOL     OW33889   0.333   3.636   6.100 -0.4608  0.1180 -0.0969
 7419SOL    HW133890   0.263   3.598   6.154  0.1269 -2.1976 -0.9780
 7419SOL    HW233891   0.382   3.685   6.165  0.9777 -1.1285 -0.2219
 7420SOL     OW33892   0.709   3.124   2.449 -0.1550  0.7014 -0.3956
 7420SOL    HW133893   0.787   3.140   2.502  0.4341 -2.0562 -0.3942
 7420SOL    HW233894   0.650   3.188   2.488  1.6264  0.5814  2.4725
 7421SOL     OW33895   2.308   2.617   1.477 -0.1218  0.3255 -0.0438
 7421SOL    HW133896   2.372   2.548   1.456 -1.4251 -0.7123 -0.6029
 7421SOL    HW233897   2.365   2.691   1.457 -1.6314  1.1659 -1.1445
 7422SOL     OW33898   2.862   1.553   7.805 -0.7210  0.3394  0.7218
 7422SOL    HW133899   2.868   1.586   7.895  0.2640  0.4264  0.6175
 7422SOL    HW233900   2.783   1.599   7.776  1.1773  2.4508 -1.0784
 7423SOL     OW33901   1.906   3.301   6.185  0.4413 -0.1989 -0.1887
 7423SOL    HW133902   1.980   3.301   6.245  1.2024 -1.4864 -1.1104
 7423SOL    HW233903   1.950   3.278   6.103 -1.1902  1.8863 -1.6577
 7424SOL     OW33904   1.095   1.732   5.581  0.0429 -0.2761 -0.2477
 7424SOL    HW133905   1.059   1.780   5.655 -0.6347 -0.3040 -0.5637
 7424SOL    HW233906   1.045   1.651   5.575 -2.3270  1.3228 -1.8402
 7425SOL     OW33907   1.599   4.173   3.083 -0.1695  0.2374 -0.1787
 7425SOL    HW133908   1.604   4.163   2.988  0.4582  0.6473 -0.1936
 7425SOL    HW233909   1.506   4.157   3.094 -0.1424  0.4216  0.2931
 7426SOL     OW33910   1.355   4.151  13.420 -0.4840  0.8813 -0.1441
 7426SOL    HW133911   1.287   4.086  13.439 -0.7313  0.2418 -3.2627
 7426SOL    HW233912   1.393   4.130  13.335 -1.6712 -0.5863 -0.3064
 7427SOL     OW33913   0.196   1.973   5.713  0.3948  0.5487 -0.3248
 7427SOL    HW133914   0.181   1.961   5.619 -2.2981 -0.3233  0.2020
 7427SOL    HW233915   0.286   1.941   5.712  0.4675  0.7060  1.0089
 7428SOL     OW33916   3.033   1.233   7.457  0.7693  0.2344  0.4281
 7428SOL    HW133917   3.088   1.210   7.532  0.2031  1.1869  1.1406
 7428SOL    HW233918   3.042   1.327   7.445  0.1297 -0.2495 -3.7775
 7429SOL     OW33919   0.279   2.768  17.527  0.1904 -0.4536  0.1979
 7429SOL    HW133920   0.215   2.697  17.537  0.9743 -0.9457  1.7769
 7429SOL    HW233921   0.293   2.812  17.611  0.1162 -1.2627  0.6346
 7430SOL     OW33922   3.557   4.444  11.861  0.0421 -0.1404  0.2211
 7430SOL    HW133923   3.602   4.502  11.921 -2.0961  0.2662  1.4406
 7430SOL    HW233924   3.465   4.463  11.879  0.5087  0.6405  1.7562
 7431SOL     OW33925   1.998   3.011   6.397 -0.3390  0.1384  0.1991
 7431SOL    HW133926   2.052   3.004   6.476  1.1630 -1.8570 -0.9895
 7431SOL    HW233927   2.051   2.954   6.340 -0.8399  0.2674 -0.3977
 7432SOL     OW33928   0.709   4.193   7.455  0.4285 -0.3359  0.1575
 7432SOL    HW133929   0.721   4.098   7.461 -0.1373 -0.3933  0.3958
 7432SOL    HW233930   0.767   4.218   7.383  0.4668 -2.6062 -0.6006
 7433SOL     OW33931   1.987   0.562   4.551 -0.5337 -0.0219 -0.0619
 7433SOL    HW133932   2.049   0.573   4.623 -0.6010 -1.3754  0.1970
 7433SOL    HW233933   1.915   0.530   4.605 -2.7467  1.9735 -1.8317
 7434SOL     OW33934   3.303   0.601  14.026  0.6893 -0.1140 -0.2599
 7434SOL    HW133935   3.302   0.693  14.051 -1.1876  0.0697 -1.0140
 7434SOL    HW233936   3.382   0.574  14.073 -0.2794 -1.0099  0.8349
 7435SOL     OW33937   2.423   0.339   5.057 -0.4055  0.1156 -1.0873
 7435SOL    HW133938   2.488   0.387   5.004  0.1673  1.4980  0.8773
 7435SOL    HW233939   2.417   0.386   5.140 -1.8130 -0.5457 -0.8110
 7436SOL     OW33940   1.478   0.518   3.594  0.1918  0.0145  0.4444
 7436SOL    HW133941   1.425   0.597   3.600  0.6004  0.3692 -0.6126
 7436SOL    HW233942   1.495   0.510   3.688  0.1288 -0.0044  0.4539
 7437SOL     OW33943   1.208   3.325   3.982 -0.4620 -0.0466  0.2849
 7437SOL    HW133944   1.211   3.421   3.988  1.6669 -0.0341 -1.0372
 7437SOL    HW233945   1.280   3.302   3.923  0.5813  1.3530  1.0084
 7438SOL     OW33946   2.258   3.729   3.290 -0.7398 -0.2900  0.2678
 7438SOL    HW133947   2.299   3.721   3.204 -2.3578  0.5945 -0.5911
 7438SOL    HW233948   2.250   3.637   3.315 -1.6428 -0.6599 -1.3949
 7439SOL     OW33949   1.093   0.769   8.069 -0.5500  0.4508 -0.3150
 7439SOL    HW133950   1.064   0.715   8.143 -0.8159  0.7651 -0.1894
 7439SOL    HW233951   1.017   0.824   8.049  0.7724  2.2483 -0.4083
 7440SOL     OW33952   4.455   2.562   3.964 -0.2070 -0.1293  0.0975
 7440SOL    HW133953   4.369   2.545   4.000 -0.2281 -0.6107 -0.1813
 7440SOL    HW233954   4.502   2.505   4.025  2.7455  1.3730 -0.7655
 7441SOL     OW33955   0.048   0.781  11.359  0.5455  0.4139  0.2207
 7441SOL    HW133956   0.143   0.770  11.358  0.5470  0.4096  0.3903
 7441SOL    HW233957   0.040   0.874  11.380 -3.8600  0.1819 -0.4262
 7442SOL     OW33958   3.742   4.421   0.278 -0.0882  0.3868  0.1117
 7442SOL    HW133959   3.804   4.456   0.342  0.1094  0.5157 -0.1491
 7442SOL    HW233960   3.788   4.444   0.197 -0.4757  1.5165  0.2155
 7443SOL     OW33961   2.715   4.588   6.110 -0.2453  0.1852 -0.1664
 7443SOL    HW133962   2.664   4.643   6.169  3.8843  0.9691  2.6280
 7443SOL    HW233963   2.766   4.656   6.065  0.5754 -1.2779 -1.4260
 7444SOL     OW33964   2.299   1.322  16.580 -0.0037 -0.1647 -0.1960
 7444SOL    HW133965   2.355   1.326  16.502  0.8389 -1.3590  0.3566
 7444SOL    HW233966   2.301   1.414  16.608 -2.1249 -0.2410  0.1823
 7445SOL     OW33967   3.269   2.776  16.147  0.3367  0.5252  0.4314
 7445SOL    HW133968   3.207   2.838  16.184 -0.1846  1.2541 -1.7099
 7445SOL    HW233969   3.257   2.783  16.053 -1.3129 -0.3943  0.5760
 7446SOL     OW33970   3.224   4.167   2.419 -0.3616 -0.1859 -0.6415
 7446SOL    HW133971   3.132   4.172   2.444  0.0187  0.7510  0.5767
 7446SOL    HW233972   3.240   4.075   2.441 -2.9806 -0.8677 -1.6837
 7447SOL     OW33973   2.807   3.366   2.768  0.0001 -0.3122  0.1278
 7447SOL    HW133974   2.764   3.433   2.713 -2.0669 -1.6384  0.1220
 7447SOL    HW233975   2.741   3.334   2.830 -1.0965 -1.6168 -1.7276
 7448SOL     OW33976   3.830   0.658  14.308  0.3482 -0.1037  0.0210
 7448SOL    HW133977   3.903   0.694  14.359  0.4309  0.3251 -0.4026
 7448SOL    HW233978   3.754   0.711  14.332  0.3609  0.1977 -0.5951
 7449SOL     OW33979   3.192   0.199   5.653 -0.1176  0.0357 -0.1959
 7449SOL    HW133980   3.196   0.288   5.618  1.4109  0.1151  0.1942
 7449SOL    HW233981   3.110   0.177   5.608  0.2681  2.1083 -1.9160
 7450SOL     OW33982   2.973   0.676   4.006  0.2944  0.2926  0.5905
 7450SOL    HW133983   2.973   0.772   4.006 -1.0417  0.3050  0.7799
 7450SOL    HW233984   3.060   0.655   4.040 -1.0672  1.6088  4.8460
 7451SOL     OW33985   4.522   3.540   7.429 -0.5978 -0.1872  0.1547
 7451SOL    HW133986   4.439   3.533   7.475 -0.3188 -1.6889  0.4022
 7451SOL    HW233987   4.571   3.611   7.470 -0.2560 -1.7481  2.4138
 7452SOL     OW33988   3.455   1.419   6.653  0.6438  0.1690 -0.2322
 7452SOL    HW133989   3.440   1.513   6.662  0.7278  0.1673 -0.0552
 7452SOL    HW233990   3.389   1.385   6.713  1.6906 -0.7574  0.4065
 7453SOL     OW33991   2.420   3.789   4.402 -0.3199  0.5234 -0.3046
 7453SOL    HW133992   2.444   3.880   4.416  3.3149 -0.5809  0.7824
 7453SOL    HW233993   2.380   3.761   4.485  2.4439 -1.0639  0.5125
 7454SOL     OW33994   0.204   2.679   8.650 -0.1888  0.1483 -0.4167
 7454SOL    HW133995   0.297   2.680   8.673 -1.0284  1.3403  3.0363
 7454SOL    HW233996   0.165   2.596   8.675  1.2634 -0.3601  0.1942
 7455SOL     OW33997   0.942   3.500   6.188 -0.2162  0.2778  0.3923
 7455SOL    HW133998   1.022   3.462   6.225  0.0608  1.8728  1.4418
 7455SOL    HW233999   0.909   3.419   6.148 -1.7260  0.1633  1.8541
 7456SOL     OW34000   2.815   1.921   3.532 -0.3059 -0.7911 -0.5806
 7456SOL    HW134001   2.755   1.966   3.472  0.0292  1.0437  0.4605
 7456SOL    HW234002   2.885   1.903   3.469  1.5818  1.5354  0.8746
 7457SOL     OW34003   2.923   2.935  12.124 -0.1491 -0.0625 -0.2581
 7457SOL    HW134004   2.984   2.969  12.059  0.3680 -0.3175  0.0886
 7457SOL    HW234005   2.881   2.867  12.072 -1.7975 -0.0075  1.0011
 7458SOL     OW34006   3.126   4.124   5.896  0.0494 -0.3318 -0.1739
 7458SOL    HW134007   3.062   4.138   5.966  2.7569 -1.5768  2.5364
 7458SOL    HW234008   3.203   4.094   5.944 -0.8276  0.9940  2.0225
 7459SOL     OW34009   3.532   3.838   5.876  0.1854 -0.4940 -0.2289
 7459SOL    HW134010   3.602   3.774   5.863 -0.2128 -1.1113  0.6207
 7459SOL    HW234011   3.538   3.895   5.799  1.4773  0.2703  0.4248
 7460SOL     OW34012   0.426   3.427   1.295  0.4432  0.0003  0.5234
 7460SOL    HW134013   0.472   3.509   1.315 -0.4716  0.3798  1.0601
 7460SOL    HW234014   0.353   3.464   1.246  0.9152  2.5385  1.7328
 7461SOL     OW34015   2.535   2.458   7.632  0.4393  0.4882  0.1010
 7461SOL    HW134016   2.520   2.364   7.633 -0.0031  0.5650  0.3974
 7461SOL    HW234017   2.482   2.490   7.705  0.8229  0.9424  0.1837
 7462SOL     OW34018   3.181   2.210   8.493 -0.0382 -0.4815 -0.2424
 7462SOL    HW134019   3.229   2.272   8.548  1.3600 -3.7012  2.1966
 7462SOL    HW234020   3.217   2.132   8.536  0.6226  0.5969  1.1342
 7463SOL     OW34021   1.214   4.177   1.541  0.6457  0.3773  0.4563
 7463SOL    HW134022   1.262   4.259   1.530  1.7290 -0.3363 -0.1473
 7463SOL    HW234023   1.136   4.196   1.592  0.7240  2.8977 -0.3616
 7464SOL     OW34024   4.337   1.622   8.891 -0.0471  0.7632 -0.6814
 7464SOL    HW134025   4.389   1.670   8.828  0.9992 -0.8116 -1.0280
 7464SOL    HW234026   4.398   1.621   8.965 -2.9065  0.2694  1.6643
 7465SOL     OW34027   1.686   1.664  14.681 -0.6032  0.0952  0.5413
 7465SOL    HW134028   1.633   1.710  14.616  0.9581 -0.2423 -0.9648
 7465SOL    HW234029   1.629   1.652  14.757 -1.4634 -0.7903 -0.2281
 7466SOL     OW34030   1.393   3.473   7.889  0.1438 -0.4839  0.0951
 7466SOL    HW134031   1.383   3.450   7.981 -0.0673 -0.4192  0.0880
 7466SOL    HW234032   1.354   3.560   7.891 -0.4194 -0.7720  1.3883
 7467SOL     OW34033   4.469   0.006   3.669 -0.0407 -0.3324  0.1108
 7467SOL    HW134034   4.453   4.652   3.704 -1.2604 -0.1903 -0.1059
 7467SOL    HW234035   4.477   0.001   3.573  1.4004  1.1998  0.1506
 7468SOL     OW34036   2.386   3.177  16.061  0.1095 -0.2983 -0.4042
 7468SOL    HW134037   2.317   3.143  16.118 -0.5419  1.0712 -0.3848
 7468SOL    HW234038   2.332   3.175  15.982  0.0229 -0.4371 -0.3424
 7469SOL     OW34039   0.910   0.987   8.209  0.0461  0.2495  0.5231
 7469SOL    HW134040   0.853   1.055   8.173  0.6714 -0.4821 -1.8572
 7469SOL    HW234041   0.852   0.920   8.246 -1.6232  0.3894 -1.8223
 7470SOL     OW34042   1.966   1.474   4.851  0.5948 -0.6997 -0.2443
 7470SOL    HW134043   1.968   1.552   4.907 -2.1670 -0.4041 -0.5699
 7470SOL    HW234044   1.879   1.438   4.865  0.7953 -0.7306  0.9408
 7471SOL     OW34045   3.355   4.066   6.241  0.3610 -0.3914  0.1335
 7471SOL    HW134046   3.318   4.021   6.317  2.4051  0.6023  1.7293
 7471SOL    HW234047   3.389   3.990   6.193 -0.9217 -2.4930  2.5927
 7472SOL     OW34048   2.701   0.922   4.145  0.0516 -0.0626 -0.0570
 7472SOL    HW134049   2.784   0.914   4.098  0.3690 -0.3290  0.5459
 7472SOL    HW234050   2.640   0.893   4.077 -2.7652  1.6141  1.7443
 7473SOL     OW34051   3.520   4.276   2.767  0.6497  0.0676 -0.1196
 7473SOL    HW134052   3.533   4.267   2.672 -3.0102 -0.0916 -0.5941
 7473SOL    HW234053   3.449   4.340   2.763  1.7607  1.3591  0.6048
 7474SOL     OW34054   0.265   2.410   3.298  0.2197 -1.0127  0.1281
 7474SOL    HW134055   0.297   2.459   3.222 -2.2209 -0.6264 -0.6396
 7474SOL    HW234056   0.192   2.357   3.265 -1.0036  0.2250  0.8705
 7475SOL     OW34057   4.568   2.824   7.745 -0.3758 -0.8190 -0.1208
 7475SOL    HW134058   4.596   2.734   7.758  0.1521 -0.7973 -1.1246
 7475SOL    HW234059   4.610   2.853   7.664  0.6089 -2.6701 -0.2743
 7476SOL     OW34060   4.406   1.399   6.490  0.2176  0.3241  0.2852
 7476SOL    HW134061   4.486   1.415   6.440  0.7016  0.7668  1.2036
 7476SOL    HW234062   4.399   1.304   6.490 -2.1612  0.4855  0.8073
 7477SOL     OW34063   4.403   4.065   5.572 -0.0067 -0.8130  0.2943
 7477SOL    HW134064   4.356   4.126   5.515  1.7092  0.0599 -0.1923
 7477SOL    HW234065   4.372   4.096   5.657 -1.0704 -0.9711 -0.0356
 7478SOL     OW34066   1.557   2.881   3.395 -0.5382  0.8466 -0.6260
 7478SOL    HW134067   1.557   2.790   3.365  0.7565  1.3018 -2.0492
 7478SOL    HW234068   1.472   2.888   3.437  0.3759  0.0838  1.3249
 7479SOL     OW34069   2.312   0.406   0.233  0.1945 -0.6312 -0.1917
 7479SOL    HW134070   2.287   0.409   0.140  0.3329  0.7354 -0.1932
 7479SOL    HW234071   2.377   0.476   0.224  0.1804 -0.6745 -0.6356
 7480SOL     OW34072   0.294   0.409  14.421  0.0782  0.0920 -0.5305
 7480SOL    HW134073   0.289   0.497  14.382 -0.8222  0.7252  1.0075
 7480SOL    HW234074   0.377   0.380  14.384  0.8320 -1.1397  2.1228
 7481SOL     OW34075   3.344   2.657   5.382  0.5526 -0.2794  0.0888
 7481SOL    HW134076   3.293   2.646   5.302 -1.0072  0.9058  0.9195
 7481SOL    HW234077   3.278   2.665   5.450 -0.9063  0.6660 -1.4523
 7482SOL     OW34078   3.335   3.684   2.144  0.3603 -0.1257  0.0831
 7482SOL    HW134079   3.331   3.763   2.089 -0.9097  0.1877  0.6314
 7482SOL    HW234080   3.332   3.619   2.074  1.0484  1.2471 -1.2313
 7483SOL     OW34081   4.579   0.459   2.329  0.1069 -0.0571 -0.1417
 7483SOL    HW134082   4.609   0.378   2.287 -0.0150  0.2244 -0.7684
 7483SOL    HW234083   4.512   0.489   2.268  0.3900  2.3855  0.7643
 7484SOL     OW34084   2.152   1.961   5.699 -0.0900 -0.6822  0.3054
 7484SOL    HW134085   2.183   1.870   5.695  0.0041 -0.5956 -0.8292
 7484SOL    HW234086   2.215   1.999   5.637  0.5619  0.3418  1.5976
 7485SOL     OW34087   4.194   3.827   5.889 -0.0506 -0.6446 -0.0277
 7485SOL    HW134088   4.239   3.833   5.973 -0.3170 -0.2485  0.0847
 7485SOL    HW234089   4.106   3.799   5.916 -0.1028  0.4744  0.9590
 7486SOL     OW34090   3.803   0.054  12.338  0.3097 -0.4067  0.2113
 7486SOL    HW134091   3.882   0.052  12.283 -1.8813  2.6544 -3.0107
 7486SOL    HW234092   3.747   0.024  12.267 -1.6677  1.3163  1.0779
 7487SOL     OW34093   1.578   3.788   2.075 -0.4320  0.6274  0.2401
 7487SOL    HW134094   1.654   3.816   2.126  0.2583  1.4597 -1.2352
 7487SOL    HW234095   1.602   3.702   2.041 -1.3239  0.6209 -0.3911
 7488SOL     OW34096   2.491   1.489   8.200  0.0834  0.7570 -0.4187
 7488SOL    HW134097   2.574   1.510   8.242  0.5716 -1.0637 -0.4879
 7488SOL    HW234098   2.446   1.565   8.236 -0.1503  0.3136  0.2149
 7489SOL     OW34099   0.587   0.308   5.055 -0.3383 -0.1259 -0.8260
 7489SOL    HW134100   0.652   0.251   5.014  0.1528 -0.7185  0.7637
 7489SOL    HW234101   0.538   0.250   5.113 -0.0149 -2.3548 -2.8000
 7490SOL     OW34102   1.695   4.677   5.500 -0.3404  0.3326 -0.4884
 7490SOL    HW134103   1.779   4.684   5.454  0.1001  0.7663  0.3830
 7490SOL    HW234104   1.683   0.018   5.557  1.6207  2.0427 -2.3114
 7491SOL     OW34105   0.824   4.013   7.927 -0.0331 -0.1736  0.0061
 7491SOL    HW134106   0.752   4.051   7.977  0.1437  0.3831 -0.1698
 7491SOL    HW234107   0.775   3.947   7.876  1.1073 -0.9852 -0.0367
 7492SOL     OW34108   0.951   3.825   6.197 -0.3471  0.7863 -0.3982
 7492SOL    HW134109   0.944   3.731   6.178  0.2789  0.6881 -0.1460
 7492SOL    HW234110   0.892   3.871   6.138  0.0192  0.0479 -1.3400
 7493SOL     OW34111   0.010   4.561   5.559 -0.3822 -0.0945  0.5588
 7493SOL    HW134112   0.062   4.517   5.492 -1.6732 -0.9234  0.0857
 7493SOL    HW234113   0.073   4.587   5.625 -0.4166  1.0518  0.1314
 7494SOL     OW34114   1.103   2.038   9.905 -0.3533 -0.0545  0.0637
 7494SOL    HW134115   1.138   2.066   9.989  2.9814 -2.8171 -0.3733
 7494SOL    HW234116   1.141   1.950   9.901  1.9463  0.9376 -0.0061
 7495SOL     OW34117   4.235   0.637   6.578 -0.0016  0.7866 -0.8283
 7495SOL    HW134118   4.208   0.712   6.524 -1.2550  1.6114  0.9327
 7495SOL    HW234119   4.207   0.572   6.514  1.2038 -0.9619  0.4442
 7496SOL     OW34120   4.475   4.026   7.679 -0.5330  0.2684 -0.1882
 7496SOL    HW134121   4.532   4.038   7.755 -1.0654 -0.4229  0.3186
 7496SOL    HW234122   4.451   4.119   7.669  0.5762  0.6579  0.7064
 7497SOL     OW34123   2.280   3.954   7.599  0.3007 -0.3936 -0.4264
 7497SOL    HW134124   2.280   4.042   7.639 -2.3852 -0.2476 -0.7510
 7497SOL    HW234125   2.362   3.908   7.616  2.1216  3.2800  0.8079
 7498SOL     OW34126   0.494   3.334   9.655  0.5133  0.2968 -0.0348
 7498SOL    HW134127   0.405   3.357   9.678  1.5282  1.9944  2.1829
 7498SOL    HW234128   0.535   3.370   9.734 -0.5882 -0.2791  0.7943
 7499SOL     OW34129   1.784   2.657   3.553  0.3534  0.1126 -0.5906
 7499SOL    HW134130   1.856   2.712   3.584  0.6181  0.3105 -1.5660
 7499SOL    HW234131   1.790   2.692   3.464 -2.9316  0.2325 -0.7809
 7500SOL     OW34132   0.054   0.227   5.948  0.9279 -0.0068  0.6129
 7500SOL    HW134133   0.109   0.156   5.980 -0.5663 -0.9797  0.9907
 7500SOL    HW234134   0.020   0.257   6.032  1.6004  2.0067  0.1909
 7501SOL     OW34135   3.674   4.623   7.092  0.3081  0.2443 -0.0150
 7501SOL    HW134136   3.728   4.646   7.016 -0.7809  2.2025 -0.1883
 7501SOL    HW234137   3.704   4.692   7.151 -0.9436  1.1843 -0.4832
 7502SOL     OW34138   1.898   3.653   3.412 -0.4783  0.1271 -0.2558
 7502SOL    HW134139   1.908   3.740   3.451  0.6600  0.7199 -1.8723
 7502SOL    HW234140   1.853   3.675   3.331 -1.4372  0.6520  0.4183
 7503SOL     OW34141   3.554   0.954   7.282  0.1660  0.4140  0.6138
 7503SOL    HW134142   3.636   0.924   7.243  0.6568  0.9921  1.2014
 7503SOL    HW234143   3.572   1.048   7.279  1.0592  0.1817 -1.4368
 7504SOL     OW34144   2.053   4.447  10.972  0.4569  0.0071 -0.1479
 7504SOL    HW134145   2.053   4.505  10.896 -1.9839 -0.7516 -0.7106
 7504SOL    HW234146   2.026   4.506  11.042  1.4569  1.4941 -1.0098
 7505SOL     OW34147   2.603   3.746   6.584  0.6698 -0.2851 -0.2352
 7505SOL    HW134148   2.544   3.762   6.510  0.4961 -0.1355 -0.0619
 7505SOL    HW234149   2.662   3.820   6.570 -1.6743  1.3315 -1.6067
 7506SOL     OW34150   4.115   3.211   4.077 -0.0938 -0.2851  0.6918
 7506SOL    HW134151   4.086   3.266   4.004  0.1824 -0.6203  0.3312
 7506SOL    HW234152   4.107   3.272   4.150 -1.0919 -2.2818  2.2446
 7507SOL     OW34153   1.055   3.960  17.726 -0.5478  0.0987 -0.5793
 7507SOL    HW134154   1.054   3.884   0.048 -0.8090  0.9456  0.5253
 7507SOL    HW234155   1.056   4.032   0.054 -0.9605 -1.3165  1.0156
 7508SOL     OW34156   3.825   3.486   4.102 -0.0655 -0.5716  0.2686
 7508SOL    HW134157   3.858   3.575   4.088  2.0146 -1.4505 -0.5353
 7508SOL    HW234158   3.811   3.452   4.013 -0.6716 -1.4424  0.7021
 7509SOL     OW34159   3.443   1.139   2.286  0.0792 -0.1906 -0.1242
 7509SOL    HW134160   3.380   1.134   2.214 -0.0707 -0.6514  0.0363
 7509SOL    HW234161   3.464   1.232   2.295  1.6615 -0.6859  1.3010
 7510SOL     OW34162   0.515   2.799   4.916 -0.0463  0.5633  0.0210
 7510SOL    HW134163   0.468   2.870   4.872 -1.5779 -0.8963 -0.7098
 7510SOL    HW234164   0.479   2.715   4.885 -0.3996  0.8273 -0.2810
 7511SOL     OW34165   4.682   3.440   1.719  0.0762 -0.1878 -0.2695
 7511SOL    HW134166   4.619   3.382   1.762  0.8547  0.3181  1.5545
 7511SOL    HW234167   0.003   3.370   1.685  0.0490 -0.8698  1.1052
 7512SOL     OW34168   2.604   0.351   5.871 -0.1582  0.4387 -0.3226
 7512SOL    HW134169   2.648   0.282   5.821  1.5717  2.4945 -1.6027
 7512SOL    HW234170   2.670   0.420   5.871  0.6290 -0.3197 -0.1323
 7513SOL     OW34171   4.673   3.907   4.666 -0.4326  0.5328  0.6614
 7513SOL    HW134172   4.600   3.877   4.612  1.0816 -0.6460 -0.7384
 7513SOL    HW234173   4.614   3.965   4.714 -1.6853  0.0873 -0.3426
 7514SOL     OW34174   1.647   0.400  10.687  0.4172 -0.1093 -0.3651
 7514SOL    HW134175   1.622   0.479  10.736  1.8186 -0.5725  1.0817
 7514SOL    HW234176   1.632   0.444  10.603 -2.6496 -0.7028 -0.1271
 7515SOL     OW34177   3.173   3.891  15.607  0.1624  0.1281 -0.1133
 7515SOL    HW134178   3.161   3.901  15.513 -0.1876 -0.4238 -0.1271
 7515SOL    HW234179   3.214   3.976  15.624  0.7799  0.0847 -1.3650
 7516SOL     OW34180   4.597   0.917   6.363  0.1604  0.6636  0.0861
 7516SOL    HW134181   4.550   0.891   6.283  1.3419 -2.6478  0.4532
 7516SOL    HW234182   4.529   0.968   6.407 -1.5309 -1.3724 -0.1316
 7517SOL     OW34183   0.917   1.589   7.865 -0.4468 -0.1272  0.1470
 7517SOL    HW134184   0.872   1.511   7.898  0.9665 -0.7716  0.5338
 7517SOL    HW234185   0.989   1.589   7.928 -0.4219  0.3453  0.1177
 7518SOL     OW34186   0.907   3.445   9.942  0.2121 -0.3246  0.0779
 7518SOL    HW134187   0.976   3.456   9.876  0.7421 -1.3710  0.4453
 7518SOL    HW234188   0.946   3.478  10.023 -0.2406 -0.8714  0.5206
 7519SOL     OW34189   1.964   0.471   0.426 -0.5095  0.0299 -0.4058
 7519SOL    HW134190   2.013   0.490   0.506  1.0514  1.2106 -1.6484
 7519SOL    HW234191   1.932   0.556   0.395 -2.7685 -1.1222 -1.2755
 7520SOL     OW34192   3.926   1.171   4.927 -0.4266 -0.0110 -0.5439
 7520SOL    HW134193   3.908   1.145   4.837 -1.5187  1.5329 -0.7690
 7520SOL    HW234194   3.845   1.217   4.950  0.2208  0.1938  1.3536
 7521SOL     OW34195   2.616   0.544   2.856 -0.0231  0.2067  0.7631
 7521SOL    HW134196   2.591   0.547   2.764 -1.3881  0.7834  1.1426
 7521SOL    HW234197   2.612   0.450   2.876  0.4138 -0.4484 -2.1794
 7522SOL     OW34198   2.310   0.748   6.315 -0.5160 -0.6344 -0.2042
 7522SOL    HW134199   2.314   0.659   6.282  0.5869  0.0856 -1.9804
 7522SOL    HW234200   2.342   0.735   6.404 -2.2212  1.1388  0.6947
 7523SOL     OW34201   0.286   3.555  17.271  0.3858 -0.2236  0.1369
 7523SOL    HW134202   0.352   3.536  17.204  0.6058  0.2048  0.2270
 7523SOL    HW234203   0.259   3.642  17.239 -2.8478 -1.7563 -1.2590
 7524SOL     OW34204   2.284   2.467   8.023 -0.2988 -0.0797  0.2921
 7524SOL    HW134205   2.272   2.380   8.061 -2.0110  0.0529  0.0531
 7524SOL    HW234206   2.261   2.437   7.935 -0.7734 -0.8357  0.6802
 7525SOL     OW34207   1.373   2.024  13.458 -0.3675 -0.5534  0.1192
 7525SOL    HW134208   1.462   1.997  13.434 -0.2781 -1.1477  1.1254
 7525SOL    HW234209   1.358   1.969  13.535 -0.7528 -0.0227  0.4280
 7526SOL     OW34210   0.413   0.878   2.252 -0.0822  0.1626  0.9599
 7526SOL    HW134211   0.411   0.974   2.246 -0.5511  0.2542  2.6768
 7526SOL    HW234212   0.508   0.866   2.248 -0.0883  0.3088  0.3388
 7527SOL     OW34213   0.700   4.693   9.185 -0.1514  0.1101 -0.2022
 7527SOL    HW134214   0.714   0.052   9.165  2.1714 -0.2690 -0.3517
 7527SOL    HW234215   0.754   4.673   9.262 -0.4388  0.7666  0.1694
 7528SOL     OW34216   3.182   3.481   6.511 -0.3466 -0.5455  0.0782
 7528SOL    HW134217   3.106   3.530   6.540 -0.3119 -0.8478  0.6769
 7528SOL    HW234218   3.168   3.482   6.416 -0.4574 -0.4672  0.0959
 7529SOL     OW34219   1.052   1.768   7.543 -0.0040 -0.0646 -0.4340
 7529SOL    HW134220   1.077   1.815   7.622 -0.0495  1.0934 -1.0951
 7529SOL    HW234221   0.962   1.754   7.575  0.2693 -1.1770 -0.1498
 7530SOL     OW34222   4.182   0.570   9.039 -0.2606  0.4308  0.2297
 7530SOL    HW134223   4.225   0.656   9.041 -0.2107  0.3255  2.7825
 7530SOL    HW234224   4.251   0.510   9.063  0.4987  1.5449  0.8180
 7531SOL     OW34225   0.275   4.467   1.698 -0.1905  0.3187  0.0179
 7531SOL    HW134226   0.303   4.375   1.703 -0.1160  0.3078 -0.5698
 7531SOL    HW234227   0.182   4.466   1.721  0.0223 -1.7675  0.7828
 7532SOL     OW34228   0.069   1.901   2.720  0.2563 -0.2979 -0.1952
 7532SOL    HW134229   0.074   1.963   2.648  0.6582  2.2341  1.9923
 7532SOL    HW234230   0.022   1.959   2.781 -1.7623  0.3535 -2.4092
 7533SOL     OW34231   1.633   4.085  13.453  0.7720 -0.5090  0.1426
 7533SOL    HW134232   1.608   4.015  13.392 -1.6469  0.1897  0.3501
 7533SOL    HW234233   1.594   4.055  13.535 -1.1450  0.5558 -0.3773
 7534SOL     OW34234   0.090   0.237   1.672 -0.2072 -0.0437 -0.1857
 7534SOL    HW134235   0.156   0.178   1.708  1.2615  1.9810  0.4393
 7534SOL    HW234236   0.030   0.178   1.626 -1.1085  0.9670 -0.2961
 7535SOL     OW34237   3.241   1.184   2.541 -0.4642 -0.3516  0.2983
 7535SOL    HW134238   3.201   1.235   2.470  1.4019  1.0707  0.2475
 7535SOL    HW234239   3.315   1.239   2.567 -1.5800  0.9590  0.7041
 7536SOL     OW34240   4.228   1.360   5.270  0.1025  0.7337 -0.5656
 7536SOL    HW134241   4.318   1.389   5.254  0.9929 -0.5740  2.0834
 7536SOL    HW234242   4.224   1.348   5.365  1.8403  1.7915 -0.3547
 7537SOL     OW34243   0.472   3.909   1.482 -0.0977  0.0838 -0.2220
 7537SOL    HW134244   0.564   3.934   1.497 -0.0839  1.1065 -1.9415
 7537SOL    HW234245   0.449   3.894   1.573 -2.1943 -0.7317 -0.8975
 7538SOL     OW34246   1.045   1.952   2.081 -0.1983 -0.1728 -0.2843
 7538SOL    HW134247   1.074   1.861   2.071  1.3081  0.3694 -0.7785
 7538SOL    HW234248   0.971   1.940   2.140 -0.0674  0.4561  0.0116
 7539SOL     OW34249   1.683   1.695   2.327  0.4637  0.2287  0.2911
 7539SOL    HW134250   1.625   1.622   2.306 -0.0413  0.0349  2.3670
 7539SOL    HW234251   1.608   1.754   2.337  1.1394  0.8970  1.3228
 7540SOL     OW34252   4.469   2.080   0.026  0.3277  0.1405 -0.0135
 7540SOL    HW134253   4.542   2.124   0.069  2.0209 -2.9621  0.2583
 7540SOL    HW234254   4.394   2.122   0.068 -0.0669  0.3165 -0.8724
 7541SOL     OW34255   2.150   1.558   6.401 -0.0544  0.0340 -0.2032
 7541SOL    HW134256   2.156   1.468   6.368  0.7238  1.5089 -4.0660
 7541SOL    HW234257   2.220   1.608   6.360 -0.4219 -0.7407 -1.7717
 7542SOL     OW34258   3.001   2.141   8.051 -0.0444  0.1841  0.0855
 7542SOL    HW134259   3.086   2.149   8.094  0.6717  1.5950 -1.5993
 7542SOL    HW234260   2.994   2.226   8.008  0.4960 -0.2495 -0.8448
 7543SOL     OW34261   2.568   4.393   0.767  0.7669  0.3164  0.5081
 7543SOL    HW134262   2.585   4.444   0.847 -2.2465  3.5362 -0.8894
 7543SOL    HW234263   2.534   4.312   0.805  1.5706 -0.1399  0.2530
 7544SOL     OW34264   2.264   1.463  16.067 -0.3595  0.6784  0.0830
 7544SOL    HW134265   2.264   1.421  15.981  0.8938 -0.8569  0.8188
 7544SOL    HW234266   2.255   1.390  16.129 -0.9853  0.1624 -0.6261
 7545SOL     OW34267   3.547   0.584  17.370  0.1087  0.3821  0.5720
 7545SOL    HW134268   3.579   0.523  17.436 -1.4482 -2.0550 -0.9237
 7545SOL    HW234269   3.517   0.659  17.421  0.9854  0.9209  0.2930
 7546SOL     OW34270   0.448   3.291   7.954 -0.4635 -0.0239  0.2767
 7546SOL    HW134271   0.471   3.256   7.868 -0.5240 -0.0840  0.2853
 7546SOL    HW234272   0.461   3.215   8.011 -0.5405 -0.5654 -0.4219
 7547SOL     OW34273   4.042   0.817   4.598 -0.2135 -0.2368  0.0473
 7547SOL    HW134274   4.046   0.912   4.589 -1.1572 -0.2517 -0.5049
 7547SOL    HW234275   4.080   0.781   4.518  0.2159  1.6090 -0.5776
 7548SOL     OW34276   0.137   0.847   2.898 -0.1504  0.2485 -0.3973
 7548SOL    HW134277   0.161   0.940   2.894  1.0180 -0.1638 -2.6850
 7548SOL    HW234278   0.196   0.819   2.968  1.5683  0.3091 -1.8213
 7549SOL     OW34279   3.571   2.889   7.276  0.6098  0.8144 -0.8355
 7549SOL    HW134280   3.597   2.813   7.327  2.5524  1.0407 -1.4884
 7549SOL    HW234281   3.579   2.867   7.183 -1.0246 -2.1803 -0.2692
 7550SOL     OW34282   3.816   3.921   2.122  0.2379  0.7893  0.4058
 7550SOL    HW134283   3.770   3.840   2.100 -0.9079  1.7626 -0.8058
 7550SOL    HW234284   3.742   3.982   2.117  0.4338  0.8421 -1.9986
 7551SOL     OW34285   1.919   2.459   4.766 -0.1274  0.5468 -0.5762
 7551SOL    HW134286   1.971   2.400   4.821  1.9894  1.3682 -1.6953
 7551SOL    HW234287   1.830   2.429   4.785  0.6658 -1.4782 -0.0625
 7552SOL     OW34288   4.497   0.126   0.511  0.1368  0.0961  0.1893
 7552SOL    HW134289   4.591   0.115   0.521 -0.3580  0.0040  4.5889
 7552SOL    HW234290   4.482   0.138   0.417  0.9814 -1.4754 -0.1368
 7553SOL     OW34291   3.592   0.974   6.920  0.1451  0.3742 -0.5516
 7553SOL    HW134292   3.628   1.060   6.945 -1.3333  0.7172  0.4272
 7553SOL    HW234293   3.660   0.913   6.947 -0.9003 -1.5371 -2.2940
 7554SOL     OW34294   3.679   2.155   2.692  0.5616  0.1764 -0.2430
 7554SOL    HW134295   3.642   2.228   2.641  0.2134 -0.8631 -1.4621
 7554SOL    HW234296   3.757   2.199   2.726 -0.2234 -0.0516  1.8409
 7555SOL     OW34297   2.081   2.993   5.343  0.4434  0.5465 -0.1336
 7555SOL    HW134298   2.013   2.981   5.410  0.2616 -0.0915 -0.4364
 7555SOL    HW234299   2.084   3.089   5.348  1.9465  0.5139 -0.6998
 7556SOL     OW34300   1.100   4.038   8.461  0.1662 -0.1067  0.4529
 7556SOL    HW134301   1.044   4.055   8.537  1.2946  1.2255  0.9843
 7556SOL    HW234302   1.029   3.996   8.411  2.0643 -1.0725 -1.4237
 7557SOL     OW34303   3.827   2.312   7.438  0.2308  0.0509  0.1271
 7557SOL    HW134304   3.854   2.222   7.423  0.3074  0.2906 -1.1210
 7557SOL    HW234305   3.908   2.363   7.451  1.3300 -2.4488  2.9602
 7558SOL     OW34306   0.738   4.691   6.064 -0.1410  0.4219 -0.3701
 7558SOL    HW134307   0.679   4.625   6.101 -0.3174  0.0668 -1.2956
 7558SOL    HW234308   0.698   0.037   6.100  0.9337 -0.1921  2.2020
 7559SOL     OW34309   1.950   2.057   9.769 -0.0483  0.2806  0.2881
 7559SOL    HW134310   1.976   1.970   9.736  0.5076  0.8920 -0.8832
 7559SOL    HW234311   1.871   2.064   9.714  1.5985  1.8876 -1.8723
 7560SOL     OW34312   0.023   1.673   4.437 -0.0412  0.2207  0.1130
 7560SOL    HW134313   0.079   1.746   4.410  0.8638 -0.9452 -1.1938
 7560SOL    HW234314   0.065   1.643   4.518 -0.1917  0.3743  0.2471
 7561SOL     OW34315   0.248   3.446  10.976  0.0116  0.3505  0.2926
 7561SOL    HW134316   0.293   3.372  10.934  0.7456 -0.1772  2.0044
 7561SOL    HW234317   0.169   3.404  11.009 -0.6691  0.2351 -1.5006
 7562SOL     OW34318   3.470   1.497  16.350 -0.3583 -0.3963  0.2455
 7562SOL    HW134319   3.539   1.531  16.407 -1.1053  0.9356  0.3530
 7562SOL    HW234320   3.398   1.546  16.388 -1.1513  0.4640 -2.3194
 7563SOL     OW34321   3.112   2.100   7.599 -0.3113  0.3437 -1.0504
 7563SOL    HW134322   3.114   2.183   7.647 -1.4335 -1.3185  1.9023
 7563SOL    HW234323   3.201   2.065   7.597 -0.4574 -0.1904  1.1532
 7564SOL     OW34324   0.497   2.872   4.584  0.2090  0.0677 -0.5811
 7564SOL    HW134325   0.469   2.805   4.521 -2.3405  0.1851  0.4428
 7564SOL    HW234326   0.592   2.864   4.584  0.3026  1.2590  0.5779
 7565SOL     OW34327   1.879   3.809   7.605 -0.3204 -0.6730 -0.1596
 7565SOL    HW134328   1.837   3.799   7.520  0.0175 -1.7262 -0.2112
 7565SOL    HW234329   1.934   3.731   7.616  0.9226  0.1435 -0.5164
 7566SOL     OW34330   3.062   1.867   2.000 -0.9611  0.2539 -0.3349
 7566SOL    HW134331   3.093   1.791   1.951 -0.4898  0.7951 -0.8839
 7566SOL    HW234332   3.113   1.870   2.081  0.4415  0.0117 -1.2086
 7567SOL     OW34333   2.008   4.448   8.688 -0.1982 -0.3724  0.4273
 7567SOL    HW134334   2.043   4.359   8.678  0.6101  0.1227 -1.0439
 7567SOL    HW234335   2.021   4.489   8.603  2.0096 -0.4199  0.7454
 7568SOL     OW34336   1.551   2.606   6.800 -0.6736 -0.1595 -0.3551
 7568SOL    HW134337   1.560   2.608   6.705 -0.4386 -0.7196 -0.3454
 7568SOL    HW234338   1.544   2.514   6.825  0.9509  0.2848  1.8091
 7569SOL     OW34339   2.530   4.214   5.056 -0.6013  0.6073  0.0049
 7569SOL    HW134340   2.554   4.205   4.964  0.5501  0.5080  0.3229
 7569SOL    HW234341   2.441   4.249   5.045 -0.8802  0.1770  0.9157
 7570SOL     OW34342   3.644   4.509   1.323  0.0890  0.1384  0.0123
 7570SOL    HW134343   3.550   4.523   1.322  0.3879  2.2255  0.5459
 7570SOL    HW234344   3.667   4.556   1.404  1.5623  1.0301 -0.9096
 7571SOL     OW34345   2.293   4.587   3.401 -0.4812  0.1754  0.2315
 7571SOL    HW134346   2.308   4.667   3.451  2.1214  0.3314 -0.8278
 7571SOL    HW234347   2.384   4.570   3.377 -1.2728 -0.8739 -2.0578
 7572SOL     OW34348   2.803   0.938   5.605  0.4987  0.1723  1.0423
 7572SOL    HW134349   2.775   0.950   5.515  1.8952 -1.9391  0.3213
 7572SOL    HW234350   2.896   0.920   5.592  0.0901 -0.8864 -0.3829
 7573SOL     OW34351   1.716   4.654   5.094 -0.1143 -0.3091  0.1295
 7573SOL    HW134352   1.781   4.723   5.077 -0.4460 -0.4277 -1.6477
 7573SOL    HW234353   1.756   4.621   5.174  1.8678  1.0658 -0.2814
 7574SOL     OW34354   0.315   2.429   3.945 -0.2252  0.4422 -0.0672
 7574SOL    HW134355   0.247   2.472   3.893  0.2728 -0.1814 -1.2327
 7574SOL    HW234356   0.324   2.484   4.023 -0.7946  0.0990  0.2402
 7575SOL     OW34357   0.478   0.570   9.356  0.5622  0.1809 -0.0313
 7575SOL    HW134358   0.484   0.546   9.449 -0.1451  1.8268  0.4387
 7575SOL    HW234359   0.569   0.565   9.328 -0.2941 -0.0026 -2.7291
 7576SOL     OW34360   2.020   2.540   7.076 -0.4769  0.5043 -0.2881
 7576SOL    HW134361   2.001   2.634   7.074  1.0010  0.7858 -0.9255
 7576SOL    HW234362   2.067   2.529   7.159 -2.9162  0.3687  1.0725
 7577SOL     OW34363   1.177   2.728   1.678 -0.1058  0.3135  0.1744
 7577SOL    HW134364   1.110   2.781   1.720 -0.7075 -0.7025  0.5021
 7577SOL    HW234365   1.136   2.686   1.602 -1.0472 -2.3873  2.1817
 7578SOL     OW34366   3.260   3.543   2.792  0.1628  0.2448  0.0589
 7578SOL    HW134367   3.195   3.609   2.818  0.3403  1.6539 -3.1873
 7578SOL    HW234368   3.220   3.506   2.713  0.0452 -0.2663  0.3555
 7579SOL     OW34369   0.332   4.457   3.972  0.5339  0.2165 -0.1958
 7579SOL    HW134370   0.385   4.519   3.922 -1.7652  1.5551 -0.9446
 7579SOL    HW234371   0.281   4.505   4.037 -1.3995 -0.8458 -0.9282
 7580SOL     OW34372   2.182   2.574   8.710  0.3341 -0.0485 -0.0335
 7580SOL    HW134373   2.189   2.506   8.777  3.9428  1.4262  1.0797
 7580SOL    HW234374   2.117   2.637   8.740  0.4503  0.6030 -1.1321
 7581SOL     OW34375   4.428   3.751  14.763 -0.0456  0.7077  0.3862
 7581SOL    HW134376   4.508   3.729  14.715  0.0823  1.1511  0.3890
 7581SOL    HW234377   4.361   3.738  14.696  0.2992 -1.6094  0.4998
 7582SOL     OW34378   4.339   3.030   4.271  0.5033  0.4457  0.6718
 7582SOL    HW134379   4.307   3.106   4.319  1.5238  1.0894  0.3411
 7582SOL    HW234380   4.271   2.966   4.292  1.0911 -0.8727 -1.4083
 7583SOL     OW34381   4.417   0.394   6.709  0.5429 -0.0199 -0.1005
 7583SOL    HW134382   4.356   0.388   6.783  1.2527 -1.3655  0.3682
 7583SOL    HW234383   4.383   0.327   6.650  0.8974  0.1644 -0.5139
 7584SOL     OW34384   3.763   1.568  14.968  0.1355 -0.4694 -0.4943
 7584SOL    HW134385   3.751   1.654  14.927  0.0688 -1.0787 -1.7355
 7584SOL    HW234386   3.858   1.563  14.979 -0.2158 -0.5706  2.6505
 7585SOL     OW34387   4.655   1.342   9.594  0.0984  0.5688  0.4559
 7585SOL    HW134388   4.606   1.286   9.654 -2.4493 -0.2630 -2.4381
 7585SOL    HW234389   4.717   1.276   9.561 -1.5601 -1.6647  1.8384
 7586SOL     OW34390   3.751   1.842   6.238  0.4172 -0.1975 -0.6978
 7586SOL    HW134391   3.829   1.892   6.262  0.2861 -0.3694  0.0935
 7586SOL    HW234392   3.686   1.908   6.213 -1.9617 -2.6103 -0.9345
 7587SOL     OW34393   0.503   4.714   0.263  0.1765 -0.0656  0.5700
 7587SOL    HW134394   0.487   0.048   0.329  0.2649  0.5397 -0.0371
 7587SOL    HW234395   0.431   4.655   0.288 -0.4178  0.0226 -0.9277
 7588SOL     OW34396   0.040   2.575   9.519  0.7390 -0.1897 -0.0088
 7588SOL    HW134397   0.128   2.556   9.551  1.1504  0.1628 -0.9389
 7588SOL    HW234398   4.724   2.495   9.536  1.6925 -0.5223  1.1949
 7589SOL     OW34399   0.743   4.700  12.437  0.5975 -0.0305  0.4081
 7589SOL    HW134400   0.661   4.725  12.480 -0.9198 -0.3134 -2.2897
 7589SOL    HW234401   0.801   0.038  12.461  2.2494 -1.0288 -0.6010
 7590SOL     OW34402   0.916   3.609  13.752 -0.4055  0.0417 -0.3389
 7590SOL    HW134403   0.957   3.667  13.816 -0.6045  0.2539 -0.4048
 7590SOL    HW234404   0.851   3.666  13.711  1.3368  2.5060  0.3235
 7591SOL     OW34405   2.473   3.862   5.563  1.2210 -0.0875 -0.0326
 7591SOL    HW134406   2.436   3.835   5.647  0.2400  0.5751 -0.2469
 7591SOL    HW234407   2.496   3.953   5.580 -0.5127  0.4348 -0.4321
 7592SOL     OW34408   4.504   1.001   9.215  0.4091  0.1364  0.1771
 7592SOL    HW134409   4.445   1.077   9.220  0.1740 -0.1895  2.1418
 7592SOL    HW234410   4.555   1.000   9.295 -0.5977 -4.4750  0.7848
 7593SOL     OW34411   1.340   2.913  15.991 -0.2446 -0.0307  0.4356
 7593SOL    HW134412   1.247   2.917  15.969 -0.4537 -0.7715  1.1636
 7593SOL    HW234413   1.338   2.903  16.086  1.3903  1.5159  0.6332
 7594SOL     OW34414   0.562   2.705   2.833 -0.6477  0.1714  0.5171
 7594SOL    HW134415   0.586   2.623   2.790  1.7910  1.2315 -0.1731
 7594SOL    HW234416   0.496   2.733   2.770  0.0341  0.9958  0.1671
 7595SOL     OW34417   2.689   2.531   8.500 -0.4839 -0.0824 -0.2309
 7595SOL    HW134418   2.601   2.540   8.537  0.3384  0.6988  1.5501
 7595SOL    HW234419   2.694   2.598   8.431 -0.6140  1.4173  1.2061
 7596SOL     OW34420   0.583   3.215   5.634  0.2394 -0.1747 -0.3422
 7596SOL    HW134421   0.488   3.216   5.635  0.2504  0.0929  0.5147
 7596SOL    HW234422   0.614   3.305   5.647 -1.0703  0.4852 -1.8922
 7597SOL     OW34423   4.132   3.618   8.686 -1.0583 -0.1370 -0.6177
 7597SOL    HW134424   4.055   3.619   8.630 -1.0487  3.1183 -0.6052
 7597SOL    HW234425   4.198   3.667   8.638 -1.2773  0.8206  0.0482
 7598SOL     OW34426   2.300   0.726   6.715 -0.2478 -0.1708  0.1714
 7598SOL    HW134427   2.364   0.774   6.662  0.5136 -0.8114  0.5150
 7598SOL    HW234428   2.222   0.749   6.664 -0.2552 -2.0379 -0.6339
 7599SOL     OW34429   2.792   1.762  14.470 -0.2874 -0.5841 -0.0523
 7599SOL    HW134430   2.731   1.794  14.403  0.3728  1.2196  0.1975
 7599SOL    HW234431   2.728   1.702  14.508 -3.0082  1.1446 -1.9596
 7600SOL     OW34432   4.628   4.583   1.603 -0.2111 -0.0955 -0.1793
 7600SOL    HW134433   4.702   4.559   1.547  0.7069  1.8434  0.2115
 7600SOL    HW234434   4.620   4.675   1.579  0.3389 -0.0073 -0.0204
 7601SOL     OW34435   4.412   1.768   7.856 -0.0519  0.5574  0.1280
 7601SOL    HW134436   4.364   1.689   7.832 -1.3760  1.5391 -0.4877
 7601SOL    HW234437   4.371   1.831   7.797 -0.0278 -0.5670 -1.0781
 7602SOL     OW34438   1.875   0.488   9.573  0.2891 -0.2828  0.3454
 7602SOL    HW134439   1.816   0.424   9.611  0.2450  0.0544  0.8407
 7602SOL    HW234440   1.934   0.441   9.514 -0.4183 -2.4924  1.4301
 7603SOL     OW34441   0.147   0.659   8.652  0.1934  0.1062  0.0094
 7603SOL    HW134442   0.115   0.715   8.581 -1.0793  0.3366  0.7858
 7603SOL    HW234443   0.226   0.621   8.613 -0.0986  1.6216 -2.0563
 7604SOL     OW34444   1.351   1.123   4.216  0.2543 -0.3380 -0.0465
 7604SOL    HW134445   1.317   1.054   4.158 -2.1163  1.8146 -1.1912
 7604SOL    HW234446   1.307   1.108   4.299 -1.0857 -1.8151 -1.0200
 7605SOL     OW34447   2.458   4.372  10.798  0.4478  0.5939  0.1467
 7605SOL    HW134448   2.491   4.320  10.871  0.6476 -0.3566 -0.6219
 7605SOL    HW234449   2.501   4.327  10.726  0.7422 -0.9722  1.3048
 7606SOL     OW34450   1.985   1.385  11.611  0.3793 -0.6081  0.6574
 7606SOL    HW134451   2.047   1.315  11.630 -0.2345 -1.4361 -0.3607
 7606SOL    HW234452   2.049   1.455  11.601  0.5757 -0.9380 -0.3680
 7607SOL     OW34453   3.683   3.327   0.973 -0.2304 -0.1499 -0.0815
 7607SOL    HW134454   3.774   3.359   0.968 -0.1247 -0.2816  0.8889
 7607SOL    HW234455   3.662   3.317   0.880 -0.8196 -3.0817  0.3837
 7608SOL     OW34456   0.444   3.646   7.145 -0.0533  0.6874  0.2639
 7608SOL    HW134457   0.403   3.664   7.061 -1.7934  0.4352  1.0542
 7608SOL    HW234458   0.504   3.720   7.148 -0.7813  1.2381  1.3134
 7609SOL     OW34459   3.637   3.766  16.690 -0.1154 -0.3726  0.3793
 7609SOL    HW134460   3.722   3.810  16.686  1.1181 -2.6346  1.4022
 7609SOL    HW234461   3.635   3.714  16.609 -1.3820 -0.3054  0.3631
 7610SOL     OW34462   1.372   1.903   9.388  0.0386  0.0205  0.0133
 7610SOL    HW134463   1.284   1.901   9.427 -0.3438  0.1325 -0.8431
 7610SOL    HW234464   1.408   1.971   9.446  2.0886  0.6760 -2.0241
 7611SOL     OW34465   4.709   1.626  13.173 -0.5952  0.0128 -0.3900
 7611SOL    HW134466   4.728   1.577  13.253  0.0577  2.8104  1.1610
 7611SOL    HW234467   4.666   1.570  13.108 -2.4363  0.1179  0.7250
 7612SOL     OW34468   4.271   4.634  15.130  0.4021  0.1790  0.3003
 7612SOL    HW134469   4.313   4.576  15.066 -1.0566 -1.1233  0.5058
 7612SOL    HW234470   4.319   4.598  15.205  0.4380  1.0745  0.7087
 7613SOL     OW34471   1.663   2.372   4.771 -0.2636  0.0789  0.3126
 7613SOL    HW134472   1.655   2.294   4.825  3.6064 -0.7288 -0.2625
 7613SOL    HW234473   1.630   2.338   4.688 -0.6340  0.8358  0.1547
 7614SOL     OW34474   3.070   0.353   1.489  0.4566 -0.0921  0.9979
 7614SOL    HW134475   3.082   0.443   1.520  2.2673 -0.1533  0.4608
 7614SOL    HW234476   3.040   0.372   1.400 -0.7093 -0.8674  1.2237
 7615SOL     OW34477   4.704   4.409   3.746  0.0817  0.5322 -0.2591
 7615SOL    HW134478   4.659   4.410   3.661  0.5782 -0.3833 -0.5284
 7615SOL    HW234479   0.037   4.348   3.718 -0.0943 -0.0176  0.5542
 7616SOL     OW34480   0.208   4.230   4.594  0.4249 -0.3273  0.3268
 7616SOL    HW134481   0.299   4.257   4.601  0.8018 -1.5311  0.0675
 7616SOL    HW234482   0.172   4.306   4.641 -1.4297 -0.5516 -0.7120
 7617SOL     OW34483   4.434   3.196  15.482 -0.0420  0.3358  0.4811
 7617SOL    HW134484   4.505   3.260  15.478 -0.6100  0.8110 -2.5558
 7617SOL    HW234485   4.369   3.235  15.422  0.4475  0.5816  0.1079
 7618SOL     OW34486   1.743   1.653   7.473 -0.3793 -0.0971 -0.3764
 7618SOL    HW134487   1.710   1.703   7.548  2.3088  2.9100 -1.2154
 7618SOL    HW234488   1.835   1.679   7.476 -0.4000 -0.0538 -0.0899
 7619SOL     OW34489   1.419   3.112   7.150  0.3434  0.1132 -0.6453
 7619SOL    HW134490   1.499   3.064   7.175 -0.1700 -0.1485  0.5320
 7619SOL    HW234491   1.415   3.150   7.238  0.7286  1.5483 -1.2578
 7620SOL     OW34492   3.155   0.010   7.620  0.1826 -0.3631 -0.4239
 7620SOL    HW134493   3.239   0.032   7.579  0.5481  0.4994  0.7938
 7620SOL    HW234494   3.180   4.715   7.708  1.8078 -0.1606 -0.8229
 7621SOL     OW34495   0.463   1.630   8.298  0.2119  0.2860  0.6728
 7621SOL    HW134496   0.489   1.685   8.224  0.5800 -0.5178  0.2033
 7621SOL    HW234497   0.369   1.628   8.281 -0.0627  0.7038  2.1082
 7622SOL     OW34498   2.456   4.723   6.956 -0.0918 -0.6419  0.0306
 7622SOL    HW134499   2.429   4.706   7.046 -1.8775 -0.5393 -0.4838
 7622SOL    HW234500   2.502   0.072   6.965 -2.0413  0.4453  0.0457
 7623SOL     OW34501   4.342   4.724   4.074 -0.0841  0.7479 -0.1317
 7623SOL    HW134502   4.380   4.668   4.006 -0.4036 -1.7385  1.7136
 7623SOL    HW234503   4.250   4.710   4.051  0.1165 -1.1465  0.1996
 7624SOL     OW34504   3.298   0.855   5.129  0.2871  0.8665 -0.9772
 7624SOL    HW134505   3.391   0.879   5.132  0.3702  0.1025  2.2128
 7624SOL    HW234506   3.259   0.940   5.150  3.1450  1.6230  1.2930
 7625SOL     OW34507   4.215   1.509   4.458  0.3473  0.0239  0.3373
 7625SOL    HW134508   4.241   1.600   4.469  0.9673 -0.0762 -0.3054
 7625SOL    HW234509   4.226   1.473   4.546  2.9850 -0.1186 -0.0591
 7626SOL     OW34510   2.865   4.513  17.131 -0.1161 -0.3146 -0.9075
 7626SOL    HW134511   2.846   4.605  17.152  0.1893 -0.5025  0.1781
 7626SOL    HW234512   2.960   4.512  17.118 -0.0404  0.8168 -0.4682
 7627SOL     OW34513   3.004   1.248   6.050 -0.4503  0.3218  0.5157
 7627SOL    HW134514   2.978   1.221   5.963  0.6193  0.4207  0.1635
 7627SOL    HW234515   2.954   1.329   6.055  1.4381  1.5348 -0.1201
 7628SOL     OW34516   3.768   0.558   4.230 -0.7191  0.1948 -0.1749
 7628SOL    HW134517   3.699   0.608   4.273  0.2257 -0.3547  1.9783
 7628SOL    HW234518   3.790   0.600   4.147 -1.2677  2.2601  0.7404
 7629SOL     OW34519   4.047   2.902   5.490  0.0444  0.6384 -0.0127
 7629SOL    HW134520   4.085   2.914   5.577 -0.1883  4.1961 -0.3906
 7629SOL    HW234521   4.080   2.983   5.451  0.9562  0.4551  0.3784
 7630SOL     OW34522   0.476   0.528  16.690  0.9893  0.4593  0.1530
 7630SOL    HW134523   0.464   0.597  16.755  2.3121  0.9857 -0.1729
 7630SOL    HW234524   0.411   0.556  16.625 -0.0984 -1.6133  0.3491
 7631SOL     OW34525   1.876   4.447  12.867 -0.2234 -0.1767  0.5383
 7631SOL    HW134526   1.798   4.479  12.822 -0.3524 -0.5415  0.4995
 7631SOL    HW234527   1.840   4.384  12.930 -0.0494 -0.1709  0.6430
 7632SOL     OW34528   4.013   0.006  12.115 -0.3223  0.0166 -0.0767
 7632SOL    HW134529   3.999   0.072  12.047  0.2764  1.2090  0.9616
 7632SOL    HW234530   4.073   0.049  12.175 -0.9438  2.0198 -0.8915
 7633SOL     OW34531   0.338   1.877   6.989  0.1524 -0.2558  0.0019
 7633SOL    HW134532   0.274   1.895   6.920 -1.9861 -1.9137  1.5560
 7633SOL    HW234533   0.285   1.830   7.054 -1.6349  0.0544 -1.2126
 7634SOL     OW34534   1.160   1.742  11.620 -0.1618  0.3219  0.1692
 7634SOL    HW134535   1.221   1.697  11.678 -1.5918  0.4051  1.7174
 7634SOL    HW234536   1.128   1.671  11.564 -2.3778  0.4789  1.2350
 7635SOL     OW34537   1.836   2.665  17.321 -0.0492  0.4289  0.4609
 7635SOL    HW134538   1.806   2.646  17.410 -1.3782  1.5392  0.2408
 7635SOL    HW234539   1.803   2.590  17.271  0.1968  0.1606  0.6973
 7636SOL     OW34540   1.337   2.295   8.869  0.0441 -0.1211  0.0776
 7636SOL    HW134541   1.281   2.325   8.941 -1.2095 -0.1369 -0.9041
 7636SOL    HW234542   1.317   2.202   8.862  0.1585 -0.0243 -1.5662
 7637SOL     OW34543   2.635   0.254   3.865  0.1271  0.0513 -0.1717
 7637SOL    HW134544   2.601   0.253   3.954  4.5840 -0.2052  1.4748
 7637SOL    HW234545   2.705   0.189   3.869  1.1319  1.0879 -0.8437
 7638SOL     OW34546   0.468   4.446   0.943 -0.1527 -0.2060  0.4406
 7638SOL    HW134547   0.508   4.425   0.859  0.1746  0.7031  0.3762
 7638SOL    HW234548   0.406   4.515   0.918  0.5489 -0.1424 -1.0900
 7639SOL     OW34549   2.195   1.390  12.774 -0.0438  0.2706 -0.2386
 7639SOL    HW134550   2.260   1.422  12.712 -0.6639  1.7700 -0.1294
 7639SOL    HW234551   2.171   1.464  12.830  1.5254  1.6949 -1.4485
 7640SOL     OW34552   1.802   4.644   7.900  0.5473 -0.0714 -0.1105
 7640SOL    HW134553   1.834   4.716   7.954 -0.0823  0.0675  0.0788
 7640SOL    HW234554   1.758   4.595   7.970 -2.4392  1.1158 -1.1527
 7641SOL     OW34555   2.108   0.647   3.908  0.1902 -0.1698  0.3596
 7641SOL    HW134556   2.151   0.702   3.973  0.2600 -2.0116  1.8697
 7641SOL    HW234557   2.141   0.559   3.924  2.1637  0.7695  1.3568
 7642SOL     OW34558   3.997   1.463   5.186  0.2405 -0.0977  0.1624
 7642SOL    HW134559   3.929   1.398   5.205 -0.8027 -0.0846 -3.4584
 7642SOL    HW234560   4.073   1.417   5.222  0.5365  0.5090  0.3021
 7643SOL     OW34561   2.476   0.940  16.640 -0.0487  0.5770  0.0370
 7643SOL    HW134562   2.540   1.005  16.613  2.3011 -1.5159  0.5567
 7643SOL    HW234563   2.407   0.997  16.674  0.8462  0.5588  1.9060
 7644SOL     OW34564   4.112   4.140   5.215  0.0138 -0.7288  0.1857
 7644SOL    HW134565   4.123   4.073   5.148 -0.1453  0.4136 -0.9643
 7644SOL    HW234566   4.028   4.117   5.255 -0.9758 -1.2856 -2.2468
 7645SOL     OW34567   3.497   0.942   8.091 -0.1153  0.6828  0.1701
 7645SOL    HW134568   3.542   0.884   8.152 -3.0763 -1.9632 -0.1789
 7645SOL    HW234569   3.569   1.001   8.068  0.4623  0.0080  0.2428
 7646SOL     OW34570   1.689   0.708   2.937 -0.1628  0.7766  0.4046
 7646SOL    HW134571   1.654   0.756   2.862  1.1603 -0.9435 -1.3227
 7646SOL    HW234572   1.615   0.705   2.996  0.3536 -1.2428  0.9604
 7647SOL     OW34573   2.338   0.586   4.493  0.0954 -0.5645 -0.2042
 7647SOL    HW134574   2.293   0.583   4.578  1.1407 -0.5061  0.3507
 7647SOL    HW234575   2.330   0.493   4.475 -1.2637 -0.6683  0.9262
 7648SOL     OW34576   3.489   0.635  13.161 -0.3647  0.2867 -0.0205
 7648SOL    HW134577   3.566   0.691  13.166 -0.4523  0.4194 -0.1428
 7648SOL    HW234578   3.421   0.702  13.164 -0.3201  0.2874  0.8000
 7649SOL     OW34579   3.303   3.941   5.516 -0.1612  0.5225 -0.3311
 7649SOL    HW134580   3.282   3.971   5.428  1.0027 -0.0502 -0.8144
 7649SOL    HW234581   3.215   3.919   5.547 -0.0317 -0.0913 -0.4024
 7650SOL     OW34582   1.523   2.547  14.927  0.0503 -0.0627  0.2990
 7650SOL    HW134583   1.541   2.623  14.983 -0.6778  0.8864 -0.7635
 7650SOL    HW234584   1.451   2.500  14.970  0.0647 -0.7337 -0.4013
 7651SOL     OW34585   3.803   2.075   6.690 -0.4506  0.3596  0.4735
 7651SOL    HW134586   3.854   1.997   6.712  2.0068  1.4415 -1.3936
 7651SOL    HW234587   3.846   2.109   6.612 -2.0083  0.7196 -0.2085
 7652SOL     OW34588   3.092   0.847  10.169 -0.1660 -0.0632  0.0468
 7652SOL    HW134589   3.103   0.941  10.160  1.2706 -0.5084 -2.9896
 7652SOL    HW234590   3.184   0.828  10.150  0.1118  1.3362  0.0196
 7653SOL     OW34591   1.404   3.635   6.505 -0.8166  0.2314 -0.2559
 7653SOL    HW134592   1.448   3.718   6.486  0.9209 -0.4572  0.7632
 7653SOL    HW234593   1.427   3.611   6.594  1.9436 -0.8434 -1.2628
 7654SOL     OW34594   0.301   1.137   7.282 -0.1248 -0.5535 -0.3891
 7654SOL    HW134595   0.305   1.186   7.364  3.9312  0.3217 -1.1219
 7654SOL    HW234596   0.264   1.209   7.230 -0.6712 -0.5765 -0.0320
 7655SOL     OW34597   0.003   3.647  15.240  0.3303  0.2199  0.0886
 7655SOL    HW134598   4.712   3.739  15.232  1.4023  0.5776  0.8066
 7655SOL    HW234599   4.655   3.601  15.256 -0.4083  1.5365  0.0621
 7656SOL     OW34600   3.586   0.976  17.697  0.3446  0.8392 -0.1226
 7656SOL    HW134601   3.526   0.997  17.625 -1.4113 -1.2027  0.7197
 7656SOL    HW234602   3.584   0.881  17.708 -0.8813  0.9150  0.3671
 7657SOL     OW34603   3.242   4.019   9.022  0.0100  0.3219  0.0337
 7657SOL    HW134604   3.270   3.959   9.091  2.8071  0.6245 -0.8483
 7657SOL    HW234605   3.163   3.970   9.000  0.3694  0.6804 -2.0825
 7658SOL     OW34606   0.161   1.762   7.178 -0.6466  0.2907  0.3633
 7658SOL    HW134607   0.151   1.788   7.270 -2.0342  0.0270  0.2826
 7658SOL    HW234608   0.082   1.718   7.148 -0.8298 -0.1357  1.4868
 7659SOL     OW34609   4.696   0.237   3.047  0.2764 -0.1886  0.1098
 7659SOL    HW134610   0.050   0.204   3.069 -0.1819 -2.9026 -2.0380
 7659SOL    HW234611   4.710   0.323   3.007  1.5203  0.1443  1.2526
 7660SOL     OW34612   0.324   3.315   5.718  0.5893  0.3061 -0.8252
 7660SOL    HW134613   0.348   3.363   5.797  0.1354  0.4578 -0.7795
 7660SOL    HW234614   0.254   3.262   5.756 -0.0242  1.4609 -0.3435
 7661SOL     OW34615   4.662   0.250  10.397  0.0573 -0.2043 -0.0344
 7661SOL    HW134616   4.733   0.243  10.332 -0.8377 -0.0694 -1.0253
 7661SOL    HW234617   4.618   0.325  10.357  0.9489 -0.9410 -2.4087
 7662SOL     OW34618   2.740   3.166  16.725  0.2343  0.2251 -0.2350
 7662SOL    HW134619   2.803   3.162  16.797  0.0798  1.3591 -0.0367
 7662SOL    HW234620   2.658   3.159  16.773  0.1363  2.6420 -0.0933
 7663SOL     OW34621   1.467   3.124   2.112  0.2607 -0.3309  0.5980
 7663SOL    HW134622   1.542   3.165   2.156 -0.1587 -0.5663  1.5113
 7663SOL    HW234623   1.413   3.203   2.117  1.2525  0.3954  0.1006
 7664SOL     OW34624   0.750   1.855   9.113 -0.4570 -0.2357 -0.3537
 7664SOL    HW134625   0.754   1.780   9.172  0.8190 -0.9720 -1.3766
 7664SOL    HW234626   0.707   1.814   9.039 -0.0841  0.4403 -0.9421
 7665SOL     OW34627   0.055   3.549  14.861 -0.1491 -0.1131  0.3161
 7665SOL    HW134628   4.696   3.567  14.870 -0.2029 -0.8489  1.2888
 7665SOL    HW234629   0.058   3.453  14.868  2.1833 -0.2521 -2.4920
 7666SOL     OW34630   3.348   3.750   8.873 -0.7791 -0.3225 -0.1197
 7666SOL    HW134631   3.318   3.765   8.963  0.8987  0.3202  0.3432
 7666SOL    HW234632   3.271   3.703   8.840 -0.2509 -1.9492  0.9592
 7667SOL     OW34633   1.997   0.615   0.031 -0.0114 -0.0641  0.3348
 7667SOL    HW134634   2.026   0.692   0.079  1.0225  0.1361 -0.6094
 7667SOL    HW234635   1.915   0.599   0.078 -0.5282 -0.4921 -0.7072
 7668SOL     OW34636   2.330   4.327  17.700  0.2412  0.1315  0.4750
 7668SOL    HW134637   2.310   4.275   0.043 -2.1982  0.6000  0.1695
 7668SOL    HW234638   2.290   4.278  17.628 -0.0628  0.9755  0.0761
 7669SOL     OW34639   1.074   3.796  12.354 -0.1999  0.3258 -0.1681
 7669SOL    HW134640   1.062   3.877  12.305 -0.1317  0.9582  0.8561
 7669SOL    HW234641   1.011   3.750  12.298 -0.7049 -0.2733  0.8751
 7670SOL     OW34642   1.294   4.415   9.263  0.0895 -0.5095  0.1329
 7670SOL    HW134643   1.237   4.347   9.226 -2.1167  2.5413 -2.0281
 7670SOL    HW234644   1.366   4.423   9.201 -0.7607 -0.0750 -0.7853
 7671SOL     OW34645   1.927   1.207  15.076 -0.5832  0.1385  0.6022
 7671SOL    HW134646   2.004   1.196  15.132  0.7540 -0.3051 -1.3164
 7671SOL    HW234647   1.869   1.141  15.113 -0.2705  0.5348  1.8209
 7672SOL     OW34648   2.634   1.319   5.856  0.4476 -0.0194 -0.6211
 7672SOL    HW134649   2.679   1.238   5.879  2.5758  1.1006 -0.7405
 7672SOL    HW234650   2.702   1.380   5.885 -0.1347 -0.8926  2.5364
 7673SOL     OW34651   4.604   4.060   7.925 -0.1451 -0.2930 -0.1178
 7673SOL    HW134652   4.520   4.092   7.957 -0.2567  0.5986 -1.3114
 7673SOL    HW234653   4.611   3.982   7.981 -2.8138 -1.1338 -0.9455
 7674SOL     OW34654   2.268   1.601   4.253  0.1194 -0.0128  0.0746
 7674SOL    HW134655   2.300   1.631   4.338  0.9055  1.3572 -0.7074
 7674SOL    HW234656   2.330   1.529   4.247 -0.6533 -0.6253 -0.6285
 7675SOL     OW34657   2.386   3.386   8.027 -0.3404  0.6267 -0.3279
 7675SOL    HW134658   2.451   3.325   7.992  0.5144  1.9961 -1.1036
 7675SOL    HW234659   2.372   3.440   7.949  1.3743  2.5493  0.7075
 7676SOL     OW34660   2.649   3.668   6.106  0.1616 -0.0895 -0.2209
 7676SOL    HW134661   2.627   3.622   6.025 -0.7821  1.6327 -0.9464
 7676SOL    HW234662   2.579   3.645   6.167 -0.5042  1.1503 -0.5189
 7677SOL     OW34663   4.082   1.461   7.125 -0.3252 -0.3220  0.2414
 7677SOL    HW134664   4.012   1.466   7.060  1.4791 -2.1069 -1.8347
 7677SOL    HW234665   4.042   1.424   7.204  0.0503 -0.7461  0.2330
 7678SOL     OW34666   4.082   2.802  17.479 -0.0169 -0.0295  0.7676
 7678SOL    HW134667   4.025   2.751  17.422 -2.8031  2.4375  1.3443
 7678SOL    HW234668   4.165   2.792  17.432 -0.7148 -0.8195 -0.2801
 7679SOL     OW34669   1.686   3.068   7.218 -0.2446  0.4104 -0.2066
 7679SOL    HW134670   1.675   3.009   7.293  0.9433  0.4610 -0.0011
 7679SOL    HW234671   1.721   3.143   7.266 -0.9469 -0.9314  2.4405
 7680SOL     OW34672   4.041   0.615  15.385 -0.5894  0.4326 -0.2959
 7680SOL    HW134673   3.961   0.647  15.343 -1.5595  0.2580  1.3882
 7680SOL    HW234674   4.100   0.686  15.360  1.1207 -0.0431  2.3857
 7681SOL     OW34675   3.590   4.218   7.461 -0.2933 -0.1628 -0.9428
 7681SOL    HW134676   3.611   4.284   7.395 -0.9325 -0.3380 -1.3148
 7681SOL    HW234677   3.674   4.199   7.503 -0.0443 -0.5793 -1.6268
 7682SOL     OW34678   3.463   4.111   4.304 -0.2426 -0.1048 -0.4647
 7682SOL    HW134679   3.441   4.077   4.391  0.8768  1.8425  0.5797
 7682SOL    HW234680   3.556   4.091   4.307  0.1453  1.5642 -1.3537
 7683SOL     OW34681   4.444   0.084   7.807 -0.0613 -0.3972 -0.2415
 7683SOL    HW134682   4.425   0.177   7.821  1.1211 -0.0243 -1.1106
 7683SOL    HW234683   4.505   0.067   7.879 -0.0823 -1.0416 -0.3776
 7684SOL     OW34684   2.403   3.498   4.805  0.2445 -0.1228  0.5338
 7684SOL    HW134685   2.373   3.460   4.723  1.6851  1.0219 -0.5026
 7684SOL    HW234686   2.370   3.426   4.860 -2.1904  1.0863  0.6627
 7685SOL     OW34687   0.631   0.124   5.735 -0.2718 -0.2844 -0.1439
 7685SOL    HW134688   0.686   0.185   5.684 -2.0195  1.2429 -0.1835
 7685SOL    HW234689   0.697   0.056   5.749  0.7627  1.0739  1.7288
 7686SOL     OW34690   2.857   1.141   5.834  0.0894  0.3821  0.5111
 7686SOL    HW134691   2.844   1.155   5.740  0.4411 -1.7056  0.1471
 7686SOL    HW234692   2.910   1.061   5.831 -0.8757 -0.2423 -0.2276
 7687SOL     OW34693   2.874   2.733   4.724 -0.1353 -0.0238  0.0204
 7687SOL    HW134694   2.967   2.713   4.710  0.0452  0.4286  0.5987
 7687SOL    HW234695   2.882   2.821   4.759 -1.6243 -0.4842  1.4856
 7688SOL     OW34696   0.509   4.406   2.866  0.0273 -0.9302  0.4469
 7688SOL    HW134697   0.559   4.475   2.909  1.5654 -0.6068 -1.8633
 7688SOL    HW234698   0.485   4.457   2.788 -0.7891 -0.0222  1.2995
 7689SOL     OW34699   3.591   0.721   5.145  0.5575 -0.0456  0.0032
 7689SOL    HW134700   3.679   0.745   5.118  1.0122 -0.8694  0.7771
 7689SOL    HW234701   3.599   0.702   5.238 -1.3502 -0.2729  0.1379
 7690SOL     OW34702   3.581   1.995   5.233 -0.3832  0.4977  0.6059
 7690SOL    HW134703   3.535   1.924   5.189  1.9364  0.6269 -2.0306
 7690SOL    HW234704   3.594   1.953   5.318 -1.5478  0.4227  0.7530
 7691SOL     OW34705   3.767   4.148   6.740  0.3534  0.5113  0.5059
 7691SOL    HW134706   3.699   4.207   6.706 -0.3371 -0.9126 -0.5787
 7691SOL    HW234707   3.713   4.085   6.787 -2.0647  2.0442 -0.1737
 7692SOL     OW34708   1.504   0.184   9.703  0.0950 -0.4323  0.4649
 7692SOL    HW134709   1.585   0.178   9.654  0.1483  1.4452  0.3257
 7692SOL    HW234710   1.473   0.096   9.681  0.1852 -0.3388 -0.0409
 7693SOL     OW34711   4.337   2.807   6.043  0.0376 -0.3760  0.1407
 7693SOL    HW134712   4.377   2.800   5.956  2.0033  1.3029  0.9194
 7693SOL    HW234713   4.359   2.723   6.084 -1.4948 -0.3226  1.0704
 7694SOL     OW34714   1.391   1.589   9.863  0.1552 -0.5493 -0.9282
 7694SOL    HW134715   1.349   1.512   9.825 -1.1654 -0.2725 -0.0235
 7694SOL    HW234716   1.451   1.549   9.926  1.1549  1.0769 -0.8482
 7695SOL     OW34717   2.288   4.556   9.328 -0.5235 -0.0739  0.4195
 7695SOL    HW134718   2.210   4.501   9.339 -1.1733  0.9452  0.8523
 7695SOL    HW234719   2.357   4.490   9.325 -0.5985 -0.2115  1.9236
 7696SOL     OW34720   2.866   4.043   1.650  0.1961 -0.0773 -0.0516
 7696SOL    HW134721   2.848   4.060   1.742  5.1712  0.4683  0.8173
 7696SOL    HW234722   2.955   4.013   1.667  0.2094 -0.5778 -0.9940
 7697SOL     OW34723   3.491   4.243   6.385  0.5348 -0.3742  0.2756
 7697SOL    HW134724   3.511   4.313   6.323 -0.0367 -0.5510 -0.1092
 7697SOL    HW234725   3.440   4.182   6.331 -0.5510  0.3705  0.4561
 7698SOL     OW34726   1.603   0.880   9.034 -0.0648 -0.6914  0.4057
 7698SOL    HW134727   1.554   0.827   8.972  3.1562 -2.4999 -0.6115
 7698SOL    HW234728   1.606   0.814   9.103  1.7177  0.1081  1.0997
 7699SOL     OW34729   3.894   3.710   3.938  0.2298  0.2226 -0.0518
 7699SOL    HW134730   3.914   3.803   3.929 -0.1526  0.2731 -0.3705
 7699SOL    HW234731   3.967   3.666   3.894 -0.8012 -0.1492 -1.4007
 7700SOL     OW34732   3.282   3.881   5.994  0.3296 -0.2046 -0.2573
 7700SOL    HW134733   3.365   3.865   5.949  0.8432  0.2781  0.5184
 7700SOL    HW234734   3.217   3.842   5.936  1.1941 -1.1880 -0.5624
 7701SOL     OW34735   0.007   4.205   7.097  0.7243  0.0856 -0.4846
 7701SOL    HW134736   0.003   4.144   7.024  0.6829  0.7925 -1.0749
 7701SOL    HW234737   0.061   4.161   7.162  0.1661  0.3530  0.1627
 7702SOL     OW34738   2.529   3.112   9.101 -0.2686 -0.2424 -0.7361
 7702SOL    HW134739   2.466   3.151   9.041  0.6437  0.4476 -1.2450
 7702SOL    HW234740   2.587   3.184   9.124 -2.6567  1.7485 -1.0707
 7703SOL     OW34741   2.216   2.407   3.766 -0.0400 -0.0496 -0.4506
 7703SOL    HW134742   2.241   2.468   3.697  1.2296 -2.0363 -1.7451
 7703SOL    HW234743   2.188   2.480   3.822 -0.0503 -1.4620  1.3898
 7704SOL     OW34744   3.724   3.206   8.834 -0.3635  0.0475 -0.7368
 7704SOL    HW134745   3.704   3.135   8.774 -0.3579 -0.6887  0.1270
 7704SOL    HW234746   3.818   3.189   8.839 -0.5057  0.0661  2.2741
 7705SOL     OW34747   3.331   4.162   7.534 -0.8414 -0.1559 -0.5038
 7705SOL    HW134748   3.256   4.161   7.475 -1.9462  0.0542  0.9029
 7705SOL    HW234749   3.408   4.132   7.486 -0.0475  0.4862  0.3828
 7706SOL     OW34750   0.624   1.498   7.595 -0.2089 -0.3759  0.0334
 7706SOL    HW134751   0.663   1.585   7.606 -2.0337  0.4331  0.1285
 7706SOL    HW234752   0.671   1.448   7.662  1.3517  0.8369 -0.1437
 7707SOL     OW34753   1.077   2.873  15.900 -0.6201  0.3009 -0.4966
 7707SOL    HW134754   1.077   2.905  15.810 -2.4439  1.9489  0.1097
 7707SOL    HW234755   1.043   2.784  15.908 -2.9720  1.1039 -1.6615
 7708SOL     OW34756   1.169   0.255   3.464 -0.7403  0.3271 -0.3900
 7708SOL    HW134757   1.126   0.311   3.529 -0.3337 -0.8696  0.9275
 7708SOL    HW234758   1.148   0.297   3.381 -1.4009  1.4858  0.3643
 7709SOL     OW34759   4.603   0.720   7.392 -0.1881  0.1770 -0.3747
 7709SOL    HW134760   4.589   0.786   7.460 -1.6548 -0.9229  0.3921
 7709SOL    HW234761   4.689   0.683   7.409  0.8588  2.2461 -1.2144
 7710SOL     OW34762   2.769   4.151   4.853 -0.2215  0.2257 -0.4366
 7710SOL    HW134763   2.848   4.108   4.888 -0.8491 -0.5858 -0.0151
 7710SOL    HW234764   2.737   4.098   4.781 -0.2029 -0.2772 -0.0722
 7711SOL     OW34765   0.911   3.934   3.571 -0.1676  0.6592  0.5388
 7711SOL    HW134766   0.996   3.962   3.604  0.5337 -2.1899  1.1875
 7711SOL    HW234767   0.905   3.855   3.624  1.1470  0.6159  0.6410
 7712SOL     OW34768   4.014   1.036  12.704 -0.4400 -0.4379  0.1203
 7712SOL    HW134769   4.023   0.966  12.769  3.1880  0.7276  0.8901
 7712SOL    HW234770   4.103   1.063  12.680  0.2298 -1.7925  1.0436
 7713SOL     OW34771   3.928   1.458   1.244 -0.3395 -0.3744  0.7636
 7713SOL    HW134772   3.969   1.434   1.327 -0.4909  0.5584  1.1119
 7713SOL    HW234773   3.836   1.432   1.249  0.3201 -2.6598  0.9812
 7714SOL     OW34774   4.483   2.381  16.142 -0.0781 -0.1776 -0.2252
 7714SOL    HW134775   4.492   2.320  16.068 -1.7403 -0.2138 -0.4040
 7714SOL    HW234776   4.397   2.347  16.164 -0.4056  0.3454 -0.6808
 7715SOL     OW34777   0.524   1.968   8.908  0.4994 -0.3246  0.2841
 7715SOL    HW134778   0.538   2.033   8.840 -3.0969  0.6698  0.4839
 7715SOL    HW234779   0.441   1.997   8.947  0.3251 -1.5307  0.8307
 7716SOL     OW34780   1.982   4.511   6.312 -0.4471  0.2372 -0.1872
 7716SOL    HW134781   1.890   4.500   6.336 -0.1167 -2.0027  0.0022
 7716SOL    HW234782   1.970   4.527   6.219 -3.0197 -3.3447 -0.4494
 7717SOL     OW34783   1.471   1.868   5.258 -0.3045  0.1500  0.6153
 7717SOL    HW134784   1.431   1.812   5.191 -0.8318  0.9084  0.2917
 7717SOL    HW234785   1.393   1.860   5.314  0.4848 -2.1740  1.4045
 7718SOL     OW34786   2.124   0.497   8.376 -0.0672 -0.1033  0.2310
 7718SOL    HW134787   2.187   0.425   8.374 -0.8347 -0.7428 -1.5206
 7718SOL    HW234788   2.071   0.466   8.449 -1.4109 -1.2107 -1.1904
 7719SOL     OW34789   3.241   4.416  17.096 -0.4157  0.4996  0.3010
 7719SOL    HW134790   3.280   4.497  17.061  2.2795 -0.7116  0.5113
 7719SOL    HW234791   3.189   4.394  17.018 -2.4759  0.6911  1.6294
 7720SOL     OW34792   0.982   3.700   3.710 -0.1874 -0.2595  0.6032
 7720SOL    HW134793   1.054   3.716   3.771 -0.7662 -0.1850  1.2741
 7720SOL    HW234794   0.924   3.646   3.764 -0.2997 -0.7712 -0.0360
 7721SOL     OW34795   1.260   3.714   7.926  0.1759  0.1065  0.2430
 7721SOL    HW134796   1.169   3.726   7.955 -0.0684 -1.3607  0.0739
 7721SOL    HW234797   1.300   3.795   7.960 -1.0519  0.9842 -0.4003
 7722SOL     OW34798   0.501   3.208   7.428  0.2354 -0.5419  0.5160
 7722SOL    HW134799   0.518   3.114   7.438 -1.4463 -1.2555 -3.1143
 7722SOL    HW234800   0.465   3.208   7.339 -1.9684 -1.3583  1.3924
 7723SOL     OW34801   1.417   3.137   0.984  0.7269  0.2261 -0.6267
 7723SOL    HW134802   1.474   3.195   1.035  0.1760 -0.0022  0.2312
 7723SOL    HW234803   1.404   3.066   1.046 -0.2887  0.3898 -0.6577
 7724SOL     OW34804   3.073   0.234  13.664 -0.0028  0.5591  0.1174
 7724SOL    HW134805   3.008   0.181  13.710 -0.9251  1.5009 -0.0775
 7724SOL    HW234806   3.105   0.292  13.733 -0.2376 -0.4494  1.0760
 7725SOL     OW34807   1.895   1.174   2.006 -0.2218 -0.4205 -0.2349
 7725SOL    HW134808   1.989   1.175   2.022 -0.1128  3.8235 -1.1833
 7725SOL    HW234809   1.883   1.251   1.951  1.0242  1.0560  1.5629
 7726SOL     OW34810   0.399   4.422   7.703  0.6426  0.4213  0.5145
 7726SOL    HW134811   0.445   4.340   7.720  1.9758  1.1626  0.5097
 7726SOL    HW234812   0.339   4.437   7.776 -0.2880 -2.2892  0.3046
 7727SOL     OW34813   2.831   4.321  15.689  0.3476 -0.1863  0.3070
 7727SOL    HW134814   2.773   4.286  15.757  0.2890  1.0053  0.8834
 7727SOL    HW234815   2.804   4.273  15.611 -1.4024  0.6998  0.3587
 7728SOL     OW34816   3.220   3.486  17.042 -0.1691  0.1633  0.2402
 7728SOL    HW134817   3.226   3.394  17.014  2.3302  0.6690 -0.8421
 7728SOL    HW234818   3.195   3.525  16.958  1.3130  2.3713  0.8456
 7729SOL     OW34819   1.377   1.260   2.004 -0.0589  0.9255  0.2336
 7729SOL    HW134820   1.347   1.348   2.030 -2.0625  0.0205  1.0130
 7729SOL    HW234821   1.339   1.249   1.917  2.1343 -2.8698 -0.2267
 7730SOL     OW34822   3.524   1.290  16.167  0.4952 -0.3307 -0.1338
 7730SOL    HW134823   3.437   1.257  16.143 -1.6725  4.6842  0.8904
 7730SOL    HW234824   3.510   1.372  16.214 -0.8385 -0.8953  0.4535
 7731SOL     OW34825   2.374   3.059   5.789 -0.0843 -0.4504  0.2260
 7731SOL    HW134826   2.452   3.090   5.744 -0.2044  0.1107  0.4014
 7731SOL    HW234827   2.391   3.104   5.872 -2.1615 -0.6901  0.7941
 7732SOL     OW34828   1.994   4.093   4.538 -0.0294  0.4983 -0.1459
 7732SOL    HW134829   1.907   4.063   4.563  0.5173  0.6975  2.0096
 7732SOL    HW234830   1.994   4.179   4.580  1.9239  1.0316 -1.2138
 7733SOL     OW34831   1.804   1.558   9.465 -0.1760 -0.3122  0.1416
 7733SOL    HW134832   1.728   1.503   9.486 -1.8699  1.9126 -0.1123
 7733SOL    HW234833   1.803   1.628   9.530  0.3567  0.0568 -0.2465
 7734SOL     OW34834   0.417   4.118   3.117 -0.2749  0.3527 -0.0450
 7734SOL    HW134835   0.422   4.065   3.197  0.8581 -0.5011 -0.6924
 7734SOL    HW234836   0.326   4.148   3.121 -0.3105  0.1840  0.4697
 7735SOL     OW34837   4.371   3.274  14.605 -0.7219  0.0596  0.1537
 7735SOL    HW134838   4.281   3.250  14.628 -0.4541 -2.3352 -1.4174
 7735SOL    HW234839   4.352   3.303  14.516  1.3818  1.6225  0.2107
 7736SOL     OW34840   4.327   2.675   4.335 -0.0308 -0.4871 -0.0554
 7736SOL    HW134841   4.403   2.650   4.387  0.4260 -3.0444 -1.9653
 7736SOL    HW234842   4.258   2.688   4.400  0.6314 -1.5812  0.8739
 7737SOL     OW34843   4.036   2.560  14.845  0.8504 -0.6429  0.8438
 7737SOL    HW134844   4.066   2.646  14.814 -2.0348 -0.2229 -0.7881
 7737SOL    HW234845   4.112   2.515  14.807 -0.3000 -3.9993  2.5602
 7738SOL     OW34846   4.057   4.704   5.399  0.2708  0.9221 -0.4962
 7738SOL    HW134847   4.062   4.653   5.318  2.7086  2.6376 -1.4463
 7738SOL    HW234848   4.027   0.051   5.357  0.1493  1.7715  1.2575
 7739SOL     OW34849   2.000   2.572   4.203  0.1444  0.3951  0.8813
 7739SOL    HW134850   1.957   2.658   4.203  0.4208  0.5349  0.7593
 7739SOL    HW234851   2.069   2.587   4.268  0.3054 -0.1964  0.8478
 7740SOL     OW34852   2.487   1.599   2.146 -0.3909  0.4670 -0.1813
 7740SOL    HW134853   2.476   1.549   2.227  1.0552 -0.7012 -0.6957
 7740SOL    HW234854   2.472   1.537   2.075 -0.7346 -0.7100  0.9237
 7741SOL     OW34855   0.703   3.710  10.516  0.2546  0.5750 -0.4084
 7741SOL    HW134856   0.721   3.676  10.603 -1.7181  1.9183  0.5029
 7741SOL    HW234857   0.770   3.661  10.467  1.5123  0.6474  1.2684
 7742SOL     OW34858   1.027   2.691   2.584 -0.4547 -0.1825 -0.3007
 7742SOL    HW134859   0.995   2.762   2.529 -0.5519 -1.1382 -1.4687
 7742SOL    HW234860   1.005   2.611   2.536  2.2502 -0.9627 -0.2209
 7743SOL     OW34861   3.504   0.695   9.644 -0.7081  0.7212 -0.4727
 7743SOL    HW134862   3.500   0.660   9.733 -1.6446 -0.2577 -0.9023
 7743SOL    HW234863   3.596   0.724   9.641 -0.3638 -0.1049  1.9547
 7744SOL     OW34864   3.546   3.329   4.046  0.3946  0.2476 -0.1092
 7744SOL    HW134865   3.583   3.268   3.982  1.3169 -0.5001  1.1521
 7744SOL    HW234866   3.598   3.404   4.015 -2.5591  1.9067 -1.0742
 7745SOL     OW34867   3.009   3.570   3.536 -0.6765  0.1246  0.8376
 7745SOL    HW134868   3.022   3.637   3.469 -2.4458  0.6462  1.0086
 7745SOL    HW234869   2.964   3.506   3.480 -0.9805 -0.3362  1.6037
 7746SOL     OW34870   2.483   2.253   8.658 -0.9891  0.1901 -0.1952
 7746SOL    HW134871   2.507   2.275   8.748  0.6051  0.4334 -0.6921
 7746SOL    HW234872   2.561   2.204   8.632 -0.5132  0.0374  1.5292
 7747SOL     OW34873   2.779   2.780   7.676  0.5011 -0.4204 -0.5667
 7747SOL    HW134874   2.760   2.785   7.582  2.8107  0.4526 -1.0032
 7747SOL    HW234875   2.693   2.800   7.712  1.4761  1.1791  0.8572
 7748SOL     OW34876   1.256   3.253   8.189  0.5212  0.8549 -0.0360
 7748SOL    HW134877   1.272   3.170   8.233 -0.6653  0.3187 -0.6048
 7748SOL    HW234878   1.238   3.222   8.100 -0.2906 -0.9299  0.7555
 7749SOL     OW34879   0.622   3.884  11.254  0.2525 -0.2210 -0.1799
 7749SOL    HW134880   0.685   3.926  11.313 -0.4773 -0.3140  0.6784
 7749SOL    HW234881   0.681   3.846  11.189  1.0353 -0.1875  0.5116
 7750SOL     OW34882   3.871   3.179  15.475  0.4077 -0.0075 -0.2140
 7750SOL    HW134883   3.944   3.165  15.535  0.9346 -2.9816 -1.5427
 7750SOL    HW234884   3.804   3.198  15.540  0.3467  0.3203 -0.3711
 7751SOL     OW34885   3.690   0.607   1.693  0.3464 -0.0386 -0.3030
 7751SOL    HW134886   3.714   0.699   1.683  1.8760 -0.5300 -1.0609
 7751SOL    HW234887   3.687   0.584   1.786 -1.9313 -1.1798 -0.6506
 7752SOL     OW34888   4.504   0.580   5.862 -0.2577  0.5162  0.0514
 7752SOL    HW134889   4.427   0.637   5.862 -0.9243 -0.4073 -4.1350
 7752SOL    HW234890   4.560   0.646   5.820  0.3055  0.8308  1.3020
 7753SOL     OW34891   1.371   2.364  13.864  0.7107  0.2975  0.0542
 7753SOL    HW134892   1.410   2.280  13.839 -2.7212 -1.1994 -0.3827
 7753SOL    HW234893   1.321   2.392  13.787  0.5059  0.6264  0.3074
 7754SOL     OW34894   2.625   4.146   3.095  0.0170 -0.5171  0.3375
 7754SOL    HW134895   2.610   4.091   3.018 -0.2708  1.2020 -0.8288
 7754SOL    HW234896   2.563   4.114   3.160 -0.4346 -1.9600 -0.8040
 7755SOL     OW34897   4.578   2.304   9.313 -0.5479  0.6057 -0.3337
 7755SOL    HW134898   4.603   2.316   9.404  0.2553 -2.2913 -0.1666
 7755SOL    HW234899   4.555   2.392   9.283  0.1618  1.7808  2.5609
 7756SOL     OW34900   0.428   2.313   6.023  0.1734 -0.0425 -0.0985
 7756SOL    HW134901   0.459   2.403   6.014 -1.1441  0.4766  0.7377
 7756SOL    HW234902   0.346   2.320   5.975  1.0090  0.7959 -1.4177
 7757SOL     OW34903   1.282   1.838   1.318  0.0345 -0.1969 -0.2268
 7757SOL    HW134904   1.302   1.928   1.347  0.1242 -0.6157  1.0318
 7757SOL    HW234905   1.188   1.827   1.313 -0.2581  2.4924 -0.7364
 7758SOL     OW34906   2.398   0.508   8.527 -0.1486 -0.4549 -0.6097
 7758SOL    HW134907   2.346   0.518   8.606  2.1568 -1.1802  1.0084
 7758SOL    HW234908   2.432   0.419   8.539 -3.0159 -1.4182  0.2998
 7759SOL     OW34909   1.810   0.728  16.061 -0.5614 -0.1633 -0.3000
 7759SOL    HW134910   1.867   0.737  16.138  0.3243  0.1059 -0.9850
 7759SOL    HW234911   1.736   0.768  16.106 -0.3651  1.9315 -1.8705
 7760SOL     OW34912   2.154   4.069   0.977  0.0276  0.4259 -0.3844
 7760SOL    HW134913   2.239   4.033   0.953 -0.4814 -1.2214  0.2953
 7760SOL    HW234914   2.131   4.031   1.061 -0.7659  0.0835 -0.7518
 7761SOL     OW34915   4.631   3.004   4.244  0.7568  0.6339  0.3159
 7761SOL    HW134916   4.686   3.058   4.302 -0.8059  2.4585  0.1294
 7761SOL    HW234917   4.545   3.045   4.257  0.9885  0.2720  2.9639
 7762SOL     OW34918   0.757   1.199   1.430  0.5492 -0.6714 -0.0251
 7762SOL    HW134919   0.736   1.107   1.412 -1.1715 -0.1702 -0.5657
 7762SOL    HW234920   0.747   1.197   1.526  0.3506  2.9525  0.0120
 7763SOL     OW34921   3.251   0.952  16.245 -0.4846  0.8493 -1.1891
 7763SOL    HW134922   3.271   1.039  16.210  0.7909  1.6575  1.4975
 7763SOL    HW234923   3.293   0.950  16.331 -2.9547 -1.3914 -0.0360
 7764SOL     OW34924   4.115   0.722   1.480 -0.1319 -0.2291  0.5139
 7764SOL    HW134925   4.113   0.687   1.569 -0.7224  0.8324  0.9210
 7764SOL    HW234926   4.071   0.657   1.426  0.8906  2.5570 -3.6268
 7765SOL     OW34927   3.028   2.929  16.099 -0.1331 -0.3074  0.1368
 7765SOL    HW134928   3.028   2.978  16.017 -2.8891  2.0441  1.5176
 7765SOL    HW234929   2.989   2.994  16.157  2.0915  1.1347  0.0163
 7766SOL     OW34930   4.524   2.323   3.430 -0.4017  0.3085 -0.7051
 7766SOL    HW134931   4.578   2.387   3.475 -0.3612  0.3684 -0.8395
 7766SOL    HW234932   4.438   2.350   3.463  0.0999  1.5876 -0.4588
 7767SOL     OW34933   0.800   3.580  15.303 -0.8071 -0.4517  0.5557
 7767SOL    HW134934   0.765   3.539  15.224  0.6060 -1.7963  0.6344
 7767SOL    HW234935   0.725   3.631  15.334 -1.4279 -1.6208  0.9634
 7768SOL     OW34936   3.552   2.500   4.816 -0.4283 -0.4797 -0.0624
 7768SOL    HW134937   3.577   2.584   4.855 -0.6068 -1.1889  1.5671
 7768SOL    HW234938   3.612   2.439   4.859  0.5079 -0.0301 -0.7338
 7769SOL     OW34939   0.620   3.432   9.897 -0.3998  0.1055 -0.3352
 7769SOL    HW134940   0.588   3.452   9.985  2.0539  0.5239  0.4717
 7769SOL    HW234941   0.713   3.455   9.898 -0.5378  0.7013 -3.0228
 7770SOL     OW34942   2.991   2.533   6.664 -0.0583  0.4098 -0.4587
 7770SOL    HW134943   3.027   2.459   6.614  0.8475  1.5635 -1.5529
 7770SOL    HW234944   2.917   2.547   6.605 -2.2491 -3.6758  1.3609
 7771SOL     OW34945   2.753   3.716  13.276  0.2587 -0.0709 -0.2511
 7771SOL    HW134946   2.667   3.674  13.280  0.5092 -0.6464 -0.9670
 7771SOL    HW234947   2.736   3.801  13.234  0.1953  0.1826  0.2955
 7772SOL     OW34948   3.186   3.273   4.567 -0.1262  0.2205  0.4690
 7772SOL    HW134949   3.238   3.205   4.524 -0.3983 -0.2769  0.9275
 7772SOL    HW234950   3.216   3.256   4.656 -0.4554  3.5519  1.2214
 7773SOL     OW34951   2.241   0.137   5.064 -1.0112  0.0261 -0.7425
 7773SOL    HW134952   2.308   0.204   5.045 -2.1475  1.9797  2.2378
 7773SOL    HW234953   2.290   0.089   5.131  1.0409  2.1809 -0.6763
 7774SOL     OW34954   2.124   2.304  12.393 -0.2927 -0.0293 -0.5619
 7774SOL    HW134955   2.214   2.336  12.401 -0.0646 -0.9510  0.5646
 7774SOL    HW234956   2.143   2.210  12.382  1.1085  0.4875 -2.4788
 7775SOL     OW34957   2.410   1.190   5.589 -0.2161  0.0194 -0.4829
 7775SOL    HW134958   2.430   1.145   5.671  0.8064  0.4990 -0.4803
 7775SOL    HW234959   2.495   1.205   5.548  0.1878 -2.4902 -0.5640
 7776SOL     OW34960   3.824   2.878   7.508  0.4606 -0.0318 -0.4960
 7776SOL    HW134961   3.798   2.941   7.575 -4.4262 -2.2724 -0.3157
 7776SOL    HW234962   3.813   2.799   7.561 -0.3709  1.4132  1.4985
 7777SOL     OW34963   3.665   3.666   2.133  0.5038 -0.0930 -0.2271
 7777SOL    HW134964   3.570   3.648   2.135  0.7995 -1.2488  3.6463
 7777SOL    HW234965   3.700   3.588   2.176  1.7739  0.1884 -0.7456
 7778SOL     OW34966   3.609   4.346   3.017 -0.0313 -0.3911  0.2290
 7778SOL    HW134967   3.593   4.322   2.926 -1.9720 -1.7276  0.9400
 7778SOL    HW234968   3.524   4.384   3.040  0.4899  1.3857 -0.8365
 7779SOL     OW34969   1.129   4.082   3.619 -0.3228 -0.0415 -0.0000
 7779SOL    HW134970   1.219   4.093   3.589 -0.8915 -0.2591 -1.7898
 7779SOL    HW234971   1.120   4.156   3.679  2.2307 -1.9666  2.7485
 7780SOL     OW34972   2.154   3.247   7.010  0.5802  0.3205 -0.3408
 7780SOL    HW134973   2.146   3.241   7.105 -0.1460  0.1626 -0.4118
 7780SOL    HW234974   2.148   3.156   6.978 -0.2696  0.8264 -1.6506
 7781SOL     OW34975   0.350   0.461   7.059  0.3079 -0.0439  0.2116
 7781SOL    HW134976   0.294   0.449   7.135 -1.2990  1.6735 -0.7082
 7781SOL    HW234977   0.339   0.376   7.018 -0.6797  0.7753 -1.2042
 7782SOL     OW34978   4.347   3.797   6.773  0.3789 -0.0363  0.2710
 7782SOL    HW134979   4.364   3.873   6.829  0.1348  2.1615 -2.6879
 7782SOL    HW234980   4.259   3.823   6.746  0.4481  0.4740  0.5367
 7783SOL     OW34981   3.707   3.521   8.775  0.2363  0.2050 -0.3620
 7783SOL    HW134982   3.721   3.428   8.794 -2.8250  0.0272  1.0039
 7783SOL    HW234983   3.782   3.562   8.818 -0.4031  0.4218  0.5541
 7784SOL     OW34984   3.776   3.178   6.570 -0.5111 -0.7502 -0.2499
 7784SOL    HW134985   3.695   3.155   6.524 -0.1504  0.4158 -1.4756
 7784SOL    HW234986   3.756   3.267   6.599  1.3833  0.3415 -2.2422
 7785SOL     OW34987   1.409   4.438   2.126  0.0625  0.2569  0.3695
 7785SOL    HW134988   1.413   4.374   2.054  0.4060  0.1616  0.4690
 7785SOL    HW234989   1.445   4.514   2.079  1.7963 -0.7795  0.0072
 7786SOL     OW34990   0.297   3.998   0.796  0.1732  0.2130  0.0212
 7786SOL    HW134991   0.373   3.941   0.793  1.6717  2.1361  1.0008
 7786SOL    HW234992   0.321   4.040   0.879 -4.3295  1.1137  0.8808
 7787SOL     OW34993   2.702   4.318   4.318  0.3027  0.4364  0.7630
 7787SOL    HW134994   2.711   4.393   4.260 -1.2859 -0.3683 -0.5435
 7787SOL    HW234995   2.766   4.341   4.385 -0.1484  1.2968  0.8886
 7788SOL     OW34996   1.358   2.558   7.226 -0.2678  0.1529  0.3610
 7788SOL    HW134997   1.294   2.560   7.156  1.0845 -0.8858 -0.9093
 7788SOL    HW234998   1.355   2.462   7.230 -1.4072  0.1663 -0.2305
 7789SOL     OW34999   0.418   2.185   5.120 -0.2818  0.1721 -0.4436
 7789SOL    HW135000   0.512   2.200   5.132  0.2666 -3.1353 -0.7116
 7789SOL    HW235001   0.385   2.181   5.210  3.2904 -0.0652  0.8450
 7790SOL     OW35002   0.668   0.914  12.714  0.4551 -0.4111  0.3360
 7790SOL    HW135003   0.601   0.875  12.770  0.3729  0.9129  1.1586
 7790SOL    HW235004   0.747   0.873  12.748  1.5188  0.8671 -0.5818
 7791SOL     OW35005   4.455   1.697   8.389 -0.3059  0.1835 -0.1834
 7791SOL    HW135006   4.518   1.696   8.317  0.3875 -0.7047  0.4336
 7791SOL    HW235007   4.472   1.608   8.420 -1.2242  0.6099  1.5670
 7792SOL     OW35008   4.507   0.230   5.788 -0.1109  0.9935 -0.7297
 7792SOL    HW135009   4.544   0.272   5.865  1.2262 -1.7854  0.1195
 7792SOL    HW235010   4.414   0.227   5.812 -0.0622  2.1146 -0.3990
 7793SOL     OW35011   2.288   3.336  12.778 -0.4243  0.2220  0.0075
 7793SOL    HW135012   2.297   3.373  12.865  0.9824  1.7019 -0.7724
 7793SOL    HW235013   2.195   3.350  12.759 -0.6978 -1.1587  0.3606
 7794SOL     OW35014   1.269   1.986  11.457  0.0441 -0.4103  0.0345
 7794SOL    HW135015   1.214   1.911  11.477  0.1652 -0.6989 -0.7002
 7794SOL    HW235016   1.300   2.011  11.544  0.8547 -2.0734  0.2205
 7795SOL     OW35017   4.607   0.262   9.885  0.5368 -0.0937 -0.2691
 7795SOL    HW135018   4.645   0.349   9.894 -1.0883  0.6318 -0.3801
 7795SOL    HW235019   4.552   0.254   9.963  0.0497 -0.0311 -0.6093
 7796SOL     OW35020   1.466   3.296  14.657  0.0726  0.3900 -0.0913
 7796SOL    HW135021   1.509   3.241  14.591 -1.6867 -2.7865  1.4079
 7796SOL    HW235022   1.443   3.227  14.718  0.6610  0.2840  0.0142
 7797SOL     OW35023   1.960   4.214   1.553 -0.1194 -0.1840  0.9587
 7797SOL    HW135024   1.990   4.269   1.626  0.6249  0.0834  0.4452
 7797SOL    HW235025   1.875   4.252   1.531 -1.1200 -2.6773  0.5353
 7798SOL     OW35026   0.088   0.235  11.816 -0.0468  0.0336  0.2991
 7798SOL    HW135027   0.037   0.156  11.836  1.7182 -1.0013  0.7202
 7798SOL    HW235028   0.118   0.204  11.731 -3.8026 -2.5130 -0.1063
 7799SOL     OW35029   2.670   1.582   2.607  0.3925  0.5746 -0.0894
 7799SOL    HW135030   2.642   1.592   2.698  0.0502 -1.5553  0.0310
 7799SOL    HW235031   2.729   1.658   2.600  0.2788  0.8928  2.1679
 7800SOL     OW35032   1.672   0.678  11.352 -0.3745 -0.4586  0.3112
 7800SOL    HW135033   1.752   0.641  11.313  0.4872  0.3149  1.3758
 7800SOL    HW235034   1.656   0.759  11.304  0.1543  0.0414  0.9918
 7801SOL     OW35035   0.628   0.175   3.697 -0.4284 -0.6302 -0.8858
 7801SOL    HW135036   0.708   0.123   3.710  0.2800  0.6764 -0.0615
 7801SOL    HW235037   0.607   0.213   3.782  1.5475  0.7096 -0.9972
 7802SOL     OW35038   3.050   4.109   0.852  0.1423 -0.4381 -0.6241
 7802SOL    HW135039   3.066   4.029   0.803 -0.2969  0.7624 -2.7060
 7802SOL    HW235040   3.085   4.178   0.796  1.0205 -0.3334  0.0395
 7803SOL     OW35041   1.243   3.620  14.056  0.4982  0.1243  0.3892
 7803SOL    HW135042   1.318   3.559  14.060  0.0553 -0.3502  1.6497
 7803SOL    HW235043   1.176   3.554  14.074  0.7516 -0.2034  0.1321
 7804SOL     OW35044   0.313   0.270   4.277  0.1084  0.7964 -0.1206
 7804SOL    HW135045   0.306   0.176   4.258 -1.1832  1.3061 -2.2120
 7804SOL    HW235046   0.368   0.282   4.354  0.2959 -1.1098  0.0521
 7805SOL     OW35047   1.605   3.485   3.451  0.0680 -0.2166  0.2502
 7805SOL    HW135048   1.697   3.506   3.464 -0.1803  1.2583 -0.3224
 7805SOL    HW235049   1.605   3.452   3.361  3.0875 -0.5478  0.3597
 7806SOL     OW35050   0.236   2.208   7.389 -0.9296  0.2358  0.2056
 7806SOL    HW135051   0.190   2.167   7.315  0.3526 -1.1347  0.1629
 7806SOL    HW235052   0.256   2.135   7.448 -0.1561 -0.0294 -0.3869
 7807SOL     OW35053   3.660   2.616  17.218  0.7148 -0.3101 -0.1727
 7807SOL    HW135054   3.597   2.545  17.204 -0.9536  1.4787 -1.6990
 7807SOL    HW235055   3.668   2.662  17.135  1.2180  0.4734  0.3133
 7808SOL     OW35056   0.632   4.024   2.428  0.3075  0.6590 -0.0384
 7808SOL    HW135057   0.616   3.998   2.338  0.5368 -2.6740  0.8769
 7808SOL    HW235058   0.610   4.116   2.415 -1.3643  0.6835  2.9471
 7809SOL     OW35059   0.339   3.317   2.482  0.1586 -0.0419  0.4049
 7809SOL    HW135060   0.405   3.333   2.549 -0.2494  0.1466  0.7635
 7809SOL    HW235061   0.264   3.338   2.538  0.3092  0.0644  0.5645
 7810SOL     OW35062   2.356   4.380  14.441  0.1237  0.7286 -0.8100
 7810SOL    HW135063   2.296   4.350  14.510  1.6326 -0.2022  0.1049
 7810SOL    HW235064   2.390   4.299  14.403  1.2089  0.3727  0.9371
 7811SOL     OW35065   4.553   4.623  14.000 -0.5452 -0.1500 -0.1175
 7811SOL    HW135066   4.613   4.567  13.950  0.5590  1.4442 -0.5526
 7811SOL    HW235067   4.487   4.555  14.014  1.0075 -1.1887  2.1290
 7812SOL     OW35068   0.999   1.202   3.794  0.3303  0.1851  0.4574
 7812SOL    HW135069   1.069   1.159   3.745 -0.9553  0.6407 -1.7768
 7812SOL    HW235070   0.992   1.284   3.745  1.6085 -0.9391 -1.5908
 7813SOL     OW35071   1.513   1.111   7.706 -0.4085  0.1710 -0.5677
 7813SOL    HW135072   1.571   1.042   7.674 -1.0129  0.7058 -2.8505
 7813SOL    HW235073   1.560   1.146   7.781  1.4579 -0.4101 -1.4699
 7814SOL     OW35074   0.840   4.625  16.256 -0.1078 -0.5547  0.2261
 7814SOL    HW135075   0.895   4.676  16.315  1.1300 -1.9830  0.3177
 7814SOL    HW235076   0.858   4.532  16.273 -0.5534 -0.6833 -0.0137
 7815SOL     OW35077   4.137   3.651   0.554 -0.1715 -0.3153 -0.1844
 7815SOL    HW135078   4.080   3.711   0.506  0.1212  1.2366  1.4306
 7815SOL    HW235079   4.157   3.702   0.632  0.4559 -2.1934  0.8844
 7816SOL     OW35080   0.635   2.529   7.254 -1.1386 -0.4133 -0.5946
 7816SOL    HW135081   0.637   2.599   7.190  1.0520  0.1427  0.0747
 7816SOL    HW235082   0.555   2.481   7.233 -2.8879  3.0108 -1.6955
 7817SOL     OW35083   0.581   1.034   5.463 -0.5067 -0.0486  0.0026
 7817SOL    HW135084   0.676   1.049   5.462 -0.9955  2.8257 -2.0872
 7817SOL    HW235085   0.558   1.022   5.371 -0.3059 -2.0979  0.2051
 7818SOL     OW35086   3.566   0.187   5.868 -0.0568  0.5250  0.0822
 7818SOL    HW135087   3.476   0.163   5.890 -0.0443 -1.0583 -1.6583
 7818SOL    HW235088   3.598   0.177   5.957 -1.7907 -0.8991  0.5422
 7819SOL     OW35089   4.108   3.149  15.610  0.3630 -0.2776  0.0424
 7819SOL    HW135090   4.128   3.101  15.690 -1.1083  1.0698  1.2131
 7819SOL    HW235091   4.126   3.239  15.635 -1.4212  0.2141 -0.4415
 7820SOL     OW35092   2.747   1.156   4.439  0.2913  0.1889 -0.2690
 7820SOL    HW135093   2.809   1.217   4.400 -1.1496  2.5576  1.1667
 7820SOL    HW235094   2.762   1.073   4.392  1.9163 -0.0414  0.6378
 7821SOL     OW35095   4.530   2.010  12.250 -0.1043 -0.0799 -0.0810
 7821SOL    HW135096   4.574   2.004  12.165 -0.5610 -1.8637 -0.2011
 7821SOL    HW235097   4.581   1.942  12.294 -0.3157  0.0105  0.2961
 7822SOL     OW35098   4.439   0.741   8.007  0.1337 -0.6201 -0.2734
 7822SOL    HW135099   4.486   0.658   8.005 -0.4486 -0.9688  0.1762
 7822SOL    HW235100   4.367   0.721   8.068  0.4568  0.8332  0.5865
 7823SOL     OW35101   2.402   2.258  12.394 -0.1954 -0.0291 -0.6628
 7823SOL    HW135102   2.390   2.282  12.486  0.4680 -1.8151 -0.1063
 7823SOL    HW235103   2.489   2.293  12.379  0.1405  0.3437  2.0752
 7824SOL     OW35104   3.383   2.472   0.752 -0.1069 -0.2401  0.3881
 7824SOL    HW135105   3.442   2.464   0.677  1.9480  1.0693  1.8411
 7824SOL    HW235106   3.408   2.389   0.794  0.4860  0.3727  1.2499
 7825SOL     OW35107   1.278   3.994   5.962 -0.2904 -0.6261  0.7578
 7825SOL    HW135108   1.350   3.955   6.012  2.6133  1.4599 -1.7458
 7825SOL    HW235109   1.225   3.914   5.954  0.0343 -0.4527 -3.5211
 7826SOL     OW35110   0.291   1.006   9.093 -0.2247 -0.0035 -0.3762
 7826SOL    HW135111   0.321   0.919   9.120 -4.5757 -1.2054  0.6164
 7826SOL    HW235112   0.196   0.998   9.103 -0.4455  0.7923 -1.8424
 7827SOL     OW35113   4.326   0.885   1.437 -0.0750  0.0793 -0.4322
 7827SOL    HW135114   4.393   0.828   1.474 -0.7612 -0.8162 -0.5841
 7827SOL    HW235115   4.250   0.834   1.466  1.0357 -1.7248 -0.7169
 7828SOL     OW35116   0.310   4.109   5.918 -0.7634  0.3492  0.6490
 7828SOL    HW135117   0.247   4.058   5.968 -2.3762  0.9121 -0.8164
 7828SOL    HW235118   0.384   4.116   5.979 -1.3664  1.5137  1.2523
 7829SOL     OW35119   1.898   4.632   5.314  0.3084  0.1286 -0.0746
 7829SOL    HW135120   1.922   4.545   5.345 -2.0707 -0.4684  0.1001
 7829SOL    HW235121   1.957   4.642   5.239  0.5422  0.2888  0.1305
 7830SOL     OW35122   4.429   0.430   8.280 -0.2659  0.1129 -0.0834
 7830SOL    HW135123   4.450   0.339   8.263 -2.0115 -0.6032  1.5282
 7830SOL    HW235124   4.500   0.478   8.237 -0.4722 -1.3602 -2.0377
 7831SOL     OW35125   0.438   1.427   6.399 -0.0812  0.2667  0.1464
 7831SOL    HW135126   0.523   1.433   6.444  1.2409  1.8257 -2.5629
 7831SOL    HW235127   0.448   1.331   6.402 -2.1298  0.0453 -0.4611
 7832SOL     OW35128   1.222   1.924   1.583  0.3320  0.1402  0.3671
 7832SOL    HW135129   1.255   1.974   1.508 -1.4265 -2.6517 -2.2372
 7832SOL    HW235130   1.298   1.876   1.616  1.3299  0.4101 -1.4979
 7833SOL     OW35131   1.496   2.287   9.107 -0.0108 -0.1248 -0.2375
 7833SOL    HW135132   1.456   2.201   9.122  1.2333 -0.2572  2.2920
 7833SOL    HW235133   1.484   2.290   9.012  1.1150  0.5139 -0.3619
 7834SOL     OW35134   4.177   3.856   0.779  0.1252 -0.0914  0.6081
 7834SOL    HW135135   4.150   3.806   0.856  0.6021 -2.8818 -1.0328
 7834SOL    HW235136   4.251   3.900   0.822  0.0877  1.5531 -1.0045
 7835SOL     OW35137   2.586   1.538   4.656 -0.0130  0.4526 -0.3007
 7835SOL    HW135138   2.625   1.454   4.630 -0.7083 -0.5543  1.8679
 7835SOL    HW235139   2.545   1.497   4.732  1.0956  0.3584  0.2452
 7836SOL     OW35140   1.168   4.208   7.206 -0.3901 -0.4919  0.6049
 7836SOL    HW135141   1.170   4.184   7.113  1.5533  1.0538  0.2480
 7836SOL    HW235142   1.201   4.124   7.237 -0.5265 -0.3088  1.2377
 7837SOL     OW35143   1.318   0.077   9.005  0.4460 -0.4982 -0.5246
 7837SOL    HW135144   1.253   0.009   8.990  0.0287 -0.0289 -0.8333
 7837SOL    HW235145   1.358   0.048   9.087  1.1211 -1.1204 -1.0677
 7838SOL     OW35146   2.930   3.333   8.032 -0.1410  0.2172 -0.3306
 7838SOL    HW135147   2.896   3.257   7.983  0.8909 -1.6280  1.8226
 7838SOL    HW235148   2.993   3.354   7.964  0.1289  0.1466 -0.0993
 7839SOL     OW35149   2.647   3.374   4.500 -0.4754 -0.0720 -0.8380
 7839SOL    HW135150   2.738   3.348   4.489 -0.3106 -0.1015  0.6516
 7839SOL    HW235151   2.654   3.456   4.452  3.0354 -0.2331 -0.5735
 7840SOL     OW35152   3.424   2.005   5.500  0.1624 -0.1770 -0.0583
 7840SOL    HW135153   3.457   2.094   5.497  1.8026 -0.7820  0.2141
 7840SOL    HW235154   3.481   1.953   5.557 -1.5491 -1.8702  0.1310
 7841SOL     OW35155   3.855   2.307   9.239 -0.6930 -0.2620 -0.0135
 7841SOL    HW135156   3.862   2.308   9.144  1.7798  1.4195  0.1994
 7841SOL    HW235157   3.940   2.307   9.283 -1.6798  0.9011  1.9123
 7842SOL     OW35158   1.279   3.980   4.916  0.1290  0.0130  0.2161
 7842SOL    HW135159   1.313   4.046   4.856 -0.9220 -0.5416 -0.9993
 7842SOL    HW235160   1.361   3.932   4.928 -0.3389 -1.2341 -1.5732
 7843SOL     OW35161   3.887   0.201   6.395 -0.0951  0.0568  0.1227
 7843SOL    HW135162   3.949   0.198   6.468 -0.2092 -2.9669  0.0940
 7843SOL    HW235163   3.937   0.206   6.314  0.2352  3.1177  0.5508
 7844SOL     OW35164   2.621   3.555   7.029  0.0621 -0.0002  0.1753
 7844SOL    HW135165   2.594   3.577   7.118  3.7601  0.1998  1.2287
 7844SOL    HW235166   2.608   3.638   6.984  0.5674  0.8562  1.6202
 7845SOL     OW35167   3.357   2.566   5.813 -0.4150 -0.2894  0.0435
 7845SOL    HW135168   3.312   2.521   5.884 -0.2591 -2.7336 -1.4192
 7845SOL    HW235169   3.281   2.607   5.771 -0.2645 -0.0972 -0.0448
 7846SOL     OW35170   3.189   3.261   3.736  0.1202 -0.0170  0.3130
 7846SOL    HW135171   3.218   3.218   3.817  0.6433 -2.1718 -1.0299
 7846SOL    HW235172   3.254   3.237   3.670  0.0707 -2.3263  1.1063
 7847SOL     OW35173   0.313   3.775   4.241 -0.4276  0.6332  0.0829
 7847SOL    HW135174   0.358   3.774   4.325  3.2367  0.7178 -1.9002
 7847SOL    HW235175   0.327   3.863   4.208  0.8348  0.5683  0.4386
 7848SOL     OW35176   3.158   4.323  17.550 -0.0849  0.1880 -0.3661
 7848SOL    HW135177   3.190   4.241  17.589 -0.2678 -0.4663 -1.5959
 7848SOL    HW235178   3.070   4.297  17.523 -0.3847  0.0400  0.7617
 7849SOL     OW35179   3.764   0.773   6.613  0.5588  0.7567 -0.5887
 7849SOL    HW135180   3.786   0.745   6.525  1.9730 -0.4431  0.1486
 7849SOL    HW235181   3.740   0.865   6.597 -0.2355  0.9595  1.6773
 7850SOL     OW35182   3.654   2.608   4.110 -0.0507  0.2124  0.3316
 7850SOL    HW135183   3.695   2.523   4.126  0.7522  0.5196 -0.1273
 7850SOL    HW235184   3.589   2.587   4.043 -1.0900  0.8077  1.1612
 7851SOL     OW35185   0.835   3.190   9.998 -0.3503  0.2784 -0.2144
 7851SOL    HW135186   0.852   3.283   9.984 -1.6586  0.6687  0.8325
 7851SOL    HW235187   0.854   3.185  10.092 -0.2572 -1.9682 -0.3541
 7852SOL     OW35188   0.136   3.364  16.091  0.2471 -0.4223  0.2759
 7852SOL    HW135189   0.117   3.457  16.082  1.7177 -0.2097 -0.7118
 7852SOL    HW235190   0.207   3.362  16.156 -1.6859  0.5152  2.4016
 7853SOL     OW35191   4.086   2.401   7.177  0.2093  0.0909 -0.2598
 7853SOL    HW135192   4.090   2.441   7.264 -0.9332 -0.7266  0.1617
 7853SOL    HW235193   4.047   2.466   7.120  1.0438  0.4955 -0.3720
 7854SOL     OW35194   3.028   1.919   0.281 -0.4614  0.0443 -0.1197
 7854SOL    HW135195   3.074   2.003   0.271 -0.0178 -0.1424  0.3733
 7854SOL    HW235196   3.092   1.849   0.293  2.2932  2.4649 -0.5847
 7855SOL     OW35197   2.169   1.434  15.042  0.1383 -0.3319  0.7727
 7855SOL    HW135198   2.174   1.483  15.124 -0.4949 -1.0172  1.2250
 7855SOL    HW235199   2.258   1.400  15.040  0.6941  1.2945 -0.8896
 7856SOL     OW35200   2.678   3.295   6.937 -0.2237  0.3874  0.1781
 7856SOL    HW135201   2.659   3.370   6.994  1.2367  0.8128  0.1100
 7856SOL    HW235202   2.590   3.282   6.902 -0.6471 -0.2600  1.4587
 7857SOL     OW35203   2.632   2.234   5.554 -0.1427  0.9151  0.0701
 7857SOL    HW135204   2.554   2.222   5.500 -0.5493  0.6920  0.7042
 7857SOL    HW235205   2.695   2.175   5.513 -1.0105  0.8041 -1.0993
 7858SOL     OW35206   1.883   4.638  13.511 -0.1815 -0.1350 -0.2144
 7858SOL    HW135207   1.854   4.708  13.570 -0.4337 -0.1492 -0.3222
 7858SOL    HW235208   1.932   4.579  13.569 -0.0124  0.2202  0.0070
 7859SOL     OW35209   1.345   0.245   6.629  0.6152  0.6231  0.7812
 7859SOL    HW135210   1.319   0.333   6.602 -0.9267  0.5627  2.0212
 7859SOL    HW235211   1.307   0.240   6.717  1.1086 -4.8342  0.6882
 7860SOL     OW35212   0.709   3.435   4.118 -0.4910  0.0310  0.2563
 7860SOL    HW135213   0.742   3.358   4.164 -2.8106 -1.9799 -1.3792
 7860SOL    HW235214   0.652   3.472   4.185  0.3852  1.2818  0.3048
 7861SOL     OW35215   2.365   0.010   1.497  0.0629 -0.5264  0.3962
 7861SOL    HW135216   2.458   0.013   1.518  0.3456  0.9769 -1.0669
 7861SOL    HW235217   2.356   0.093   1.450  0.5545 -0.3647  0.5839
 7862SOL     OW35218   2.675   0.493   1.904  0.6403 -0.0943  0.2021
 7862SOL    HW135219   2.632   0.460   1.826 -0.6982  1.1829  0.3860
 7862SOL    HW235220   2.703   0.411   1.945  0.6620 -0.0882  0.1992
 7863SOL     OW35221   3.522   3.269  12.538 -0.0217  0.1848 -0.2700
 7863SOL    HW135222   3.573   3.188  12.537  0.6432  0.5625  2.7903
 7863SOL    HW235223   3.470   3.250  12.616  2.2997 -0.9905  0.9830
 7864SOL     OW35224   1.080   3.589   1.260 -0.2735 -0.4261  0.2042
 7864SOL    HW135225   0.999   3.569   1.214 -0.8848  2.7755 -0.1272
 7864SOL    HW235226   1.118   3.504   1.282  0.4141 -0.3066 -0.5170
 7865SOL     OW35227   4.558   4.610  15.801 -0.0801  0.6915 -0.2655
 7865SOL    HW135228   4.514   4.533  15.835 -1.3774  1.4940 -0.1385
 7865SOL    HW235229   4.648   4.597  15.832  0.9166  2.1123 -2.5216
 7866SOL     OW35230   3.677   3.708   2.797 -0.0340  0.0854 -0.3487
 7866SOL    HW135231   3.618   3.633   2.809 -1.7771  1.6803  1.0527
 7866SOL    HW235232   3.740   3.656   2.747  1.9983  1.5815  0.6401
 7867SOL     OW35233   3.784   4.527   5.557 -0.4978  0.1707  0.8516
 7867SOL    HW135234   3.819   4.606   5.518 -3.1417  0.3520 -1.1456
 7867SOL    HW235235   3.760   4.471   5.483 -1.0581 -2.2801  2.8641
 7868SOL     OW35236   4.718   3.817  14.954 -0.5517  0.3330 -0.1845
 7868SOL    HW135237   0.042   3.865  15.013  0.5690  1.1901 -2.0052
 7868SOL    HW235238   0.033   3.735  14.951 -0.0867  0.4895  3.4231
 7869SOL     OW35239   4.616   1.415  12.573  0.0916  0.3544  0.3547
 7869SOL    HW135240   4.662   1.372  12.500  1.4331  1.4106  0.5815
 7869SOL    HW235241   4.665   1.496  12.583 -0.8171  0.8725  0.5837
 7870SOL     OW35242   4.705   4.132   5.476  0.2324  0.2111 -0.3679
 7870SOL    HW135243   4.649   4.148   5.400  1.0977  0.7621 -0.8799
 7870SOL    HW235244   4.643   4.149   5.547 -0.0425  0.6943 -0.7215
 7871SOL     OW35245   2.807   4.243   9.962 -0.1080  0.2568 -0.0168
 7871SOL    HW135246   2.851   4.165   9.997 -1.4696 -0.8421 -0.7398
 7871SOL    HW235247   2.714   4.221   9.958 -0.2182  0.3048  2.6876
 7872SOL     OW35248   2.112   0.076   3.927 -0.4834 -0.0015 -0.3993
 7872SOL    HW135249   2.189   0.021   3.940 -0.4060 -0.2937 -2.0789
 7872SOL    HW235250   2.049   0.057   3.996 -0.1086 -0.0271 -0.0638
 7873SOL     OW35251   4.063   1.998  17.640  0.7210  0.5293 -0.4929
 7873SOL    HW135252   4.000   2.069  17.654 -1.7376 -2.0321  1.3418
 7873SOL    HW235253   4.130   2.021  17.703 -2.0326  1.7321  2.0252
 7874SOL     OW35254   4.371   0.049   2.334 -0.5059  0.4586 -0.0352
 7874SOL    HW135255   4.424   0.121   2.368  1.4158 -0.3030 -1.4061
 7874SOL    HW235256   4.339   0.094   2.256 -1.3057  0.0487  0.0551
 7875SOL     OW35257   2.304   4.466  12.451 -0.5833  0.4711 -0.0576
 7875SOL    HW135258   2.216   4.463  12.489  0.0665 -1.2963  1.3002
 7875SOL    HW235259   2.353   4.472  12.533  0.9901 -1.2931 -0.8733
 7876SOL     OW35260   2.556   0.291  11.951 -0.1384  0.3790 -0.2259
 7876SOL    HW135261   2.532   0.207  11.911 -1.9821 -0.1548  2.0072
 7876SOL    HW235262   2.647   0.297  11.920 -0.5417  0.1245 -1.4487
 7877SOL     OW35263   0.154   4.054   8.254 -0.1511 -0.1516  0.4108
 7877SOL    HW135264   0.137   4.059   8.159  1.0453  0.0989  0.2157
 7877SOL    HW235265   0.084   3.994   8.280 -1.1003  0.0235 -1.6947
 7878SOL     OW35266   1.130   4.408  16.014 -0.0554 -0.2661  0.0014
 7878SOL    HW135267   1.077   4.332  16.035  0.0355 -0.0537  1.0115
 7878SOL    HW235268   1.070   4.463  15.963  0.7051 -1.9123 -2.6716
 7879SOL     OW35269   0.140   2.294   5.690  0.3142  0.7010  0.0507
 7879SOL    HW135270   0.115   2.281   5.781 -0.4546 -2.8611 -0.6514
 7879SOL    HW235271   0.194   2.215   5.691 -1.8317 -0.8153 -1.9291
 7880SOL     OW35272   0.937   2.567   6.337  0.2702 -0.0097  0.3638
 7880SOL    HW135273   0.853   2.575   6.382 -0.0323  0.1138 -0.2297
 7880SOL    HW235274   0.987   2.646   6.358 -1.6843  1.4987 -0.6056
 7881SOL     OW35275   4.444   1.495   5.139 -0.0978 -0.5649 -0.0974
 7881SOL    HW135276   4.410   1.483   5.051  3.6059  0.2374 -1.6480
 7881SOL    HW235277   4.536   1.522   5.133 -0.4174  0.0105 -2.4447
 7882SOL     OW35278   2.899   1.276   5.573 -0.3062 -0.4310 -0.2328
 7882SOL    HW135279   2.944   1.316   5.498 -2.6312 -1.7925 -2.3536
 7882SOL    HW235280   2.947   1.321   5.643 -2.1242  0.6677  0.3102
 7883SOL     OW35281   3.904   1.401   0.055  0.4568 -0.7441  0.4316
 7883SOL    HW135282   3.868   1.379   0.141  0.0444  0.7646  0.6376
 7883SOL    HW235283   3.994   1.381   0.078  1.0779  1.6401  0.0535
 7884SOL     OW35284   4.134   1.581  17.246  1.0073  0.4558 -0.1999
 7884SOL    HW135285   4.225   1.567  17.273  1.2283  0.0828 -1.1627
 7884SOL    HW235286   4.142   1.596  17.152 -0.1988  0.5692 -0.2782
 7885SOL     OW35287   3.952   2.142   1.481 -0.1474 -0.2988 -0.2324
 7885SOL    HW135288   3.917   2.091   1.408  0.3808 -1.2100  0.1561
 7885SOL    HW235289   3.981   2.218   1.431 -1.9235  0.9343  0.6261
 7886SOL     OW35290   4.373   2.054   6.468 -0.0557  0.0841  0.2070
 7886SOL    HW135291   4.332   2.044   6.381  1.4752 -0.8974 -0.3964
 7886SOL    HW235292   4.412   1.967   6.475  0.7063  0.4047 -0.1104
 7887SOL     OW35293   0.777   1.036   8.478 -0.2286 -0.2340  0.2802
 7887SOL    HW135294   0.771   1.108   8.414  0.0025 -3.0143 -2.8478
 7887SOL    HW235295   0.749   0.955   8.437 -0.2664 -0.3478  0.5342
 7888SOL     OW35296   3.757   0.304  12.736  0.3563  0.7584 -0.0459
 7888SOL    HW135297   3.690   0.327  12.801  1.4674 -2.4181  2.2019
 7888SOL    HW235298   3.831   0.314  12.797  0.6323 -2.1615  0.1042
 7889SOL     OW35299   0.405   3.376   3.671  0.4084  0.8104 -0.4217
 7889SOL    HW135300   0.365   3.308   3.617  0.9981 -1.4633  1.9889
 7889SOL    HW235301   0.394   3.336   3.758  0.0113 -0.3520 -1.0188
 7890SOL     OW35302   1.645   0.804  10.469  0.4718  0.2350 -0.1251
 7890SOL    HW135303   1.605   0.773  10.387 -2.6198  2.5460  0.5254
 7890SOL    HW235304   1.647   0.894  10.436  2.2716  0.9355  1.9077
 7891SOL     OW35305   4.440   0.610  16.937 -0.6298 -0.7648 -0.1248
 7891SOL    HW135306   4.387   0.640  17.011 -1.2131  1.3460 -1.3787
 7891SOL    HW235307   4.402   0.525  16.919  0.8016 -1.5772  0.6328
 7892SOL     OW35308   0.811   2.745   2.255 -0.5070  0.3947  0.2716
 7892SOL    HW135309   0.749   2.764   2.327  1.1000  2.1087  1.2083
 7892SOL    HW235310   0.782   2.808   2.189  0.4965  0.2786 -0.2676
 7893SOL     OW35311   1.661   1.135   5.940 -0.6232  0.1496 -0.2199
 7893SOL    HW135312   1.675   1.170   6.028 -0.0165 -0.9577  0.1210
 7893SOL    HW235313   1.567   1.133   5.953 -0.6463 -1.0528 -0.5756
 7894SOL     OW35314   0.834   4.028   9.218 -0.5496  0.0957 -0.0550
 7894SOL    HW135315   0.923   4.002   9.242 -0.1190  1.6590  0.0227
 7894SOL    HW235316   0.812   3.948   9.170 -4.0996  0.9586  0.1196
 7895SOL     OW35317   1.085   0.348   5.487  0.4528 -0.5092  0.3105
 7895SOL    HW135318   1.131   0.316   5.409 -1.2472 -1.5531 -0.2481
 7895SOL    HW235319   1.107   0.441   5.487 -1.9463  0.0520 -1.1900
 7896SOL     OW35320   0.299   2.156  11.806  0.0251  0.2309  0.5584
 7896SOL    HW135321   0.393   2.142  11.797 -0.2115 -1.1451  0.3333
 7896SOL    HW235322   0.263   2.120  11.725 -0.6589 -0.1191  1.0168
 7897SOL     OW35323   0.884   2.197   2.347 -0.6119 -0.5427 -0.4694
 7897SOL    HW135324   0.834   2.162   2.420 -0.0600  0.3892  0.3627
 7897SOL    HW235325   0.830   2.189   2.269  1.8473 -1.6904 -2.0500
 7898SOL     OW35326   1.315   0.475  11.881  0.0243 -0.5691 -0.1321
 7898SOL    HW135327   1.263   0.552  11.860 -0.8401 -1.0556  0.2147
 7898SOL    HW235328   1.404   0.509  11.885  0.0621 -0.8156  1.3372
 7899SOL     OW35329   2.147   0.490   5.529 -0.3844  0.1505  0.1894
 7899SOL    HW135330   2.086   0.418   5.511 -0.1548 -0.1732  0.6791
 7899SOL    HW235331   2.123   0.505   5.620 -1.5875  0.3055 -0.1553
 7900SOL     OW35332   2.059   1.303   3.716  0.8746 -0.5901 -0.0044
 7900SOL    HW135333   2.116   1.231   3.689  0.8736 -0.6846  0.2454
 7900SOL    HW235334   2.050   1.285   3.809  2.6327 -0.4480  0.2015
 7901SOL     OW35335   3.658   2.063   7.802 -0.0688 -0.3360  0.0530
 7901SOL    HW135336   3.696   1.978   7.821 -0.2177 -0.3778  0.1648
 7901SOL    HW235337   3.664   2.105   7.888 -0.7728 -1.2623  0.5564
 7902SOL     OW35338   1.953   2.124   4.987 -0.6400  0.4968  0.1593
 7902SOL    HW135339   1.927   2.067   5.060 -1.0109 -1.0919 -1.2113
 7902SOL    HW235340   1.893   2.085   4.923 -0.4794  1.4080 -0.5397
 7903SOL     OW35341   1.748   0.329  12.478 -0.1902  0.0275 -0.0887
 7903SOL    HW135342   1.816   0.280  12.525 -0.6973 -0.4160  0.1803
 7903SOL    HW235343   1.760   0.290  12.392 -1.6204  0.6603 -0.5714
 7904SOL     OW35344   0.065   0.989   5.532  0.0777  0.1050  0.6061
 7904SOL    HW135345   0.053   1.073   5.577 -3.0352 -0.4450  0.8113
 7904SOL    HW235346   0.034   1.009   5.444  2.3301 -0.8888 -0.4187
 7905SOL     OW35347   4.154   1.075   1.326  0.3534  0.1059  0.3910
 7905SOL    HW135348   4.199   1.159   1.316  1.0784 -0.1703  1.3367
 7905SOL    HW235349   4.225   1.021   1.359 -0.3032 -1.5097 -0.8263
 7906SOL     OW35350   4.686   2.917   7.471  0.1351  0.6025  0.0920
 7906SOL    HW135351   4.668   2.943   7.380  1.1796  1.2455  0.0696
 7906SOL    HW235352   0.017   2.847   7.470 -1.3906 -0.8250  0.1064
 7907SOL     OW35353   2.575   0.077   6.264  0.0421  0.3355  0.3074
 7907SOL    HW135354   2.550   0.125   6.343  0.0850  2.8387 -1.1871
 7907SOL    HW235355   2.606   0.152   6.214  1.0937 -0.5394 -0.3321
 7908SOL     OW35356   1.063   0.587   4.559 -0.0770  0.4756 -0.3766
 7908SOL    HW135357   0.981   0.540   4.577  1.6622 -2.6917 -0.7552
 7908SOL    HW235358   1.029   0.667   4.518 -3.1969 -0.5084  0.2809
 7909SOL     OW35359   1.799   2.846  17.028 -0.2374 -0.1452  0.3939
 7909SOL    HW135360   1.795   2.860  16.933 -1.5417 -0.2739  0.4325
 7909SOL    HW235361   1.781   2.752  17.038 -3.8329  0.6203  1.1213
 7910SOL     OW35362   3.578   0.037   8.651 -0.0381 -0.1446 -0.2780
 7910SOL    HW135363   3.505   4.709   8.644  0.6073 -0.8038 -1.2340
 7910SOL    HW235364   3.579   0.065   8.560  0.2167 -1.5273 -0.7024
 7911SOL     OW35365   2.509   2.418   1.420 -0.4022 -0.8972  0.0518
 7911SOL    HW135366   2.584   2.362   1.441  0.7441  0.8726  0.7201
 7911SOL    HW235367   2.513   2.406   1.325 -0.7289 -2.8709  0.2910
 7912SOL     OW35368   1.439   2.924   4.528  0.3742  0.3488  0.3703
 7912SOL    HW135369   1.353   2.960   4.549 -0.2669  0.2778 -2.1264
 7912SOL    HW235370   1.495   3.001   4.531  1.9390 -0.7040 -1.3732
 7913SOL     OW35371   4.555   3.717  11.143 -0.6688 -0.1994  0.0544
 7913SOL    HW135372   4.533   3.628  11.115 -1.4141 -0.5080  1.6267
 7913SOL    HW235373   4.484   3.772  11.109 -1.0581  0.4055  1.8697
 7914SOL     OW35374   3.006   4.558   8.225  0.0127  1.0173  0.2895
 7914SOL    HW135375   3.055   4.483   8.192 -0.3210 -0.2021  2.5514
 7914SOL    HW235376   2.986   4.604   8.143 -1.2252 -0.0836 -0.0276
 7915SOL     OW35377   1.272   3.480   6.993  0.5236 -0.2664 -0.3194
 7915SOL    HW135378   1.305   3.569   7.006  1.3830 -0.5504 -0.5664
 7915SOL    HW235379   1.255   3.476   6.899  3.2430 -1.4306 -0.7574
 7916SOL     OW35380   2.403   0.321   4.490 -0.0574 -0.1559 -0.3591
 7916SOL    HW135381   2.380   0.242   4.441 -2.0481  0.7941 -0.9714
 7916SOL    HW235382   2.494   0.300   4.509 -0.1620 -0.2143  0.0684
 7917SOL     OW35383   0.948   2.691   4.392 -0.1791 -0.0536 -0.6567
 7917SOL    HW135384   1.033   2.714   4.354 -0.3054  2.2859  0.4695
 7917SOL    HW235385   0.927   2.611   4.345  0.1751 -0.5967  0.0991
 7918SOL     OW35386   1.822   2.397   3.143 -0.0603 -0.0581  0.3056
 7918SOL    HW135387   1.808   2.321   3.087  1.6956 -0.1874  0.0547
 7918SOL    HW235388   1.845   2.452   3.068  4.2846 -2.7702 -0.3417
 7919SOL     OW35389   0.445   1.141   6.397 -0.6849  0.2376 -0.2440
 7919SOL    HW135390   0.367   1.154   6.450 -0.7955  0.6962 -0.5213
 7919SOL    HW235391   0.451   1.046   6.407  1.6318  0.5602  1.5099
 7920SOL     OW35392   1.856   1.224   7.746  0.0586  0.0468 -0.9249
 7920SOL    HW135393   1.796   1.195   7.815  1.7821  1.5528  1.2159
 7920SOL    HW235394   1.805   1.294   7.706 -2.9178 -1.6943 -0.1468
 7921SOL     OW35395   4.621   0.293   9.499  0.1295 -0.5417 -0.1963
 7921SOL    HW135396   4.708   0.333   9.493 -0.1928  0.1204 -0.4259
 7921SOL    HW235397   4.587   0.342   9.425  0.8014  0.5376  0.2113
 7922SOL     OW35398   1.987   0.917   3.760 -0.4856 -0.1676 -0.1158
 7922SOL    HW135399   2.059   0.977   3.742  0.0137 -0.7022  0.1025
 7922SOL    HW235400   2.018   0.855   3.826 -1.5285 -0.6877 -0.1057
 7923SOL     OW35401   0.864   4.498  15.598 -0.4449  0.4566  0.0117
 7923SOL    HW135402   0.953   4.519  15.570 -0.8118  1.9962 -0.0112
 7923SOL    HW235403   0.870   4.487  15.693 -2.7318 -0.9069  0.0161
 7924SOL     OW35404   4.315   1.145  15.082  0.0614 -0.5066 -0.3697
 7924SOL    HW135405   4.385   1.137  15.018  0.0337  0.9790 -0.5874
 7924SOL    HW235406   4.240   1.167  15.026  0.2046  4.7983  1.4565
 7925SOL     OW35407   4.330   3.132   2.703  0.9305 -0.3344  0.3844
 7925SOL    HW135408   4.289   3.114   2.788 -1.6402 -0.4220 -0.8854
 7925SOL    HW235409   4.251   3.152   2.654  1.1116 -1.7721 -0.4966
 7926SOL     OW35410   3.874   2.129   4.876  0.1893  0.3969  0.5319
 7926SOL    HW135411   3.834   2.185   4.810  1.2910 -0.2807 -0.7217
 7926SOL    HW235412   3.965   2.123   4.845  0.4038  0.0436  1.2062
 7927SOL     OW35413   4.549   2.156  14.121 -0.3275  0.0897  0.4909
 7927SOL    HW135414   4.508   2.074  14.094 -0.0076  0.2392 -0.4651
 7927SOL    HW235415   4.496   2.226  14.083  1.4535  0.7282 -0.8050
 7928SOL     OW35416   3.928   1.643   9.542  0.1133  0.5893 -0.4859
 7928SOL    HW135417   3.974   1.723   9.568  0.9006 -0.0322  0.0406
 7928SOL    HW235418   3.838   1.663   9.568 -0.0546 -0.2786 -0.4149
 7929SOL     OW35419   0.112   0.810  12.040 -0.9658  0.0526 -0.0337
 7929SOL    HW135420   0.091   0.835  12.130  1.5936  2.1966 -0.0237
 7929SOL    HW235421   0.073   0.725  12.021  1.5932 -0.8986 -1.0176
 7930SOL     OW35422   0.974   1.065  16.197 -0.3198  0.2863 -0.4005
 7930SOL    HW135423   1.024   1.137  16.236 -1.4008  0.4107  0.7695
 7930SOL    HW235424   0.890   1.110  16.208 -0.4705 -0.3568  1.1016
 7931SOL     OW35425   2.314   4.288   3.142  0.0106  0.2582 -0.4305
 7931SOL    HW135426   2.370   4.331   3.207 -0.5099  1.2547 -0.6258
 7931SOL    HW235427   2.356   4.203   3.130 -2.5602 -1.3834  2.3785
 7932SOL     OW35428   0.875   1.360   2.397  0.1768  0.1177  0.2284
 7932SOL    HW135429   0.825   1.281   2.418 -0.5957  0.4082 -0.5661
 7932SOL    HW235430   0.898   1.403   2.479  0.6744  0.0087  0.1471
 7933SOL     OW35431   4.209   0.469   4.585  0.0050  0.0496 -0.5266
 7933SOL    HW135432   4.203   0.394   4.525 -0.2205  0.2029 -0.6916
 7933SOL    HW235433   4.169   0.535   4.528 -1.0148 -0.1563 -0.0476
 7934SOL     OW35434   2.300   0.722   5.502  0.2249  0.1474 -0.0076
 7934SOL    HW135435   2.289   0.627   5.500 -2.8114  0.4900 -0.0940
 7934SOL    HW235436   2.258   0.743   5.586 -1.2006 -1.0563 -0.4084
 7935SOL     OW35437   4.274   3.448   4.606  0.4675 -0.7471 -0.0991
 7935SOL    HW135438   4.310   3.489   4.685  0.8718 -2.1139  0.4327
 7935SOL    HW235439   4.362   3.429   4.575  1.5682  1.2409  1.7835
 7936SOL     OW35440   4.311   3.567   4.866 -0.5453  0.2697  0.3695
 7936SOL    HW135441   4.304   3.661   4.852 -0.5286  0.1245 -0.6677
 7936SOL    HW235442   4.372   3.568   4.940  0.6460  0.5741 -0.6099
 7937SOL     OW35443   2.109   0.803   0.184 -0.3875 -0.1296 -0.4711
 7937SOL    HW135444   2.059   0.883   0.170 -0.4982  0.2167  1.7678
 7937SOL    HW235445   2.129   0.816   0.277 -3.5793  0.8665  0.0649
 7938SOL     OW35446   0.375   0.009   4.943 -0.1103  0.4374  0.1586
 7938SOL    HW135447   0.411   0.060   5.016  4.5729 -1.2808 -0.9937
 7938SOL    HW235448   0.310   4.684   4.981  0.2376  0.6374  1.0728
 7939SOL     OW35449   2.390   3.593   7.505 -0.0630 -0.3851  0.5863
 7939SOL    HW135450   2.337   3.655   7.457  0.5628  0.1098  0.5342
 7939SOL    HW235451   2.394   3.640   7.589  1.5010 -0.9371  0.8291
 7940SOL     OW35452   0.634   3.469   5.708  0.2304  0.0277  0.0925
 7940SOL    HW135453   0.669   3.550   5.672  3.2372 -1.6162 -0.7278
 7940SOL    HW235454   0.564   3.506   5.762  2.0782  1.3045  1.6001
 7941SOL     OW35455   2.943   4.266   3.534  0.2108  0.4494  0.2330
 7941SOL    HW135456   2.934   4.355   3.569  0.5182 -0.1846  1.9209
 7941SOL    HW235457   2.899   4.276   3.450  1.1115  0.6976 -0.2018
 7942SOL     OW35458   3.288   2.440   4.902 -0.0594 -0.2785 -0.1626
 7942SOL    HW135459   3.243   2.494   4.837  1.0530  2.6661  1.5073
 7942SOL    HW235460   3.378   2.440   4.872 -0.7486 -0.4121 -2.1981
 7943SOL     OW35461   1.880   0.399   7.058 -0.0808  0.4565 -0.0924
 7943SOL    HW135462   1.838   0.417   7.142 -0.0406 -0.3688  0.1118
 7943SOL    HW235463   1.961   0.449   7.065  0.0309  0.4526 -1.4181
 7944SOL     OW35464   3.076   3.361   2.668  0.1259 -0.3254  0.0151
 7944SOL    HW135465   3.015   3.345   2.740 -1.4902  0.7441 -1.0974
 7944SOL    HW235466   3.032   3.295   2.615 -0.4085  0.3759 -0.4234
 7945SOL     OW35467   1.527   2.998   9.135 -0.0639  0.1469  0.2743
 7945SOL    HW135468   1.622   2.991   9.127 -0.1425 -2.1381  1.2810
 7945SOL    HW235469   1.518   3.065   9.202 -0.5688 -1.8627  2.2338
 7946SOL     OW35470   2.006   1.721   6.870 -0.1302 -0.1207 -0.7059
 7946SOL    HW135471   1.979   1.813   6.879  0.3405 -0.0033 -0.4788
 7946SOL    HW235472   1.970   1.685   6.951  1.4708  0.1075  0.1108
 7947SOL     OW35473   0.511   0.020   2.143  0.4364 -0.0738 -0.3409
 7947SOL    HW135474   0.548   4.712   2.220 -0.0059  1.4433  0.6892
 7947SOL    HW235475   0.469   0.097   2.182 -1.7545 -2.0871  1.2126
 7948SOL     OW35476   3.141   1.258   5.742 -0.1214  0.8134  0.3526
 7948SOL    HW135477   3.125   1.315   5.817 -1.1882 -0.3416  0.9913
 7948SOL    HW235478   3.204   1.310   5.691 -0.2423 -0.8657 -1.5168
 7949SOL     OW35479   1.167   2.171   1.796 -0.3384  0.7207 -0.5230
 7949SOL    HW135480   1.258   2.141   1.796  0.1280  2.1448  0.2453
 7949SOL    HW235481   1.124   2.085   1.790  0.7818  0.2599 -1.8131
 7950SOL     OW35482   4.095   2.983   5.772  0.0594  0.0181  0.1741
 7950SOL    HW135483   4.050   2.928   5.836 -5.1748  0.3693 -3.1607
 7950SOL    HW235484   4.030   3.053   5.759  0.0432  0.2014  1.2740
 7951SOL     OW35485   2.254   0.743  15.527  0.0765  0.2619 -0.2796
 7951SOL    HW135486   2.237   0.712  15.617 -1.6724 -2.6883 -1.6161
 7951SOL    HW235487   2.260   0.657  15.485 -0.7288  0.5828 -1.0321
 7952SOL     OW35488   1.827   4.664   6.768  0.0799 -0.1687 -0.3746
 7952SOL    HW135489   1.897   4.649   6.832 -0.6147  0.2460  0.4753
 7952SOL    HW235490   1.804   0.019   6.792  1.0897  0.3344 -1.2547
 7953SOL     OW35491   3.190   0.748  16.994  1.0796 -0.4131 -0.4151
 7953SOL    HW135492   3.164   0.656  16.983  4.0824 -1.4988  1.7991
 7953SOL    HW235493   3.258   0.741  17.060 -0.0375 -2.4386  0.5217
 7954SOL     OW35494   1.835   0.284   9.778 -0.2884  0.1320 -0.1105
 7954SOL    HW135495   1.836   0.354   9.843  2.1281  0.2001 -0.2129
 7954SOL    HW235496   1.890   0.222   9.826  1.4227  1.2953 -0.5724
 7955SOL     OW35497   0.967   3.415   4.428 -0.5044 -0.0463  0.0109
 7955SOL    HW135498   1.031   3.348   4.403 -0.5189 -0.3170  0.6989
 7955SOL    HW235499   0.995   3.422   4.519  0.9633  2.1614 -0.6297
 7956SOL     OW35500   2.191   0.255   7.983 -0.0035 -0.8341 -0.1832
 7956SOL    HW135501   2.111   0.308   7.990 -1.0339 -2.6043  1.3820
 7956SOL    HW235502   2.214   0.282   7.894 -0.2491 -3.7391 -1.1245
 7957SOL     OW35503   3.110   0.466   6.826 -0.4852 -0.0808 -0.3257
 7957SOL    HW135504   3.189   0.454   6.878 -0.2969  2.4456 -0.0231
 7957SOL    HW235505   3.111   0.388   6.770  0.0956 -0.2145 -0.1280
 7958SOL     OW35506   1.617   3.335   8.245 -0.4688  0.2300  0.2183
 7958SOL    HW135507   1.669   3.273   8.296 -1.6031 -0.1904  0.8567
 7958SOL    HW235508   1.541   3.343   8.303 -0.8694  0.1326 -0.2871
 7959SOL     OW35509   0.122   3.231   1.654  0.1324  0.0477 -0.4316
 7959SOL    HW135510   0.214   3.241   1.629  0.2261  1.5108  0.4797
 7959SOL    HW235511   0.096   3.162   1.593  0.6586 -1.0357  0.5600
 7960SOL     OW35512   2.714   3.978   4.015 -0.1616  0.0924 -0.0600
 7960SOL    HW135513   2.626   3.958   4.046 -0.3458  0.4631 -0.3464
 7960SOL    HW235514   2.765   3.901   4.040 -0.3281  0.0848  0.2552
 7961SOL     OW35515   3.736   4.316   1.555  0.4917  0.4232 -0.3491
 7961SOL    HW135516   3.706   4.406   1.541 -0.9448  0.3230  2.2234
 7961SOL    HW235517   3.723   4.299   1.648 -0.1501 -3.2464 -1.1185
 7962SOL     OW35518   3.926   3.441   6.084  0.1571 -0.1737  0.1286
 7962SOL    HW135519   3.856   3.400   6.136 -1.9137 -0.3946 -2.8335
 7962SOL    HW235520   3.998   3.386   6.114  0.1930 -0.1050  0.1681
 7963SOL     OW35521   2.745   0.469  14.750  0.5087  0.0786 -0.2597
 7963SOL    HW135522   2.684   0.415  14.700  0.0353 -0.0181  0.4080
 7963SOL    HW235523   2.687   0.535  14.788  0.7541  0.1125  0.0651
 7964SOL     OW35524   4.637   2.610   7.320 -0.0209  0.3000  0.5684
 7964SOL    HW135525   4.579   2.594   7.395  0.1101 -1.1945  0.3498
 7964SOL    HW235526   4.577   2.632   7.248  0.7009 -5.0916 -1.6780
 7965SOL     OW35527   1.512   2.601   4.718 -0.6876  0.3106  0.0991
 7965SOL    HW135528   1.548   2.611   4.630 -0.0820  1.8756  0.5193
 7965SOL    HW235529   1.561   2.525   4.749  0.8540 -0.0664 -3.2652
 7966SOL     OW35530   4.325   2.085  12.953  0.1396  0.0405  0.0540
 7966SOL    HW135531   4.303   2.175  12.974 -2.1741 -1.0239  2.2336
 7966SOL    HW235532   4.334   2.043  13.039 -0.3017  1.7166  0.9277
 7967SOL     OW35533   1.830   4.289  14.602  0.0808 -0.5846 -0.0949
 7967SOL    HW135534   1.895   4.245  14.547  1.1848  1.2518 -0.2477
 7967SOL    HW235535   1.781   4.213  14.634 -1.1900  1.0769  1.8815
 7968SOL     OW35536   2.280   1.650   3.283  0.3669 -0.3085  0.1542
 7968SOL    HW135537   2.266   1.568   3.329 -0.6651 -1.0017 -1.3949
 7968SOL    HW235538   2.206   1.646   3.223  0.5009  0.0930 -0.0385
 7969SOL     OW35539   0.712   3.765  10.181 -0.3239 -0.6957 -0.1270
 7969SOL    HW135540   0.745   3.818  10.254  1.6001  0.3123 -1.7308
 7969SOL    HW235541   0.792   3.735  10.140  1.2145 -0.5576  2.7516
 7970SOL     OW35542   4.469   0.254   2.495 -0.3986  0.2813  0.1622
 7970SOL    HW135543   4.502   0.327   2.443  0.1565  0.1454  0.3273
 7970SOL    HW235544   4.396   0.291   2.546  0.7076  1.8039  0.6310
 7971SOL     OW35545   0.207   2.711   1.072 -0.6636  0.1290 -0.0877
 7971SOL    HW135546   0.296   2.734   1.044 -0.3634  0.3687  1.0903
 7971SOL    HW235547   0.221   2.619   1.094  1.7910  0.9747  1.8758
 7972SOL     OW35548   4.323   3.041   8.661  0.0521 -1.0172  0.0274
 7972SOL    HW135549   4.231   3.061   8.640  0.7365  2.0509 -0.1212
 7972SOL    HW235550   4.335   3.099   8.736 -3.5886  0.3776 -0.4698
 7973SOL     OW35551   4.030   3.399   4.264 -0.1571  0.1283  0.1261
 7973SOL    HW135552   4.056   3.491   4.275  2.4913 -0.5998 -0.0467
 7973SOL    HW235553   3.962   3.420   4.200 -0.1855 -0.0250  0.1056
 7974SOL     OW35554   3.907   0.341   2.693  0.3253  0.4299 -0.0406
 7974SOL    HW135555   3.874   0.420   2.735 -1.4179  1.0182 -2.4872
 7974SOL    HW235556   3.904   0.281   2.768 -1.2782 -1.1010 -1.3215
 7975SOL     OW35557   0.159   2.923  17.337  0.3272  0.3762 -0.2544
 7975SOL    HW135558   0.182   2.843  17.385  1.1022  2.9991  3.7664
 7975SOL    HW235559   0.243   2.961  17.310  2.9608 -3.9947  1.6564
 7976SOL     OW35560   3.549   2.942   2.418  0.0685  0.4466  0.2846
 7976SOL    HW135561   3.495   2.963   2.493 -0.4201 -0.9488  0.3219
 7976SOL    HW235562   3.531   3.016   2.360  0.5360  0.8943  0.7188
 7977SOL     OW35563   4.398   0.091   8.864  0.1430  0.6290  0.3076
 7977SOL    HW135564   4.435   0.179   8.853 -1.0493  0.8229 -2.1141
 7977SOL    HW235565   4.408   0.067   8.956 -2.1628  0.6764  0.5648
 7978SOL     OW35566   0.888   2.101   5.557  0.1620  0.1038 -0.8081
 7978SOL    HW135567   0.867   2.014   5.592 -0.9043  0.7346  0.0927
 7978SOL    HW235568   0.979   2.090   5.529  1.0782  0.8653  1.8905
 7979SOL     OW35569   4.456   2.559   8.070 -0.5397 -0.3001 -0.6397
 7979SOL    HW135570   4.535   2.602   8.102 -1.4765  0.5261  0.5736
 7979SOL    HW235571   4.395   2.561   8.144 -0.3060  0.3636 -0.4685
 7980SOL     OW35572   1.471   0.203   4.483 -0.3836 -0.0095  0.4017
 7980SOL    HW135573   1.558   0.235   4.508  0.4389 -1.2180 -0.8773
 7980SOL    HW235574   1.462   0.132   4.547 -1.6981 -0.3995 -0.2074
 7981SOL     OW35575   4.244   3.670  10.981 -0.0971 -0.0901  0.7515
 7981SOL    HW135576   4.156   3.652  10.948  0.4465 -0.9266 -0.2360
 7981SOL    HW235577   4.293   3.678  10.899 -0.0901  1.8659  0.9417
 7982SOL     OW35578   3.747   1.567   5.731  0.9160  0.5007 -0.6071
 7982SOL    HW135579   3.769   1.597   5.819 -1.8146 -2.0137  0.9354
 7982SOL    HW235580   3.761   1.472   5.738  2.5215  0.7408 -0.6845
 7983SOL     OW35581   0.167   4.310   5.371 -0.3241  0.3895 -0.1463
 7983SOL    HW135582   0.149   4.278   5.283  0.8973 -0.9394  0.0959
 7983SOL    HW235583   0.129   4.250   5.435  2.7888 -0.4690  0.8699
 7984SOL     OW35584   0.739   2.253   3.337 -0.6173  0.3881 -0.4005
 7984SOL    HW135585   0.754   2.347   3.348 -0.9715  0.4314 -0.2683
 7984SOL    HW235586   0.644   2.242   3.326 -0.5589 -0.9549  0.3977
 7985SOL     OW35587   2.658   0.874   0.012  0.0009  0.3184 -0.1480
 7985SOL    HW135588   2.598   0.831   0.073 -0.4312 -0.3565 -1.0550
 7985SOL    HW235589   2.608   0.955   0.001  1.8729  1.0445 -3.2773
 7986SOL     OW35590   3.075   3.520   6.221  0.1074 -0.6428  0.3786
 7986SOL    HW135591   3.039   3.592   6.169 -0.3083 -0.1109  1.3987
 7986SOL    HW235592   2.992   3.509   6.267 -0.7893 -2.4799 -1.6578
 7987SOL     OW35593   0.423   2.771  16.860 -0.1464  0.4137 -0.0201
 7987SOL    HW135594   0.364   2.727  16.921  0.2325 -0.6739 -0.4460
 7987SOL    HW235595   0.422   2.716  16.782  3.5773 -0.5692  0.6309
 7988SOL     OW35596   1.879   0.533   1.613  0.8524  0.0167 -0.2879
 7988SOL    HW135597   1.790   0.499   1.608  0.1997  1.6599  0.2207
 7988SOL    HW235598   1.883   0.584   1.532 -0.7381 -2.7163 -2.1233
 7989SOL     OW35599   3.483   1.783   7.287  0.0980  0.2342 -0.2827
 7989SOL    HW135600   3.477   1.878   7.279 -2.4939  0.1335  0.3119
 7989SOL    HW235601   3.390   1.776   7.309  0.1701  0.3315  0.0591
 7990SOL     OW35602   3.512   3.492  17.095  0.0777  0.0435  0.2795
 7990SOL    HW135603   3.419   3.510  17.076  0.3214  1.2150  0.1792
 7990SOL    HW235604   3.542   3.473  17.006  1.4574 -2.3563  1.2735
 7991SOL     OW35605   1.322   1.684   4.467  0.3499  0.0129  0.4986
 7991SOL    HW135606   1.262   1.625   4.513 -0.8477  0.8528  0.0104
 7991SOL    HW235607   1.331   1.765   4.517 -0.1581  0.2153  0.2548
 7992SOL     OW35608   1.892   2.354   2.203  0.4058  0.0520  0.1693
 7992SOL    HW135609   1.828   2.424   2.196  1.6774  1.5055  3.0104
 7992SOL    HW235610   1.962   2.397   2.253  0.3680 -1.1155  1.2146
 7993SOL     OW35611   0.681   4.116   1.478 -0.3317 -0.4750 -0.1006
 7993SOL    HW135612   0.675   4.128   1.573  0.2301  1.0070 -0.2606
 7993SOL    HW235613   0.692   4.208   1.455  0.2592 -0.0613  1.8745
 7994SOL     OW35614   3.674   2.762   4.354  0.1273 -0.1451  0.2553
 7994SOL    HW135615   3.756   2.798   4.386  0.3129 -0.1838 -0.1723
 7994SOL    HW235616   3.692   2.742   4.262  3.0041  1.0323  0.5717
 7995SOL     OW35617   3.076   4.700   1.632 -0.0434 -0.3091 -0.0310
 7995SOL    HW135618   3.065   4.730   1.542 -0.2430 -0.2594  0.0079
 7995SOL    HW235619   3.066   0.048   1.681  1.1484 -0.3097  0.2004
 7996SOL     OW35620   2.970   2.147  11.627  0.1114  0.2319  0.1928
 7996SOL    HW135621   2.875   2.149  11.621  0.1147  0.1122  0.1119
 7996SOL    HW235622   2.985   2.053  11.621 -1.2225  0.1675 -1.7947
 7997SOL     OW35623   3.879   0.605   5.782  0.3391  0.5377  0.0046
 7997SOL    HW135624   3.805   0.646   5.738  0.3856  1.0905  0.4461
 7997SOL    HW235625   3.854   0.612   5.874 -2.0334  0.8878 -0.6676
 7998SOL     OW35626   3.491   1.592  13.232  0.2144  0.0041 -0.3294
 7998SOL    HW135627   3.465   1.513  13.186  0.7082  0.1992 -0.9375
 7998SOL    HW235628   3.585   1.579  13.222 -0.1374 -2.8440 -0.0443
 7999SOL     OW35629   2.856   4.040   8.834 -0.3313  0.5421  0.4024
 7999SOL    HW135630   2.773   4.077   8.864  0.5377  1.0026  2.2560
 7999SOL    HW235631   2.901   4.121   8.811  1.6361 -1.1819 -1.7540
 8000SOL     OW35632   4.168   4.465   2.771  0.0208  0.4267 -0.0527
 8000SOL    HW135633   4.246   4.518   2.754  0.7615 -0.0692  1.8628
 8000SOL    HW235634   4.100   4.528   2.744  0.4027 -0.4404 -2.9763
 8001SOL     OW35635   3.339   3.955   8.248 -0.1777  0.8679 -0.1805
 8001SOL    HW135636   3.248   3.948   8.277 -0.2043 -0.3050 -0.5347
 8001SOL    HW235637   3.369   3.882   8.302 -0.3100  0.6866 -0.3481
 8002SOL     OW35638   0.508   2.032  12.490 -0.0453 -0.2388 -0.1793
 8002SOL    HW135639   0.461   1.956  12.525  3.2356 -2.5268 -0.7282
 8002SOL    HW235640   0.536   1.999  12.405  0.1287  3.2470 -1.4791
 8003SOL     OW35641   1.384   1.261  12.445  0.0141 -0.4240 -0.2238
 8003SOL    HW135642   1.442   1.206  12.497 -0.5170 -0.5494  0.2334
 8003SOL    HW235643   1.445   1.303  12.384 -0.2127 -0.9421 -0.8093
 8004SOL     OW35644   4.432   1.672   4.064 -0.4995  0.2065  0.0181
 8004SOL    HW135645   4.413   1.580   4.079 -0.6563 -0.2310 -2.8498
 8004SOL    HW235646   4.474   1.680   3.978 -1.9970 -0.5839 -0.7749
 8005SOL     OW35647   3.584   2.816  12.317  0.2517 -0.0532 -0.7712
 8005SOL    HW135648   3.520   2.788  12.382 -0.2322  1.0567 -0.7844
 8005SOL    HW235649   3.665   2.776  12.351 -1.5304 -2.4244  0.7027
 8006SOL     OW35650   4.392   2.058   4.794  0.2925  0.0032  0.0054
 8006SOL    HW135651   4.375   1.965   4.808 -0.2688 -0.3102 -2.7991
 8006SOL    HW235652   4.371   2.069   4.701 -1.9917  1.3224  0.6700
 8007SOL     OW35653   4.361   1.071   5.595 -0.3232 -0.0091  0.0126
 8007SOL    HW135654   4.355   0.976   5.588 -1.1797  0.2095 -2.3355
 8007SOL    HW235655   4.443   1.085   5.548  0.1144  2.6068  1.5379
 8008SOL     OW35656   4.379   4.501   9.049 -0.1331 -0.5197  0.2896
 8008SOL    HW135657   4.428   4.583   9.055 -0.5358 -0.2838  0.2709
 8008SOL    HW235658   4.305   4.523   9.105  0.2173  0.5574  0.3390
 8009SOL     OW35659   4.121   0.740  11.778  0.0776 -0.2025 -0.3575
 8009SOL    HW135660   4.125   0.814  11.718 -1.6024 -0.7865 -1.2113
 8009SOL    HW235661   4.074   0.673  11.727 -0.8405  0.2232 -0.0722
 8010SOL     OW35662   1.870   3.660   8.512  0.0739 -0.0334  0.1994
 8010SOL    HW135663   1.936   3.591   8.506 -0.2543 -0.3984  0.8621
 8010SOL    HW235664   1.784   3.621   8.499 -0.2847  0.2526  1.7525
 8011SOL     OW35665   0.945   4.133   5.838  0.2028  0.0254  0.4255
 8011SOL    HW135666   1.008   4.137   5.910  0.2356 -1.7047  0.4866
 8011SOL    HW235667   0.928   4.224   5.814  1.3745  0.5711  1.6395
 8012SOL     OW35668   4.470   0.836   6.132  0.5789 -0.2590  0.3244
 8012SOL    HW135669   4.407   0.779   6.089 -1.3372  0.4031  2.2487
 8012SOL    HW235670   4.454   0.922   6.092 -0.7174  0.4335  2.2889
 8013SOL     OW35671   2.751   2.678   3.066  0.2428 -0.6895  0.4585
 8013SOL    HW135672   2.791   2.763   3.049 -0.1529 -1.0133 -2.0272
 8013SOL    HW235673   2.750   2.636   2.980 -0.3244  0.2920 -0.0067
 8014SOL     OW35674   3.911   0.782  15.729 -0.1453  0.0495  0.5043
 8014SOL    HW135675   3.918   0.789  15.824 -2.8286 -0.5766  0.7474
 8014SOL    HW235676   3.995   0.742  15.706 -0.5193 -0.4434  0.0012
 8015SOL     OW35677   3.599   2.430   9.218  0.2940  0.3473  0.4997
 8015SOL    HW135678   3.566   2.449   9.306  0.1185  0.6837  0.3602
 8015SOL    HW235679   3.686   2.392   9.235 -0.1485 -1.3352 -0.9203
 8016SOL     OW35680   1.139   1.385  12.471 -0.1789 -0.1349  0.5977
 8016SOL    HW135681   1.146   1.455  12.535 -1.3796  0.7024 -0.1859
 8016SOL    HW235682   1.208   1.321  12.490 -0.8756 -1.2209 -0.5021
 8017SOL     OW35683   0.591   0.993   2.964  0.0384 -0.2288 -0.5082
 8017SOL    HW135684   0.555   0.965   2.880 -0.4895 -1.4715  0.1386
 8017SOL    HW235685   0.656   1.059   2.938 -1.4571  2.4618  2.6404
 8018SOL     OW35686   0.187   3.071   3.942 -0.1726 -0.5685  0.7378
 8018SOL    HW135687   0.235   2.989   3.932  0.1506 -0.0877 -1.5192
 8018SOL    HW235688   0.101   3.047   3.908  0.2033 -0.9906  0.0889
 8019SOL     OW35689   3.083   1.011   5.764 -0.1158 -0.0259 -0.0305
 8019SOL    HW135690   3.079   0.963   5.682 -0.6784 -0.4191  0.2239
 8019SOL    HW235691   3.106   1.095   5.726 -1.2510  0.3622  0.1534
 8020SOL     OW35692   2.617   2.249  10.941  0.1586  0.3369  0.3922
 8020SOL    HW135693   2.690   2.294  10.897 -1.1141  0.1993 -1.8321
 8020SOL    HW235694   2.543   2.262  10.883  0.3404 -1.4022 -0.2239
 8021SOL     OW35695   3.447   3.942   5.180  0.5077  0.0868 -0.2085
 8021SOL    HW135696   3.447   3.946   5.275  1.4247 -4.4850 -0.0094
 8021SOL    HW235697   3.410   3.856   5.157  1.6087 -0.9057  1.7618
 8022SOL     OW35698   3.265   2.080   7.002  0.1450 -0.0687  0.1654
 8022SOL    HW135699   3.344   2.039   6.967  1.4036  3.5297 -1.2509
 8022SOL    HW235700   3.208   2.010   6.971  2.9075 -2.1737 -0.1567
 8023SOL     OW35701   0.591   3.623   7.768 -0.2511 -0.2668  0.0926
 8023SOL    HW135702   0.600   3.537   7.726  0.5666 -0.6531  1.0546
 8023SOL    HW235703   0.498   3.623   7.792 -0.0202 -0.4857  0.9857
 8024SOL     OW35704   0.135   1.103   5.229 -0.2363  0.4209 -0.1478
 8024SOL    HW135705   0.172   1.184   5.195 -0.8250  0.6635 -0.2068
 8024SOL    HW235706   0.053   1.101   5.180 -0.0059 -2.2655 -0.4629
 8025SOL     OW35707   1.311   1.741   8.213 -0.1622 -0.6278 -0.2146
 8025SOL    HW135708   1.280   1.831   8.205 -0.5499 -0.8259 -0.9699
 8025SOL    HW235709   1.242   1.703   8.158  0.4711  0.1569 -1.5731
 8026SOL     OW35710   4.402   1.739   3.213  0.0768  0.2563 -0.9069
 8026SOL    HW135711   4.483   1.691   3.230 -0.8776 -0.8225  0.5308
 8026SOL    HW235712   4.341   1.665   3.214 -1.6356  1.7333  2.8570
 8027SOL     OW35713   0.541   4.526   7.172  0.3607 -0.1667  0.1165
 8027SOL    HW135714   0.472   4.588   7.148 -0.4975 -0.7710  1.0211
 8027SOL    HW235715   0.552   4.537   7.266  0.2487  0.5093  0.0475
 8028SOL     OW35716   2.107   0.564   6.148 -0.2163 -0.2146 -0.2989
 8028SOL    HW135717   2.103   0.573   6.243  0.8696 -2.5923 -0.0273
 8028SOL    HW235718   2.146   0.477   6.144 -0.4152 -0.3745  1.6276
 8029SOL     OW35719   3.813   1.758  13.454 -0.6483 -0.0152 -0.1368
 8029SOL    HW135720   3.749   1.705  13.501 -0.9311  0.2038 -0.2762
 8029SOL    HW235721   3.785   1.764  13.363  1.9269  3.4665 -0.6835
 8030SOL     OW35722   1.629   3.055  15.613  0.6612 -0.7301 -0.1553
 8030SOL    HW135723   1.572   2.991  15.656 -0.1142  1.4578  2.0888
 8030SOL    HW235724   1.709   3.040  15.665  0.4607  1.2029  0.6836
 8031SOL     OW35725   3.821   0.007  14.367 -0.3297 -0.4052  0.3759
 8031SOL    HW135726   3.882   0.027  14.438  1.9572  2.9991 -2.5496
 8031SOL    HW235727   3.740   0.011  14.418 -2.4656 -0.7268 -2.9419
 8032SOL     OW35728   0.856   0.030   8.270  0.1975  0.0840  0.2367
 8032SOL    HW135729   0.819   4.681   8.239  0.9085  0.1397 -0.7258
 8032SOL    HW235730   0.928   4.730   8.322 -0.7395 -0.8225  0.9618
 8033SOL     OW35731   1.008   4.275  11.256 -0.2066 -0.3041  0.1321
 8033SOL    HW135732   0.918   4.300  11.279  0.3745  1.0124  0.9917
 8033SOL    HW235733   1.055   4.311  11.331 -2.0403  1.4795  0.4408
 8034SOL     OW35734   0.084   1.106  10.780 -0.6192  0.1896  0.0977
 8034SOL    HW135735   0.068   1.136  10.869 -1.1176 -0.5535  0.2662
 8034SOL    HW235736   0.015   1.040  10.769 -1.1290  0.6186  0.7446
 8035SOL     OW35737   1.931   3.335   5.182 -0.3255 -0.5233 -0.1750
 8035SOL    HW135738   2.014   3.351   5.137 -0.2132  0.1369  0.2741
 8035SOL    HW235739   1.891   3.269   5.125 -0.1102  1.0062 -2.0805
 8036SOL     OW35740   1.978   0.950   3.007 -0.2806 -0.2241 -0.5310
 8036SOL    HW135741   1.994   1.035   2.966 -0.6893  0.9191  1.7045
 8036SOL    HW235742   1.973   0.891   2.932  2.3677 -1.3040  0.1297
 8037SOL     OW35743   3.519   2.661  16.179 -0.2259 -0.0120  0.0552
 8037SOL    HW135744   3.433   2.693  16.152 -0.2686 -1.8801 -2.0464
 8037SOL    HW235745   3.571   2.644  16.101  1.6573 -1.1435  1.5589
 8038SOL     OW35746   3.282   2.598  10.994  0.1499  0.5284 -1.0204
 8038SOL    HW135747   3.356   2.659  10.990 -0.2262  0.9990 -0.6801
 8038SOL    HW235748   3.323   2.525  10.947 -0.9906 -0.9589  0.3118
 8039SOL     OW35749   0.987   0.368   4.368  0.2002  0.2083  0.3419
 8039SOL    HW135750   1.068   0.331   4.401 -0.1986 -0.7322  0.2616
 8039SOL    HW235751   1.001   0.374   4.273  1.2545 -0.4383  0.4641
 8040SOL     OW35752   2.174   1.480   6.747  0.3753 -0.4874  0.0506
 8040SOL    HW135753   2.204   1.406   6.799  0.6520 -0.5039 -0.1266
 8040SOL    HW235754   2.147   1.542   6.814  0.2836 -0.7911  0.2927
 8041SOL     OW35755   2.893   3.865  15.731  0.3096  1.7094  0.2653
 8041SOL    HW135756   2.969   3.898  15.684  0.9796 -0.9278 -0.4449
 8041SOL    HW235757   2.875   3.926  15.803 -2.3156  4.3610 -2.6195
 8042SOL     OW35758   2.760   0.910   0.996 -0.3598 -0.5114 -0.0239
 8042SOL    HW135759   2.843   0.873   1.025  0.2782  0.5384 -0.4812
 8042SOL    HW235760   2.697   0.870   1.056 -0.1290 -2.1682 -0.8996
 8043SOL     OW35761   0.960   3.998   7.401  0.0243 -0.5219 -0.2487
 8043SOL    HW135762   1.026   4.000   7.332 -2.6630  1.5008 -2.7630
 8043SOL    HW235763   1.011   4.052   7.461  0.6723 -1.8011  0.3528
 8044SOL     OW35764   2.320   3.725   4.633 -0.3456 -0.6671  0.4587
 8044SOL    HW135765   2.358   3.803   4.675  0.4512  0.1344 -1.7687
 8044SOL    HW235766   2.351   3.666   4.702  0.5378  1.1596  1.6318
 8045SOL     OW35767   3.110   0.821   6.972  0.2377  0.3609 -0.0013
 8045SOL    HW135768   3.066   0.777   7.044  0.6361 -0.4374 -0.2480
 8045SOL    HW235769   3.181   0.869   7.016  0.5500 -0.4918  0.4184
 8046SOL     OW35770   4.251   3.087  15.838 -0.3920  0.0639  0.1784
 8046SOL    HW135771   4.248   3.036  15.919  4.1423 -1.9730 -1.0151
 8046SOL    HW235772   4.335   3.054  15.807 -1.7143 -2.6741 -0.4847
 8047SOL     OW35773   2.021   2.833   4.958  0.1989 -0.4573 -0.1163
 8047SOL    HW135774   1.945   2.876   4.918 -0.5955 -2.1297 -0.3896
 8047SOL    HW235775   1.972   2.774   5.015  0.8589 -0.0509  0.8882
 8048SOL     OW35776   2.684   3.646  17.534 -0.0756 -0.5429  0.0292
 8048SOL    HW135777   2.650   3.728  17.498  0.3225 -0.8194 -1.0076
 8048SOL    HW235778   2.680   3.660  17.628  1.6857 -0.1317  0.0410
 8049SOL     OW35779   4.599   2.357   0.124 -0.9058 -0.0688  0.0969
 8049SOL    HW135780   4.674   2.330   0.176 -2.6863 -1.7502  1.7954
 8049SOL    HW235781   4.640   2.373   0.039  2.4179 -0.6196  1.6113
 8050SOL     OW35782   3.601   1.332  14.846  0.8113 -0.1813 -0.2568
 8050SOL    HW135783   3.566   1.357  14.761 -1.9299 -1.0805  0.5995
 8050SOL    HW235784   3.587   1.412  14.897  0.8255 -0.6181  0.4300
 8051SOL     OW35785   4.352   1.931   7.078  0.4102  0.3111  0.2418
 8051SOL    HW135786   4.334   2.015   7.120 -0.7759  0.7739 -1.2100
 8051SOL    HW235787   4.269   1.884   7.090  1.5609 -0.8328  3.5480
 8052SOL     OW35788   2.212   2.876   7.355  0.2393 -0.1811  0.2068
 8052SOL    HW135789   2.215   2.789   7.315  0.7007 -1.0754  2.1548
 8052SOL    HW235790   2.248   2.932   7.287 -2.1926 -0.5847 -1.4035
 8053SOL     OW35791   2.841   3.770   9.122 -0.2107  0.0481  0.2286
 8053SOL    HW135792   2.916   3.821   9.091  0.2642 -0.2950  0.8328
 8053SOL    HW235793   2.830   3.705   9.052  2.8113 -1.9724  1.6391
 8054SOL     OW35794   4.570   3.299  15.144  0.1494 -0.8779 -0.3167
 8054SOL    HW135795   4.651   3.305  15.195 -0.7490 -1.2903  1.1422
 8054SOL    HW235796   4.507   3.330  15.209 -1.0599  1.8988 -2.8333
 8055SOL     OW35797   1.547   4.095   3.954  0.2658  0.4894  0.2506
 8055SOL    HW135798   1.532   4.088   3.860  0.5912 -0.4044  0.2696
 8055SOL    HW235799   1.626   4.042   3.949  0.4129  0.8623 -1.2191
 8056SOL     OW35800   3.210   1.971   3.536 -0.3210 -0.2573  0.6809
 8056SOL    HW135801   3.238   2.055   3.573  1.0370 -0.4932  0.2019
 8056SOL    HW235802   3.187   1.927   3.617  0.1977 -0.0961  0.9184
 8057SOL     OW35803   3.628   2.992   3.032 -0.2646  0.0435 -0.3176
 8057SOL    HW135804   3.630   3.014   2.939  2.6842 -0.8796 -0.4530
 8057SOL    HW235805   3.687   2.917   3.029  0.5662  0.6809  0.1774
 8058SOL     OW35806   2.099   1.269  14.605  0.7687  0.2771 -0.2193
 8058SOL    HW135807   2.191   1.293  14.619  0.6641  0.3954  0.2908
 8058SOL    HW235808   2.090   1.246  14.698  3.0604 -1.5358 -0.4596
 8059SOL     OW35809   4.657   4.428   7.276  0.1758  0.0961 -0.0522
 8059SOL    HW135810   4.666   4.339   7.240  1.8393  0.1909  0.1518
 8059SOL    HW235811   4.729   4.479   7.240  1.5644 -1.5005  0.4989
 8060SOL     OW35812   2.976   4.521   3.626  0.4745  0.1201  0.9082
 8060SOL    HW135813   3.008   4.584   3.691 -0.3266 -0.7360  2.1123
 8060SOL    HW235814   2.999   4.565   3.544 -0.8378 -0.8483  0.0310
 8061SOL     OW35815   1.192   4.230   4.815  0.6178 -0.3060  0.2319
 8061SOL    HW135816   1.208   4.309   4.764  0.7058  0.1027  0.8900
 8061SOL    HW235817   1.096   4.234   4.822  0.7337 -2.2809  3.0963
 8062SOL     OW35818   4.013   4.247   2.026 -0.1587 -0.3031 -0.2251
 8062SOL    HW135819   4.098   4.221   2.063 -0.3945 -0.9756 -0.1449
 8062SOL    HW235820   4.008   4.207   1.939 -0.7992  0.8891 -0.7335
 8063SOL     OW35821   2.164   1.060   1.298 -0.0101  0.7031 -0.5886
 8063SOL    HW135822   2.212   0.985   1.262  1.1534  0.7652  0.8533
 8063SOL    HW235823   2.074   1.047   1.267  0.2361 -2.2878 -0.0812
 8064SOL     OW35824   3.531   1.071   5.090 -0.0242 -0.5983 -0.2396
 8064SOL    HW135825   3.507   1.163   5.081  2.2439  0.0884  0.9889
 8064SOL    HW235826   3.526   1.060   5.185  1.8591  0.4234 -0.0243
 8065SOL     OW35827   3.229   4.302   1.923 -0.1417  0.3618 -0.3465
 8065SOL    HW135828   3.307   4.287   1.869  0.5040  0.4720  0.5489
 8065SOL    HW235829   3.164   4.310   1.853 -1.2622 -0.5058  0.5996
 8066SOL     OW35830   4.014   1.355   2.183 -0.5445  0.3257  0.0330
 8066SOL    HW135831   4.074   1.341   2.257  1.8297  1.5420 -1.6465
 8066SOL    HW235832   3.976   1.442   2.196 -1.1556 -0.0624  0.8464
 8067SOL     OW35833   0.909   4.600  15.884 -0.2568  0.2092  0.0664
 8067SOL    HW135834   0.873   4.605  15.973 -2.3036 -1.2654 -0.6606
 8067SOL    HW235835   0.984   4.660  15.886  1.0974 -1.4836 -0.8577
 8068SOL     OW35836   0.922   4.331   8.445  0.7015 -0.3881 -0.1528
 8068SOL    HW135837   0.854   4.398   8.442 -1.1632 -2.3093 -0.9707
 8068SOL    HW235838   0.879   4.246   8.433 -1.3335  0.7396 -0.8813
 8069SOL     OW35839   4.001   4.573   5.154 -0.6270  0.4082 -0.5686
 8069SOL    HW135840   4.027   4.492   5.111 -0.9451  1.2397 -2.3140
 8069SOL    HW235841   4.024   4.636   5.086  3.2996  1.0513  1.3500
 8070SOL     OW35842   1.369   1.167  16.217  0.3217 -0.1525  0.3607
 8070SOL    HW135843   1.385   1.099  16.152 -2.1449 -1.3982  1.0364
 8070SOL    HW235844   1.280   1.144  16.244 -1.1098  3.1095 -1.6844
 8071SOL     OW35845   3.698   0.986  12.518  0.0641  0.0587 -0.1410
 8071SOL    HW135846   3.603   0.984  12.512  0.1879 -0.9098 -1.6265
 8071SOL    HW235847   3.706   0.905  12.468 -2.0626  0.5514 -1.2836
 8072SOL     OW35848   1.682   4.706   7.668 -0.1279  0.3941 -0.3263
 8072SOL    HW135849   1.733   4.671   7.741  0.1017  0.9676 -0.2085
 8072SOL    HW235850   1.755   0.001   7.613 -0.0233  0.4570 -0.1539
 8073SOL     OW35851   2.401   1.603   1.754  0.1245 -0.0855 -0.5457
 8073SOL    HW135852   2.479   1.633   1.801 -2.1514  1.7670  2.0646
 8073SOL    HW235853   2.382   1.669   1.688  2.3677 -0.0300 -1.1162
 8074SOL     OW35854   2.803   2.836   7.101 -0.2393 -0.7974 -0.0425
 8074SOL    HW135855   2.781   2.746   7.126  0.3362 -0.2251  2.4613
 8074SOL    HW235856   2.851   2.823   7.018 -0.9361 -0.5076 -0.4859
 8075SOL     OW35857   0.584   1.686   3.668  0.4424  0.0330  0.0337
 8075SOL    HW135858   0.668   1.654   3.700  0.1981  0.8109  1.4458
 8075SOL    HW235859   0.606   1.776   3.645 -0.7250  0.3372  0.0897
 8076SOL     OW35860   1.877   0.817   0.681 -0.2374 -0.0198  0.1145
 8076SOL    HW135861   1.969   0.792   0.687 -0.0213  0.9086  0.7295
 8076SOL    HW235862   1.859   0.826   0.587 -4.1802  2.7635  1.1424
 8077SOL     OW35863   1.491   1.244  10.385  0.1418 -0.2748 -0.2978
 8077SOL    HW135864   1.414   1.275  10.433  1.7781  1.4150  1.2373
 8077SOL    HW235865   1.453   1.193  10.314 -2.1183  1.5437 -0.4009
 8078SOL     OW35866   4.534   4.728  10.393 -0.1540 -0.2221  0.1954
 8078SOL    HW135867   4.540   4.696  10.303  2.6278  2.4889 -0.6101
 8078SOL    HW235868   4.590   0.072  10.392 -0.8217  0.2757  2.3746
 8079SOL     OW35869   0.001   0.052  11.235  0.4147 -0.3671 -0.4703
 8079SOL    HW135870   0.085   0.029  11.196  0.8374 -0.6811  0.6049
 8079SOL    HW235871   4.689   0.110  11.175  0.3112 -1.6778 -1.6338
 8080SOL     OW35872   4.025   4.453  12.058  0.1085 -0.0337 -1.0138
 8080SOL    HW135873   3.997   4.438  12.149  0.7769 -0.1094 -0.8205
 8080SOL    HW235874   4.043   4.547  12.060  1.5849 -0.3249 -1.0310
 8081SOL     OW35875   2.269   3.680  11.831 -0.1834 -0.3258  0.2559
 8081SOL    HW135876   2.300   3.720  11.912  1.3534  1.3682 -1.1766
 8081SOL    HW235877   2.339   3.618  11.811  0.4777  1.1057 -1.8249
 8082SOL     OW35878   2.314   1.175   8.539 -0.0362 -0.5978 -0.6347
 8082SOL    HW135879   2.319   1.203   8.448 -0.4400  0.6212 -0.2926
 8082SOL    HW235880   2.218   1.171   8.550  0.1613 -0.9588  1.0315
 8083SOL     OW35881   3.709   0.840   5.914 -0.3654  0.2280  0.1639
 8083SOL    HW135882   3.625   0.835   5.868  0.4958 -0.3549 -1.3308
 8083SOL    HW235883   3.740   0.893   5.840 -1.4105  0.2490 -0.2671
 8084SOL     OW35884   0.670   1.230   7.141 -0.3994 -0.3997 -0.1374
 8084SOL    HW135885   0.606   1.285   7.096 -0.7500  0.3342  1.2405
 8084SOL    HW235886   0.630   1.143   7.147  2.2529 -1.5620  0.7116
 8085SOL     OW35887   0.157   0.244   8.682 -0.1384 -0.3369 -0.1471
 8085SOL    HW135888   0.148   0.232   8.776  0.7275  0.3284  0.0216
 8085SOL    HW235889   0.078   0.196   8.657 -1.3474  0.2577  2.5070
 8086SOL     OW35890   0.591   4.476  15.527 -0.0101 -0.0489 -0.5532
 8086SOL    HW135891   0.563   4.512  15.611 -0.1849 -3.1609  0.7440
 8086SOL    HW235892   0.685   4.464  15.543 -0.4627 -0.1543  1.9790
 8087SOL     OW35893   4.209   1.777   8.150  0.1025  0.3241 -0.0177
 8087SOL    HW135894   4.212   1.712   8.079 -1.6881 -0.4562  0.6321
 8087SOL    HW235895   4.265   1.843   8.110 -0.1633  1.0654  0.8478
 8088SOL     OW35896   0.403   2.564   8.314 -0.2577 -0.0797  0.1970
 8088SOL    HW135897   0.365   2.647   8.288  1.2029  0.6070  0.2837
 8088SOL    HW235898   0.322   2.520   8.344 -0.5948  0.5734  0.2385
 8089SOL     OW35899   1.779   3.665   2.932 -0.1854  0.4477  0.2284
 8089SOL    HW135900   1.842   3.597   2.908 -0.6674  0.4977 -1.1851
 8089SOL    HW235901   1.724   3.668   2.854 -1.7176 -0.7766  1.2598
 8090SOL     OW35902   3.549   0.791   0.781  0.1669  0.4640 -0.1486
 8090SOL    HW135903   3.475   0.813   0.725  0.3393  0.4755 -0.3747
 8090SOL    HW235904   3.617   0.857   0.764  0.1909  0.9746  1.9553
 8091SOL     OW35905   1.657   3.167   3.888 -0.6540 -0.0874  0.0090
 8091SOL    HW135906   1.661   3.260   3.865  1.6850 -0.6956 -2.0132
 8091SOL    HW235907   1.751   3.152   3.879 -0.2430  1.8502  0.9758
 8092SOL     OW35908   0.311   3.622   7.860  0.2058 -0.0742  0.2056
 8092SOL    HW135909   0.255   3.546   7.876  2.0983 -1.4833  0.2011
 8092SOL    HW235910   0.306   3.657   7.949 -1.2496  0.9834 -0.3117
 8093SOL     OW35911   3.444   2.035   4.583 -0.1519 -0.0500 -0.5980
 8093SOL    HW135912   3.500   2.062   4.510 -0.5136  0.6136 -0.6329
 8093SOL    HW235913   3.361   2.043   4.536  0.2203 -0.1282 -1.2548
 8094SOL     OW35914   2.480   4.535   4.255  0.0229  0.0477 -0.1866
 8094SOL    HW135915   2.426   4.511   4.330  0.3516  0.8304  0.2982
 8094SOL    HW235916   2.473   4.470   4.185  1.8380  0.3469 -0.6223
 8095SOL     OW35917   1.945   2.329   5.635  0.3292  0.2148 -0.3811
 8095SOL    HW135918   1.921   2.416   5.603  2.9566  0.8331 -0.6382
 8095SOL    HW235919   1.856   2.293   5.644  0.0899  1.6204  3.1191
 8096SOL     OW35920   4.216   1.305   7.487  0.3412 -1.1317 -0.0312
 8096SOL    HW135921   4.233   1.252   7.410 -0.1368  0.9443 -1.5793
 8096SOL    HW235922   4.301   1.292   7.530  0.9121 -1.9785 -1.4251
 8097SOL     OW35923   1.693   1.759  14.383 -0.1053  0.7132 -0.1415
 8097SOL    HW135924   1.610   1.755  14.430  0.6477  3.6542  1.4127
 8097SOL    HW235925   1.669   1.771  14.291 -3.3365 -0.5092  0.5215
 8098SOL     OW35926   4.282   3.689  15.470  0.0853  0.6508 -0.2928
 8098SOL    HW135927   4.197   3.668  15.432 -0.2165  0.6090  0.3933
 8098SOL    HW235928   4.259   3.720  15.558 -2.2534 -0.2329 -0.5891
 8099SOL     OW35929   4.446   2.353   4.991  0.2068 -0.0399 -0.3206
 8099SOL    HW135930   4.531   2.353   4.948  1.6085 -0.8731  2.4204
 8099SOL    HW235931   4.470   2.347   5.084  0.2751  0.0046 -0.3361
 8100SOL     OW35932   3.263   4.597  15.368  0.2993 -0.4791 -0.6854
 8100SOL    HW135933   3.307   4.667  15.319  1.8564 -0.8581  0.1745
 8100SOL    HW235934   3.172   4.623  15.352  0.7038  1.0495 -0.4761
 8101SOL     OW35935   1.155   4.690   4.321 -0.4975  0.0449 -0.2545
 8101SOL    HW135936   1.148   4.667   4.413 -1.4951  3.4700  0.5025
 8101SOL    HW235937   1.184   4.606   4.286 -3.2790 -0.6801 -0.8121
 8102SOL     OW35938   0.092   2.858   2.474 -0.9715 -0.1381 -0.0701
 8102SOL    HW135939   0.069   2.917   2.545  3.2961  0.1904  1.0409
 8102SOL    HW235940   0.103   2.922   2.403  1.6231 -0.7085 -0.2111
 8103SOL     OW35941   0.323   3.001   5.494 -0.7761  0.6454  1.0898
 8103SOL    HW135942   0.370   2.919   5.483 -2.0692 -0.2008  1.7439
 8103SOL    HW235943   0.401   3.055   5.486 -2.1782  2.3966 -0.7652
 8104SOL     OW35944   1.791   2.117   4.095  0.3275 -0.0294  0.1153
 8104SOL    HW135945   1.737   2.122   4.174  1.4644 -0.0299  0.8907
 8104SOL    HW235946   1.750   2.042   4.051  1.3604 -0.0525 -0.8010
 8105SOL     OW35947   1.248   2.383  10.377 -0.3881  0.5143  0.5686
 8105SOL    HW135948   1.211   2.431  10.451 -1.6067 -1.8771  1.5095
 8105SOL    HW235949   1.297   2.309  10.413  1.2916  1.6993  0.6768
 8106SOL     OW35950   4.116   2.607   5.895  0.4960  0.4019  0.0658
 8106SOL    HW135951   4.048   2.563   5.843  0.1215  0.3351  0.6149
 8106SOL    HW235952   4.057   2.646   5.959  0.3734 -1.9161  1.3595
 8107SOL     OW35953   1.082   2.124   5.349  0.4612 -0.0807  0.1447
 8107SOL    HW135954   1.083   2.119   5.253  0.9008  0.1650  0.1371
 8107SOL    HW235955   1.041   2.210   5.354 -1.1511 -0.8601  0.3653
 8108SOL     OW35956   1.907   1.973   3.758  0.5146  0.1292 -0.1444
 8108SOL    HW135957   1.958   2.044   3.720  0.9817  0.0945  0.4348
 8108SOL    HW235958   1.983   1.919   3.777 -0.3752 -0.4691  1.6481
 8109SOL     OW35959   1.281   4.163   7.609  0.8058 -0.6458 -0.5936
 8109SOL    HW135960   1.240   4.077   7.609  1.1029 -0.7853  0.3668
 8109SOL    HW235961   1.210   4.218   7.576  2.3252  1.8372  0.2329
 8110SOL     OW35962   1.777   3.982   4.880  0.3212 -0.2924  0.1501
 8110SOL    HW135963   1.787   4.024   4.794  1.4947 -0.7131  0.0829
 8110SOL    HW235964   1.825   3.902   4.862  0.7757 -0.1923  0.9338
 8111SOL     OW35965   3.235   1.901  16.041  0.0663 -0.5093 -0.6229
 8111SOL    HW135966   3.214   1.928  15.951 -0.7342 -0.0194 -0.2931
 8111SOL    HW235967   3.302   1.964  16.068  0.0339 -0.1492 -1.3715
 8112SOL     OW35968   4.233   1.940   5.353 -0.3479 -0.0143  0.1576
 8112SOL    HW135969   4.186   1.988   5.421 -1.1367  0.0234 -0.4100
 8112SOL    HW235970   4.278   2.004   5.298 -1.1832  0.5974  0.1929
 8113SOL     OW35971   2.143   1.387   4.367  0.0753 -0.6720 -0.4295
 8113SOL    HW135972   2.140   1.442   4.446 -0.5129  0.4588 -1.2282
 8113SOL    HW235973   2.172   1.452   4.302 -3.2600  0.7373 -0.5006
 8114SOL     OW35974   1.837   2.785   5.736  0.3782  0.4014  0.0168
 8114SOL    HW135975   1.819   2.720   5.804 -0.5957 -0.0305 -0.6441
 8114SOL    HW235976   1.806   2.866   5.776 -2.1652  0.4571 -2.0667
 8115SOL     OW35977   2.269   1.651   4.910 -0.1168  0.2715 -0.1456
 8115SOL    HW135978   2.238   1.690   4.829 -2.3413 -2.5690 -0.6741
 8115SOL    HW235979   2.323   1.575   4.886  3.2089  1.7615  2.5015
 8116SOL     OW35980   0.773   4.693   2.001 -0.0898 -0.2062  0.8400
 8116SOL    HW135981   0.677   4.692   2.009 -0.1562 -3.2176 -0.3945
 8116SOL    HW235982   0.792   0.007   1.920 -0.3352  0.6810  1.3027
 8117SOL     OW35983   4.725   1.292   3.732 -0.0160 -0.4022 -0.1745
 8117SOL    HW135984   0.032   1.346   3.800 -2.2538  1.5994 -0.4111
 8117SOL    HW235985   0.070   1.272   3.682  0.2334 -1.6561  0.7169
 8118SOL     OW35986   1.576   2.119   6.092  0.1935  0.2728 -0.2286
 8118SOL    HW135987   1.642   2.076   6.146  0.3461 -0.6722 -1.1595
 8118SOL    HW235988   1.496   2.067   6.104 -1.0530  2.4965  0.9374
 8119SOL     OW35989   0.604   4.070   1.755  0.4868  0.3688  0.4475
 8119SOL    HW135990   0.593   3.997   1.815  3.0507 -0.9751 -0.7152
 8119SOL    HW235991   0.699   4.073   1.763  0.5569  0.4487 -0.4230
 8120SOL     OW35992   3.014   3.652   8.537 -0.0171  0.3213  0.6182
 8120SOL    HW135993   2.920   3.642   8.549 -0.2844 -0.3117 -1.9216
 8120SOL    HW235994   3.022   3.718   8.468  1.3261  1.3122  1.7379
 8121SOL     OW35995   3.456   2.641   3.268 -0.0345  0.1291 -0.2577
 8121SOL    HW135996   3.499   2.582   3.329 -1.7982 -1.0917 -0.2075
 8121SOL    HW235997   3.473   2.596   3.185 -3.2046  0.4647 -1.0665
 8122SOL     OW35998   2.454   3.176   7.611 -0.2289 -0.3437 -0.4324
 8122SOL    HW135999   2.386   3.207   7.551 -0.7425 -1.1333 -0.2675
 8122SOL    HW236000   2.403   3.135   7.681 -0.5032  0.3485 -0.2276
 8123SOL     OW36001   4.591   4.245   8.697 -0.5984  0.1992  0.1653
 8123SOL    HW136002   4.600   4.256   8.603  0.1816  3.2820  0.6200
 8123SOL    HW236003   4.507   4.290   8.707 -0.2594  1.1602 -1.3680
 8124SOL     OW36004   4.597   0.979   2.747 -0.4683  0.0165 -0.8031
 8124SOL    HW136005   4.678   1.030   2.751 -1.4278  1.2581  2.5024
 8124SOL    HW236006   4.567   0.991   2.657 -0.5114 -3.3219 -1.2288
 8125SOL     OW36007   1.933   0.053   1.989 -0.0346 -0.2583 -0.3334
 8125SOL    HW136008   1.863   0.104   1.948 -0.4864  0.6970  1.6162
 8125SOL    HW236009   1.886   0.019   2.065  0.1524  1.2920  0.4703
 8126SOL     OW36010   1.649   1.882   9.267  0.4242  0.4491 -0.2790
 8126SOL    HW136011   1.660   1.791   9.240 -2.0712 -0.3560  1.4503
 8126SOL    HW236012   1.570   1.873   9.320 -0.3970  0.3201 -1.5498
 8127SOL     OW36013   2.693   2.527   3.819 -0.3173 -1.2193 -0.8271
 8127SOL    HW136014   2.652   2.610   3.795  1.0028 -0.4671 -0.4602
 8127SOL    HW236015   2.614   2.490   3.858 -0.5703  0.2566  0.0661
 8128SOL     OW36016   1.713   2.592   7.773  0.4668 -0.4368  0.2404
 8128SOL    HW136017   1.723   2.527   7.703 -1.2860  0.3943 -0.7865
 8128SOL    HW236018   1.624   2.621   7.753 -0.0435 -0.1608  2.9380
 8129SOL     OW36019   4.675   0.930   6.776 -0.4944 -0.5041 -0.1693
 8129SOL    HW136020   0.022   0.927   6.826 -0.5795 -0.0683 -0.0105
 8129SOL    HW236021   4.646   1.019   6.760  2.8551  0.5577 -0.2692
 8130SOL     OW36022   3.927   3.357  13.991 -0.5823 -0.5067  0.4409
 8130SOL    HW136023   3.873   3.392  14.062  2.5530 -0.0275  2.5623
 8130SOL    HW236024   3.969   3.432  13.949 -3.7497  1.4179  0.6736
 8131SOL     OW36025   0.181   0.483  10.363 -0.1080 -0.0646 -0.2627
 8131SOL    HW136026   0.223   0.431  10.431  0.3636  1.0643  0.3080
 8131SOL    HW236027   0.180   0.411  10.300  0.0448 -2.0528  2.0259
 8132SOL     OW36028   2.909   1.599   3.854 -0.1564  0.1582  0.6216
 8132SOL    HW136029   2.828   1.549   3.847 -0.7555  1.2250 -0.0276
 8132SOL    HW236030   2.942   1.572   3.939 -0.0991  0.0836  0.5755
 8133SOL     OW36031   3.745   0.682  16.617 -0.1558  0.6222 -0.6127
 8133SOL    HW136032   3.672   0.699  16.557  1.1540 -0.3163 -2.4523
 8133SOL    HW236033   3.739   0.759  16.674 -2.2815  0.2133 -0.2654
 8134SOL     OW36034   4.692   0.643  13.322 -0.0238  0.6162  0.1893
 8134SOL    HW136035   4.644   0.592  13.387  0.8968 -0.6066 -0.0998
 8134SOL    HW236036   4.716   0.579  13.254 -2.5986  1.2546 -1.3179
 8135SOL     OW36037   0.071   3.812  10.086  0.0676 -0.2130 -0.4457
 8135SOL    HW136038   0.077   3.757  10.164  1.3841  0.0274 -0.3723
 8135SOL    HW236039   0.151   3.863  10.097 -0.4169  0.0627  1.6774
 8136SOL     OW36040   3.638   1.298  12.475  0.0059 -0.1839 -0.1059
 8136SOL    HW136041   3.615   1.362  12.544  0.4187 -0.0633 -0.0836
 8136SOL    HW236042   3.689   1.236  12.527 -0.6355 -0.7706 -0.1689
 8137SOL     OW36043   0.389   0.546   7.699 -0.0393  0.2432  0.3779
 8137SOL    HW136044   0.411   0.484   7.768 -2.3895 -1.1295 -0.1086
 8137SOL    HW236045   0.403   0.487   7.625 -2.0081  0.1283  0.0948
 8138SOL     OW36046   3.938   4.284   7.211  0.0892 -0.3112  0.0576
 8138SOL    HW136047   4.031   4.307   7.202 -0.3117  0.7921 -1.2343
 8138SOL    HW236048   3.910   4.277   7.120  2.5190  1.7241 -0.8495
 8139SOL     OW36049   0.931   2.055   3.284  0.1097 -0.6069  0.0537
 8139SOL    HW136050   0.855   2.102   3.318  1.6913  1.1904  1.1002
 8139SOL    HW236051   0.994   2.110   3.331  0.8081 -0.5559 -0.9597
 8140SOL     OW36052   2.810   2.476   3.568 -0.0364  0.0396  0.0316
 8140SOL    HW136053   2.745   2.419   3.526 -0.7606  0.8112  0.0980
 8140SOL    HW236054   2.778   2.476   3.658 -1.7650 -2.0360 -0.5802
 8141SOL     OW36055   1.709   1.023  16.751 -0.1192  0.1748  0.5481
 8141SOL    HW136056   1.624   1.066  16.749 -0.1916 -0.0460 -1.2251
 8141SOL    HW236057   1.685   0.933  16.772  0.0473  0.0021 -0.0111
 8142SOL     OW36058   1.535   0.039  17.403  0.5272  0.3120 -0.1478
 8142SOL    HW136059   1.621   0.080  17.416  0.6094  0.1492 -0.1836
 8142SOL    HW236060   1.502   0.093  17.332  2.4535  2.6318  0.6934
 8143SOL     OW36061   1.079   1.968   0.800  0.1549 -0.3039 -0.2456
 8143SOL    HW136062   1.168   1.941   0.777 -0.6693 -1.3136 -2.2471
 8143SOL    HW236063   1.059   1.902   0.866  1.7376 -0.6377 -0.0940
 8144SOL     OW36064   0.459   3.410   5.940  0.2843  0.7241  0.0761
 8144SOL    HW136065   0.535   3.373   5.985 -0.3757 -1.0513 -0.2737
 8144SOL    HW236066   0.431   3.482   5.996  3.5205  2.9262 -1.1283
 8145SOL     OW36067   3.203   1.636   7.930  0.1935 -0.1907  0.0977
 8145SOL    HW136068   3.284   1.686   7.940  0.2452  0.1093 -1.9217
 8145SOL    HW236069   3.179   1.617   8.021 -0.5947 -1.7223 -0.4198
 8146SOL     OW36070   4.216   4.043  13.568  0.7020 -0.3342 -0.3822
 8146SOL    HW136071   4.293   4.058  13.622  1.0695  0.7708 -1.2151
 8146SOL    HW236072   4.191   4.127  13.531 -1.1412 -0.6387  0.1650
 8147SOL     OW36073   0.120   0.372   2.472 -0.2575  0.3876 -0.2626
 8147SOL    HW136074   0.100   0.388   2.564  2.3553  0.8053  0.2249
 8147SOL    HW236075   0.092   0.281   2.481  2.6430 -0.5616 -0.6208
 8148SOL     OW36076   1.803   1.611   3.126 -0.0533 -0.1043 -0.4092
 8148SOL    HW136077   1.771   1.521   3.120  2.2457 -1.0457  1.9762
 8148SOL    HW236078   1.749   1.643   3.198  2.1619  1.7577  0.3922
 8149SOL     OW36079   4.004   3.788   6.117  0.2355 -0.0172  0.2832
 8149SOL    HW136080   3.980   3.852   6.051 -0.7418 -1.0833 -0.3828
 8149SOL    HW236081   3.984   3.712   6.063 -2.3084  0.4725  0.5288
 8150SOL     OW36082   0.295   2.100   8.480  0.7980 -0.4477  0.2131
 8150SOL    HW136083   0.218   2.057   8.443  0.9146  0.2479 -0.8364
 8150SOL    HW236084   0.299   2.177   8.423 -1.0438 -0.4053  0.1520
 8151SOL     OW36085   2.914   1.516   6.440 -0.6670  0.0942 -0.7126
 8151SOL    HW136086   2.958   1.440   6.402  2.4439  1.4204  0.2518
 8151SOL    HW236087   2.848   1.469   6.491  2.3243 -1.0610  2.0578
 8152SOL     OW36088   4.065   3.104  15.201  0.3245 -0.3009 -0.0089
 8152SOL    HW136089   4.137   3.089  15.140  1.2167  0.0924  0.9470
 8152SOL    HW236090   4.100   3.054  15.274  2.1019  0.5514 -0.2606
 8153SOL     OW36091   1.169   2.671   2.061 -0.0762  0.0059  0.1565
 8153SOL    HW136092   1.127   2.752   2.033  2.6171  0.6808 -2.0260
 8153SOL    HW236093   1.259   2.699   2.079  0.1350  0.3331 -1.4178
 8154SOL     OW36094   1.038   0.991   4.637  0.2488  0.2438  0.1603
 8154SOL    HW136095   1.010   0.904   4.665  0.0859  0.7631  1.6099
 8154SOL    HW236096   0.987   0.990   4.556 -2.0358 -1.5721  1.6251
 8155SOL     OW36097   1.243   4.046   6.497 -0.1659  0.0389 -0.0030
 8155SOL    HW136098   1.250   3.994   6.416  1.4900  0.7969 -0.3466
 8155SOL    HW236099   1.236   3.980   6.566  0.7085 -0.8578 -0.7636
 8156SOL     OW36100   0.342   2.489   1.563  0.0860 -0.0512  0.1248
 8156SOL    HW136101   0.433   2.478   1.537  0.6118  1.9577  1.0780
 8156SOL    HW236102   0.320   2.574   1.524 -1.1192  0.1788  1.2840
 8157SOL     OW36103   0.909   0.316   9.275  0.7274  0.2441  0.3254
 8157SOL    HW136104   0.984   0.330   9.217  0.5477 -0.1602 -0.0014
 8157SOL    HW236105   0.911   0.222   9.292  1.0559  0.5653  2.0742
 8158SOL     OW36106   3.087   0.593  16.284 -0.2605  0.3513 -0.0767
 8158SOL    HW136107   3.176   0.606  16.251 -0.1070 -0.3886  0.0515
 8158SOL    HW236108   3.039   0.626  16.208  0.0822  1.5626  0.2406
 8159SOL     OW36109   1.649   4.173   1.797 -0.0110  0.2480  0.2404
 8159SOL    HW136110   1.722   4.234   1.803  0.7731 -0.5891 -0.8579
 8159SOL    HW236111   1.634   4.178   1.703 -0.1604  1.3290  0.3185
 8160SOL     OW36112   4.537   4.273   9.055 -0.3926  0.2610 -0.1521
 8160SOL    HW136113   4.494   4.355   9.028  1.4176  1.2483  0.0052
 8160SOL    HW236114   4.596   4.310   9.121  0.4028  0.1383 -0.8006
 8161SOL     OW36115   2.832   2.115   4.473  0.2775  0.2023 -0.2549
 8161SOL    HW136116   2.831   2.112   4.569  0.8013 -0.2395 -0.2646
 8161SOL    HW236117   2.745   2.150   4.451 -1.0070 -3.3830 -0.9205
 8162SOL     OW36118   3.088   3.183  10.569  0.2961  0.7402  0.3891
 8162SOL    HW136119   3.157   3.214  10.628  2.7747 -1.4152 -1.3913
 8162SOL    HW236120   3.053   3.270  10.551  1.4667  0.9728 -0.7326
 8163SOL     OW36121   3.401   4.363   5.512  0.0719  0.2104 -0.0013
 8163SOL    HW136122   3.443   4.437   5.468  1.2861 -0.4295  0.0622
 8163SOL    HW236123   3.322   4.362   5.458 -0.4756  1.0048  0.7900
 8164SOL     OW36124   2.259   3.059   2.659 -0.1948 -0.4836  0.2595
 8164SOL    HW136125   2.330   3.021   2.713 -0.8122 -1.2823  0.5143
 8164SOL    HW236126   2.198   2.986   2.668 -1.3803  0.5394  0.5191
 8165SOL     OW36127   2.065   1.398   7.112 -0.2323  0.2472 -0.2823
 8165SOL    HW136128   2.028   1.316   7.081  0.5953 -0.0258 -0.5589
 8165SOL    HW236129   2.147   1.366   7.150 -0.1444  0.1478 -0.5558
 8166SOL     OW36130   1.555   2.615   3.997 -0.2781 -0.5154  0.7446
 8166SOL    HW136131   1.563   2.607   3.902  1.3005  2.8051  0.6114
 8166SOL    HW236132   1.583   2.526   4.019 -2.0749 -1.5131 -0.9247
 8167SOL     OW36133   4.046   3.997   8.612 -0.1048 -0.5555 -0.2620
 8167SOL    HW136134   3.990   3.920   8.626  0.0789 -0.9114 -1.5146
 8167SOL    HW236135   3.986   4.071   8.624 -0.1773 -0.5724 -0.5155
 8168SOL     OW36136   1.201   1.120   1.803 -0.2864 -0.3903 -0.4255
 8168SOL    HW136137   1.274   1.064   1.828 -0.0154  0.3697  0.4924
 8168SOL    HW236138   1.127   1.060   1.817 -1.4787  1.1183 -0.2152
 8169SOL     OW36139   2.966   2.837   6.478  0.2195  0.1956  0.1830
 8169SOL    HW136140   3.029   2.905   6.454 -0.6601  1.6187  1.9016
 8169SOL    HW236141   2.976   2.831   6.573  1.3211  3.5581  0.3047
 8170SOL     OW36142   2.523   2.913   4.956  0.1920 -0.3630  0.3639
 8170SOL    HW136143   2.450   2.888   5.012 -0.3322  0.2047 -0.0702
 8170SOL    HW236144   2.468   2.930   4.879  2.1956 -0.2720 -1.0510
 8171SOL     OW36145   4.050   1.737   5.625 -0.2005  0.3336  0.7079
 8171SOL    HW136146   4.098   1.779   5.553  0.4009 -3.8849 -1.3714
 8171SOL    HW236147   3.987   1.802   5.656 -2.3596 -0.7013 -1.4539
 8172SOL     OW36148   3.618   4.685  11.644  0.4567 -0.1826 -0.6160
 8172SOL    HW136149   3.704   4.664  11.607  0.8114  0.5166 -0.1959
 8172SOL    HW236150   3.566   4.627  11.588 -0.8530  1.0554 -0.7022
 8173SOL     OW36151   4.403   3.681  10.733 -0.1823 -0.4336 -0.2671
 8173SOL    HW136152   4.463   3.637  10.673 -0.3915 -0.3314 -0.5484
 8173SOL    HW236153   4.459   3.758  10.739  0.7703 -1.0168 -1.6417
 8174SOL     OW36154   2.555   0.264   8.555 -0.4300  0.8266 -0.2219
 8174SOL    HW136155   2.643   0.229   8.539 -0.4294  1.1576 -0.9129
 8174SOL    HW236156   2.542   0.229   8.643 -0.2606  1.4549  0.0547
 8175SOL     OW36157   1.574   3.463  16.368 -0.0031 -0.6293 -0.0148
 8175SOL    HW136158   1.502   3.449  16.306 -0.1447  1.2144 -0.2501
 8175SOL    HW236159   1.623   3.523  16.311  3.1563  0.4673  3.8798
 8176SOL     OW36160   4.468   0.159  15.439  0.4277 -0.2363  0.2859
 8176SOL    HW136161   4.453   0.067  15.460  0.0759 -0.3323 -0.3509
 8176SOL    HW236162   4.494   0.198  15.522  2.9927  0.0894 -0.6916
 8177SOL     OW36163   0.522   0.232   6.051 -0.3413  0.0234  0.2325
 8177SOL    HW136164   0.463   0.295   6.094  1.1374  0.9679  0.8533
 8177SOL    HW236165   0.578   0.284   5.995 -0.0362 -0.4177  0.1259
 8178SOL     OW36166   3.640   1.336   9.016 -0.4771 -1.0187 -0.1691
 8178SOL    HW136167   3.686   1.262   8.975 -1.2756 -1.4336 -0.3079
 8178SOL    HW236168   3.603   1.302   9.097  0.7363  0.1564  0.8850
 8179SOL     OW36169   1.317   4.557   6.357  0.0443  0.3430 -0.2598
 8179SOL    HW136170   1.323   4.626   6.423  0.7811 -0.1061  0.1366
 8179SOL    HW236171   1.242   4.582   6.303 -0.3860  0.7875  0.5411
 8180SOL     OW36172   1.333   4.199   3.071 -0.1714  0.2020  0.3304
 8180SOL    HW136173   1.296   4.176   3.156 -0.7735 -1.3913 -0.3532
 8180SOL    HW236174   1.255   4.196   3.015  0.6032 -2.4835 -0.5930
 8181SOL     OW36175   0.674   0.825   9.287  0.9523  0.4523 -0.1372
 8181SOL    HW136176   0.579   0.819   9.276  0.9398  1.1414 -0.4527
 8181SOL    HW236177   0.712   0.841   9.200  0.2834 -0.6957 -0.6355
 8182SOL     OW36178   0.646   1.894  12.284  0.6431  0.2671  0.5023
 8182SOL    HW136179   0.601   1.862  12.206  1.5241  0.3098 -0.0168
 8182SOL    HW236180   0.714   1.828  12.285 -0.0129 -0.4102  0.6039
 8183SOL     OW36181   2.943   0.062   9.370  0.0176 -0.3352  0.4185
 8183SOL    HW136182   3.021   0.069   9.424  1.4582 -2.4089 -1.4135
 8183SOL    HW236183   2.992   0.045   9.290  0.0722  0.0758  0.3619
 8184SOL     OW36184   3.352   4.293   7.171  0.1544  0.5002  0.2405
 8184SOL    HW136185   3.390   4.206   7.161  0.3556  0.5287  0.7685
 8184SOL    HW236186   3.290   4.286   7.098  0.5771  0.5849 -0.1251
 8185SOL     OW36187   2.463   2.297   9.625 -0.2060 -0.0153 -0.0429
 8185SOL    HW136188   2.519   2.253   9.689  0.2178  0.9280  0.2419
 8185SOL    HW236189   2.379   2.304   9.671  0.2102 -2.7076  1.0931
 8186SOL     OW36190   2.675   3.375   2.093  0.6693 -0.0154  0.6440
 8186SOL    HW136191   2.701   3.417   2.011  1.7898 -2.1188 -0.0947
 8186SOL    HW236192   2.620   3.443   2.132 -1.5371 -1.0047 -0.7925
 8187SOL     OW36193   1.672   1.062  10.386 -0.2342  0.0403  0.2846
 8187SOL    HW136194   1.748   1.107  10.349 -0.2969  0.3924  0.5780
 8187SOL    HW236195   1.604   1.129  10.390  0.7135  1.0065  0.0577
 8188SOL     OW36196   1.389   1.147   5.986  0.2879  0.2491 -0.7168
 8188SOL    HW136197   1.298   1.173   6.002  1.0684  1.2413  2.1028
 8188SOL    HW236198   1.391   1.052   5.977 -0.4038  0.1735 -0.1324
 8189SOL     OW36199   0.118   1.918   4.335  0.0554  0.3808 -0.1504
 8189SOL    HW136200   0.151   2.006   4.353  1.6076 -0.7363  2.4427
 8189SOL    HW236201   0.033   1.940   4.298  1.2642  2.5406 -1.7313
 8190SOL     OW36202   4.571   0.778   1.577 -0.1102  0.1234 -0.1476
 8190SOL    HW136203   4.630   0.787   1.502  0.2992 -0.1228  0.1475
 8190SOL    HW236204   4.633   0.768   1.649 -0.2429 -1.1077 -0.2089
 8191SOL     OW36205   4.598   4.432  15.571 -0.3958 -0.1082 -0.0028
 8191SOL    HW136206   4.572   4.489  15.644  0.7579 -0.2910  0.5445
 8191SOL    HW236207   4.518   4.382  15.558 -0.1838 -0.2204 -0.8342
 8192SOL     OW36208   2.321   3.453   2.303 -0.2282 -0.3956 -0.2893
 8192SOL    HW136209   2.338   3.367   2.342 -1.0492 -1.6949 -2.7699
 8192SOL    HW236210   2.247   3.487   2.353  1.3640 -1.9318  3.1595
 8193SOL     OW36211   3.100   1.321   8.405  0.0684  0.1628  0.4262
 8193SOL    HW136212   3.089   1.238   8.358  0.8409 -0.7074  1.7811
 8193SOL    HW236213   3.185   1.300   8.444 -0.1040 -1.2502  0.0478
 8194SOL     OW36214   1.203   4.165  11.109  0.4417  0.6118 -0.3807
 8194SOL    HW136215   1.116   4.199  11.130  0.6114  0.6137  0.3084
 8194SOL    HW236216   1.240   4.139  11.193 -0.4555 -0.9818 -0.4794
 8195SOL     OW36217   0.294   1.923   7.769 -0.2845 -0.1136  0.0800
 8195SOL    HW136218   0.344   1.984   7.823  0.1491  0.2874 -0.7780
 8195SOL    HW236219   0.270   1.863   7.840 -1.6766  0.0203 -0.2697
 8196SOL     OW36220   4.498   0.176   8.293 -0.1345  0.1048  0.3654
 8196SOL    HW136221   4.496   0.150   8.386 -0.2820  1.8708  0.8534
 8196SOL    HW236222   4.434   0.115   8.257 -1.3576  1.0831  0.8858
 8197SOL     OW36223   1.326   4.067   8.340 -0.2077 -0.2426 -0.3693
 8197SOL    HW136224   1.332   3.976   8.311 -1.0322 -0.6199  0.6621
 8197SOL    HW236225   1.243   4.057   8.386 -0.4359  0.7359 -0.5857
 8198SOL     OW36226   3.828   1.067   5.469  0.1311  0.0446  0.3253
 8198SOL    HW136227   3.860   1.056   5.379  1.1888 -0.7479  0.8039
 8198SOL    HW236228   3.865   1.153   5.489  2.8629 -1.6788  2.6953
 8199SOL     OW36229   3.689   1.932   2.559 -0.0317 -0.8911 -0.1184
 8199SOL    HW136230   3.675   2.007   2.617  1.3731 -1.1699  0.5626
 8199SOL    HW236231   3.776   1.904   2.585  0.7816  1.0321 -0.7070
 8200SOL     OW36232   4.317   1.631  11.517  0.3096  0.2979  0.3525
 8200SOL    HW136233   4.337   1.610  11.425 -1.5377  1.5286 -0.3322
 8200SOL    HW236234   4.385   1.578  11.558 -2.7285 -0.8625  3.7943
 8201SOL     OW36235   2.262   1.121  16.745  0.6426 -0.0099  0.4738
 8201SOL    HW136236   2.286   1.199  16.694  0.0943  1.8177  3.0008
 8201SOL    HW236237   2.167   1.122  16.745  0.6509 -1.1229  4.0017
 8202SOL     OW36238   1.819   3.124  17.180 -0.3640  0.2472  0.1881
 8202SOL    HW136239   1.785   3.040  17.150 -0.3613  0.3120  0.0090
 8202SOL    HW236240   1.741   3.178  17.174 -1.2981 -1.4536 -2.9301
 8203SOL     OW36241   4.487   3.065   7.988  0.0774 -0.4070 -0.6337
 8203SOL    HW136242   4.515   3.082   7.899 -0.0905 -3.6311 -1.2955
 8203SOL    HW236243   4.425   2.992   7.978 -0.3229 -0.6521  3.2530
 8204SOL     OW36244   1.257   2.878   7.264  0.0206  0.1326  0.3154
 8204SOL    HW136245   1.343   2.846   7.292 -0.0247 -0.2422  0.0355
 8204SOL    HW236246   1.264   2.857   7.170  1.9524 -1.9375  0.9175
 8205SOL     OW36247   1.692   4.722  12.518  0.6018  0.0282 -0.0178
 8205SOL    HW136248   1.596   4.718  12.512  0.5251 -0.9608  1.9941
 8205SOL    HW236249   1.707   4.696  12.608 -0.7491 -0.9628 -0.0743
 8206SOL     OW36250   4.060   0.481   4.098  0.2342  0.2171 -0.8062
 8206SOL    HW136251   4.003   0.427   4.044 -0.6862 -1.5600  1.9567
 8206SOL    HW236252   4.128   0.499   4.033 -2.1917  3.1445 -2.5241
 8207SOL     OW36253   1.032   3.271   1.768 -0.1297  0.0153 -0.8253
 8207SOL    HW136254   0.985   3.221   1.702 -2.6134  0.7608  0.3829
 8207SOL    HW236255   1.042   3.204   1.837 -0.8275  0.5661 -0.1865
 8208SOL     OW36256   2.131   2.261  10.364 -0.1728  0.6237 -0.6315
 8208SOL    HW136257   2.209   2.307  10.395  1.4814 -0.7803 -2.6634
 8208SOL    HW236258   2.179   2.193  10.316  0.5206 -1.4913  3.0458
 8209SOL     OW36259   0.505   0.909  12.153  0.0307  0.0127 -0.2805
 8209SOL    HW136260   0.432   0.898  12.092 -0.0032 -0.2249 -0.1950
 8209SOL    HW236261   0.582   0.875  12.106  0.5843 -0.2937  0.8669
 8210SOL     OW36262   4.024   0.136   0.720  0.3113 -0.2861 -0.0300
 8210SOL    HW136263   4.027   0.122   0.814  0.4224  0.3351  0.0622
 8210SOL    HW236264   4.030   0.047   0.687 -2.2672  0.2076 -1.8729
 8211SOL     OW36265   0.314   4.658   7.325  0.1015 -0.3654  0.6104
 8211SOL    HW136266   0.319   4.671   7.419  3.0162 -0.1641  0.4094
 8211SOL    HW236267   0.362   0.002   7.297  0.3226 -1.1045 -1.1261
 8212SOL     OW36268   4.261   2.247   3.792  0.7263 -0.6213  0.4082
 8212SOL    HW136269   4.215   2.200   3.722 -0.4847  2.7346 -1.0107
 8212SOL    HW236270   4.352   2.217   3.781  1.5106  1.6541  0.7260
 8213SOL     OW36271   1.155   4.531   1.547 -0.6767  0.0696 -0.1409
 8213SOL    HW136272   1.070   4.549   1.508  0.2045 -0.0533 -2.1326
 8213SOL    HW236273   1.144   4.584   1.626 -0.3098 -1.4127  0.8937
 8214SOL     OW36274   0.616   0.284  14.012  0.5031 -0.2968  0.1698
 8214SOL    HW136275   0.605   0.190  13.994  1.3168 -0.8299  2.5652
 8214SOL    HW236276   0.681   0.313  13.948 -1.6471  2.5383 -0.6855
 8215SOL     OW36277   0.783   1.493  13.105 -0.2193 -0.0358  0.0319
 8215SOL    HW136278   0.755   1.468  13.017 -1.3379  0.0757  0.3570
 8215SOL    HW236279   0.704   1.532  13.141 -1.7121 -0.7861 -2.4439
 8216SOL     OW36280   4.633   4.333  10.773  0.1773 -0.7549  0.1629
 8216SOL    HW136281   4.577   4.299  10.703  1.8322 -0.6193 -1.2277
 8216SOL    HW236282   4.670   4.251  10.807  1.3627  0.2935  1.4030
 8217SOL     OW36283   3.726   3.628   1.090  0.2688 -0.0057  0.2447
 8217SOL    HW136284   3.739   3.707   1.141 -1.0399  1.3860 -1.5937
 8217SOL    HW236285   3.688   3.652   1.005  0.8962 -2.2342 -0.6692
 8218SOL     OW36286   3.511   3.903   3.429 -0.1306  0.2870  1.0647
 8218SOL    HW136287   3.542   3.817   3.401  0.6667  0.6621  0.8098
 8218SOL    HW236288   3.544   3.952   3.354  0.2814 -2.4035 -0.5037
 8219SOL     OW36289   1.032   1.057   0.226  0.0236 -0.0180  0.1662
 8219SOL    HW136290   0.974   0.981   0.225  1.9407 -1.4667 -0.5410
 8219SOL    HW236291   1.091   1.041   0.152 -1.1352 -0.0506 -0.7401
 8220SOL     OW36292   1.870   1.652  10.581 -0.7167  0.0647 -0.0614
 8220SOL    HW136293   1.921   1.595  10.523 -1.8274 -0.8058 -0.2009
 8220SOL    HW236294   1.896   1.629  10.670  2.7796 -1.6729 -1.5287
 8221SOL     OW36295   2.817   4.644   2.239 -0.3225 -0.0125  0.6477
 8221SOL    HW136296   2.743   4.644   2.299  0.0652  2.8281  1.0976
 8221SOL    HW236297   2.796   4.572   2.179  2.6482  0.8034 -1.3497
 8222SOL     OW36298   3.905   3.583   2.696 -0.2517 -0.1174 -0.2200
 8222SOL    HW136299   3.913   3.530   2.617  0.4915 -2.9351  1.6904
 8222SOL    HW236300   3.912   3.670   2.658  0.4033  0.0548  0.2823
 8223SOL     OW36301   4.398   1.130   3.721 -0.5252 -0.1443  0.0268
 8223SOL    HW136302   4.422   1.218   3.750  0.0060  0.5964 -2.6544
 8223SOL    HW236303   4.337   1.101   3.789  0.7167 -0.5680  0.9739
 8224SOL     OW36304   2.540   1.734  17.459 -0.9741 -0.8674  0.1113
 8224SOL    HW136305   2.576   1.707  17.543 -0.1419 -0.2330 -0.0392
 8224SOL    HW236306   2.615   1.723  17.401 -0.0890  2.4854  0.6678
 8225SOL     OW36307   3.034   4.356   7.563 -0.0200  0.0808 -0.4929
 8225SOL    HW136308   3.074   4.347   7.650  1.0004 -0.2076 -0.9806
 8225SOL    HW236309   3.113   4.393   7.523  0.2010 -0.1994 -0.3202
 8226SOL     OW36310   0.878   4.060   2.982 -0.1561 -0.3032 -0.2573
 8226SOL    HW136311   0.811   4.102   2.928 -0.5989  0.5638  0.9593
 8226SOL    HW236312   0.880   3.978   2.933 -0.0114 -0.9434  0.8211
 8227SOL     OW36313   3.093   1.291   7.030 -0.1833 -0.2268  0.6618
 8227SOL    HW136314   3.145   1.363   7.066 -0.2278 -0.7112  1.6976
 8227SOL    HW236315   3.091   1.232   7.105  0.0693 -0.2240  0.6730
 8228SOL     OW36316   2.321   4.700   8.900  0.1492 -0.0645 -0.1912
 8228SOL    HW136317   2.323   4.605   8.891  1.0734  0.0570 -1.3072
 8228SOL    HW236318   2.376   4.710   8.978  0.1628 -1.5245 -0.0294
 8229SOL     OW36319   3.610   3.184   4.306  0.1348  0.0835  0.0245
 8229SOL    HW136320   3.548   3.241   4.261  0.6378  0.4655 -0.1704
 8229SOL    HW236321   3.661   3.244   4.360 -0.9215  0.0021  1.1302
 8230SOL     OW36322   3.711   0.688  14.015 -0.6903 -0.0449 -0.0553
 8230SOL    HW136323   3.626   0.644  14.021 -1.0709  0.5596 -0.9881
 8230SOL    HW236324   3.746   0.671  14.103 -1.5389 -1.8512 -0.0670
 8231SOL     OW36325   3.915   0.179   2.968  0.4443 -0.0581 -0.3934
 8231SOL    HW136326   3.905   0.235   3.045  1.4185  1.7614 -1.6007
 8231SOL    HW236327   4.010   0.173   2.967  0.4409 -0.4366  1.6818
 8232SOL     OW36328   3.212   2.982   3.384  0.4566 -0.4327 -0.2330
 8232SOL    HW136329   3.157   2.924   3.332  1.8501 -2.4118  0.5204
 8232SOL    HW236330   3.295   2.979   3.337  1.2196  0.9559  0.9954
 8233SOL     OW36331   2.474   0.814   6.522  0.2967  0.3241 -0.4633
 8233SOL    HW136332   2.542   0.798   6.588 -2.3800  0.1090  2.2700
 8233SOL    HW236333   2.536   0.839   6.453  3.0034 -3.0517  0.7344
 8234SOL     OW36334   2.559   2.279   9.367  0.3060  0.3980  0.4742
 8234SOL    HW136335   2.650   2.253   9.381 -0.0916 -1.0746  0.3491
 8234SOL    HW236336   2.530   2.295   9.456 -1.2022 -1.4458  0.3117
 8235SOL     OW36337   2.774   2.351  10.711  0.3230 -0.1896 -0.0823
 8235SOL    HW136338   2.769   2.324  10.619 -0.3224 -0.2470 -0.0304
 8235SOL    HW236339   2.736   2.439  10.710  1.3809  0.2650 -0.4108
 8236SOL     OW36340   1.299   2.891   9.293  0.2297  0.0705 -0.1558
 8236SOL    HW136341   1.253   2.942   9.360  2.0017  0.8123  0.5009
 8236SOL    HW236342   1.379   2.939   9.271 -0.5553  1.4780  0.0688
 8237SOL     OW36343   1.872   0.870   1.483 -0.0198  0.2657  0.3189
 8237SOL    HW136344   1.886   0.846   1.575  0.9495  2.0849  0.6500
 8237SOL    HW236345   1.902   0.792   1.438  0.2481  0.6904 -0.2330
 8238SOL     OW36346   3.908   2.306   8.127 -0.5322  0.6802 -0.4396
 8238SOL    HW136347   3.896   2.398   8.103  2.3529  0.8488 -1.2259
 8238SOL    HW236348   3.916   2.307   8.222  1.4094  0.4100 -0.5855
 8239SOL     OW36349   1.642   0.491  10.422  0.4232 -0.0833  0.2766
 8239SOL    HW136350   1.664   0.582  10.402  2.2272 -0.4845  0.4758
 8239SOL    HW236351   1.624   0.456  10.335  1.4019  0.5038 -0.1606
 8240SOL     OW36352   1.908   3.565   6.105 -0.0308  0.9211  0.0227
 8240SOL    HW136353   1.881   3.494   6.163  0.8930 -0.2518 -0.9785
 8240SOL    HW236354   1.844   3.629   6.136 -1.4164  0.5652 -2.1100
 8241SOL     OW36355   3.699   2.643  13.656  0.4821  0.2547 -0.0194
 8241SOL    HW136356   3.717   2.553  13.682 -1.4948  0.1179  0.8859
 8241SOL    HW236357   3.608   2.626  13.630  0.3854 -2.3959  2.1148
 8242SOL     OW36358   1.511   1.008   4.662 -0.3798 -0.1533 -0.3312
 8242SOL    HW136359   1.509   0.913   4.652 -0.3658 -0.1455 -0.4089
 8242SOL    HW236360   1.605   1.019   4.646  0.6234 -3.3521  3.5096
 8243SOL     OW36361   2.312   3.747   1.509 -0.4522  0.1240  0.2356
 8243SOL    HW136362   2.221   3.776   1.517  0.9610  4.9355 -0.8948
 8243SOL    HW236363   2.340   3.812   1.445  0.9416 -0.6641  0.0543
 8244SOL     OW36364   2.423   0.439   8.893  0.7358  0.3122  0.3833
 8244SOL    HW136365   2.341   0.463   8.851 -0.1441 -2.7206  0.3663
 8244SOL    HW236366   2.427   0.343   8.889 -0.2381  0.2663  0.6133
 8245SOL     OW36367   3.307   3.315   1.403 -0.6452 -0.6890 -0.7672
 8245SOL    HW136368   3.291   3.278   1.316  0.6603 -2.2193 -0.3592
 8245SOL    HW236369   3.232   3.289   1.457 -0.0088 -0.3497  0.2750
 8246SOL     OW36370   3.909   3.925   1.794  0.3153  0.1538 -0.5753
 8246SOL    HW136371   3.816   3.942   1.813  0.2472  0.2457 -1.0037
 8246SOL    HW236372   3.941   4.015   1.801 -1.7093  0.9149 -1.0468
 8247SOL     OW36373   2.300   1.423  12.510 -0.4334 -0.2888  0.2341
 8247SOL    HW136374   2.206   1.427  12.528 -0.3034 -1.0235  1.0505
 8247SOL    HW236375   2.308   1.476  12.430 -0.8516  0.5089  0.7142
 8248SOL     OW36376   1.885   0.555   2.817  0.0999 -0.5566  0.5634
 8248SOL    HW136377   1.928   0.508   2.888  0.8936  0.9830  1.0967
 8248SOL    HW236378   1.817   0.597   2.870  0.0921 -2.3410  2.0050
 8249SOL     OW36379   2.104   3.945   1.200  0.3343  0.6492 -0.5574
 8249SOL    HW136380   2.032   3.892   1.166 -0.2774  1.5607 -0.6861
 8249SOL    HW236381   2.088   3.947   1.294 -0.0759  0.2225 -0.6191
 8250SOL     OW36382   3.921   3.077   4.896  0.0627 -0.4464 -0.3357
 8250SOL    HW136383   3.938   3.098   4.988 -0.1092 -4.1332  0.5197
 8250SOL    HW236384   4.005   3.055   4.856  0.0071  1.1393 -1.3249
 8251SOL     OW36385   0.706   2.501   2.304 -1.1955  0.3733 -0.5260
 8251SOL    HW136386   0.755   2.578   2.274 -2.7478  0.9530 -1.5568
 8251SOL    HW236387   0.758   2.483   2.383 -1.3023  1.3874 -0.2323
 8252SOL     OW36388   2.852   0.033  16.789 -0.0579  0.4280 -0.1493
 8252SOL    HW136389   2.805   0.099  16.738  0.5058  0.3705 -0.7479
 8252SOL    HW236390   2.924   0.008  16.731 -1.0568 -1.0322 -0.7720
 8253SOL     OW36391   0.899   4.008  10.031 -0.4582 -0.5314 -0.7975
 8253SOL    HW136392   0.812   3.971  10.043 -0.5743  0.5616  1.7955
 8253SOL    HW236393   0.933   3.928   9.991 -0.9954 -0.9982 -0.3335
 8254SOL     OW36394   4.427   3.635  15.954  0.2179  0.2156 -0.4269
 8254SOL    HW136395   4.379   3.553  15.941 -0.6554  0.5695  0.5785
 8254SOL    HW236396   4.508   3.611  15.909 -0.2567 -1.5657 -0.3584
 8255SOL     OW36397   2.864   1.104   9.172 -0.1830 -0.0230 -0.2241
 8255SOL    HW136398   2.808   1.032   9.204  3.0963 -2.0466  0.9161
 8255SOL    HW236399   2.860   1.094   9.077  1.0098  0.7200 -0.3461
 8256SOL     OW36400   1.032   2.568  15.768  0.6653  0.3943  0.0439
 8256SOL    HW136401   0.986   2.512  15.706 -1.2920  1.3594  0.6243
 8256SOL    HW236402   1.068   2.504  15.830 -0.8099  1.1711  1.6975
 8257SOL     OW36403   1.756   4.063   8.025 -0.4888  0.0925  0.3908
 8257SOL    HW136404   1.683   4.024   8.073 -0.9709 -0.6228 -0.9171
 8257SOL    HW236405   1.722   4.075   7.936  1.6279 -1.6888 -0.6788
 8258SOL     OW36406   4.152   1.216  13.925 -0.7304 -0.4825 -0.1630
 8258SOL    HW136407   4.144   1.156  13.999 -1.1887  0.8213  0.8288
 8258SOL    HW236408   4.213   1.277  13.967 -0.7296  0.1832 -1.1130
 8259SOL     OW36409   3.999   3.668   4.989 -0.2586  0.7910 -0.2664
 8259SOL    HW136410   3.908   3.692   4.971 -1.5426 -2.4132  1.9895
 8259SOL    HW236411   4.024   3.627   4.906 -2.0430  1.0599 -0.9476
 8260SOL     OW36412   3.337   2.913   5.027 -0.7086 -0.4668  0.2326
 8260SOL    HW136413   3.305   2.830   5.063 -0.0659 -0.2188  1.3877
 8260SOL    HW236414   3.428   2.906   5.055 -0.8168 -1.3733  0.3596
 8261SOL     OW36415   4.630   2.226   2.600  0.0093  0.2225  0.7309
 8261SOL    HW136416   4.573   2.302   2.613  1.6474  1.5972 -0.1343
 8261SOL    HW236417   4.575   2.150   2.579  1.2334  0.0673 -2.0009
 8262SOL     OW36418   0.528   0.050  10.882  0.1216  0.0974  0.4528
 8262SOL    HW136419   0.538   0.075  10.974 -0.0246  0.1784  0.4458
 8262SOL    HW236420   0.554   4.693  10.895  3.7044  1.0699  0.0622
 8263SOL     OW36421   4.038   2.828   6.307 -0.3383  0.3535  0.3587
 8263SOL    HW136422   3.971   2.895   6.318  0.3181  0.8511  1.2925
 8263SOL    HW236423   4.119   2.876   6.328 -1.5185  1.6075  2.0414
 8264SOL     OW36424   4.515   2.894   5.383  0.2603  0.6446  0.1811
 8264SOL    HW136425   4.473   2.948   5.450  2.9572  1.8003  0.9402
 8264SOL    HW236426   4.442   2.838   5.356 -0.3565  1.0983  0.9101
 8265SOL     OW36427   2.285   3.597   9.057 -0.4588  0.3624 -0.4839
 8265SOL    HW136428   2.201   3.639   9.040  0.3902  3.2032  2.4013
 8265SOL    HW236429   2.267   3.503   9.061 -1.7735  0.6585  0.5686
 8266SOL     OW36430   1.767   3.856   7.340 -0.5565  0.4147 -0.4732
 8266SOL    HW136431   1.832   3.836   7.272  1.3236  0.4110  1.2979
 8266SOL    HW236432   1.696   3.815   7.290  0.2785 -1.3857 -0.2102
 8267SOL     OW36433   3.430   0.999   8.678  0.0854 -0.0694 -0.0951
 8267SOL    HW136434   3.481   1.072   8.711 -1.4760  0.7054  0.6336
 8267SOL    HW236435   3.350   0.999   8.731 -0.7812 -0.0961 -1.3824
 8268SOL     OW36436   4.057   4.068   2.739 -0.1386 -0.2865  0.2857
 8268SOL    HW136437   4.043   4.059   2.833  0.6401 -0.9787  0.3338
 8268SOL    HW236438   4.152   4.073   2.732 -0.0091 -1.2324  1.2889
 8269SOL     OW36439   3.048   2.191   2.844 -0.3763  0.1071 -0.1324
 8269SOL    HW136440   3.082   2.212   2.931  1.3677  1.1377 -1.0608
 8269SOL    HW236441   3.128   2.186   2.791  1.1178  4.9004  1.6890
 8270SOL     OW36442   3.592   1.577   8.921 -0.0578  0.0421  0.1860
 8270SOL    HW136443   3.611   1.484   8.931  0.3939  0.3189  1.9897
 8270SOL    HW236444   3.500   1.561   8.898  0.2391 -1.1536 -0.1772
 8271SOL     OW36445   0.457   3.554  15.572  0.1697 -0.2519 -0.2989
 8271SOL    HW136446   0.501   3.470  15.562 -2.4688 -1.6890 -0.0006
 8271SOL    HW236447   0.482   3.612  15.500  3.3327 -1.1159  0.1192
 8272SOL     OW36448   3.734   3.738   5.001  0.3036 -0.3970 -0.1094
 8272SOL    HW136449   3.717   3.823   4.960  2.6491 -0.9317 -2.1640
 8272SOL    HW236450   3.668   3.689   4.952  0.8239 -1.2470  0.0494
 8273SOL     OW36451   4.550   3.071   2.446 -0.9509  0.8200 -0.2989
 8273SOL    HW136452   4.541   3.139   2.512  0.9186 -0.0544  0.8341
 8273SOL    HW236453   4.533   3.127   2.370 -1.9885  0.9577  0.0297
 8274SOL     OW36454   2.415   0.841   2.024 -0.9099 -0.2917 -0.2408
 8274SOL    HW136455   2.497   0.844   1.974 -2.3170 -1.2599 -2.6067
 8274SOL    HW236456   2.404   0.747   2.035 -2.0820 -0.2121 -0.7612
 8275SOL     OW36457   2.557   3.477  13.144  0.0542  0.3974 -0.2239
 8275SOL    HW136458   2.521   3.389  13.142 -1.7959  1.1482 -0.5166
 8275SOL    HW236459   2.607   3.484  13.063  0.0261  0.6731 -0.2176
 8276SOL     OW36460   0.843   4.261   9.504 -0.2684  0.5113  0.1285
 8276SOL    HW136461   0.860   4.234   9.594 -1.3431 -0.4391  0.0574
 8276SOL    HW236462   0.766   4.205   9.493  1.2351 -1.0100 -2.7051
 8277SOL     OW36463   3.635   2.028   6.059  0.2639 -0.0749 -0.1509
 8277SOL    HW136464   3.604   2.119   6.060 -0.6953 -0.3938 -0.8048
 8277SOL    HW236465   3.711   2.036   6.001 -0.0898  0.4463 -0.5504
 8278SOL     OW36466   1.393   3.576  15.122  0.1260  0.2076 -0.1387
 8278SOL    HW136467   1.465   3.637  15.105 -1.9054  2.0295 -2.2104
 8278SOL    HW236468   1.381   3.583  15.217 -0.8702 -0.4211 -0.2211
 8279SOL     OW36469   2.822   0.478   6.896  0.2438  0.2559 -0.1268
 8279SOL    HW136470   2.826   0.388   6.864 -0.8511  0.0362  0.3388
 8279SOL    HW236471   2.915   0.497   6.896  0.2931  0.0428 -2.4206
 8280SOL     OW36472   3.448   0.929   8.961 -0.0458 -0.1490  0.3199
 8280SOL    HW136473   3.436   0.879   8.880  0.5383  2.2649 -1.2673
 8280SOL    HW236474   3.423   0.868   9.030 -0.8058 -0.3567 -0.1353
 8281SOL     OW36475   3.431   0.860   9.312 -0.1688 -1.1239  0.2920
 8281SOL    HW136476   3.392   0.946   9.325 -3.9586 -2.6444 -0.8434
 8281SOL    HW236477   3.519   0.891   9.294 -0.3130 -2.3541 -2.5632
 8282SOL     OW36478   4.615   0.018  10.763  0.0506 -0.0978  0.4247
 8282SOL    HW136479   4.656   0.097  10.728  0.9843 -0.2001  1.2717
 8282SOL    HW236480   4.648   4.690  10.698  0.4116  0.2534  0.2701
 8283SOL     OW36481   0.864   0.519   9.029  0.2551 -0.4027 -0.1764
 8283SOL    HW136482   0.881   0.609   9.001  1.9821 -0.6007  0.2675
 8283SOL    HW236483   0.927   0.475   8.973 -2.1713 -3.4277 -0.5402
 8284SOL     OW36484   1.000   2.153  16.962 -0.2914 -0.2135 -0.1526
 8284SOL    HW136485   1.057   2.183  16.891  0.7405 -3.7009 -0.7978
 8284SOL    HW236486   1.062   2.095  17.005  0.5498 -1.4713 -3.0482
 8285SOL     OW36487   0.332   2.900   3.090 -0.0539 -0.1720 -0.0013
 8285SOL    HW136488   0.269   2.843   3.132  1.1924 -2.1075 -0.7435
 8285SOL    HW236489   0.313   2.889   2.996 -0.7769  0.1482  0.1127
 8286SOL     OW36490   2.346   4.026  15.595  0.8341 -0.0480 -0.6295
 8286SOL    HW136491   2.267   4.035  15.648  1.0376 -1.7444 -0.0636
 8286SOL    HW236492   2.361   4.121  15.586  0.9860 -0.1139 -1.0691
 8287SOL     OW36493   2.990   0.490   1.792 -0.2789 -0.0580  0.0652
 8287SOL    HW136494   2.900   0.522   1.801 -1.3768 -2.4194 -2.6699
 8287SOL    HW236495   3.024   0.500   1.881  0.5190  0.5105 -0.3066
 8288SOL     OW36496   3.528   3.350   7.393  0.3449 -0.1349 -0.1927
 8288SOL    HW136497   3.509   3.439   7.363  1.0765 -0.5696 -1.9321
 8288SOL    HW236498   3.539   3.365   7.487 -0.7986  2.0179 -0.3985
 8289SOL     OW36499   3.111   4.510   2.572 -0.4115  0.4786  0.5473
 8289SOL    HW136500   3.079   4.509   2.482  1.0838  0.3998  0.0191
 8289SOL    HW236501   3.042   4.456   2.609 -0.1303 -0.5378 -0.4414
 8290SOL     OW36502   0.566   4.573   1.164 -0.5467 -0.6752  0.3965
 8290SOL    HW136503   0.653   4.533   1.163  0.6045  1.9139 -2.2936
 8290SOL    HW236504   0.539   4.538   1.079 -1.6305  1.7698 -0.2573
 8291SOL     OW36505   0.475   0.484   2.319 -0.1673 -0.1379 -0.2247
 8291SOL    HW136506   0.405   0.504   2.381  0.6648 -0.7020  0.9088
 8291SOL    HW236507   0.553   0.531   2.347 -1.9052 -0.3581  5.0202
 8292SOL     OW36508   1.855   4.608   3.795 -0.0309  0.0324 -0.2131
 8292SOL    HW136509   1.872   4.642   3.707 -2.1713  1.6568  0.0168
 8292SOL    HW236510   1.790   4.539   3.779 -0.4810  1.1532 -3.2098
 8293SOL     OW36511   1.953   3.554   2.527 -0.2671 -0.1623 -0.4300
 8293SOL    HW136512   1.998   3.633   2.556  1.9881 -2.4280  2.2623
 8293SOL    HW236513   1.863   3.573   2.553 -0.1612 -0.3961  0.1122
 8294SOL     OW36514   1.387   2.335   0.700 -0.2806  0.2702  0.4305
 8294SOL    HW136515   1.411   2.306   0.612  1.2252  1.7691  0.3341
 8294SOL    HW236516   1.450   2.403   0.724  0.8460 -1.3865  2.1475
 8295SOL     OW36517   0.722   0.347   7.952  0.1409  0.2850 -0.0221
 8295SOL    HW136518   0.765   0.358   7.867 -2.5574 -0.5045 -1.5034
 8295SOL    HW236519   0.794   0.330   8.012 -1.2700 -2.4083  0.9285
 8296SOL     OW36520   3.080   0.025   2.322  0.3402  0.5195 -0.3899
 8296SOL    HW136521   3.146   0.009   2.390 -2.5383 -2.7231  1.7052
 8296SOL    HW236522   2.995   0.005   2.363  0.4379 -0.0716 -0.4771
 8297SOL     OW36523   4.449   2.647   6.739  0.1763 -0.1324  0.0624
 8297SOL    HW136524   4.407   2.651   6.825  1.3810  0.1655  0.6257
 8297SOL    HW236525   4.480   2.556   6.742  2.4781  0.6202 -1.5243
 8298SOL     OW36526   0.574   3.829   8.674  0.5310  0.0865 -0.0894
 8298SOL    HW136527   0.556   3.858   8.763 -0.9953 -1.7032  0.1755
 8298SOL    HW236528   0.670   3.834   8.669  0.8589 -1.3955  4.8498
 8299SOL     OW36529   3.430   3.251   8.974 -0.5553 -0.3108  0.4081
 8299SOL    HW136530   3.494   3.316   8.944  1.8998 -1.5269  3.0586
 8299SOL    HW236531   3.422   3.211   8.887  1.0381  2.7600 -1.1861
 8300SOL     OW36532   0.141   4.284   7.568  0.3361  0.1771  0.0599
 8300SOL    HW136533   0.209   4.219   7.555  1.4777  1.3914 -0.0137
 8300SOL    HW236534   0.192   4.341   7.624  1.7878 -1.0025 -0.0630
 8301SOL     OW36535   0.211   1.887   8.270 -0.0251 -0.4268 -0.0393
 8301SOL    HW136536   0.189   1.843   8.352 -1.1680  0.0027 -0.1028
 8301SOL    HW236537   0.150   1.960   8.279 -0.3852 -0.6061 -0.9582
 8302SOL     OW36538   4.020   2.640   2.435 -0.5652 -0.0751  0.0547
 8302SOL    HW136539   4.065   2.662   2.517 -1.8675 -0.7007  0.9310
 8302SOL    HW236540   4.078   2.681   2.370  0.5984 -1.0671  0.4697
 8303SOL     OW36541   2.471   0.977   2.770 -0.2093 -0.4710 -0.3669
 8303SOL    HW136542   2.385   0.983   2.729 -0.2065  1.6036 -0.0836
 8303SOL    HW236543   2.539   0.981   2.703  0.2507  2.6532  0.2925
 8304SOL     OW36544   2.615   0.216   7.386 -0.3673  0.3959 -0.0722
 8304SOL    HW136545   2.666   0.234   7.464 -0.3217 -0.8504  0.1847
 8304SOL    HW236546   2.685   0.215   7.321  0.4901 -0.9518  0.8700
 8305SOL     OW36547   1.726   2.252   9.379  0.1690  0.2986  0.4748
 8305SOL    HW136548   1.696   2.340   9.359 -4.4408 -1.6199 -1.1294
 8305SOL    HW236549   1.805   2.249   9.325 -0.0612  1.6883  0.0562
 8306SOL     OW36550   0.469   0.919   2.695 -0.1572 -0.3934 -0.1484
 8306SOL    HW136551   0.376   0.936   2.678 -0.2889 -0.4943  0.4486
 8306SOL    HW236552   0.521   0.999   2.700  0.2103 -0.6177 -0.4022
 8307SOL     OW36553   3.875   2.622  10.678  0.2703  0.1250  0.1542
 8307SOL    HW136554   3.901   2.693  10.618 -0.3702 -0.0046 -0.2730
 8307SOL    HW236555   3.953   2.568  10.665  0.7382  0.5509  1.1825
 8308SOL     OW36556   3.622   0.568   0.975  0.0275 -0.4244 -0.0019
 8308SOL    HW136557   3.543   0.519   0.954  1.0173 -1.9321 -0.2082
 8308SOL    HW236558   3.612   0.638   0.911  1.0747 -1.7850 -1.6492
 8309SOL     OW36559   3.551   0.981   4.140 -0.4080 -0.4881 -0.1399
 8309SOL    HW136560   3.577   0.913   4.203 -3.6304 -2.5084 -0.9773
 8309SOL    HW236561   3.566   0.943   4.054  1.4607  0.3397 -0.1612
 8310SOL     OW36562   1.114   0.021   6.186 -0.1307  0.0782 -0.1583
 8310SOL    HW136563   1.138   0.021   6.093  2.0756  3.9171  0.4025
 8310SOL    HW236564   1.108   0.116   6.195  0.1546 -0.0580  1.4632
 8311SOL     OW36565   1.716   3.646   6.318  0.1116  0.0634  0.5077
 8311SOL    HW136566   1.661   3.724   6.323 -0.7321 -0.4484 -0.7494
 8311SOL    HW236567   1.725   3.631   6.412  0.4065 -2.5951  0.0551
 8312SOL     OW36568   4.588   2.416   4.666  0.0201  0.1451 -0.5065
 8312SOL    HW136569   4.496   2.391   4.654  0.2221  0.4257 -2.6825
 8312SOL    HW236570   4.601   2.386   4.756  0.9169  2.4528  0.1113
 8313SOL     OW36571   2.109   0.670   3.396  0.2618 -0.3626  0.2442
 8313SOL    HW136572   2.115   0.739   3.330  2.2251 -1.2886 -0.5576
 8313SOL    HW236573   2.183   0.686   3.455  0.5303 -0.0118 -0.1868
 8314SOL     OW36574   4.067   3.402   7.252 -0.2792  0.1484 -0.6919
 8314SOL    HW136575   4.085   3.495   7.239 -0.2279 -0.1426 -2.7804
 8314SOL    HW236576   4.076   3.375   7.160  2.3697  0.7236 -0.5992
 8315SOL     OW36577   2.111   1.494   8.807  0.0074  0.7944  0.3684
 8315SOL    HW136578   2.078   1.436   8.739 -0.9888  1.1439  0.5627
 8315SOL    HW236579   2.167   1.433   8.855 -1.1850 -1.5769 -1.2353
 8316SOL     OW36580   1.915   0.703  11.214 -0.1715  0.1107 -0.1556
 8316SOL    HW136581   1.910   0.788  11.171 -1.6678  0.6009  0.9711
 8316SOL    HW236582   1.981   0.659  11.161 -0.4585 -1.2674  0.6148
 8317SOL     OW36583   2.685   0.670  10.171 -0.3834 -0.4645 -0.1863
 8317SOL    HW136584   2.721   0.629  10.249  1.9339  1.9342 -0.0278
 8317SOL    HW236585   2.751   0.654  10.104 -1.2995 -2.0764 -0.7216
 8318SOL     OW36586   0.383   2.536   9.041 -0.1748  0.5385 -0.0293
 8318SOL    HW136587   0.368   2.521   9.135 -1.0514 -0.8136 -0.3862
 8318SOL    HW236588   0.392   2.444   9.016  0.4440  0.8981 -1.1029
 8319SOL     OW36589   0.769   0.945   4.928 -0.4109  0.4552  0.3259
 8319SOL    HW136590   0.816   0.895   4.861  0.8016  0.1468  1.4064
 8319SOL    HW236591   0.815   0.937   5.011  0.1130 -1.5488 -0.1425
 8320SOL     OW36592   4.327   4.430   1.371  0.0494  0.5828 -0.5302
 8320SOL    HW136593   4.398   4.389   1.420 -0.3487  0.4550 -0.0633
 8320SOL    HW236594   4.283   4.488   1.433 -0.2940  0.0619 -0.2906
 8321SOL     OW36595   2.798   0.162   7.170  0.5778  0.1096  0.0149
 8321SOL    HW136596   2.884   0.204   7.164 -0.9372  3.4511  1.1900
 8321SOL    HW236597   2.817   0.073   7.141 -0.1517 -0.1005  0.1667
 8322SOL     OW36598   1.556   1.040   2.510 -0.1651  0.0464 -0.1251
 8322SOL    HW136599   1.651   1.032   2.508 -0.1876 -0.0984 -0.7658
 8322SOL    HW236600   1.559   1.125   2.555 -0.4480  0.0134 -0.0438
 8323SOL     OW36601   3.779   0.395   4.775  0.6873  0.4676  0.4539
 8323SOL    HW136602   3.736   0.389   4.861 -1.4498 -0.4162 -0.6735
 8323SOL    HW236603   3.864   0.353   4.785  1.0676  0.0300 -4.7092
 8324SOL     OW36604   2.534   3.609  16.459 -0.2311  0.2377  0.2126
 8324SOL    HW136605   2.555   3.539  16.521 -0.4934 -0.7854 -0.8660
 8324SOL    HW236606   2.612   3.607  16.404 -0.5887 -0.3917 -0.2634
 8325SOL     OW36607   2.171   3.670   7.336  0.4341  0.6439  0.3492
 8325SOL    HW136608   2.122   3.746   7.366 -0.4449  0.7241 -1.3291
 8325SOL    HW236609   2.107   3.599   7.336  0.8443  0.2852 -1.4884
 8326SOL     OW36610   1.231   4.235   5.148 -0.1227 -0.2063 -0.5387
 8326SOL    HW136611   1.309   4.189   5.116  0.3584  0.9005 -0.9803
 8326SOL    HW236612   1.204   4.205   5.235 -1.8159  4.8180  0.6639
 8327SOL     OW36613   3.898   0.075  14.661 -0.0611  0.0046 -0.1185
 8327SOL    HW136614   3.948   0.060  14.742  1.3800  3.0362 -0.4271
 8327SOL    HW236615   3.821   0.031  14.698 -1.3081  2.9743  0.8122
 8328SOL     OW36616   1.614   0.002   0.067  0.2549  0.0558  0.0518
 8328SOL    HW136617   1.591   4.660   0.015 -0.6304 -1.0716  2.0826
 8328SOL    HW236618   1.529   0.030   0.103  1.1444  0.9709  1.4589
 8329SOL     OW36619   2.262   1.312   7.276  0.3486  0.9652 -0.0305
 8329SOL    HW136620   2.211   1.364   7.339  0.9321  0.3624  0.9491
 8329SOL    HW236621   2.343   1.301   7.327 -0.1972  0.9303  0.8377
 8330SOL     OW36622   0.531   4.604   1.697 -0.1346  0.2437 -0.6902
 8330SOL    HW136623   0.493   4.657   1.767 -1.6699  0.1755 -1.4763
 8330SOL    HW236624   0.470   4.531   1.690 -0.6600  0.4777  1.5268
 8331SOL     OW36625   1.178   2.734   4.224 -0.3516  0.3581  0.6422
 8331SOL    HW136626   1.199   2.675   4.151 -0.3844 -0.4582  1.2887
 8331SOL    HW236627   1.255   2.735   4.281 -1.2677 -1.0388  1.9141
 8332SOL     OW36628   1.214   4.043   0.772 -0.1204  0.3135 -0.0393
 8332SOL    HW136629   1.188   4.019   0.861 -1.2040 -2.4986 -1.1241
 8332SOL    HW236630   1.309   4.059   0.771  0.0960 -1.0007 -0.2930
 8333SOL     OW36631   1.874   0.415   4.761  0.0654 -0.2161 -0.1260
 8333SOL    HW136632   1.952   0.365   4.787  0.8177  0.9333 -0.1577
 8333SOL    HW236633   1.831   0.412   4.847  2.3744 -0.5746  1.0277
 8334SOL     OW36634   3.596   1.701  11.391  0.0316  0.4194 -0.5761
 8334SOL    HW136635   3.501   1.710  11.401 -0.1701  0.0445 -2.0727
 8334SOL    HW236636   3.627   1.792  11.388 -0.1448  0.5155  0.7034
 8335SOL     OW36637   4.651   1.648   7.167 -0.0470 -0.4540 -0.3635
 8335SOL    HW136638   4.562   1.621   7.190 -1.3902  2.4351 -2.0321
 8335SOL    HW236639   4.682   1.571   7.120 -0.2159  0.4309 -1.9280
 8336SOL     OW36640   0.267   2.886   2.007 -0.6104  0.3049 -0.6341
 8336SOL    HW136641   0.208   2.898   2.081  2.2297 -1.4083  1.9134
 8336SOL    HW236642   0.242   2.802   1.970  2.0561 -0.1427 -1.3923
 8337SOL     OW36643   4.213   4.333   4.056 -0.1228 -0.1412  0.2599
 8337SOL    HW136644   4.127   4.300   4.030 -0.2268  0.5711 -0.3090
 8337SOL    HW236645   4.245   4.368   3.973  2.5880 -3.3165 -0.0591
 8338SOL     OW36646   3.825   4.458   8.268  0.4352 -0.0186 -0.7988
 8338SOL    HW136647   3.792   4.370   8.289  0.6030  0.3052  0.8299
 8338SOL    HW236648   3.780   4.463   8.183 -0.4413  1.7627 -0.2221
 8339SOL     OW36649   4.536   0.375   6.029 -0.8448  0.2857 -0.6080
 8339SOL    HW136650   4.482   0.413   6.099 -0.5607 -0.8416  0.2186
 8339SOL    HW236651   4.554   0.449   5.972  2.2600 -0.4603 -0.5653
 8340SOL     OW36652   2.186   1.221   2.696 -0.2099  0.2762  0.2313
 8340SOL    HW136653   2.201   1.308   2.659  1.0718  0.4200  1.0892
 8340SOL    HW236654   2.244   1.207   2.771  1.0240  0.1284 -0.7440
 8341SOL     OW36655   3.963   4.000   5.950  0.3593 -0.0508 -0.2949
 8341SOL    HW136656   3.890   4.035   5.900 -0.7425 -0.2986  1.1501
 8341SOL    HW236657   3.962   4.055   6.028  1.7309  1.2593 -1.2081
 8342SOL     OW36658   1.038   1.305   0.317  0.2235 -0.1925 -0.3972
 8342SOL    HW136659   0.955   1.298   0.364  1.0731 -1.5543  0.8759
 8342SOL    HW236660   1.045   1.214   0.288  1.4840  0.3421 -1.7477
 8343SOL     OW36661   4.036   2.096   1.746  0.6335  0.2508 -0.5472
 8343SOL    HW136662   4.023   2.115   1.653  0.4557 -0.2000 -0.6120
 8343SOL    HW236663   3.972   2.026   1.760  0.9231 -0.0739 -0.8487
 8344SOL     OW36664   3.951   1.494   0.981 -0.2726 -0.0425 -0.8717
 8344SOL    HW136665   3.969   1.401   0.996 -1.9369 -0.0507  1.1105
 8344SOL    HW236666   3.935   1.510   1.074 -0.8216 -0.4330 -0.8995
 8345SOL     OW36667   0.248   4.555   3.037 -0.0129  0.1407 -0.3731
 8345SOL    HW136668   0.157   4.546   3.065  0.3907 -0.6714  0.6783
 8345SOL    HW236669   0.288   4.501   3.106 -1.0238  0.0874  0.1637
 8346SOL     OW36670   0.453   1.811  12.691 -0.1062 -0.4619  0.0310
 8346SOL    HW136671   0.514   1.854  12.750  0.5559  0.6310 -1.4466
 8346SOL    HW236672   0.376   1.851  12.730  0.5210  0.8427 -0.0784
 8347SOL     OW36673   0.252   0.785  17.087  0.1688  0.0439  0.0839
 8347SOL    HW136674   0.228   0.878  17.087 -1.8544 -0.4678 -3.3941
 8347SOL    HW236675   0.169   0.745  17.063 -0.3986  0.9368  0.5200
 8348SOL     OW36676   0.555   4.132   5.338  0.2533 -0.0265  0.3271
 8348SOL    HW136677   0.633   4.087   5.306  0.5634  0.6617  0.1166
 8348SOL    HW236678   0.564   4.116   5.432 -0.8375 -0.6613  0.3130
 8349SOL     OW36679   4.708   0.242  10.669 -0.2555  0.1235  0.0875
 8349SOL    HW136680   0.035   0.315  10.670  0.1658 -0.2211 -0.4747
 8349SOL    HW236681   4.682   0.239  10.577 -2.0118 -2.5436  0.6736
 8350SOL     OW36682   3.778   3.281   5.164  0.2993 -0.0991 -0.1695
 8350SOL    HW136683   3.747   3.300   5.076 -0.7093 -0.2313  0.1524
 8350SOL    HW236684   3.702   3.236   5.202 -0.0585 -2.0923 -3.2716
 8351SOL     OW36685   3.585   4.047   2.256 -0.0277  0.3193 -0.2287
 8351SOL    HW136686   3.595   3.961   2.296  0.9903  0.0909 -0.9577
 8351SOL    HW236687   3.622   4.106   2.322 -1.2820 -0.4797  1.1706
 8352SOL     OW36688   2.559   3.907   3.362 -0.0454 -0.1713 -0.3257
 8352SOL    HW136689   2.541   3.857   3.441  0.9048  0.4074  0.2640
 8352SOL    HW236690   2.636   3.860   3.328 -0.4093 -0.7481 -0.3507
 8353SOL     OW36691   1.924   1.708   4.236 -0.2106  0.0838  0.6215
 8353SOL    HW136692   1.966   1.787   4.202  0.1768 -1.5168 -2.5739
 8353SOL    HW236693   1.977   1.651   4.181 -0.9186  1.0856 -1.0852
 8354SOL     OW36694   1.741   3.292   5.714 -0.1908 -0.4144 -0.3585
 8354SOL    HW136695   1.721   3.386   5.719  1.1286 -0.2400  1.5825
 8354SOL    HW236696   1.749   3.282   5.619 -1.0490 -0.7293 -0.3955
 8355SOL     OW36697   0.166   3.415   7.164 -0.5903  0.0282 -0.8475
 8355SOL    HW136698   0.072   3.404   7.178 -0.9801  0.7666 -2.8807
 8355SOL    HW236699   0.166   3.428   7.069 -1.4068  0.1429 -0.8365
 8356SOL     OW36700   4.039   0.925   8.210  0.3022  0.2439 -0.3424
 8356SOL    HW136701   3.997   0.885   8.285  1.2307  0.3136  0.2143
 8356SOL    HW236702   4.132   0.910   8.225 -0.0112 -1.2991 -0.0080
 8357SOL     OW36703   3.904   2.051   3.107  0.3257  0.2891  0.0067
 8357SOL    HW136704   3.829   2.036   3.050 -0.6176  0.6382  1.1493
 8357SOL    HW236705   3.962   1.982   3.073  0.0762  0.5512 -0.9426
 8358SOL     OW36706   0.953   4.502   6.888 -0.1634  0.5210 -0.2379
 8358SOL    HW136707   0.983   4.514   6.798  0.9334 -0.2113  0.0328
 8358SOL    HW236708   1.038   4.493   6.930 -0.4903  0.5907  0.4479
 8359SOL     OW36709   2.275   1.592   0.093  0.7019 -0.0154 -0.1700
 8359SOL    HW136710   2.274   1.565   0.002  0.0957  0.6772 -0.3691
 8359SOL    HW236711   2.259   1.686   0.078  0.6873  0.0122  0.0091
 8360SOL     OW36712   1.349   0.215  15.242 -0.0257  0.2555  0.0254
 8360SOL    HW136713   1.309   0.244  15.161 -2.2516 -0.3196  0.9297
 8360SOL    HW236714   1.276   0.196  15.301  1.1182  1.7041  1.8888
 8361SOL     OW36715   2.661   2.589   4.155  0.0634  0.0001  0.3422
 8361SOL    HW136716   2.721   2.651   4.196 -0.4542  0.8509 -0.2044
 8361SOL    HW236717   2.678   2.507   4.203  0.6225 -0.4492 -0.6412
 8362SOL     OW36718   3.830   0.856  11.735 -0.8610  0.1072 -0.0436
 8362SOL    HW136719   3.741   0.890  11.727 -0.9713  0.1987  1.6509
 8362SOL    HW236720   3.884   0.920  11.689 -0.9801 -0.7394 -1.3911
 8363SOL     OW36721   3.978   3.362   5.339  0.5597  0.3642  0.4711
 8363SOL    HW136722   3.922   3.430   5.377 -0.5064 -1.3160  1.8649
 8363SOL    HW236723   3.910   3.321   5.286 -0.1182 -0.3160  1.8569
 8364SOL     OW36724   1.362   4.408   1.426 -0.3956  0.2705 -0.3415
 8364SOL    HW136725   1.281   4.439   1.467 -1.6288 -1.9848 -1.0240
 8364SOL    HW236726   1.428   4.469   1.459 -0.8139 -0.8664  2.5659
 8365SOL     OW36727   3.792   3.995   3.307  0.7731  0.1040  0.0371
 8365SOL    HW136728   3.796   4.031   3.218 -1.7106  0.4097  0.0424
 8365SOL    HW236729   3.844   3.915   3.297  0.1097 -0.2288 -0.7540
 8366SOL     OW36730   1.628   1.181  17.003 -0.5885 -0.1480  0.4860
 8366SOL    HW136731   1.712   1.179  16.956 -0.5786  2.4116  0.3806
 8366SOL    HW236732   1.603   1.095  16.969  0.0042 -0.9476  2.0226
 8367SOL     OW36733   3.365   1.206   8.969 -0.5720 -0.5620 -0.4891
 8367SOL    HW136734   3.302   1.169   8.907 -1.0383 -0.9015  0.1837
 8367SOL    HW236735   3.427   1.134   8.983 -0.3556  0.0636  1.7335
 8368SOL     OW36736   2.626   4.198   8.893  0.0634  0.0376 -0.1802
 8368SOL    HW136737   2.587   4.156   8.970 -0.0356  0.5265  0.0413
 8368SOL    HW236738   2.548   4.205   8.838 -0.4958 -0.2481  0.5804
 8369SOL     OW36739   4.067   1.737   4.256 -0.1315  0.1583 -0.3010
 8369SOL    HW136740   4.135   1.796   4.223  0.3084  1.1964  2.5193
 8369SOL    HW236741   4.082   1.735   4.350 -2.4618 -0.6555  0.0435
 8370SOL     OW36742   1.012   1.942   1.759 -0.7173 -0.0609 -0.5340
 8370SOL    HW136743   1.027   1.871   1.821  0.3880  0.5894 -0.0500
 8370SOL    HW236744   1.090   1.920   1.708 -0.6506  0.7116 -0.7689
 8371SOL     OW36745   2.908   3.248   5.804 -0.5644 -0.0572  0.0001
 8371SOL    HW136746   2.841   3.199   5.852 -0.4910 -0.7792 -0.6424
 8371SOL    HW236747   2.891   3.219   5.715  0.7383 -1.5554  0.2608
 8372SOL     OW36748   3.189   0.616   8.942  0.1472  0.3108  0.4003
 8372SOL    HW136749   3.147   0.530   8.943 -1.0594  0.8942  0.2059
 8372SOL    HW236750   3.125   0.676   8.980  0.8364  0.8786  0.6686
 8373SOL     OW36751   3.565   3.927  15.710 -0.4394  0.3970 -0.3076
 8373SOL    HW136752   3.484   3.969  15.679  0.0805  1.2003 -0.5706
 8373SOL    HW236753   3.589   3.989  15.779 -0.6391 -0.9208  0.9576
 8374SOL     OW36754   3.542   1.212   8.302 -0.1464  0.5189  0.6350
 8374SOL    HW136755   3.507   1.192   8.215  2.2685 -3.0609  0.5231
 8374SOL    HW236756   3.464   1.219   8.358  0.4242 -0.8490  1.5968
 8375SOL     OW36757   3.020   0.893   2.147  0.3956  0.3618 -0.6250
 8375SOL    HW136758   2.963   0.940   2.209  1.1004  2.3961 -1.5048
 8375SOL    HW236759   3.036   0.815   2.200 -1.5033 -0.4891 -1.2948
 8376SOL     OW36760   4.476   4.529   6.683 -0.4736 -0.6862  0.7480
 8376SOL    HW136761   4.523   4.465   6.736  1.3149  0.3722  0.4165
 8376SOL    HW236762   4.391   4.538   6.725  0.1741 -0.8057  2.0630
 8377SOL     OW36763   4.501   1.329   0.537 -0.2246  0.2495 -0.1534
 8377SOL    HW136764   4.439   1.290   0.599  1.4401  1.1808  2.0948
 8377SOL    HW236765   4.480   1.422   0.534  0.4286  0.3805 -0.6604
 8378SOL     OW36766   0.166   4.659   3.355 -0.3885 -0.7022 -0.0596
 8378SOL    HW136767   0.142   4.569   3.376 -1.4711 -0.8396 -1.8520
 8378SOL    HW236768   0.260   4.651   3.370 -0.9312 -2.5516  2.4044
 8379SOL     OW36769   0.673   3.253  11.108  0.2557 -0.1484  0.4862
 8379SOL    HW136770   0.618   3.240  11.031  0.7124 -0.5788  0.2301
 8379SOL    HW236771   0.649   3.342  11.132 -3.7710 -1.2678  0.6150
 8380SOL     OW36772   2.151   3.856   5.289 -0.4300 -0.0961 -0.3273
 8380SOL    HW136773   2.181   3.935   5.333 -1.8937 -1.1244  2.5180
 8380SOL    HW236774   2.087   3.889   5.226  0.9816  2.6505 -0.3189
 8381SOL     OW36775   2.360   1.847   4.146 -1.0212 -0.1314 -0.1674
 8381SOL    HW136776   2.327   1.758   4.159  1.5860 -1.3749 -2.0668
 8381SOL    HW236777   2.342   1.853   4.052 -2.1752  1.3913  0.1430
 8382SOL     OW36778   2.395   0.305   7.218 -0.3084 -0.7079 -0.6132
 8382SOL    HW136779   2.419   0.244   7.288 -1.1240 -0.3420 -0.0217
 8382SOL    HW236780   2.381   0.384   7.270 -0.2867 -0.9670 -0.2139
 8383SOL     OW36781   0.416   4.568   9.611  0.3768  0.3872 -0.3502
 8383SOL    HW136782   0.499   4.540   9.574 -0.2251 -0.2846 -1.1836
 8383SOL    HW236783   0.369   4.487   9.590 -0.3652  0.6951  0.1320
 8384SOL     OW36784   2.341   4.663   8.239 -0.1488 -0.5168 -0.8532
 8384SOL    HW136785   2.350   4.568   8.234  2.4408 -0.4223  1.9447
 8384SOL    HW236786   2.432   4.691   8.246  0.0964 -1.7770  0.8566
 8385SOL     OW36787   0.448   1.385   4.451  0.6732  0.0038  0.0795
 8385SOL    HW136788   0.459   1.341   4.366  0.0834 -0.7389  0.3835
 8385SOL    HW236789   0.541   1.394   4.468  1.2282 -0.8745 -2.4823
 8386SOL     OW36790   4.555   3.136  17.701 -0.1667 -0.4441 -0.4302
 8386SOL    HW136791   4.646   3.127  17.728 -0.3027  2.9625  1.1016
 8386SOL    HW236792   4.518   3.113   0.051 -1.1293  1.8708 -0.2334
 8387SOL     OW36793   2.977   0.165   3.958  0.1605  0.1818  0.5091
 8387SOL    HW136794   2.927   0.243   3.981  0.3479  0.6605 -0.7044
 8387SOL    HW236795   3.067   0.198   3.967  0.7022 -0.9115 -0.8997
 8388SOL     OW36796   4.308   4.248   2.745  0.5475 -0.2429 -0.4357
 8388SOL    HW136797   4.253   4.326   2.752  0.3957 -0.2146 -1.9212
 8388SOL    HW236798   4.332   4.236   2.837 -0.0803 -0.4213 -0.2910
 8389SOL     OW36799   1.733   1.204   4.376  0.2409  0.0781 -0.4535
 8389SOL    HW136800   1.692   1.184   4.292  1.2617  1.0672 -1.1934
 8389SOL    HW236801   1.685   1.279   4.411  2.2153 -0.3727  3.2504
 8390SOL     OW36802   3.994   4.508   6.958 -0.2766 -0.4625  0.3721
 8390SOL    HW136803   3.934   4.558   6.903 -1.2563 -1.3145  0.6898
 8390SOL    HW236804   4.062   4.575   6.970  0.0185 -1.0045  1.6813
 8391SOL     OW36805   1.043   0.803  12.311 -0.1391 -0.7470 -0.4552
 8391SOL    HW136806   1.039   0.899  12.315 -2.4157 -0.8936  1.1219
 8391SOL    HW236807   1.098   0.795  12.233  0.6934  0.3285  0.0306
 8392SOL     OW36808   0.558   3.895   7.186  0.7361  0.3180 -0.4951
 8392SOL    HW136809   0.505   3.953   7.241  1.4912 -0.3920  0.9709
 8392SOL    HW236810   0.629   3.885   7.250 -1.4279  1.6984  2.1244
 8393SOL     OW36811   4.582   0.351  11.756  0.3278 -0.1801 -0.1724
 8393SOL    HW136812   4.672   0.317  11.759  0.7737  0.9216 -0.8637
 8393SOL    HW236813   4.596   0.435  11.713 -0.9620  0.1323  0.0168
 8394SOL     OW36814   2.972   0.952   3.983 -0.4900  0.4206 -0.4900
 8394SOL    HW136815   2.972   1.017   3.913 -0.4856  0.8352 -0.1032
 8394SOL    HW236816   3.022   1.005   4.045 -0.9869  1.0872 -0.6579
 8395SOL     OW36817   3.836   0.053  17.570 -0.1851  0.1606 -0.5456
 8395SOL    HW136818   3.839   0.147  17.552 -0.4558  0.3469  0.3828
 8395SOL    HW236819   3.759   0.032  17.517 -0.4358 -0.7592  0.1823
 8396SOL     OW36820   3.506   0.528  11.594  0.1541 -0.1377 -0.3482
 8396SOL    HW136821   3.518   0.437  11.620  1.4058 -0.2452 -1.2989
 8396SOL    HW236822   3.497   0.570  11.679 -2.8378  2.1674 -1.7930
 8397SOL     OW36823   3.183   2.697   3.798 -0.0601 -0.1102 -0.3980
 8397SOL    HW136824   3.094   2.715   3.826 -0.7065 -0.5813 -2.1222
 8397SOL    HW236825   3.198   2.765   3.733 -2.5242  0.1957 -0.6334
 8398SOL     OW36826   1.784   2.973   9.152 -0.2188  0.5580  0.3608
 8398SOL    HW136827   1.810   2.920   9.227 -0.5950  0.1876  0.2278
 8398SOL    HW236828   1.833   3.052   9.173  0.3700  0.1249  0.6003
 8399SOL     OW36829   0.045   4.236  13.380 -0.2832 -0.4094 -0.1203
 8399SOL    HW136830   0.126   4.269  13.342  0.2394 -0.8208  0.6525
 8399SOL    HW236831   0.076   4.217  13.468  2.8558  1.2297 -0.9006
 8400SOL     OW36832   2.812   0.538   5.916 -0.5164  0.0739 -0.3061
 8400SOL    HW136833   2.773   0.625   5.906  1.2047  1.0992  1.9106
 8400SOL    HW236834   2.907   0.549   5.919 -0.1469 -3.2891  0.2205
 8401SOL     OW36835   1.221   3.002   7.710  0.3804  0.2478 -0.3840
 8401SOL    HW136836   1.305   3.047   7.701  1.0543 -0.7258  0.8446
 8401SOL    HW236837   1.206   3.009   7.616 -1.8056  0.8127  0.0111
 8402SOL     OW36838   3.371   0.789  15.379 -0.1553  0.1504 -0.0730
 8402SOL    HW136839   3.290   0.815  15.335 -0.1026 -0.0043 -0.2585
 8402SOL    HW236840   3.430   0.759  15.310  1.4164  1.3845  0.7345
 8403SOL     OW36841   3.852   0.075   8.619  0.4385  0.0628  0.1049
 8403SOL    HW136842   3.766   0.037   8.638 -0.2787  0.5539 -2.2005
 8403SOL    HW236843   3.867   0.114   8.705 -0.8623  0.8156 -0.0062
 8404SOL     OW36844   4.649   3.606   2.101  0.5161  0.1969 -0.4223
 8404SOL    HW136845   4.707   3.669   2.144 -2.5820  1.1958  2.2911
 8404SOL    HW236846   4.677   3.523   2.140 -1.2760 -1.1863 -2.0201
 8405SOL     OW36847   4.612   1.966  17.544 -0.3855  0.3241  0.2594
 8405SOL    HW136848   4.556   1.981  17.620 -0.5727 -0.5078  0.2877
 8405SOL    HW236849   4.616   2.054  17.506 -1.8539  0.9505  1.5488
 8406SOL     OW36850   1.640   1.025  11.427 -0.2669 -0.0602 -0.0607
 8406SOL    HW136851   1.699   1.089  11.466  2.2725 -2.0987 -0.5923
 8406SOL    HW236852   1.598   1.058  11.347 -0.8108  0.7506  0.5607
 8407SOL     OW36853   0.047   4.249   3.972 -0.0168  0.1987  0.0563
 8407SOL    HW136854   0.011   4.324   3.925 -3.2530 -1.2836  0.2127
 8407SOL    HW236855   0.132   4.286   3.997 -1.2348  1.0548  2.9915
 8408SOL     OW36856   0.894   1.363  12.399 -0.2920 -0.2487 -0.3535
 8408SOL    HW136857   0.871   1.454  12.380  2.1598  1.3274  4.2714
 8408SOL    HW236858   0.983   1.378  12.429  0.6150  0.9172 -3.5972
 8409SOL     OW36859   2.929   3.960  11.113 -0.3888  0.2647 -0.5872
 8409SOL    HW136860   2.851   3.928  11.159 -0.0017 -0.6558 -0.5620
 8409SOL    HW236861   2.995   3.924  11.172 -0.1346  1.9812  0.1678
 8410SOL     OW36862   3.871   1.175  13.817  0.0952 -0.0391  0.9007
 8410SOL    HW136863   3.960   1.208  13.831  0.7107 -1.3500  0.1258
 8410SOL    HW236864   3.826   1.247  13.774 -1.4533 -2.1662 -1.0529
 8411SOL     OW36865   2.410   2.000  12.328 -0.0149 -0.1376 -0.2674
 8411SOL    HW136866   2.324   1.970  12.359  0.4241 -1.2140 -0.0855
 8411SOL    HW236867   2.413   2.094  12.346  0.7248  0.0414 -1.3453
 8412SOL     OW36868   2.547   2.805   7.797  0.0540 -0.1148  0.5042
 8412SOL    HW136869   2.467   2.786   7.747  0.8781  1.4610 -1.4170
 8412SOL    HW236870   2.536   2.736   7.862 -2.8640  1.3209  1.5572
 8413SOL     OW36871   1.561   4.412   9.910 -0.7100 -0.9834  0.3580
 8413SOL    HW136872   1.609   4.493   9.890 -1.9449 -0.3949 -0.2149
 8413SOL    HW236873   1.486   4.454   9.952 -1.3558 -1.6486 -0.1446
 8414SOL     OW36874   2.390   0.971   4.940 -0.3783  0.4164  0.9780
 8414SOL    HW136875   2.317   0.913   4.917 -0.0183  0.5652 -0.5495
 8414SOL    HW236876   2.403   1.019   4.858 -1.6336  0.4307  0.7919
 8415SOL     OW36877   4.322   1.674   2.756  0.0662  0.0660 -0.5572
 8415SOL    HW136878   4.273   1.601   2.793  0.9645 -0.4031 -0.2755
 8415SOL    HW236879   4.355   1.711   2.838 -0.8895 -1.1284  0.3666
 8416SOL     OW36880   2.137   3.026   3.139  0.1680  0.1252 -0.1041
 8416SOL    HW136881   2.063   3.070   3.182 -0.3127  0.9069 -1.7496
 8416SOL    HW236882   2.088   2.969   3.080 -1.4750 -0.2420  1.5891
 8417SOL     OW36883   2.287   4.061  13.705 -0.5280  0.5208 -0.1785
 8417SOL    HW136884   2.226   4.133  13.689 -1.3480 -0.0494  0.4227
 8417SOL    HW236885   2.272   3.998  13.635 -0.6509  0.1755  0.1552
 8418SOL     OW36886   0.123   3.294   4.604  0.1781 -0.0731 -0.0870
 8418SOL    HW136887   0.084   3.352   4.670  0.4100  1.6407 -1.4672
 8418SOL    HW236888   0.208   3.271   4.641 -1.1404 -0.3975  2.8192
 8419SOL     OW36889   0.102   3.239  12.883 -0.2183 -0.4158 -0.4871
 8419SOL    HW136890   0.184   3.274  12.849 -0.8601 -0.1945 -1.8069
 8419SOL    HW236891   0.040   3.299  12.841 -0.6366  2.1042  3.7076
 8420SOL     OW36892   0.586   2.356   7.518 -0.3244 -0.1899  0.5114
 8420SOL    HW136893   0.608   2.428   7.460 -0.5244 -0.7383 -0.2431
 8420SOL    HW236894   0.637   2.280   7.491 -0.6279 -0.4329  0.6102
 8421SOL     OW36895   3.687   3.006   4.126  0.0665  0.3061  0.3521
 8421SOL    HW136896   3.679   3.063   4.202  0.8122 -2.1433  2.2484
 8421SOL    HW236897   3.599   2.969   4.128  0.7006 -1.2558 -0.6699
 8422SOL     OW36898   2.910   3.326   1.876  0.3594  0.1905  0.1984
 8422SOL    HW136899   2.871   3.409   1.848 -3.0619 -1.1798  0.9113
 8422SOL    HW236900   2.933   3.353   1.965  1.2387  1.4261 -0.4182
 8423SOL     OW36901   3.098   1.988  15.418 -0.0896  0.4610  0.7411
 8423SOL    HW136902   3.079   1.947  15.333  2.5734 -1.5633  1.1261
 8423SOL    HW236903   3.076   2.080  15.402 -1.4236  0.0531  0.2212
 8424SOL     OW36904   1.312   2.518  13.048  0.1737 -0.1881  0.7629
 8424SOL    HW136905   1.257   2.525  12.969  1.6474 -0.6178 -0.3007
 8424SOL    HW236906   1.247   2.548  13.111  1.6650  0.4213  2.0119
 8425SOL     OW36907   3.439   0.872   7.835 -0.3523 -0.2108 -0.0694
 8425SOL    HW136908   3.487   0.791   7.849 -0.8949 -0.4087  0.6193
 8425SOL    HW236909   3.424   0.896   7.926  0.0280  1.2680 -0.3883
 8426SOL     OW36910   2.999   1.757   4.336 -0.0723 -0.7878 -0.4624
 8426SOL    HW136911   3.042   1.672   4.343  1.1303 -0.4343 -3.7794
 8426SOL    HW236912   2.937   1.733   4.405  0.2378 -0.6511 -0.1377
 8427SOL     OW36913   2.846   0.881   7.323 -0.1258  0.3041  0.2139
 8427SOL    HW136914   2.798   0.818   7.268  0.8526 -1.0485  0.9048
 8427SOL    HW236915   2.931   0.836   7.319 -0.8981 -1.0655 -0.8388
 8428SOL     OW36916   4.538   4.332   1.546  0.7270  0.4663  0.0559
 8428SOL    HW136917   4.621   4.288   1.532  0.7410  0.1365  1.1506
 8428SOL    HW236918   4.568   4.422   1.559 -2.4353  1.2219  2.1475
 8429SOL     OW36919   3.263   0.168  11.994 -0.4666 -0.3364  0.0596
 8429SOL    HW136920   3.337   0.176  11.933 -1.1078 -2.1880 -0.9632
 8429SOL    HW236921   3.272   0.073  12.001  0.7307 -0.2061  0.3178
 8430SOL     OW36922   0.036   3.667   9.003  0.2262 -0.7151  0.3314
 8430SOL    HW136923   4.705   3.626   8.946  1.5091  0.7613 -2.1883
 8430SOL    HW236924   0.106   3.682   8.939 -0.6093  0.3894 -0.3338
 8431SOL     OW36925   4.007   2.816   9.243  0.5952  0.2011 -0.5981
 8431SOL    HW136926   3.983   2.765   9.320 -1.0345  0.2641 -1.0645
 8431SOL    HW236927   3.980   2.758   9.172 -0.3339  1.1576 -1.0274
 8432SOL     OW36928   3.603   1.206   5.781 -0.0673  0.1259  0.7450
 8432SOL    HW136929   3.603   1.114   5.755  0.9849  0.4569 -0.4269
 8432SOL    HW236930   3.695   1.231   5.793  0.2499 -1.7341  2.2075
 8433SOL     OW36931   2.818   4.155  10.447 -0.2456  0.0736 -0.5700
 8433SOL    HW136932   2.807   4.078  10.390 -1.2942 -1.0646  1.1710
 8433SOL    HW236933   2.819   4.228  10.385  2.1286  1.7703  1.5133
 8434SOL     OW36934   0.635   4.226   3.302  0.0779 -0.1904 -0.0809
 8434SOL    HW136935   0.569   4.157   3.296  0.6130 -0.7501  0.4860
 8434SOL    HW236936   0.567   4.292   3.287  0.4959  0.5773  1.4409
 8435SOL     OW36937   0.644   3.841   9.912 -0.3198  0.0612 -0.5411
 8435SOL    HW136938   0.712   3.780   9.941 -1.6524 -0.5899  1.2100
 8435SOL    HW236939   0.611   3.881   9.992  0.9144 -0.6794  0.3408
 8436SOL     OW36940   2.909   3.748   8.121 -0.1316  0.1755 -0.3474
 8436SOL    HW136941   2.953   3.671   8.155 -0.0897 -1.0567 -3.2132
 8436SOL    HW236942   2.971   3.780   8.055 -0.0929 -0.6372 -0.7054
 8437SOL     OW36943   3.428   1.553   8.663 -0.2652 -0.0366  0.1560
 8437SOL    HW136944   3.510   1.519   8.628 -0.1834 -1.4248  1.7242
 8437SOL    HW236945   3.439   1.648   8.672 -0.9755 -0.0238  0.8895
 8438SOL     OW36946   1.801   2.503   2.439 -0.4662 -0.1212 -0.0936
 8438SOL    HW136947   1.758   2.587   2.456  1.6656  1.1402 -0.8784
 8438SOL    HW236948   1.725   2.460   2.401  0.5310 -1.2097 -0.8367
 8439SOL     OW36949   2.921   0.700   7.593  0.2953  0.2116  0.3305
 8439SOL    HW136950   2.975   0.670   7.667 -1.1281 -0.1478  1.2199
 8439SOL    HW236951   2.985   0.719   7.524 -0.3955  1.7644  0.1021
 8440SOL     OW36952   3.842   1.046   6.057 -0.1510 -0.8831  0.2417
 8440SOL    HW136953   3.791   0.978   6.014 -3.1080  2.3635 -1.3860
 8440SOL    HW236954   3.770   1.091   6.103 -1.6349 -1.4656 -1.5278
 8441SOL     OW36955   2.316   0.082   2.970 -0.2732 -0.1204  0.9145
 8441SOL    HW136956   2.301   0.133   3.050  1.1407 -0.3662  1.3415
 8441SOL    HW236957   2.320   4.727   3.005  1.7769  0.2567  1.6969
 8442SOL     OW36958   0.861   4.408   6.101 -0.2452 -0.4413  0.2224
 8442SOL    HW136959   0.916   4.395   6.179  2.0555  2.0434 -0.9699
 8442SOL    HW236960   0.823   4.492   6.128  2.8098  0.3430  2.1422
 8443SOL     OW36961   2.365   1.641  10.983  0.0727  0.0893  0.0218
 8443SOL    HW136962   2.437   1.697  11.011  0.1242  0.1683 -0.2686
 8443SOL    HW236963   2.410   1.568  10.939  1.1732  1.4503 -1.0768
 8444SOL     OW36964   1.237   4.606   0.982 -0.1307 -0.2839 -0.2759
 8444SOL    HW136965   1.192   4.604   0.897  1.3401 -0.2064 -1.0657
 8444SOL    HW236966   1.180   4.668   1.027 -2.9729 -2.9414 -0.2189
 8445SOL     OW36967   3.608   3.887   6.384  0.3673 -0.1585 -0.4924
 8445SOL    HW136968   3.538   3.918   6.441  1.4253  0.5109  0.4486
 8445SOL    HW236969   3.620   3.953   6.315  0.5800  0.8497  0.5034
 8446SOL     OW36970   3.996   3.962   3.943  0.2695  0.4312 -0.3366
 8446SOL    HW136971   3.954   4.047   3.940 -0.0675  0.3439  1.8174
 8446SOL    HW236972   4.072   3.978   3.999  0.8573 -0.5965 -0.8308
 8447SOL     OW36973   3.182   1.507   8.224  0.1146 -0.9126 -0.5120
 8447SOL    HW136974   3.158   1.432   8.169  0.9962 -1.1950 -0.5138
 8447SOL    HW236975   3.169   1.457   8.305 -0.5171 -1.4020 -0.9109
 8448SOL     OW36976   0.930   2.381   5.278 -0.6445  0.2579 -0.1239
 8448SOL    HW136977   0.896   2.453   5.331 -0.3093  1.0901 -1.0245
 8448SOL    HW236978   0.877   2.387   5.198  1.8585  1.2152 -1.7038
 8449SOL     OW36979   0.808   0.153   4.394 -0.1754  0.2694  0.1049
 8449SOL    HW136980   0.874   0.222   4.404 -0.3791  0.5763 -0.7406
 8449SOL    HW236981   0.824   0.139   4.301 -0.3723  0.7595 -0.0051
 8450SOL     OW36982   2.903   2.918   5.094  0.7795  0.3838  0.0184
 8450SOL    HW136983   2.891   2.927   4.999  0.7466 -2.9055 -0.2922
 8450SOL    HW236984   2.818   2.953   5.121 -0.5270 -0.7549 -2.5591
 8451SOL     OW36985   3.251   1.410   5.499 -0.0067 -0.0736  0.3896
 8451SOL    HW136986   3.250   1.505   5.486 -0.7330 -0.0056  0.9442
 8451SOL    HW236987   3.333   1.407   5.549 -0.7995 -1.3853  1.5978
 8452SOL     OW36988   4.376   4.275   7.715 -0.4445 -0.5023  0.0465
 8452SOL    HW136989   4.355   4.358   7.673  0.1754 -0.4152 -0.0826
 8452SOL    HW236990   4.287   4.249   7.739 -0.6078 -0.3228 -0.3533
 8453SOL     OW36991   0.452   1.076   4.524  0.0956 -0.6064 -0.2888
 8453SOL    HW136992   0.387   1.035   4.468 -0.8651  0.5617 -0.0416
 8453SOL    HW236993   0.465   1.159   4.478  3.2654  1.1423  3.7359
 8454SOL     OW36994   3.156   1.897   9.059  0.6725 -0.7096 -0.2400
 8454SOL    HW136995   3.072   1.931   9.087  0.0499 -0.2716 -2.6330
 8454SOL    HW236996   3.216   1.882   9.132  1.0765  0.9066 -0.2354
 8455SOL     OW36997   0.691   3.738   8.179 -0.0907  0.1688 -0.1279
 8455SOL    HW136998   0.620   3.794   8.147  0.1527 -0.1259 -1.1714
 8455SOL    HW236999   0.669   3.655   8.138  1.0387  1.2884 -2.9997
 8456SOL     OW37000   3.951   2.018  12.040 -0.2902 -0.4274 -0.3716
 8456SOL    HW137001   3.976   1.986  12.126 -2.2156 -0.4026  0.1956
 8456SOL    HW237002   4.012   2.091  12.033  0.2844 -0.7342  1.4928
 8457SOL     OW37003   1.325   4.614  14.409 -0.1311  0.4295  0.6753
 8457SOL    HW137004   1.378   4.535  14.418  0.9096  1.1793  1.1012
 8457SOL    HW237005   1.291   4.594  14.322  0.0940  1.1915  0.4080
 8458SOL     OW37006   4.471   3.856   7.196 -0.1021  0.0409 -0.2337
 8458SOL    HW137007   4.479   3.841   7.290 -0.7893  1.0333 -0.0179
 8458SOL    HW237008   4.537   3.803   7.152 -1.9934 -2.4020 -0.1581
 8459SOL     OW37009   1.738   3.441  15.996 -0.3136  0.0866 -0.2500
 8459SOL    HW137010   1.709   3.394  15.918 -0.8972  0.1146 -0.0474
 8459SOL    HW237011   1.665   3.502  16.006 -0.2143  0.2425 -0.4681
 8460SOL     OW37012   3.757   4.145  10.847 -0.3073 -0.1622  0.7635
 8460SOL    HW137013   3.718   4.059  10.834  1.2450 -0.8847  0.8905
 8460SOL    HW237014   3.811   4.132  10.925 -0.1026  0.0712  0.6593
 8461SOL     OW37015   0.173   4.504   5.053  0.4816  0.1046 -0.1459
 8461SOL    HW137016   0.190   4.557   5.131  0.6601  0.1825 -0.2357
 8461SOL    HW237017   0.154   4.424   5.101 -0.5873 -0.1948 -1.0930
 8462SOL     OW37018   2.210   2.205   4.341  0.2701 -0.3975  0.2737
 8462SOL    HW137019   2.266   2.184   4.266 -0.1719  0.7331 -0.3768
 8462SOL    HW237020   2.131   2.236   4.295  1.7402  3.7823  0.5476
 8463SOL     OW37021   3.752   4.576  16.567  0.2773  0.0800 -0.3409
 8463SOL    HW137022   3.845   4.584  16.546  0.2724 -1.7900 -1.0893
 8463SOL    HW237023   3.758   4.553  16.660 -0.6975  0.6348 -0.1424
 8464SOL     OW37024   3.332   2.207   3.607 -0.3307  0.2356 -0.2468
 8464SOL    HW137025   3.296   2.295   3.600  1.7568  1.0267 -1.0785
 8464SOL    HW237026   3.369   2.204   3.695 -1.9722  1.7827  0.5110
 8465SOL     OW37027   4.468   4.168  10.638 -0.4046 -0.4703 -0.2983
 8465SOL    HW137028   4.396   4.231  10.646  1.2405  1.2120  1.5206
 8465SOL    HW237029   4.512   4.201  10.559 -2.7885 -0.9989 -1.8265
 8466SOL     OW37030   1.289   4.312   1.009 -0.3202  0.4782  0.0644
 8466SOL    HW137031   1.283   4.408   1.009 -1.2922  0.4205  1.4484
 8466SOL    HW237032   1.203   4.300   1.048  0.1897  0.4214  1.1766
 8467SOL     OW37033   3.349   0.618   0.124  0.1305  0.2927 -0.5458
 8467SOL    HW137034   3.277   0.648   0.068 -0.1895  1.1953  0.3489
 8467SOL    HW237035   3.331   0.682   0.193  3.5976  1.0034 -0.2930
 8468SOL     OW37036   3.796   2.528   8.816  0.5570 -0.1817 -0.6045
 8468SOL    HW137037   3.732   2.472   8.860  0.7869 -1.1990 -1.5701
 8468SOL    HW237038   3.876   2.476   8.821  1.8394  1.8375  0.1348
 8469SOL     OW37039   1.281   2.438   9.230  0.3441  0.0179 -0.3919
 8469SOL    HW137040   1.359   2.391   9.199 -0.1285 -1.3370  0.4690
 8469SOL    HW237041   1.230   2.365   9.266  0.4443 -0.9019 -2.0881
 8470SOL     OW37042   0.202   3.431   8.084  0.0727  0.1589  0.9927
 8470SOL    HW137043   0.214   3.401   8.174 -0.1128 -0.2379  0.8838
 8470SOL    HW237044   0.275   3.388   8.039 -1.2342 -1.2986  0.2916
 8471SOL     OW37045   4.091   1.298   3.662 -0.1474  0.0475  0.3233
 8471SOL    HW137046   4.155   1.326   3.727 -0.8886 -0.2782  1.1952
 8471SOL    HW237047   4.021   1.277   3.724 -1.4261 -0.3037 -1.2110
 8472SOL     OW37048   3.209   0.387   6.012 -0.5037  0.1830 -0.0432
 8472SOL    HW137049   3.237   0.303   5.976 -0.9077 -1.2616  3.0286
 8472SOL    HW237050   3.234   0.381   6.104  0.1217  0.1720 -0.2139
 8473SOL     OW37051   3.464   4.030   7.253  0.2323  0.0662  0.1453
 8473SOL    HW137052   3.509   4.081   7.320 -2.0489  0.1500  1.5943
 8473SOL    HW237053   3.532   4.001   7.192 -1.4657 -0.1096 -1.6736
 8474SOL     OW37054   0.184   4.253   2.910  0.3640  0.3468  0.0195
 8474SOL    HW137055   0.188   4.175   2.856 -1.4925  1.4227 -1.6620
 8474SOL    HW237056   0.262   4.303   2.883  1.1441 -0.5799  0.5346
 8475SOL     OW37057   1.125   3.093   9.085  0.3916  0.8759  0.4604
 8475SOL    HW137058   1.045   3.049   9.055  0.9423  0.5090 -0.4863
 8475SOL    HW237059   1.086   3.134   9.161 -0.4665  0.7263  0.0973
 8476SOL     OW37060   2.170   0.105   2.727  0.6857  0.4579 -0.2584
 8476SOL    HW137061   2.141   0.111   2.818 -0.8902 -2.0307 -0.5867
 8476SOL    HW237062   2.215   0.189   2.717  0.1749  1.0010  2.0358
 8477SOL     OW37063   3.648   0.687   5.631  0.1839 -0.3623  0.1311
 8477SOL    HW137064   3.618   0.641   5.709  0.8521  0.5519  0.9128
 8477SOL    HW237065   3.604   0.634   5.564  0.5106  1.3411 -1.4112
 8478SOL     OW37066   1.186   3.016   4.574 -0.0169 -0.3866 -0.0423
 8478SOL    HW137067   1.093   3.016   4.598 -0.5422  0.5427 -2.0629
 8478SOL    HW237068   1.225   3.032   4.660  0.6524 -2.2426 -0.0003
 8479SOL     OW37069   0.962   4.475  15.231  0.2537  0.0175 -0.0744
 8479SOL    HW137070   1.054   4.500  15.238  0.0319  0.5613  0.8657
 8479SOL    HW237071   0.935   4.528  15.156  1.4999  1.1225  0.2556
 8480SOL     OW37072   0.074   0.902   6.533  0.4020  0.0683 -0.0169
 8480SOL    HW137073   0.009   0.876   6.467  0.7682 -0.2303 -0.2608
 8480SOL    HW237074   0.034   0.863   6.611  0.8201 -1.1390 -0.3924
 8481SOL     OW37075   2.205   0.397   3.919  0.3195  0.5474  0.0168
 8481SOL    HW137076   2.275   0.391   3.984 -0.8408 -0.4987  1.1733
 8481SOL    HW237077   2.155   0.321   3.948 -0.8358  1.9915  1.7577
 8482SOL     OW37078   0.704   3.802   6.493 -0.1239 -0.2505 -0.0588
 8482SOL    HW137079   0.737   3.865   6.558  1.6344  1.1389 -2.3004
 8482SOL    HW237080   0.761   3.728   6.513  1.1171  0.6095 -0.3844
 8483SOL     OW37081   1.141   0.267   6.291  0.3832 -0.2372 -0.7036
 8483SOL    HW137082   1.183   0.296   6.210 -0.5539 -1.8399 -1.7289
 8483SOL    HW237083   1.149   0.350   6.339 -0.0121 -1.8113  2.0738
 8484SOL     OW37084   2.919   0.564   0.159 -0.1087 -0.5533  0.3863
 8484SOL    HW137085   2.854   0.593   0.094  1.7113 -0.5912 -1.4388
 8484SOL    HW237086   2.987   0.630   0.146 -0.5717 -0.1028  0.2126
 8485SOL     OW37087   0.855   0.896   3.079  0.0862  0.1623 -0.6030
 8485SOL    HW137088   0.778   0.904   3.022  0.5346 -1.9448 -1.5230
 8485SOL    HW237089   0.920   0.876   3.012  0.0650  0.2268 -0.6424
 8486SOL     OW37090   3.118   2.389   9.277 -0.1092 -0.3301  0.7206
 8486SOL    HW137091   3.048   2.410   9.340 -1.1916 -1.4640 -0.1201
 8486SOL    HW237092   3.174   2.332   9.330  0.7984  0.3611  0.5148
 8487SOL     OW37093   3.985   2.489   3.420 -0.0525 -0.1207  0.4183
 8487SOL    HW137094   4.010   2.544   3.345  1.0167 -1.5200 -0.2629
 8487SOL    HW237095   3.971   2.406   3.375 -1.2639  0.3608 -0.0897
 8488SOL     OW37096   3.675   3.296   3.037 -0.1158  1.1473  0.1764
 8488SOL    HW137097   3.613   3.324   3.104  1.7003  0.1144  2.3011
 8488SOL    HW237098   3.611   3.258   2.976  0.4417 -0.2232  0.4278
 8489SOL     OW37099   1.156   2.095   2.377  0.1914  0.1355 -0.0666
 8489SOL    HW137100   1.209   2.148   2.318 -0.6211  0.0956 -0.8475
 8489SOL    HW237101   1.064   2.122   2.367  0.0035 -0.2005  0.7522
 8490SOL     OW37102   3.648   0.970   9.754  0.1126 -0.1449  0.2873
 8490SOL    HW137103   3.724   0.977   9.813 -0.5338  0.1903  1.0746
 8490SOL    HW237104   3.676   0.921   9.677 -1.6865 -0.4407 -0.1711
 8491SOL     OW37105   3.923   1.648   6.273 -0.0460 -0.1849 -0.1866
 8491SOL    HW137106   3.858   1.718   6.279 -0.2384 -0.5362  1.6521
 8491SOL    HW237107   3.980   1.695   6.212  2.2993 -1.9597  0.6697
 8492SOL     OW37108   3.657   4.216   8.200  0.5348 -0.4161  0.3830
 8492SOL    HW137109   3.657   4.125   8.230  0.5549 -0.3902  0.4623
 8492SOL    HW237110   3.673   4.204   8.107 -2.2197  3.0808 -0.5346
 8493SOL     OW37111   1.059   3.058   3.245 -0.0331  0.2138 -0.1767
 8493SOL    HW137112   0.990   3.018   3.193 -0.0403  0.3682 -0.2856
 8493SOL    HW237113   1.140   3.041   3.196  0.2976  0.9225  0.1124
 8494SOL     OW37114   3.621   0.557   0.656  0.0393  0.1422  0.1753
 8494SOL    HW137115   3.688   0.513   0.708 -0.2073 -0.1767  0.2226
 8494SOL    HW237116   3.603   0.641   0.698 -2.1336  0.1512 -0.7527
 8495SOL     OW37117   4.091   1.471   5.708 -0.1828 -0.3879 -0.8191
 8495SOL    HW137118   4.082   1.558   5.669  0.1070 -0.6234 -1.4240
 8495SOL    HW237119   4.162   1.500   5.765 -0.2690 -1.1554 -0.3249
 8496SOL     OW37120   3.719   2.129   3.596  0.3511 -0.1955 -0.1786
 8496SOL    HW137121   3.680   2.046   3.568  1.7618 -0.2670 -1.9271
 8496SOL    HW237122   3.804   2.097   3.625 -0.0747 -0.1164  1.1686
 8497SOL     OW37123   1.629   4.061   4.229  0.3383  0.4683 -0.3485
 8497SOL    HW137124   1.618   3.966   4.219  2.0637  0.0812  1.3922
 8497SOL    HW237125   1.579   4.088   4.152 -1.5316  1.2234  1.1376
 8498SOL     OW37126   2.779   0.823  11.668  0.2276 -0.0230  0.4018
 8498SOL    HW137127   2.863   0.807  11.625  0.8794  2.1024  0.8500
 8498SOL    HW237128   2.799   0.838  11.761  1.0685  0.1769  0.1867
 8499SOL     OW37129   0.339   2.084   1.913  0.7695 -0.2271  0.0615
 8499SOL    HW137130   0.355   2.167   1.869 -0.1482 -0.5046 -0.8092
 8499SOL    HW237131   0.367   2.096   2.004 -4.2740  0.2824  1.5413
 8500SOL     OW37132   4.580   1.510   4.649  0.3085 -0.6012  0.3128
 8500SOL    HW137133   4.675   1.501   4.640 -0.0665 -1.7778 -2.2488
 8500SOL    HW237134   4.535   1.503   4.566  3.3241 -0.3065 -1.3470
 8501SOL     OW37135   0.161   1.862   6.769 -0.2328  0.0454  0.1392
 8501SOL    HW137136   0.093   1.928   6.755 -1.0555 -0.7078  0.6091
 8501SOL    HW237137   0.214   1.866   6.689  0.0426  0.2088  0.3307
 8502SOL     OW37138   0.807   3.055   7.981 -0.1688  0.0718 -0.3466
 8502SOL    HW137139   0.760   3.136   7.999  3.0391  1.4334  1.6787
 8502SOL    HW237140   0.872   3.067   8.050 -0.4991  0.7744 -0.1616
 8503SOL     OW37141   4.157   1.803   6.660  0.5596  0.2870  0.4166
 8503SOL    HW137142   4.228   1.772   6.715 -1.4604 -0.5033  2.5554
 8503SOL    HW237143   4.166   1.753   6.579 -1.9730  1.6911 -0.7456
 8504SOL     OW37144   4.575   0.852   8.488 -0.4323  0.1251 -0.4760
 8504SOL    HW137145   4.548   0.760   8.490  1.3114 -0.3271  2.0291
 8504SOL    HW237146   4.535   0.872   8.572  1.1205  1.9000 -0.1848
 8505SOL     OW37147   2.301   3.424  10.749 -0.1504  0.0095  0.7923
 8505SOL    HW137148   2.342   3.488  10.692 -2.6819  0.3102 -0.7420
 8505SOL    HW237149   2.236   3.392  10.685  0.2415  1.2566 -0.2208
 8506SOL     OW37150   0.962   1.797   6.796  0.3239  0.1470 -0.5647
 8506SOL    HW137151   0.941   1.727   6.857 -0.5392  1.6145  0.8336
 8506SOL    HW237152   0.889   1.856   6.814 -0.1637 -0.6360 -0.0079
 8507SOL     OW37153   0.621   1.304   0.646  0.6285 -0.0201 -0.6706
 8507SOL    HW137154   0.536   1.282   0.684 -0.7333  2.2758 -2.4043
 8507SOL    HW237155   0.671   1.226   0.671 -0.7044 -0.7580 -0.2935
 8508SOL     OW37156   1.119   3.761   4.966 -0.4094 -0.4085 -0.7210
 8508SOL    HW137157   1.090   3.740   4.877 -1.2010 -0.1793 -0.5134
 8508SOL    HW237158   1.150   3.848   4.942 -0.7791  0.0975  0.6391
 8509SOL     OW37159   0.403   4.461   4.402  0.2631 -0.3652 -0.4152
 8509SOL    HW137160   0.363   4.410   4.332 -0.6241  2.2433 -1.7907
 8509SOL    HW237161   0.492   4.431   4.424  0.4583 -0.3140 -1.1410
 8510SOL     OW37162   3.418   2.526   9.726  0.4061  0.0727  0.3284
 8510SOL    HW137163   3.333   2.548   9.765 -0.3335  0.8554 -1.7425
 8510SOL    HW237164   3.449   2.481   9.805  1.2506 -4.2400 -2.5130
 8511SOL     OW37165   0.099   3.205   6.406  0.0590 -0.3308  0.5442
 8511SOL    HW137166   0.106   3.150   6.485 -0.1834  1.2561  1.6625
 8511SOL    HW237167   0.009   3.183   6.382 -0.4357  0.7991  1.3371
 8512SOL     OW37168   2.365   3.234   4.907 -0.5907 -0.0179  0.0812
 8512SOL    HW137169   2.356   3.157   4.852  0.9271 -0.5999  0.6637
 8512SOL    HW237170   2.402   3.202   4.989 -0.4046  0.9389  0.3750
 8513SOL     OW37171   3.546   0.470  16.011  0.5074 -0.2708  0.0858
 8513SOL    HW137172   3.479   0.495  15.948  1.7959 -0.6805 -1.4490
 8513SOL    HW237173   3.605   0.424  15.952 -1.0515 -2.2688  0.0486
 8514SOL     OW37174   2.207   3.985   9.157 -0.0960  0.1906 -0.4499
 8514SOL    HW137175   2.132   3.926   9.151 -1.6180  1.9770  0.8762
 8514SOL    HW237176   2.155   4.062   9.181  0.5221  1.1768 -2.2903
 8515SOL     OW37177   3.226   3.578  11.360 -0.3193 -0.1545  0.4347
 8515SOL    HW137178   3.187   3.536  11.437  2.9074 -0.1607  2.0825
 8515SOL    HW237179   3.316   3.598  11.387  0.7583 -1.7476 -2.0112
 8516SOL     OW37180   2.078   2.390   5.004  0.1870 -0.5351 -0.0974
 8516SOL    HW137181   2.050   2.300   5.017 -2.2936  0.0110 -1.7843
 8516SOL    HW237182   2.162   2.384   5.050 -0.1348  1.6389  0.8069
 8517SOL     OW37183   2.272   1.034   4.195  0.5190  0.8625 -0.3971
 8517SOL    HW137184   2.280   1.061   4.286 -0.9514  3.6622 -1.1105
 8517SOL    HW237185   2.277   0.938   4.189  4.6276  1.0413  0.0232
 8518SOL     OW37186   1.109   1.279  16.319 -0.3069 -0.1325 -0.3314
 8518SOL    HW137187   1.057   1.353  16.289  0.8039  0.9697  0.4279
 8518SOL    HW237188   1.140   1.310  16.404 -1.0848 -2.6371  0.8706
 8519SOL     OW37189   3.744   0.411  14.331  0.0012  0.1544  0.3239
 8519SOL    HW137190   3.809   0.358  14.377 -0.6933 -0.6281  0.4176
 8519SOL    HW237191   3.795   0.491  14.324  1.7575 -1.2769 -3.1756
 8520SOL     OW37192   3.417   4.184  15.292  0.5819 -0.1759 -0.0101
 8520SOL    HW137193   3.447   4.258  15.239  0.6593 -0.3143 -0.1597
 8520SOL    HW237194   3.365   4.235  15.354 -0.6224 -0.9942 -0.3380
 8521SOL     OW37195   2.413   3.318  16.308  0.6680 -0.8576  0.2383
 8521SOL    HW137196   2.407   3.243  16.368  0.5580 -3.0446 -2.4780
 8521SOL    HW237197   2.346   3.378  16.342 -1.4644 -2.9537 -0.2180
 8522SOL     OW37198   1.635   3.416   3.182  0.3713  0.6683  0.5977
 8522SOL    HW137199   1.584   3.337   3.166  1.6749  0.2060 -1.3952
 8522SOL    HW237200   1.662   3.444   3.094  0.0903 -0.1206  0.2572
 8523SOL     OW37201   2.791   3.331   3.238 -0.1744  0.5782  0.2205
 8523SOL    HW137202   2.749   3.338   3.323 -2.4418 -0.7751 -0.7656
 8523SOL    HW237203   2.883   3.347   3.255  0.2893  0.0786 -1.7977
 8524SOL     OW37204   3.265   0.352   1.101  0.3641 -0.0101  0.5765
 8524SOL    HW137205   3.241   0.269   1.143 -1.6971  1.0344  1.4627
 8524SOL    HW237206   3.325   0.391   1.164  0.3373  0.2069  0.4690
 8525SOL     OW37207   3.338   3.260  16.810 -0.0274 -0.1672 -0.7281
 8525SOL    HW137208   3.295   3.201  16.747  0.7667 -0.5768 -0.8772
 8525SOL    HW237209   3.394   3.309  16.750 -1.3343  1.4182 -0.6700
 8526SOL     OW37210   2.201   3.790   2.304  0.4887 -0.0812  0.1605
 8526SOL    HW137211   2.120   3.841   2.302  1.4131  1.3873 -0.1584
 8526SOL    HW237212   2.202   3.752   2.217  0.0219  0.2955 -0.0144
 8527SOL     OW37213   1.701   3.011   2.937  0.2075  0.4202 -0.2211
 8527SOL    HW137214   1.750   2.935   2.968  1.1192  1.7019  1.4304
 8527SOL    HW237215   1.744   3.073   2.995 -0.8300 -0.8465  1.8832
 8528SOL     OW37216   0.474   2.965   8.542  0.5860 -0.4003  0.7317
 8528SOL    HW137217   0.519   3.004   8.618 -1.3419  0.6241  1.3371
 8528SOL    HW237218   0.389   3.009   8.548  0.5734 -0.6085  2.2389
 8529SOL     OW37219   3.312   3.703   5.080  0.0002  0.0415 -0.3476
 8529SOL    HW137220   3.385   3.672   5.027  1.0541  0.7591  0.6926
 8529SOL    HW237221   3.263   3.621   5.089 -0.7756  0.6428  0.8477
 8530SOL     OW37222   0.292   1.421   9.496  0.4381 -0.1573  0.0231
 8530SOL    HW137223   0.370   1.431   9.551 -0.9100  0.7477  1.7977
 8530SOL    HW237224   0.258   1.333   9.509 -0.4236  0.0620 -0.7721
 8531SOL     OW37225   2.715   1.552   6.253  0.6003  0.0617 -0.4307
 8531SOL    HW137226   2.783   1.554   6.319  1.1706  0.2523 -1.0276
 8531SOL    HW237227   2.659   1.489   6.299  1.8892 -0.0077  1.0155
 8532SOL     OW37228   1.148   1.886   3.665 -0.2290 -0.2449 -0.4064
 8532SOL    HW137229   1.242   1.874   3.675 -0.1782 -0.2616 -0.9027
 8532SOL    HW237230   1.133   1.964   3.718  0.7434  1.1845 -2.2371
 8533SOL     OW37231   2.528   1.872   2.971  0.3138  0.3756  0.0525
 8533SOL    HW137232   2.485   1.841   3.051  1.3188  0.6875  0.7041
 8533SOL    HW237233   2.558   1.786   2.940 -3.1873 -0.7039 -0.4113
 8534SOL     OW37234   1.851   0.745  10.183 -0.5186  0.1497  0.3513
 8534SOL    HW137235   1.916   0.675  10.192 -0.5436 -0.0007 -0.6188
 8534SOL    HW237236   1.774   0.709  10.226 -0.2652  0.9204  1.4478
 8535SOL     OW37237   2.684   1.032   7.479 -0.6602 -0.6005 -0.0836
 8535SOL    HW137238   2.742   0.999   7.410  0.5391 -1.0724  1.1603
 8535SOL    HW237239   2.738   1.041   7.558 -2.0674 -0.2959  0.8487
 8536SOL     OW37240   1.635   2.937   2.304 -0.5504  0.7503 -0.7536
 8536SOL    HW137241   1.541   2.956   2.305 -0.3294  1.8398  0.0924
 8536SOL    HW237242   1.666   3.009   2.360  2.2549  1.1118 -2.7553
 8537SOL     OW37243   0.520   2.218  11.576 -0.1877 -0.0117  0.0262
 8537SOL    HW137244   0.592   2.251  11.522 -0.1527 -1.6640 -0.9392
 8537SOL    HW237245   0.451   2.283  11.565 -0.8380 -0.7756 -0.4517
 8538SOL     OW37246   1.159   4.408   5.567  0.2138  0.4655  0.4882
 8538SOL    HW137247   1.191   4.395   5.478 -0.4438 -0.9140  0.4676
 8538SOL    HW237248   1.132   4.325   5.607  2.3567  0.4593  1.9438
 8539SOL     OW37249   4.474   1.809  11.890 -0.5473 -0.0156  0.0221
 8539SOL    HW137250   4.543   1.846  11.945  0.7321 -1.0291 -0.9164
 8539SOL    HW237251   4.481   1.715  11.904  1.3169 -0.0450 -1.0809
 8540SOL     OW37252   3.080   1.712   3.226  0.5822 -0.4030 -0.5890
 8540SOL    HW137253   3.047   1.793   3.264 -0.1350 -2.0241  2.2031
 8540SOL    HW237254   3.005   1.688   3.172 -0.5096 -0.3776  0.9278
 8541SOL     OW37255   2.022   3.562   5.531  0.5278 -0.4341 -0.7423
 8541SOL    HW137256   1.996   3.559   5.623  2.0874 -1.9926 -0.3588
 8541SOL    HW237257   1.953   3.513   5.487  0.4390  0.2613 -1.3814
 8542SOL     OW37258   2.581   1.953  14.655 -0.3021  0.1511  0.5576
 8542SOL    HW137259   2.508   2.012  14.636 -1.3793 -0.6494  2.2206
 8542SOL    HW237260   2.582   1.898  14.577  3.9748  0.4622  0.4067
 8543SOL     OW37261   2.966   3.259   5.363  0.5655  0.0524 -0.0365
 8543SOL    HW137262   2.932   3.321   5.427 -0.5316  1.0467 -1.5941
 8543SOL    HW237263   3.034   3.217   5.415  0.3433 -0.5039 -0.1903
 8544SOL     OW37264   4.021   2.458  12.052 -0.6196 -0.4448  0.1326
 8544SOL    HW137265   4.026   2.399  12.127 -0.0353  1.0928  1.3058
 8544SOL    HW237266   4.071   2.530  12.091  1.8417 -1.5159 -1.0768
 8545SOL     OW37267   2.379   0.870  16.392 -0.4885  0.0379  0.3450
 8545SOL    HW137268   2.424   0.889  16.474  0.0193 -2.2948  0.6171
 8545SOL    HW237269   2.388   0.775  16.384  0.3502  0.1000  0.5795
 8546SOL     OW37270   2.122   2.133  16.119 -0.3620  0.0714  0.6707
 8546SOL    HW137271   2.191   2.088  16.071  0.3009  1.7281  0.0703
 8546SOL    HW237272   2.044   2.078  16.120 -0.0685 -0.3762 -1.6054
 8547SOL     OW37273   1.779   2.861  11.886 -0.1016  0.3825 -0.1228
 8547SOL    HW137274   1.720   2.798  11.927 -0.5160  0.2173 -0.9917
 8547SOL    HW237275   1.718   2.919  11.841 -1.2864  0.1646  1.1813
 8548SOL     OW37276   1.338   2.961   8.955 -0.2992 -0.5204  0.1852
 8548SOL    HW137277   1.398   2.970   9.029  0.5065  0.1527 -0.5656
 8548SOL    HW237278   1.265   3.012   8.992 -1.0787 -0.9661 -0.7437
 8549SOL     OW37279   4.034   3.092   8.635 -0.1023 -0.2171  0.0037
 8549SOL    HW137280   3.959   3.032   8.638  0.3856 -0.9264 -1.8632
 8549SOL    HW237281   4.036   3.121   8.726  0.0161  1.7225 -0.6309
 8550SOL     OW37282   2.735   4.644   5.482  0.5718  0.1212  0.1002
 8550SOL    HW137283   2.760   4.558   5.449  0.4542  0.4193 -0.7821
 8550SOL    HW237284   2.663   4.619   5.539  0.7107 -2.6283 -0.9558
 8551SOL     OW37285   3.528   2.273   5.964  0.6589 -0.9541  0.1665
 8551SOL    HW137286   3.490   2.238   5.884 -0.2231  2.1431 -0.7628
 8551SOL    HW237287   3.459   2.331   5.995 -0.7108 -1.5193 -1.8080
 8552SOL     OW37288   3.099   3.798   3.352 -0.2601  0.3526 -0.2441
 8552SOL    HW137289   3.065   3.887   3.345 -0.7476  0.2866  1.1633
 8552SOL    HW237290   3.188   3.811   3.321 -0.1487 -0.2160 -0.1657
 8553SOL     OW37291   0.038   3.503   5.246 -0.3976 -0.5734  0.0731
 8553SOL    HW137292   4.697   3.522   5.190 -1.2136 -1.9292  0.7392
 8553SOL    HW237293   0.090   3.584   5.247  0.2541 -1.0551  3.2837
 8554SOL     OW37294   3.469   0.195  10.034  0.3693  0.3474 -0.4557
 8554SOL    HW137295   3.379   0.163  10.043  0.3396  0.1430 -1.4104
 8554SOL    HW237296   3.463   0.244   9.952  1.2340  0.2033 -0.6073
 8555SOL     OW37297   3.016   4.639   7.960  0.1274  0.1580 -0.2769
 8555SOL    HW137298   2.993   4.730   7.941  0.4656 -0.3438 -3.1829
 8555SOL    HW237299   2.937   4.590   7.936 -1.8109  2.6381  0.9469
 8556SOL     OW37300   2.412   0.725   7.887 -0.1936 -0.2035 -0.3340
 8556SOL    HW137301   2.443   0.776   7.812 -1.0020  0.0597 -0.4817
 8556SOL    HW237302   2.491   0.682   7.920  0.0046  0.7471  0.4264
 8557SOL     OW37303   2.211   3.774  16.084  0.0232 -0.4496 -0.3759
 8557SOL    HW137304   2.222   3.747  16.175 -3.4687 -0.7962 -0.0417
 8557SOL    HW237305   2.291   3.825  16.073  0.2533 -0.2939  1.9428
 8558SOL     OW37306   1.382   0.313   7.758  0.3766  0.1341 -0.1956
 8558SOL    HW137307   1.407   0.235   7.807 -0.7381  0.0443  0.2420
 8558SOL    HW237308   1.377   0.274   7.671  1.2399 -1.8932  0.6634
 8559SOL     OW37309   1.038   1.729   9.354  0.3023  0.1374  0.0360
 8559SOL    HW137310   0.945   1.717   9.372  0.6263 -1.1512  0.8731
 8559SOL    HW237311   1.056   1.638   9.329  2.2190  0.0241  1.8351
 8560SOL     OW37312   2.065   1.303  17.175  0.6215  0.2766 -0.1515
 8560SOL    HW137313   2.110   1.242  17.117 -1.2396  0.4356 -1.7501
 8560SOL    HW237314   1.983   1.314  17.127 -0.4750 -2.8587  0.9832
 8561SOL     OW37315   4.583   2.095   4.516 -0.1882  0.2737 -0.2054
 8561SOL    HW137316   4.488   2.088   4.508 -0.3509  0.4239  1.5989
 8561SOL    HW237317   4.606   2.100   4.423  1.4221 -0.0666  0.1736
 8562SOL     OW37318   1.270   3.728   9.738 -0.2080  0.0279  0.1467
 8562SOL    HW137319   1.351   3.678   9.738 -0.2127  0.0498 -4.1067
 8562SOL    HW237320   1.288   3.782   9.661  1.6741 -0.1132  0.5101
 8563SOL     OW37321   2.966   1.534   9.082 -0.0309  0.0714 -0.5641
 8563SOL    HW137322   2.903   1.558   9.014  1.1973 -0.0155 -1.7267
 8563SOL    HW237323   3.051   1.516   9.041  1.4982 -0.7224  2.8955
 8564SOL     OW37324   1.713   2.105   1.745 -0.1657  0.2912 -0.4818
 8564SOL    HW137325   1.742   2.148   1.825 -0.1033 -0.2370 -0.2194
 8564SOL    HW237326   1.725   2.170   1.676  3.4051 -2.3523 -2.3694
 8565SOL     OW37327   2.714   0.163  13.759  0.2041 -0.0780  0.6651
 8565SOL    HW137328   2.716   0.231  13.827  1.5495  1.0522 -0.4976
 8565SOL    HW237329   2.796   0.116  13.772 -0.3445 -1.2427 -0.0933
 8566SOL     OW37330   0.955   0.925   2.184 -0.2465 -0.1089  0.2375
 8566SOL    HW137331   0.995   1.005   2.150  1.8661 -1.7342 -1.0913
 8566SOL    HW237332   1.029   0.892   2.236 -0.5095 -0.7227  0.2162
 8567SOL     OW37333   3.997   3.287  12.306  0.6178 -0.7092 -0.5176
 8567SOL    HW137334   4.073   3.325  12.350  1.8700 -0.6623 -2.7328
 8567SOL    HW237335   3.954   3.286  12.392 -0.6511 -2.0709 -1.1762
 8568SOL     OW37336   1.777   3.401   1.053 -0.2452 -0.5907  0.1527
 8568SOL    HW137337   1.820   3.465   0.996 -0.5284 -1.0375 -0.5620
 8568SOL    HW237338   1.837   3.328   1.038  2.3845  1.5046  0.4780
 8569SOL     OW37339   2.147   1.900   4.385  0.4952  0.5431  0.2355
 8569SOL    HW137340   2.191   1.985   4.378 -1.1705  1.4773  1.1177
 8569SOL    HW237341   2.200   1.835   4.340  2.7648  3.6070 -1.5143
 8570SOL     OW37342   2.853   1.006   1.280  0.3781 -0.0037 -0.0074
 8570SOL    HW137343   2.922   0.983   1.343  1.8029  3.7610 -0.1909
 8570SOL    HW237344   2.866   1.098   1.257 -0.7349  0.2249  0.3186
 8571SOL     OW37345   4.119   4.532   6.662 -0.2875 -0.0199  0.1000
 8571SOL    HW137346   4.060   4.458   6.647 -1.2591  0.2450  2.5985
 8571SOL    HW237347   4.152   4.540   6.572 -3.2108  0.7503 -0.9207
 8572SOL     OW37348   1.910   2.048   2.816  0.0261 -0.2071 -0.3868
 8572SOL    HW137349   1.907   1.987   2.742  1.9892  0.6380 -1.1521
 8572SOL    HW237350   2.005   2.050   2.827  0.2116  0.0556 -2.0415
 8573SOL     OW37351   0.362   3.466   9.269 -0.2448 -0.0572 -0.1698
 8573SOL    HW137352   0.423   3.469   9.343 -0.8791  0.9668  0.3095
 8573SOL    HW237353   0.401   3.403   9.208 -1.9146 -0.1387 -1.1544
 8574SOL     OW37354   2.334   2.922   4.463  0.1702 -0.1848  0.1428
 8574SOL    HW137355   2.283   2.846   4.492 -1.6822  0.5663 -1.0822
 8574SOL    HW237356   2.416   2.880   4.438  1.2484  1.6631  0.6234
 8575SOL     OW37357   2.549   4.438   4.860  0.5712  0.9493 -0.0346
 8575SOL    HW137358   2.631   4.486   4.848 -0.5028  3.1472  1.4980
 8575SOL    HW237359   2.547   4.378   4.786 -0.2092  1.8280 -0.7252
 8576SOL     OW37360   2.388   1.124   3.178 -0.3869  0.2261  0.3811
 8576SOL    HW137361   2.437   1.198   3.213  1.3914 -0.4088 -0.7380
 8576SOL    HW237362   2.425   1.054   3.231  0.5236  0.2373 -0.2382
 8577SOL     OW37363   1.064   0.772   3.824 -0.3025  0.0407  0.1602
 8577SOL    HW137364   1.133   0.716   3.788  1.7863  1.5946  1.7669
 8577SOL    HW237365   1.078   0.854   3.776  1.5559 -0.3077  0.1067
 8578SOL     OW37366   3.068   0.874   5.508  0.1106  0.3520  0.3541
 8578SOL    HW137367   3.117   0.800   5.471 -2.5731 -1.2263 -0.0038
 8578SOL    HW237368   3.093   0.942   5.446  0.2860 -0.7752 -0.8227
 8579SOL     OW37369   3.592   3.127   3.405  0.1516  0.1094  0.2811
 8579SOL    HW137370   3.572   3.035   3.386 -0.7502  0.1387  1.0703
 8579SOL    HW237371   3.672   3.129   3.458  1.2693 -1.1465 -1.3625
 8580SOL     OW37372   1.385   2.094   1.422 -0.0317  0.0143 -0.1992
 8580SOL    HW137373   1.425   2.181   1.432  1.5301 -0.8778  1.2692
 8580SOL    HW237374   1.465   2.048   1.397 -0.9581 -1.3834 -0.5652
 8581SOL     OW37375   1.555   2.332   6.795 -0.2141  0.3090 -0.6902
 8581SOL    HW137376   1.580   2.336   6.703  2.7396 -2.2461 -0.0195
 8581SOL    HW237377   1.640   2.325   6.838 -0.2693  0.6890 -0.5244
 8582SOL     OW37378   1.410   0.292   5.549  0.0227  0.4380  0.2417
 8582SOL    HW137379   1.436   0.384   5.543  0.4150  0.1711 -2.0577
 8582SOL    HW237380   1.492   0.249   5.574 -0.9485 -0.9176  1.1149
 8583SOL     OW37381   1.972   3.383  16.113  0.9328 -0.6577 -0.2464
 8583SOL    HW137382   1.989   3.476  16.126  3.1649 -0.8643 -1.6804
 8583SOL    HW237383   1.883   3.396  16.079  1.0669  0.4381 -0.1704
 8584SOL     OW37384   2.782   1.470   6.732  0.4066 -0.0978  0.2143
 8584SOL    HW137385   2.746   1.472   6.820 -0.6136  0.6941 -0.2230
 8584SOL    HW237386   2.792   1.376   6.719 -3.8057 -0.6651  1.1862
 8585SOL     OW37387   0.950   3.417   9.166  0.2959  0.4396 -0.3306
 8585SOL    HW137388   0.867   3.374   9.188  0.0723  0.5298 -0.9810
 8585SOL    HW237389   1.011   3.355   9.207  1.2394  1.0410 -0.8202
 8586SOL     OW37390   3.779   3.151   7.941  0.6029 -0.0919 -0.2728
 8586SOL    HW137391   3.815   3.231   7.902  0.8725  0.4768  1.1460
 8586SOL    HW237392   3.691   3.184   7.958  1.7678  1.6619  2.3600
 8587SOL     OW37393   1.719   3.520   2.201 -0.0270 -0.0212 -0.6059
 8587SOL    HW137394   1.719   3.426   2.215  1.4450  0.0574 -0.1036
 8587SOL    HW237395   1.705   3.536   2.108 -0.9265 -1.7239 -0.7509
 8588SOL     OW37396   2.609   4.417   7.697 -0.5607  0.3041  0.4522
 8588SOL    HW137397   2.523   4.446   7.668 -0.1385  1.9209  0.8594
 8588SOL    HW237398   2.638   4.356   7.629 -0.6600 -0.5160  1.1474
 8589SOL     OW37399   3.840   4.174   2.620 -0.0943  0.5957 -0.4329
 8589SOL    HW137400   3.920   4.122   2.628 -1.0250 -0.8945 -0.7105
 8589SOL    HW237401   3.860   4.260   2.656 -1.2212  1.1945 -1.2348
 8590SOL     OW37402   2.894   3.591   7.050  0.1852 -0.0211  0.3120
 8590SOL    HW137403   2.800   3.590   7.033  0.3269 -1.6146 -0.3404
 8590SOL    HW237404   2.927   3.568   6.963  0.3976  0.4748  0.2569
 8591SOL     OW37405   2.551   0.031  10.484 -0.0498 -0.4233  0.1077
 8591SOL    HW137406   2.541   0.089  10.559 -2.0118 -0.3233 -0.2303
 8591SOL    HW237407   2.482   4.704  10.511  0.1923 -0.2474  1.1053
 8592SOL     OW37408   1.269   2.884  12.954  0.4596  0.6091 -0.3988
 8592SOL    HW137409   1.358   2.882  12.988 -0.0132  0.7747  0.8330
 8592SOL    HW237410   1.283   2.939  12.877 -0.1745  0.6032 -0.5153
 8593SOL     OW37411   0.728   1.563   5.653 -0.5883  0.3202  0.1648
 8593SOL    HW137412   0.746   1.469   5.645  0.3169  0.6494 -1.8432
 8593SOL    HW237413   0.740   1.574   5.747  0.3244  0.6634  0.0134
 8594SOL     OW37414   1.609   0.324   6.078  0.6057 -0.4193 -0.1687
 8594SOL    HW137415   1.704   0.314   6.086  0.5671  0.0154  0.9319
 8594SOL    HW237416   1.592   0.252   6.018  0.3101  1.8727 -2.8438
 8595SOL     OW37417   4.646   4.380   5.760  0.6726 -0.6870 -0.2566
 8595SOL    HW137418   0.001   4.386   5.795  1.2085  0.4436 -1.8300
 8595SOL    HW237419   4.643   4.409   5.669  0.4504  0.1397  0.0187
 8596SOL     OW37420   4.323   0.435   8.554  0.2611  0.2564  0.0309
 8596SOL    HW137421   4.235   0.470   8.567 -0.7154 -3.5486  3.5744
 8596SOL    HW237422   4.340   0.449   8.461  0.6309 -0.4293 -0.0038
 8597SOL     OW37423   2.162   2.866  16.195  0.2118  0.3260 -0.6023
 8597SOL    HW137424   2.158   2.962  16.196  1.1303  0.3919 -2.9807
 8597SOL    HW237425   2.183   2.853  16.287  1.3181 -1.0483 -1.0552
 8598SOL     OW37426   4.678   3.898  13.779 -0.3722  0.1046 -0.4069
 8598SOL    HW137427   4.669   3.820  13.724 -0.3430  1.4332 -2.2714
 8598SOL    HW237428   4.659   3.862  13.866 -1.5423  1.4790 -0.1034
 8599SOL     OW37429   2.143   3.728   7.708  0.1493  0.5250  0.0929
 8599SOL    HW137430   2.119   3.764   7.793  0.4661  2.1065 -0.4995
 8599SOL    HW237431   2.194   3.802   7.676 -1.6643  0.9462 -1.8451
 8600SOL     OW37432   1.549   0.895   5.013  0.2743  0.5118  0.0965
 8600SOL    HW137433   1.603   0.962   4.972  0.7006 -0.8106 -1.4820
 8600SOL    HW237434   1.540   0.915   5.107  0.1314 -0.6603  0.3357
 8601SOL     OW37435   2.230   2.207  10.081 -0.7160  0.0541  0.2961
 8601SOL    HW137436   2.167   2.266  10.123  1.2503  2.7821 -0.6700
 8601SOL    HW237437   2.289   2.196  10.156  1.3863 -3.1682 -1.8117
 8602SOL     OW37438   0.178   0.201  12.152  0.0049  0.5212  0.2919
 8602SOL    HW137439   0.195   0.109  12.171 -2.1407 -0.2170 -1.4557
 8602SOL    HW237440   0.170   0.213  12.057  0.8280  0.6437  0.2379
 8603SOL     OW37441   1.459   0.174   1.428  0.5469 -0.0924 -0.3450
 8603SOL    HW137442   1.398   0.103   1.448 -2.2392  2.5900  0.6799
 8603SOL    HW237443   1.526   0.132   1.373  1.1249 -0.6297  0.7692
 8604SOL     OW37444   2.077   1.554   4.071  0.5613 -0.8058 -0.3111
 8604SOL    HW137445   2.083   1.480   4.011  1.3601 -0.6781 -0.3855
 8604SOL    HW237446   2.169   1.578   4.078  0.2863  0.1717 -0.0388
 8605SOL     OW37447   2.884   0.234   6.829  0.0853 -0.2158  0.2078
 8605SOL    HW137448   2.919   0.180   6.900  1.9299 -1.1035 -1.3518
 8605SOL    HW237449   2.960   0.233   6.770  0.7477 -0.9162  1.0622
 8606SOL     OW37450   2.741   0.092   5.785  0.0251  0.0967  0.1066
 8606SOL    HW137451   2.718   0.149   5.711  3.9499  0.6707 -0.6404
 8606SOL    HW237452   2.659   0.042   5.786 -0.2213  0.4852 -1.1252
 8607SOL     OW37453   1.600   1.613  14.935 -0.3448  0.0633  0.5248
 8607SOL    HW137454   1.657   1.536  14.927  1.2836  1.1243  1.9501
 8607SOL    HW237455   1.518   1.581  14.971 -0.5198 -1.5095 -1.2609
 8608SOL     OW37456   1.929   2.062   5.841 -0.8625 -0.3497  0.1351
 8608SOL    HW137457   1.999   2.043   5.779 -2.0326  0.4477 -1.4221
 8608SOL    HW237458   1.868   1.990   5.830 -0.2901 -0.8031 -0.0673
 8609SOL     OW37459   4.247   4.498  16.772  0.3622 -0.1666 -0.1444
 8609SOL    HW137460   4.207   4.579  16.805 -1.3754 -1.2173  0.3046
 8609SOL    HW237461   4.280   4.463  16.855 -1.8098 -0.3063  0.6550
 8610SOL     OW37462   1.637   0.873   8.341 -0.0088 -0.3571 -0.0760
 8610SOL    HW137463   1.694   0.949   8.331 -0.0454 -0.4055 -0.6482
 8610SOL    HW237464   1.553   0.918   8.350  0.4949  0.4989  0.2710
 8611SOL     OW37465   4.194   2.102   3.566 -0.3477  0.2396 -0.2961
 8611SOL    HW137466   4.156   2.093   3.479 -0.3944 -0.4991 -0.2000
 8611SOL    HW237467   4.267   2.041   3.560 -0.7882 -0.6037  2.9013
 8612SOL     OW37468   3.513   0.498  14.154  0.6312  0.1185  0.4590
 8612SOL    HW137469   3.559   0.481  14.236  0.4270 -3.2734 -0.1645
 8612SOL    HW237470   3.539   0.429  14.094 -2.5567  0.9688 -1.9050
 8613SOL     OW37471   1.544   0.378   0.201  0.4122 -0.2487 -0.0741
 8613SOL    HW137472   1.451   0.359   0.186  0.4544 -1.9433  1.8322
 8613SOL    HW237473   1.550   0.377   0.297  0.1489 -0.0265 -0.0547
 8614SOL     OW37474   0.805   1.552   9.017  0.2211  0.8766  0.0029
 8614SOL    HW137475   0.732   1.607   8.989 -0.5445  0.2637  0.7808
 8614SOL    HW237476   0.755   1.480   9.056 -0.3273  0.7714 -0.9007
 8615SOL     OW37477   2.786   3.347   6.668  0.4128  0.2643 -0.2575
 8615SOL    HW137478   2.728   3.423   6.656 -1.4955 -1.0413  0.7601
 8615SOL    HW237479   2.781   3.329   6.762  1.3469 -1.3408 -0.5224
 8616SOL     OW37480   1.484   1.224   0.113  1.0630 -1.2101 -0.1457
 8616SOL    HW137481   1.530   1.294   0.159 -0.6897 -0.8299  1.0258
 8616SOL    HW237482   1.399   1.262   0.090  0.1746 -1.5766  2.5089
 8617SOL     OW37483   3.692   4.624   6.220 -0.4112 -0.2556 -0.1441
 8617SOL    HW137484   3.757   4.682   6.180 -0.0581 -1.6995 -1.6311
 8617SOL    HW237485   3.681   4.678   6.299 -0.3886 -1.5264  0.7194
 8618SOL     OW37486   3.799   1.879  13.077  0.1385  0.2804 -0.2406
 8618SOL    HW137487   3.875   1.880  13.018 -0.0082 -2.6725 -0.4903
 8618SOL    HW237488   3.823   1.918  13.161 -0.3227 -1.1270  0.5492
 8619SOL     OW37489   1.976   0.758  11.544  0.0467 -0.3721 -0.3667
 8619SOL    HW137490   1.956   0.714  11.461 -0.0449 -0.5736 -0.2395
 8619SOL    HW237491   2.031   0.691  11.585  0.1944  1.0014  1.6862
 8620SOL     OW37492   2.504   3.438   1.620  0.1400 -0.1709 -0.9874
 8620SOL    HW137493   2.419   3.417   1.581 -1.2162  1.0163  1.2975
 8620SOL    HW237494   2.565   3.420   1.549  1.3554  0.1258 -0.0125
 8621SOL     OW37495   0.899   4.609   6.296  0.6930 -0.3642  0.6174
 8621SOL    HW137496   0.979   4.649   6.262  0.4832 -0.8633 -0.4657
 8621SOL    HW237497   0.834   4.676   6.275  1.1288 -0.1401  0.0154
 8622SOL     OW37498   2.639   4.557  10.323  0.2800 -0.0746 -0.0680
 8622SOL    HW137499   2.557   4.554  10.273 -0.3964 -1.1603  1.1013
 8622SOL    HW237500   2.626   4.626  10.388  0.2890  0.7975 -0.9823
 8623SOL     OW37501   3.406   1.702   3.620  0.1117  0.2561 -0.1343
 8623SOL    HW137502   3.415   1.727   3.529  0.4304  1.5359  0.2498
 8623SOL    HW237503   3.366   1.781   3.658 -0.7423 -0.0283 -0.4409
 8624SOL     OW37504   1.289   0.496   6.854 -0.7633  0.2302  0.2708
 8624SOL    HW137505   1.262   0.414   6.895  0.6959 -0.5558 -0.3554
 8624SOL    HW237506   1.213   0.552   6.867 -0.4981  0.5591  0.4366
 8625SOL     OW37507   1.402   1.775   2.325  0.6597 -0.1626 -0.4572
 8625SOL    HW137508   1.323   1.724   2.303  0.8133 -0.7657  0.3941
 8625SOL    HW237509   1.394   1.845   2.261  1.1268 -1.5864 -2.0881
 8626SOL     OW37510   2.841   3.737  13.574  0.0537 -0.7247 -0.3019
 8626SOL    HW137511   2.848   3.642  13.579  1.5420 -0.5367  1.1169
 8626SOL    HW237512   2.838   3.757  13.480 -1.2236 -0.4341 -0.2001
 8627SOL     OW37513   0.614   0.033   1.442  0.0597 -0.2246 -0.0072
 8627SOL    HW137514   0.543   0.007   1.383  0.0179 -2.1618  0.9068
 8627SOL    HW237515   0.600   4.726   1.527  0.5647  0.5110  0.4279
 8628SOL     OW37516   4.301   2.180   7.164 -0.4673  0.1441  0.0051
 8628SOL    HW137517   4.232   2.229   7.208  1.1642  1.3437  1.2178
 8628SOL    HW237518   4.370   2.238   7.195  0.1412 -1.2343  1.2431
 8629SOL     OW37519   2.723   2.627   9.411 -0.5516  0.1548  0.5041
 8629SOL    HW137520   2.634   2.624   9.378 -0.1165  0.8895 -0.7305
 8629SOL    HW237521   2.749   2.719   9.405  2.5184 -0.7712 -0.5486
 8630SOL     OW37522   4.387   2.438   0.270 -0.9595 -0.0270 -0.2237
 8630SOL    HW137523   4.463   2.395   0.232  0.1123 -0.7722  2.8022
 8630SOL    HW237524   4.393   2.407   0.360 -0.3394 -0.5219 -0.4420
 8631SOL     OW37525   2.961   1.888   8.187  0.2666  0.2722 -0.0899
 8631SOL    HW137526   3.003   1.968   8.155  0.3435  0.5103  0.6199
 8631SOL    HW237527   2.895   1.931   8.241 -0.7478  1.1415 -1.9864
 8632SOL     OW37528   3.293   1.946  17.052 -0.0566  0.4682  0.7887
 8632SOL    HW137529   3.220   1.950  16.990  1.5909  0.0619 -1.1647
 8632SOL    HW237530   3.259   1.886  17.119  1.6957 -0.3814  0.9109
 8633SOL     OW37531   0.129   4.098  11.399  0.0195 -0.1500 -0.9905
 8633SOL    HW137532   0.187   4.174  11.406  1.8314 -1.5593 -0.7328
 8633SOL    HW237533   0.172   4.033  11.455 -0.4477 -0.5865 -1.1365
 8634SOL     OW37534   3.947   0.073  14.112 -0.8270 -0.2195 -0.0307
 8634SOL    HW137535   3.881   0.118  14.059 -0.6457 -0.4386 -0.4394
 8634SOL    HW237536   3.903   0.064  14.196 -1.5245  0.3083 -0.3295
 8635SOL     OW37537   2.037   0.500   0.698 -0.1763  0.5104 -0.2816
 8635SOL    HW137538   2.131   0.497   0.681 -0.2026 -1.3741 -0.0129
 8635SOL    HW237539   2.035   0.432   0.765 -0.3891 -0.1455 -0.9590
 8636SOL     OW37540   3.281   0.148   9.265  0.1424 -0.1103 -0.9455
 8636SOL    HW137541   3.269   0.092   9.342  0.1620  0.6128 -0.4241
 8636SOL    HW237542   3.279   0.077   9.200 -1.0896  0.0679 -1.0853
 8637SOL     OW37543   2.332   3.305   3.531  0.4042  0.4258  0.2099
 8637SOL    HW137544   2.265   3.374   3.534 -0.9604 -0.9090  0.1999
 8637SOL    HW237545   2.307   3.242   3.598  2.5659 -1.6828 -0.9863
 8638SOL     OW37546   0.785   0.243  15.754 -0.2687  0.2053 -0.5681
 8638SOL    HW137547   0.765   0.165  15.701 -0.5615  0.4430 -0.8065
 8638SOL    HW237548   0.798   0.201  15.839 -1.5122  0.8833 -0.0453
 8639SOL     OW37549   2.370   3.871   1.239 -0.3697  0.3092  0.1166
 8639SOL    HW137550   2.283   3.912   1.238 -0.3322  0.4156  1.1678
 8639SOL    HW237551   2.421   3.950   1.257 -0.5288  0.9181 -2.0884
 8640SOL     OW37552   0.989   2.393   6.587 -0.0116  0.8577  0.2606
 8640SOL    HW137553   1.070   2.434   6.557  0.2891  1.2705  1.5898
 8640SOL    HW237554   0.944   2.390   6.503 -2.4749  3.0957  1.5112
 8641SOL     OW37555   4.516   4.338  10.177 -0.1819  0.2143  0.1939
 8641SOL    HW137556   4.438   4.285  10.158  0.9926 -1.9772  1.4424
 8641SOL    HW237557   4.550   4.322  10.089  1.5032 -0.7804  1.0238
 8642SOL     OW37558   1.946   0.032   1.022  0.1651 -0.2865  0.2658
 8642SOL    HW137559   2.006   4.694   1.043  0.5612  0.2466  0.9879
 8642SOL    HW237560   1.875   4.709   0.994 -0.5131  0.6137  0.1431
 8643SOL     OW37561   0.223   3.724   8.158 -0.0569 -0.4622 -0.2530
 8643SOL    HW137562   0.171   3.650   8.126  0.1381 -0.2551 -1.0484
 8643SOL    HW237563   0.225   3.715   8.254  1.8016  3.6234  0.1200
 8644SOL     OW37564   2.372   0.584   5.985 -0.2773  0.1812  0.1403
 8644SOL    HW137565   2.346   0.574   6.077  1.7443  0.4880  0.7478
 8644SOL    HW237566   2.350   0.500   5.946 -0.2608 -0.1955  0.9487
 8645SOL     OW37567   3.243   4.623  14.230  0.3490 -0.2236  0.0649
 8645SOL    HW137568   3.236   4.543  14.283  1.9943  0.4118  1.2497
 8645SOL    HW237569   3.301   4.681  14.279  0.1164 -0.1333  0.2366
 8646SOL     OW37570   0.487   1.990   6.689  0.4680  0.1834  1.1635
 8646SOL    HW137571   0.446   2.032   6.613  2.2966  0.1961  0.1837
 8646SOL    HW237572   0.471   2.057   6.755 -0.7968 -0.0875  1.1249
 8647SOL     OW37573   2.890   4.258  17.035  0.4197  0.6737 -0.2097
 8647SOL    HW137574   2.867   4.351  17.039  1.8054  0.8675  3.2784
 8647SOL    HW237575   2.941   4.254  17.116  0.5120  0.9627 -0.2539
 8648SOL     OW37576   3.826   0.839   7.223 -0.1084 -0.3613  0.1243
 8648SOL    HW137577   3.869   0.758   7.251  1.4962  0.7362  0.8133
 8648SOL    HW237578   3.811   0.827   7.129  1.2288 -0.6931 -0.0458
 8649SOL     OW37579   0.228   0.714   6.983 -0.5339  0.0092 -0.0505
 8649SOL    HW137580   0.313   0.720   6.938 -0.9959  2.5709 -0.5312
 8649SOL    HW237581   0.248   0.639   7.040  0.6900  0.6975  0.4307
 8650SOL     OW37582   3.097   3.418   2.227  0.4365 -0.1582 -0.1193
 8650SOL    HW137583   3.192   3.407   2.223  0.5041 -0.0662  1.0381
 8650SOL    HW237584   3.084   3.475   2.303 -0.3557 -2.6720  1.6463
 8651SOL     OW37585   4.488   1.289  15.224  0.1002 -0.1942 -0.0871
 8651SOL    HW137586   4.429   1.242  15.165 -1.3481  1.5954 -0.0858
 8651SOL    HW237587   4.437   1.301  15.305  1.2268 -0.7629  0.7011
 8652SOL     OW37588   3.425   0.762   7.040 -0.0912 -0.8626 -0.7833
 8652SOL    HW137589   3.476   0.837   7.009 -1.6906 -0.0721 -1.4914
 8652SOL    HW237590   3.374   0.802   7.111  2.8345  0.6325  0.4705
 8653SOL     OW37591   2.161   3.432   9.325 -0.4424  0.2381  0.6572
 8653SOL    HW137592   2.067   3.416   9.315  0.1029 -3.3840  1.4351
 8653SOL    HW237593   2.193   3.346   9.298  1.6230  1.0564  0.5099
 8654SOL     OW37594   2.639   3.032   3.888 -0.5225  0.3968  0.0680
 8654SOL    HW137595   2.633   3.013   3.982  3.4339  0.1689  0.2843
 8654SOL    HW237596   2.700   3.104   3.900 -1.4811  0.9880  1.4925
 8655SOL     OW37597   2.514   4.206   6.452 -0.1602 -0.0110 -0.3249
 8655SOL    HW137598   2.426   4.237   6.474  0.4982  0.7452  1.2452
 8655SOL    HW237599   2.567   4.228   6.528  0.6379 -1.5936 -0.4299
 8656SOL     OW37600   1.381   3.782   6.967  0.6111  0.2421  0.3353
 8656SOL    HW137601   1.288   3.794   6.981  0.8694  3.3649 -0.6429
 8656SOL    HW237602   1.394   3.809   6.876 -2.4782 -0.8113 -0.4155
 8657SOL     OW37603   1.079   0.747   2.858  0.7643 -0.1813 -0.2057
 8657SOL    HW137604   1.082   0.767   2.765  1.0178  2.5356  0.3997
 8657SOL    HW237605   1.021   0.671   2.855  0.4379  0.1209 -1.4539
 8658SOL     OW37606   1.284   4.491  11.744  0.1308 -0.4245  0.6477
 8658SOL    HW137607   1.275   4.581  11.776 -0.2280 -0.6917  1.2796
 8658SOL    HW237608   1.321   4.504  11.656 -2.7060 -1.6193 -0.7282
 8659SOL     OW37609   4.127   0.635  10.596  0.2157 -0.1307 -0.3509
 8659SOL    HW137610   4.211   0.650  10.640  0.0944  1.5269 -0.6548
 8659SOL    HW237611   4.088   0.573  10.657  1.5487 -0.2980  0.3393
 8660SOL     OW37612   0.026   0.771   0.108 -0.0101 -0.0812 -0.1365
 8660SOL    HW137613   4.716   0.824   0.175  0.4715 -0.5000  0.5042
 8660SOL    HW237614   0.109   0.781   0.153  1.0228 -0.6944 -1.9217
 8661SOL     OW37615   1.438   3.015   1.515  0.4492  0.0005  0.1835
 8661SOL    HW137616   1.488   3.073   1.572 -1.3947  0.7419  1.0786
 8661SOL    HW237617   1.444   2.939   1.573  1.0079 -0.0082  0.1141
 8662SOL     OW37618   3.696   3.638   5.242 -0.4911  0.3558  0.4614
 8662SOL    HW137619   3.731   3.657   5.154 -0.8346 -2.2498 -0.2404
 8662SOL    HW237620   3.611   3.603   5.217 -0.7299  0.8117  0.6389
 8663SOL     OW37621   3.489   1.820   8.363 -0.3491  0.0202  0.6497
 8663SOL    HW137622   3.396   1.804   8.346 -0.5681  0.5321  1.3979
 8663SOL    HW237623   3.536   1.781   8.289  1.8754 -0.3390  2.2668
 8664SOL     OW37624   4.691   1.223   6.623  0.0565 -0.2094 -0.3036
 8664SOL    HW137625   4.616   1.176   6.586 -0.7012  0.6793  0.1303
 8664SOL    HW237626   4.663   1.276   6.698 -1.0144 -0.0460 -0.8216
 8665SOL     OW37627   3.330   0.789  10.101  0.6537  0.1067 -0.2411
 8665SOL    HW137628   3.370   0.840  10.031 -1.1789 -0.8955 -2.0117
 8665SOL    HW237629   3.393   0.718  10.112  2.0866  1.2552 -1.1254
 8666SOL     OW37630   3.026   0.615   9.776 -0.0589 -0.8295  0.2888
 8666SOL    HW137631   2.978   0.696   9.759  0.7042 -0.2262  0.9954
 8666SOL    HW237632   2.977   0.552   9.724  1.1990  0.7225 -2.7569
 8667SOL     OW37633   1.054   1.669   9.010 -0.0480  0.1471  0.0297
 8667SOL    HW137634   0.963   1.640   9.014  0.1622 -0.5586 -0.2196
 8667SOL    HW237635   1.058   1.726   8.933 -1.8720  1.4792  0.9539
 8668SOL     OW37636   3.794   4.135   7.958 -0.4446  0.5225 -0.3526
 8668SOL    HW137637   3.746   4.053   7.946 -0.0232  0.1840  0.3006
 8668SOL    HW237638   3.881   4.098   7.945 -0.2296  0.5878  0.8618
 8669SOL     OW37639   0.539   1.774   8.082  0.1580 -0.3176 -0.1081
 8669SOL    HW137640   0.625   1.812   8.064  0.2919 -0.4797  0.1815
 8669SOL    HW237641   0.552   1.686   8.046 -0.4411 -0.2955 -0.3718
 8670SOL     OW37642   2.096   1.196   2.215 -0.1637  0.2169  0.3480
 8670SOL    HW137643   2.150   1.234   2.146 -0.5594  1.0715  0.5149
 8670SOL    HW237644   2.148   1.118   2.237  1.8067  1.6463  0.7227
 8671SOL     OW37645   1.625   2.933   7.435 -0.0611 -0.2795  0.2187
 8671SOL    HW137646   1.601   2.853   7.389  2.2448 -0.9004  0.1023
 8671SOL    HW237647   1.694   2.898   7.492 -1.5681  0.6656  2.6271
 8672SOL     OW37648   3.847   1.488   6.479  0.2214 -0.4093 -0.1058
 8672SOL    HW137649   3.794   1.557   6.519  2.0148 -0.0523  1.6641
 8672SOL    HW237650   3.882   1.547   6.411 -2.2407 -0.2018 -1.1790
 8673SOL     OW37651   1.934   1.945  11.138  0.0581  0.6117  0.6887
 8673SOL    HW137652   1.870   1.881  11.107  1.2982 -1.1906  1.8320
 8673SOL    HW237653   1.936   1.928  11.232  1.3423  1.7230  0.8478
 8674SOL     OW37654   2.154   0.767   5.722  0.5221  0.1280  0.0998
 8674SOL    HW137655   2.102   0.691   5.748 -0.6570  0.3932 -1.4496
 8674SOL    HW237656   2.216   0.774   5.795  1.8190  1.0410 -1.0902
 8675SOL     OW37657   2.487   4.678   7.644 -0.1805  0.3229  0.8225
 8675SOL    HW137658   2.394   4.694   7.658  0.4752  3.1838  1.7732
 8675SOL    HW237659   2.521   4.726   7.719 -0.4787  0.5947  0.7831
 8676SOL     OW37660   3.855   3.770   8.144 -0.1582 -0.1555  0.1907
 8676SOL    HW137661   3.885   3.764   8.235 -1.1866 -0.3073  0.5217
 8676SOL    HW237662   3.934   3.782   8.091 -0.5245  1.1594 -0.0768
 8677SOL     OW37663   1.127   2.355   6.313  0.6659 -0.2834  0.0902
 8677SOL    HW137664   1.063   2.320   6.251  2.5692  1.6388 -3.0049
 8677SOL    HW237665   1.131   2.450   6.302 -1.5101 -0.0636  1.3201
 8678SOL     OW37666   0.926   2.830   9.811 -0.7547  0.0707  0.1521
 8678SOL    HW137667   0.972   2.839   9.895  1.0460 -1.8401 -0.6362
 8678SOL    HW237668   1.002   2.790   9.768 -0.4946  0.4240  0.2885
 8679SOL     OW37669   1.686   4.626   9.830 -0.7583  0.7417 -0.2915
 8679SOL    HW137670   1.717   4.678   9.755  0.6465  0.2899 -0.0342
 8679SOL    HW237671   1.665   4.701   9.884  1.5287  0.8941  0.3922
 8680SOL     OW37672   0.736   1.617   9.293  0.3574  0.3206  0.0113
 8680SOL    HW137673   0.674   1.573   9.234 -0.6283 -0.9159  1.9990
 8680SOL    HW237674   0.691   1.590   9.373  0.0870 -0.3066 -0.3544
 8681SOL     OW37675   3.766   4.332   9.925 -0.0924 -0.1745  0.2094
 8681SOL    HW137676   3.683   4.333   9.876 -0.4137 -1.3144  0.7226
 8681SOL    HW237677   3.774   4.422   9.954  1.9445 -0.4437  0.4874
 8682SOL     OW37678   3.754   1.238   2.829 -0.0081 -0.8092 -0.2525
 8682SOL    HW137679   3.666   1.205   2.808 -0.8915  2.3810 -1.5546
 8682SOL    HW237680   3.747   1.333   2.818 -0.6495 -0.9202 -0.8599
 8683SOL     OW37681   3.696   0.385   5.269 -0.1469 -0.3411 -0.5186
 8683SOL    HW137682   3.773   0.442   5.266 -0.3329 -0.0493  0.1654
 8683SOL    HW237683   3.656   0.423   5.348  3.9795  0.6277  1.1061
 8684SOL     OW37684   3.350   3.895   1.908  0.6767 -0.2900 -0.3421
 8684SOL    HW137685   3.438   3.880   1.873  1.0553 -0.9190  0.8852
 8684SOL    HW237686   3.370   3.960   1.975  0.6763 -0.8588  0.2047
 8685SOL     OW37687   2.402   1.711  16.281 -0.0413 -0.2113  0.2614
 8685SOL    HW137688   2.452   1.691  16.360 -0.7820 -0.4817  0.6641
 8685SOL    HW237689   2.453   1.780  16.238 -0.6500 -1.7640 -2.9461
 8686SOL     OW37690   1.731   1.882  10.690  0.5226 -0.2033 -0.1562
 8686SOL    HW137691   1.791   1.932  10.634  1.4776 -1.7560 -0.5401
 8686SOL    HW237692   1.767   1.795  10.673 -0.7270 -0.7377 -0.0743
 8687SOL     OW37693   1.943   3.507   4.351  0.3036 -0.1160 -0.3168
 8687SOL    HW137694   1.990   3.458   4.283 -0.9452  1.3913 -2.2858
 8687SOL    HW237695   2.009   3.504   4.420 -0.6067  0.1127  0.5609
 8688SOL     OW37696   1.435   2.813   1.665 -0.7638 -0.4601  0.6787
 8688SOL    HW137697   1.468   2.727   1.691  1.3134  0.0025 -0.3912
 8688SOL    HW237698   1.343   2.791   1.650 -1.0693  0.8280  0.6236
 8689SOL     OW37699   4.661   1.908   2.148  0.4462 -0.5683 -0.8496
 8689SOL    HW137700   0.023   1.908   2.140  0.6964 -2.1627  2.2540
 8689SOL    HW237701   4.633   1.987   2.102 -0.2740 -0.9700 -1.0883
 8690SOL     OW37702   2.206   4.574   2.149  0.2667  0.4073 -0.3005
 8690SOL    HW137703   2.140   4.509   2.124  1.3449 -0.3908 -1.0584
 8690SOL    HW237704   2.225   4.562   2.242 -1.4908 -1.2489 -0.1449
 8691SOL     OW37705   0.438   0.367   7.874 -0.5024 -0.0515  0.2182
 8691SOL    HW137706   0.428   0.338   7.965  0.9501 -2.6883 -0.4562
 8691SOL    HW237707   0.534   0.372   7.881 -0.5317  0.9989 -0.2379
 8692SOL     OW37708   4.531   4.265   4.822  0.3297  0.1043 -0.4751
 8692SOL    HW137709   4.464   4.333   4.810  1.1189  0.9495 -0.0673
 8692SOL    HW237710   4.604   4.324   4.839 -0.4278  0.5001  1.3611
 8693SOL     OW37711   2.465   4.710   5.731 -0.3153  0.4034  0.5109
 8693SOL    HW137712   2.401   0.019   5.675 -0.9271 -1.1903 -0.0071
 8693SOL    HW237713   2.491   4.638   5.673  0.2585  0.5923  0.5286
 8694SOL     OW37714   1.694   1.357   9.157  0.3405 -1.0946 -0.1758
 8694SOL    HW137715   1.628   1.421   9.129  1.2217 -0.2795 -0.3782
 8694SOL    HW237716   1.773   1.392   9.117 -1.0280 -0.4212 -2.3313
 8695SOL     OW37717   0.168   0.636   1.514  0.2257 -0.5137  0.0208
 8695SOL    HW137718   0.260   0.610   1.511  0.5781  0.8146 -0.2896
 8695SOL    HW237719   0.119   0.572   1.567 -0.2484  0.6924  1.0132
 8696SOL     OW37720   4.363   2.916  16.148 -0.0964  0.2724  0.4133
 8696SOL    HW137721   4.446   2.946  16.111  0.5976 -0.8974  1.0008
 8696SOL    HW237722   4.382   2.822  16.156  0.9785  0.5050  0.5679
 8697SOL     OW37723   0.674   2.528   3.248  0.2082  0.0484 -0.3835
 8697SOL    HW137724   0.683   2.533   3.343 -0.4785 -1.7571 -0.2121
 8697SOL    HW237725   0.613   2.595   3.219  0.4629  0.0394 -0.9350
 8698SOL     OW37726   0.625   3.742   3.560  0.4783 -0.8093 -0.7034
 8698SOL    HW137727   0.632   3.821   3.506 -2.0027  1.1455  1.8673
 8698SOL    HW237728   0.556   3.766   3.621  0.1935 -0.7479 -1.0525
 8699SOL     OW37729   0.010   1.402   0.465  0.2602  0.6036 -0.2050
 8699SOL    HW137730   4.655   1.377   0.490  0.2164  1.0393  0.0666
 8699SOL    HW237731   0.055   1.318   0.477 -0.3410  0.2243 -0.5970
 8700SOL     OW37732   1.535   0.948   1.386 -0.3425  0.0655 -0.1217
 8700SOL    HW137733   1.546   0.980   1.296 -0.5113 -1.2067 -0.5961
 8700SOL    HW237734   1.573   1.018   1.439 -0.8995  0.5092 -0.3128
 8701SOL     OW37735   2.739   2.585   6.460  0.2631 -0.0319 -0.5105
 8701SOL    HW137736   2.654   2.544   6.442 -0.2010 -0.9366  3.7426
 8701SOL    HW237737   2.716   2.634   6.538 -0.7283  0.1965 -0.9391
 8702SOL     OW37738   0.065   4.617   2.063  0.0862  0.3797  0.0259
 8702SOL    HW137739   0.147   4.577   2.035 -0.2934 -1.4344  1.4587
 8702SOL    HW237740   0.008   4.571   2.000  1.5878 -1.3398 -0.0636
 8703SOL     OW37741   4.037   0.015  15.235  0.2680 -0.1454 -0.0229
 8703SOL    HW137742   3.984   4.670  15.249  1.1730 -0.6721  0.4052
 8703SOL    HW237743   4.111   4.710  15.188 -0.2416 -0.6647 -0.4019
 8704SOL     OW37744   4.641   4.440  15.289 -0.5137 -0.1259  0.0266
 8704SOL    HW137745   4.671   4.458  15.378  0.6698 -2.2183  0.0398
 8704SOL    HW237746   4.550   4.448  15.316 -0.6211  1.5209 -0.7825
 8705SOL     OW37747   4.553   0.065   7.427 -0.2762  0.1731  0.0510
 8705SOL    HW137748   4.575   0.120   7.502 -0.4289  0.8225 -0.3791
 8705SOL    HW237749   4.464   0.093   7.406 -0.2834 -0.6155 -0.9882
 8706SOL     OW37750   2.725   1.614   9.218  0.3884  0.0536 -0.3355
 8706SOL    HW137751   2.753   1.655   9.300  1.3102 -1.0671 -0.0979
 8706SOL    HW237752   2.808   1.578   9.186  1.1142 -1.0024  2.8052
 8707SOL     OW37753   2.183   0.900   0.409  0.1091  0.5461  0.1255
 8707SOL    HW137754   2.152   0.865   0.493 -0.7552 -0.4103 -0.6069
 8707SOL    HW237755   2.185   0.991   0.439  0.8613  1.4409 -2.6381
 8708SOL     OW37756   3.076   3.717  11.151 -0.3096 -0.2603  0.4685
 8708SOL    HW137757   3.106   3.672  11.230  0.1933  1.2762  1.1565
 8708SOL    HW237758   2.987   3.686  11.133  0.0799 -1.0195 -0.1427
 8709SOL     OW37759   3.964   1.179   4.621 -0.4566 -0.5689  0.4031
 8709SOL    HW137760   4.052   1.211   4.639 -1.5639  1.0142  2.9194
 8709SOL    HW237761   3.905   1.254   4.627  1.1537  0.5946  1.4884
 8710SOL     OW37762   4.582   1.775   4.904 -0.8503  0.2904 -0.3537
 8710SOL    HW137763   4.569   1.813   4.817 -0.2519  0.2313 -0.4680
 8710SOL    HW237764   4.565   1.682   4.888  3.0438 -1.0085  2.9261
 8711SOL     OW37765   0.390   2.607   6.867  0.5470 -0.0228  0.2626
 8711SOL    HW137766   0.397   2.583   6.775  1.3427 -0.5726  0.4638
 8711SOL    HW237767   0.333   2.543   6.910 -0.6317  2.5641  2.5904
 8712SOL     OW37768   1.240   1.566  12.276  0.1592  0.0627  0.5419
 8712SOL    HW137769   1.212   1.493  12.330  0.5898 -0.4782  0.0320
 8712SOL    HW237770   1.274   1.624  12.344 -0.8078  0.3667  0.7693
 8713SOL     OW37771   2.635   0.874  17.270 -0.1177  0.1640  0.0606
 8713SOL    HW137772   2.686   0.822  17.333 -1.5717 -0.2105  0.9429
 8713SOL    HW237773   2.705   0.927  17.233 -1.8166  2.8871  0.7416
 8714SOL     OW37774   0.904   3.740   2.684  0.1718 -0.1305 -0.0101
 8714SOL    HW137775   0.944   3.759   2.769  0.7336 -0.2719 -0.2448
 8714SOL    HW237776   0.932   3.820   2.640 -1.0729 -0.0370 -0.6111
 8715SOL     OW37777   1.670   2.730   2.505 -1.1186 -0.2025  0.4211
 8715SOL    HW137778   1.669   2.793   2.576  2.0597 -0.7115  0.9090
 8715SOL    HW237779   1.675   2.787   2.427 -3.1646  0.4962  0.7989
 8716SOL     OW37780   3.266   1.204  16.102  0.0105  0.1091 -1.0374
 8716SOL    HW137781   3.291   1.268  16.035  0.3652  1.5169  0.4599
 8716SOL    HW237782   3.219   1.270  16.153 -1.0646 -1.2428 -0.2909
 8717SOL     OW37783   1.950   0.746  15.017 -0.0229  0.9163 -0.3183
 8717SOL    HW137784   1.958   0.663  14.970 -1.4423  0.1651  0.7615
 8717SOL    HW237785   1.918   0.795  14.941 -0.2091  1.3432  0.0383
 8718SOL     OW37786   0.033   0.068   9.155 -0.3939 -0.6563 -0.0302
 8718SOL    HW137787   0.080   4.720   9.162 -0.0930 -0.2623  2.7770
 8718SOL    HW237788   0.041   0.096   9.246  0.1284 -0.8246 -0.0245
 8719SOL     OW37789   2.466   2.460   0.857  0.1441  0.6790 -0.8761
 8719SOL    HW137790   2.555   2.455   0.823  0.3902 -0.7942 -0.0072
 8719SOL    HW237791   2.430   2.532   0.806 -1.3244 -0.3227 -1.2379
 8720SOL     OW37792   1.420   1.310   7.988 -0.1471  0.6887  0.3728
 8720SOL    HW137793   1.483   1.293   8.058 -1.0501  1.3112  1.3372
 8720SOL    HW237794   1.368   1.232   8.008 -0.6845  1.8095  3.4382
 8721SOL     OW37795   3.354   0.139   6.757 -0.1159 -0.8991  0.4360
 8721SOL    HW137796   3.317   0.068   6.809 -1.1738  0.0983  1.0338
 8721SOL    HW237797   3.443   0.109   6.738  0.1583 -0.1258  0.5121
 8722SOL     OW37798   3.753   3.838   6.805 -0.4498 -0.5701 -0.2470
 8722SOL    HW137799   3.662   3.809   6.800  0.5658 -3.7304 -0.3718
 8722SOL    HW237800   3.773   3.837   6.712 -0.5428 -0.5298 -0.2677
 8723SOL     OW37801   2.809   2.651   2.044 -0.2060 -0.1932  0.0528
 8723SOL    HW137802   2.879   2.704   2.084 -0.5931  0.6881 -0.4565
 8723SOL    HW237803   2.835   2.668   1.954 -1.2457 -0.8548 -0.3608
 8724SOL     OW37804   3.515   3.209   9.285 -0.1802  0.2285 -0.1853
 8724SOL    HW137805   3.441   3.172   9.237 -0.4624 -1.6445  1.6875
 8724SOL    HW237806   3.547   3.126   9.319 -2.2513 -1.0674 -1.3657
 8725SOL     OW37807   2.052   1.444   9.485 -0.2335 -0.3947 -0.5402
 8725SOL    HW137808   2.113   1.465   9.414 -0.5793 -0.0462 -0.7378
 8725SOL    HW237809   1.976   1.495   9.456 -0.0707  0.1023 -0.0960
 8726SOL     OW37810   3.315   4.011   6.771  0.1794 -0.6246  0.0449
 8726SOL    HW137811   3.247   4.072   6.743 -0.3569 -0.6165  1.3692
 8726SOL    HW237812   3.383   4.068   6.807 -0.2437 -0.0201 -0.1023
 8727SOL     OW37813   4.479   1.265   2.350 -0.0707  0.3007 -0.4311
 8727SOL    HW137814   4.427   1.209   2.291  0.3061  0.9901 -1.4163
 8727SOL    HW237815   4.565   1.246   2.310 -0.0864 -0.7263  0.0169
 8728SOL     OW37816   2.079   0.508  16.429 -0.4253 -0.1313 -0.2854
 8728SOL    HW137817   2.041   0.424  16.452  0.4005 -0.5982 -0.6335
 8728SOL    HW237818   2.165   0.493  16.468 -0.3880  2.5871  0.7359
 8729SOL     OW37819   1.929   0.644   1.357 -0.2468 -0.0682 -0.3917
 8729SOL    HW137820   1.935   0.677   1.268 -0.9708  0.7649 -0.1326
 8729SOL    HW237821   1.994   0.574   1.361 -0.5140 -0.3091 -0.1870
 8730SOL     OW37822   3.085   1.527   3.452 -0.1903 -0.1262  0.1210
 8730SOL    HW137823   3.093   1.583   3.529  0.7569  0.0260 -0.0823
 8730SOL    HW237824   3.087   1.599   3.389  1.1287 -1.2008 -1.0689
 8731SOL     OW37825   3.152   0.899   0.849  0.2351  0.0106 -0.8890
 8731SOL    HW137826   3.152   0.994   0.843 -1.0510  0.1547  1.4143
 8731SOL    HW237827   3.119   0.885   0.938 -0.9946  0.2241 -1.3175
 8732SOL     OW37828   3.658   3.035  12.483  0.1856 -0.1589 -0.1103
 8732SOL    HW137829   3.741   2.997  12.457 -0.0245 -1.0773  0.5550
 8732SOL    HW237830   3.598   2.987  12.426 -0.0878  0.5676 -0.4425
 8733SOL     OW37831   2.611   1.735   3.630  0.2606 -0.4147  0.5925
 8733SOL    HW137832   2.662   1.812   3.605 -0.2711 -0.3100 -0.1952
 8733SOL    HW237833   2.524   1.766   3.604  0.7142  0.3123 -0.0455
 8734SOL     OW37834   4.046   3.119   6.592  0.5417 -0.2315 -0.4109
 8734SOL    HW137835   3.957   3.149   6.609  0.7162 -1.8420  3.2038
 8734SOL    HW237836   4.044   3.090   6.501  0.9839  0.1171 -0.5337
 8735SOL     OW37837   1.062   0.119   0.567 -0.1701  0.5416 -0.0766
 8735SOL    HW137838   1.144   0.096   0.523 -1.1498 -0.2323 -1.5151
 8735SOL    HW237839   1.016   0.176   0.505 -0.1293 -1.1055 -1.6287
 8736SOL     OW37840   2.820   2.434  13.848  0.4542 -0.1606 -0.1217
 8736SOL    HW137841   2.798   2.350  13.807 -0.7740 -0.3021  0.8398
 8736SOL    HW237842   2.733   2.455  13.882  0.1816 -0.7248 -0.4575
 8737SOL     OW37843   0.883   3.157   9.501  0.9316  0.6277  0.0638
 8737SOL    HW137844   0.874   3.252   9.508  0.3039  0.5911 -0.2588
 8737SOL    HW237845   0.834   3.127   9.577  0.4148  2.8873  0.6244
 8738SOL     OW37846   2.195   3.634   0.212  0.6647  0.3906 -0.5094
 8738SOL    HW137847   2.289   3.635   0.229  0.3876  2.4520  0.8381
 8738SOL    HW237848   2.192   3.675   0.126 -1.7661  0.9690 -0.1441
 8739SOL     OW37849   0.643   1.293  12.472 -0.0832  0.9480 -0.7477
 8739SOL    HW137850   0.734   1.323  12.462  0.1119  0.8471  0.7248
 8739SOL    HW237851   0.626   1.288  12.378 -3.1138 -2.5040  0.0206
 8740SOL     OW37852   1.739   0.356   3.388 -0.6650 -0.1212  0.3380
 8740SOL    HW137853   1.756   0.449   3.404 -1.7858 -0.0220  1.0365
 8740SOL    HW237854   1.650   0.341   3.422 -0.4747  3.2629  2.3632
 8741SOL     OW37855   1.309   1.403   0.428 -0.3078  0.5226  0.7820
 8741SOL    HW137856   1.228   1.362   0.399  0.3744  0.0665 -0.5088
 8741SOL    HW237857   1.320   1.369   0.517 -3.6878 -0.2178  0.8962
 8742SOL     OW37858   4.065   0.881   7.001 -0.0202 -0.4288  0.0275
 8742SOL    HW137859   4.124   0.916   6.934 -0.7372  1.8776  0.5958
 8742SOL    HW237860   4.111   0.898   7.084 -1.2016 -3.1926  1.2462
 8743SOL     OW37861   2.108   0.026   3.627 -0.5357  0.2006  0.2286
 8743SOL    HW137862   2.035   4.727   3.574  0.4337  0.0142 -0.9627
 8743SOL    HW237863   2.063   0.049   3.709  0.9936 -0.1270  1.1611
 8744SOL     OW37864   3.194   2.971   4.793  0.5684 -0.4210  0.0717
 8744SOL    HW137865   3.245   2.934   4.865  0.7434 -0.0191  0.1550
 8744SOL    HW237866   3.219   3.062   4.809  4.0065 -1.5088  0.9339
 8745SOL     OW37867   0.238   2.948   6.052  0.6898 -0.0093 -0.7462
 8745SOL    HW137868   0.172   2.886   6.083  2.1499 -1.1027  0.1653
 8745SOL    HW237869   0.243   3.010   6.125 -2.0841 -1.0531  0.3529
 8746SOL     OW37870   3.723   2.394   6.147  0.0220  0.6647  0.4453
 8746SOL    HW137871   3.684   2.311   6.121  0.3953  0.7737 -0.4583
 8746SOL    HW237872   3.686   2.409   6.234  1.6047  3.1264  0.7047
 8747SOL     OW37873   0.640   4.432   3.794  0.0669  0.2669  0.0353
 8747SOL    HW137874   0.702   4.373   3.751 -1.7025 -0.3566 -1.6215
 8747SOL    HW237875   0.661   4.511   3.745 -1.7380  0.1226 -0.9319
 8748SOL     OW37876   4.558   1.983   5.612  0.3410  0.0813 -0.7742
 8748SOL    HW137877   4.489   1.917   5.610  0.7772 -0.4343  2.0579
 8748SOL    HW237878   4.549   2.002   5.519 -0.7946  2.2752 -0.2087
 8749SOL     OW37879   2.761   2.500   7.444 -0.6440 -0.3495  0.3117
 8749SOL    HW137880   2.838   2.444   7.438 -1.5669 -1.5867 -0.1932
 8749SOL    HW237881   2.723   2.457   7.521 -3.0416 -0.3811 -0.8743
 8750SOL     OW37882   2.897   3.183  16.507 -0.0787  0.1486  0.1304
 8750SOL    HW137883   2.823   3.146  16.555 -0.4367 -0.0140 -0.5508
 8750SOL    HW237884   2.963   3.191  16.576  2.4406 -0.6625 -2.1922
 8751SOL     OW37885   3.665   2.518   0.658 -0.1608  0.6230 -0.4065
 8751SOL    HW137886   3.622   2.602   0.642 -0.3791  0.4783 -0.5917
 8751SOL    HW237887   3.667   2.523   0.754 -0.2837 -1.7347 -0.2844
 8752SOL     OW37888   4.650   3.123   8.208  0.0296  0.3740 -0.4048
 8752SOL    HW137889   4.567   3.151   8.246  0.5575 -0.0223  1.0100
 8752SOL    HW237890   4.617   3.120   8.118 -1.2062  0.9496  0.0219
 8753SOL     OW37891   1.828   4.356   5.593  0.0801 -0.2649 -0.2176
 8753SOL    HW137892   1.918   4.322   5.587  0.1232  0.4234 -3.5736
 8753SOL    HW237893   1.785   4.290   5.538  2.8011 -1.9954 -0.2809
 8754SOL     OW37894   3.208   0.519   4.072 -0.0192 -0.4686 -0.1962
 8754SOL    HW137895   3.217   0.426   4.051  0.9007 -0.7571  1.4880
 8754SOL    HW237896   3.187   0.514   4.166  2.4235 -1.7855  0.2623
 8755SOL     OW37897   3.398   2.177  17.652  0.1481 -0.4021  0.1039
 8755SOL    HW137898   3.342   2.100  17.660 -2.6502  1.7222  0.9921
 8755SOL    HW237899   3.468   2.157  17.713  0.3768 -3.4388 -1.1130
 8756SOL     OW37900   4.554   0.587   8.523 -0.0363 -0.1987  0.1447
 8756SOL    HW137901   4.483   0.528   8.550 -2.1145  2.8944  1.4301
 8756SOL    HW237902   4.630   0.529   8.517 -0.4371 -0.6796 -0.3241
 8757SOL     OW37903   0.130   3.531   2.989  0.5285  0.6114 -0.8780
 8757SOL    HW137904   0.189   3.603   2.967  1.4662 -0.6636 -2.5538
 8757SOL    HW237905   0.081   3.569   3.062  1.4448  0.5368 -0.2192
 8758SOL     OW37906   0.726   3.648   6.745 -0.1006  0.2880  0.0410
 8758SOL    HW137907   0.706   3.637   6.838 -2.5258  0.5705 -0.4504
 8758SOL    HW237908   0.646   3.696   6.722  0.4994 -0.3417 -3.3081
 8759SOL     OW37909   0.984   2.885  12.086  0.0660  0.3804  0.5638
 8759SOL    HW137910   1.073   2.919  12.095  0.6571 -1.8100  3.1737
 8759SOL    HW237911   0.940   2.949  12.030  0.0177 -0.1666 -0.0314
 8760SOL     OW37912   1.258   3.530   8.202 -0.0937  0.2212 -0.5244
 8760SOL    HW137913   1.251   3.436   8.186  2.1133  0.2056 -1.5302
 8760SOL    HW237914   1.259   3.568   8.114  0.8675 -0.8841 -0.9980
 8761SOL     OW37915   1.490   3.679   5.287  0.0666  0.0162 -0.3158
 8761SOL    HW137916   1.445   3.666   5.203 -1.6692 -1.2762  0.8206
 8761SOL    HW237917   1.420   3.694   5.351  1.2458  0.8029  0.7841
 8762SOL     OW37918   4.036   1.423  15.268  0.1895  0.1160 -0.7073
 8762SOL    HW137919   3.997   1.508  15.289 -0.3797 -0.3073 -0.0125
 8762SOL    HW237920   3.971   1.369  15.314 -0.4759 -0.0853 -1.8693
 8763SOL     OW37921   4.608   0.567   3.207  0.1678 -0.1402  0.6801
 8763SOL    HW137922   4.601   0.601   3.297 -0.2865 -0.4307  0.7536
 8763SOL    HW237923   4.543   0.629   3.173  1.0495  1.2399  1.4853
 8764SOL     OW37924   1.380   0.173   7.534 -0.1644  0.3726 -0.3518
 8764SOL    HW137925   1.344   0.084   7.526 -3.6177  1.7129  0.1241
 8764SOL    HW237926   1.352   0.197   7.446  0.1224 -3.3151 -1.4565
 8765SOL     OW37927   4.512   4.466  17.702 -0.3213  0.1043  0.1700
 8765SOL    HW137928   4.569   4.492   0.038 -1.8425  2.8268  0.4003
 8765SOL    HW237929   4.554   4.516  17.632  0.8816  0.1434  0.9255
 8766SOL     OW37930   3.847   2.512   1.447  0.3866  0.2801 -0.1353
 8766SOL    HW137931   3.935   2.479   1.426 -0.0462 -0.9093 -0.0579
 8766SOL    HW237932   3.799   2.430   1.451 -0.3985  0.7792  0.7668
 8767SOL     OW37933   2.659   2.655   2.518  0.2694  0.3236  0.3369
 8767SOL    HW137934   2.749   2.665   2.485  0.5607 -1.0362  0.7236
 8767SOL    HW237935   2.652   2.561   2.505  0.3750  0.1638  1.4182
 8768SOL     OW37936   0.864   0.250   3.960 -0.0744  0.0218 -0.4116
 8768SOL    HW137937   0.866   0.216   3.871  0.8623  0.4150 -0.5440
 8768SOL    HW237938   0.906   0.335   3.944 -1.3215  0.5065 -1.0974
 8769SOL     OW37939   3.740   0.406  11.785  0.0477 -0.1497 -0.7411
 8769SOL    HW137940   3.679   0.351  11.736 -0.9195  0.3168 -0.0749
 8769SOL    HW237941   3.699   0.424  11.870  0.5854 -0.9534 -0.3133
 8770SOL     OW37942   1.068   4.201   6.304 -0.1063  0.1708  0.6553
 8770SOL    HW137943   1.046   4.272   6.365 -0.1389 -1.3789  2.4678
 8770SOL    HW237944   1.063   4.122   6.358  0.0511  0.0976  0.5628
 8771SOL     OW37945   3.816   4.720   1.754  0.2402 -0.6402  0.1582
 8771SOL    HW137946   3.756   4.728   1.828  0.1550  1.0881 -0.1157
 8771SOL    HW237947   3.849   4.630   1.767  0.8997 -0.1803  1.6046
 8772SOL     OW37948   4.304   3.337   3.309 -0.3809  0.4056  0.2754
 8772SOL    HW137949   4.209   3.342   3.320 -0.4045  0.0642  0.2355
 8772SOL    HW237950   4.330   3.391   3.384  0.1345  0.4739  0.0452
 8773SOL     OW37951   2.531   2.042  13.161 -0.3470  0.4089  0.6492
 8773SOL    HW137952   2.471   2.074  13.094 -0.1828  0.0609  0.3355
 8773SOL    HW237953   2.478   2.054  13.239 -1.1163 -2.8829  0.6354
 8774SOL     OW37954   1.146   2.690  10.608  0.0753 -0.7722  0.2117
 8774SOL    HW137955   1.222   2.743  10.585 -0.6730  1.0037  1.8501
 8774SOL    HW237956   1.080   2.716  10.544  0.6229  0.0610 -0.0174
 8775SOL     OW37957   3.681   0.727   4.610  0.0673 -0.1637  0.2380
 8775SOL    HW137958   3.722   0.813   4.612 -0.0436 -0.1224  0.6537
 8775SOL    HW237959   3.760   0.674   4.610 -0.0433 -0.3181  1.5905
 8776SOL     OW37960   3.531   2.263   5.489 -0.1724 -0.5813 -0.2730
 8776SOL    HW137961   3.546   2.339   5.544 -0.8754  0.1329 -1.0707
 8776SOL    HW237962   3.518   2.305   5.404 -1.2373 -1.5878 -0.6058
 8777SOL     OW37963   1.025   2.738   6.781 -0.1373  0.6693 -0.7291
 8777SOL    HW137964   1.025   2.822   6.827  0.8610  0.2065  0.1193
 8777SOL    HW237965   0.987   2.689   6.854  1.0143 -2.4309 -2.1962
 8778SOL     OW37966   2.333   0.444   1.900  0.2506 -0.2521 -0.2534
 8778SOL    HW137967   2.407   0.448   1.839  1.1316 -0.4380  0.8142
 8778SOL    HW237968   2.256   0.438   1.843 -1.1349 -1.2901  1.7218
 8779SOL     OW37969   0.925   1.326   4.728  0.4344  0.3352 -0.4232
 8779SOL    HW137970   1.006   1.362   4.765  0.5524 -0.4045  0.0273
 8779SOL    HW237971   0.954   1.238   4.705 -1.7938 -0.8345  1.2895
 8780SOL     OW37972   2.853   0.114   2.543  0.2353 -0.1614  0.3253
 8780SOL    HW137973   2.833   0.208   2.541 -0.5490 -0.2767  3.1813
 8780SOL    HW237974   2.765   0.081   2.524 -0.2749  0.8289  0.9713
 8781SOL     OW37975   1.448   2.000   0.875 -0.1841  0.2750  0.3811
 8781SOL    HW137976   1.433   1.931   0.941 -1.9716  2.0800  1.8809
 8781SOL    HW237977   1.397   1.955   0.807 -0.6643 -0.2370  1.0784
 8782SOL     OW37978   3.871   2.786   5.798 -0.0557  0.3980  0.4505
 8782SOL    HW137979   3.918   2.711   5.759 -1.5433  0.2633 -1.0588
 8782SOL    HW237980   3.886   2.789   5.893 -2.6697 -0.8956  0.9161
 8783SOL     OW37981   4.060   1.258   3.276  0.2559 -0.4057  0.3732
 8783SOL    HW137982   4.084   1.180   3.225  3.9326  1.5460 -0.8860
 8783SOL    HW237983   3.976   1.228   3.311  0.6487 -0.6474  1.0940
 8784SOL     OW37984   3.495   1.636  15.529 -0.6785 -0.1099  0.4535
 8784SOL    HW137985   3.562   1.628  15.461 -0.1744 -0.9227  1.0434
 8784SOL    HW237986   3.551   1.604  15.600 -0.4865 -0.2402  0.2451
 8785SOL     OW37987   4.347   3.362  15.898  0.1446 -0.0537 -0.3819
 8785SOL    HW137988   4.439   3.356  15.924  0.1250 -1.1701 -0.5593
 8785SOL    HW237989   4.319   3.271  15.892 -0.7429  0.1186  1.1342
 8786SOL     OW37990   2.152   2.833   6.254  0.2772 -0.4633 -0.0840
 8786SOL    HW137991   2.201   2.871   6.180  2.2755  0.8379  1.9083
 8786SOL    HW237992   2.218   2.777   6.295 -1.5871 -1.1755  1.9121
 8787SOL     OW37993   3.743   3.492  10.010  0.7908  0.1230 -0.3129
 8787SOL    HW137994   3.825   3.506  10.057 -2.0021  2.9669  3.7092
 8787SOL    HW237995   3.748   3.567   9.950 -1.7164 -1.3934 -2.4091
 8788SOL     OW37996   0.510   1.672   5.097 -0.2996 -0.2030  0.0580
 8788SOL    HW137997   0.501   1.717   5.013  1.7756 -0.0569 -0.0811
 8788SOL    HW237998   0.541   1.588   5.062 -3.6083 -0.7392 -1.5659
 8789SOL     OW37999   1.815   0.384  17.366 -0.3686  0.1544  0.4600
 8789SOL    HW138000   1.838   0.414  17.454 -1.3990  2.2042  0.0337
 8789SOL    HW238001   1.803   0.292  17.391  0.7566 -0.6951 -2.1051
 8790SOL     OW38002   0.835   1.375   6.335  0.2439  0.6591  0.0326
 8790SOL    HW138003   0.780   1.298   6.324  1.3555 -0.3144  1.2563
 8790SOL    HW238004   0.858   1.376   6.428  0.9005 -1.1446 -0.1160
 8791SOL     OW38005   3.186   0.871   5.993  0.1068 -0.4658 -0.2609
 8791SOL    HW138006   3.184   0.910   5.906  0.6496 -1.7826 -0.8578
 8791SOL    HW238007   3.101   0.894   6.032 -0.0419 -0.2534 -0.7030
 8792SOL     OW38008   1.373   0.846  10.801 -0.5822 -0.0842 -0.1928
 8792SOL    HW138009   1.400   0.765  10.757 -0.0569 -0.0890  0.1348
 8792SOL    HW238010   1.413   0.914  10.746 -1.2114 -0.6565 -1.3742
 8793SOL     OW38011   0.967   1.183   9.219  0.7470  0.8609  0.0919
 8793SOL    HW138012   0.878   1.181   9.183  0.3613 -2.4091  1.1447
 8793SOL    HW238013   1.002   1.105   9.176 -0.7499  0.1295  0.1983
 8794SOL     OW38014   2.904   0.481   8.003  0.1199  0.1275 -0.4804
 8794SOL    HW138015   2.818   0.520   8.013 -0.0916 -0.4043 -0.2182
 8794SOL    HW238016   2.941   0.522   7.924 -0.4501  0.0484 -0.7853
 8795SOL     OW38017   3.400   2.307   6.805  0.0934 -0.1080 -0.4493
 8795SOL    HW138018   3.423   2.218   6.775  1.1007 -0.0347  0.1074
 8795SOL    HW238019   3.333   2.289   6.871 -1.0291  3.0052 -0.7784
 8796SOL     OW38020   0.211   1.650  13.564 -0.0367 -0.0609 -0.1532
 8796SOL    HW138021   0.166   1.727  13.529 -1.5052 -0.0595  1.7555
 8796SOL    HW238022   0.179   1.575  13.515  2.0080 -1.0642  0.0298
 8797SOL     OW38023   2.308   1.793   1.562  0.2346 -0.1484  0.5376
 8797SOL    HW138024   2.228   1.783   1.615  0.1998  0.2105  0.5563
 8797SOL    HW238025   2.282   1.846   1.487 -0.0566  0.2457  0.9198
 8798SOL     OW38026   1.548   2.434   2.367 -0.2743  0.3705  0.0752
 8798SOL    HW138027   1.484   2.500   2.343  0.1637  0.1517 -1.7012
 8798SOL    HW238028   1.496   2.367   2.411  0.1927 -0.9787 -1.4236
 8799SOL     OW38029   1.668   0.730   5.557  0.4703  0.6428  0.6243
 8799SOL    HW138030   1.751   0.690   5.532  0.3739  0.5607  0.4329
 8799SOL    HW238031   1.698   0.818   5.577  2.8922 -0.4445  1.8201
 8800SOL     OW38032   2.215   2.954   5.079 -0.4265  0.0804 -0.9697
 8800SOL    HW138033   2.141   2.922   5.027 -1.6799 -1.5826  1.8477
 8800SOL    HW238034   2.165   2.973   5.159 -2.1667  0.6831 -2.1958
 8801SOL     OW38035   0.505   0.087  15.904  0.2430  0.2039  0.0865
 8801SOL    HW138036   0.581   0.077  15.960 -0.6317 -1.3938  0.9849
 8801SOL    HW238037   0.427   0.106  15.956  0.8039 -0.7058  1.2531
 8802SOL     OW38038   4.427   4.640   9.854  0.2415 -0.2020  0.3111
 8802SOL    HW138039   4.411   4.574   9.786  1.3178 -0.9070  0.7451
 8802SOL    HW238040   4.518   4.654   9.828 -0.2741 -0.1708 -1.4990
 8803SOL     OW38041   2.468   3.039  16.734  0.2068  0.1981  0.0735
 8803SOL    HW138042   2.389   3.079  16.770 -0.6898  0.4857 -2.2024
 8803SOL    HW238043   2.513   3.004  16.811  0.2936  0.3425  0.0883
 8804SOL     OW38044   4.631   3.117   4.673 -0.0266 -0.3992  0.4911
 8804SOL    HW138045   4.713   3.164   4.691 -0.8783  0.9664  0.8015
 8804SOL    HW238046   4.569   3.172   4.720  0.0188 -1.1314  1.4131
 8805SOL     OW38047   1.681   4.406   5.840 -0.0144 -0.8561 -0.1578
 8805SOL    HW138048   1.741   4.406   5.765  0.9441 -2.0855  0.6261
 8805SOL    HW238049   1.625   4.329   5.827  0.1475 -1.2024  1.2077
 8806SOL     OW38050   0.945   4.651  15.014  0.2410 -0.0386 -0.0967
 8806SOL    HW138051   1.038   4.665  14.993  0.8000 -0.4538  2.1245
 8806SOL    HW238052   0.920   0.009  15.017  2.6154  0.5742  0.9199
 8807SOL     OW38053   3.955   3.416  12.914  0.1520 -0.7014 -0.0192
 8807SOL    HW138054   3.893   3.373  12.856  0.7962 -1.4567 -0.1444
 8807SOL    HW238055   3.923   3.383  12.998 -1.2687 -2.1521 -1.1366
 8808SOL     OW38056   1.321   3.185   1.269 -0.3988  0.3025 -0.0874
 8808SOL    HW138057   1.390   3.216   1.328 -0.3600 -0.1386  0.0949
 8808SOL    HW238058   1.342   3.094   1.248  0.2083  0.3407  0.3488
 8809SOL     OW38059   0.574   0.681  12.483  0.0647  0.2223 -0.2822
 8809SOL    HW138060   0.650   0.661  12.539 -0.5835  0.9319  0.8529
 8809SOL    HW238061   0.545   0.765  12.519 -2.2700 -0.6892 -0.0982
 8810SOL     OW38062   1.875   3.703  16.997 -0.2810  0.1264  0.5481
 8810SOL    HW138063   1.793   3.668  16.963 -0.1896 -0.2669  0.7340
 8810SOL    HW238064   1.876   3.794  16.967 -0.5162 -0.2615 -0.6395
 8811SOL     OW38065   3.774   3.362   1.898 -0.5289  0.0361 -0.2781
 8811SOL    HW138066   3.794   3.438   1.843 -1.2832  1.4141  1.3566
 8811SOL    HW238067   3.700   3.319   1.854  0.0210 -2.2477  1.0369
 8812SOL     OW38068   3.367   2.693   6.914  0.6792 -0.1958 -0.3523
 8812SOL    HW138069   3.410   2.619   6.958 -0.6526 -1.4859 -1.2227
 8812SOL    HW238070   3.419   2.765   6.950  1.0556 -0.7346  0.1898
 8813SOL     OW38071   0.575   4.572   6.244 -0.3090  0.1000 -0.2078
 8813SOL    HW138072   0.585   4.638   6.314 -0.2648 -2.6905  2.4192
 8813SOL    HW238073   0.486   4.539   6.254  0.0571 -0.3119  1.6896
 8814SOL     OW38074   1.926   2.582   6.437 -0.4117  0.1221  0.2907
 8814SOL    HW138075   1.922   2.630   6.354  1.0421  1.0315  0.7363
 8814SOL    HW238076   1.840   2.603   6.473 -1.7399 -1.1253 -2.1444
 8815SOL     OW38077   2.987   0.991  13.370  0.2954 -0.1215  0.1790
 8815SOL    HW138078   2.897   1.000  13.400 -0.1567  0.1464 -1.2736
 8815SOL    HW238079   2.981   0.913  13.315  2.8351  1.4322 -2.3034
 8816SOL     OW38080   1.285   2.590   4.033  0.0463  0.2258  0.8636
 8816SOL    HW138081   1.283   2.565   3.941  0.5118  0.7598  0.7090
 8816SOL    HW238082   1.377   2.615   4.034  0.5695 -1.6914  0.7800
 8817SOL     OW38083   1.053   1.353   5.768  0.5295 -0.1658  0.1319
 8817SOL    HW138084   0.959   1.373   5.762  0.5471 -0.2197 -0.2879
 8817SOL    HW238085   1.053   1.258   5.765 -1.2266 -0.2341  1.9589
 8818SOL     OW38086   2.034   0.473  12.537 -0.0738 -0.3105 -0.3723
 8818SOL    HW138087   2.096   0.509  12.600 -2.9118 -1.9562  3.3491
 8818SOL    HW238088   1.994   0.411  12.597  1.5422 -1.1634 -0.1920
 8819SOL     OW38089   1.098   0.472   3.276 -0.3861 -0.3780 -0.3228
 8819SOL    HW138090   1.008   0.472   3.310 -0.9460 -0.4126 -1.8107
 8819SOL    HW238091   1.088   0.559   3.238  0.8317  0.7549  1.9054
 8820SOL     OW38092   2.307   2.043   2.714  0.1837  0.3430 -0.1042
 8820SOL    HW138093   2.228   2.061   2.664 -0.5196 -0.9429  0.5662
 8820SOL    HW238094   2.277   2.074   2.799  1.3178 -1.8508  1.0994
 8821SOL     OW38095   1.041   2.641   8.379  0.1020  0.0289  0.2738
 8821SOL    HW138096   1.076   2.727   8.404 -0.2905  0.3833 -0.3936
 8821SOL    HW238097   0.964   2.638   8.436 -0.2833 -0.0707 -0.2628
 8822SOL     OW38098   2.943   4.629   1.110 -0.1809  0.0498  0.1826
 8822SOL    HW138099   2.880   4.561   1.136  0.8988 -0.3248  1.8419
 8822SOL    HW238100   2.938   4.629   1.015 -0.9770  2.0934  0.2318
 8823SOL     OW38101   0.370   2.458   3.032 -0.1318 -0.1307  0.2543
 8823SOL    HW138102   0.460   2.457   3.000 -0.0058 -0.7078  0.6207
 8823SOL    HW238103   0.321   2.407   2.967  0.9993  1.9741 -2.2250
 8824SOL     OW38104   3.297   0.669   6.470 -0.2029 -0.7571 -0.0720
 8824SOL    HW138105   3.286   0.660   6.565  0.5273  0.8628  0.1704
 8824SOL    HW238106   3.266   0.757   6.449 -0.4753 -0.7005  0.5702
 8825SOL     OW38107   0.360   4.318   6.120 -0.4909  0.4922  0.6320
 8825SOL    HW138108   0.329   4.405   6.094 -2.0968  0.9464  4.0485
 8825SOL    HW238109   0.272   4.282   6.135 -0.8868  0.5609 -1.4989
 8826SOL     OW38110   3.977   0.199   3.293 -0.2712 -0.4606 -0.4636
 8826SOL    HW138111   4.029   0.166   3.366 -1.5770  0.5933  0.9202
 8826SOL    HW238112   3.999   0.291   3.307  0.1779 -0.2785 -2.3469
 8827SOL     OW38113   4.012   4.360  16.573  0.0071 -0.2696 -0.5059
 8827SOL    HW138114   4.101   4.388  16.550 -0.1680 -0.2609 -1.1691
 8827SOL    HW238115   3.993   4.415  16.650  0.1317  0.3944 -0.9507
 8828SOL     OW38116   2.347   4.691   6.172  0.0617  0.4518 -0.7081
 8828SOL    HW138117   2.421   4.731   6.217 -0.5208  1.9855 -1.1223
 8828SOL    HW238118   2.299   4.669   6.252  0.2109  2.1579 -0.1503
 8829SOL     OW38119   2.063   2.595   6.666  0.2199 -0.0328  0.3049
 8829SOL    HW138120   2.003   2.660   6.705  0.2871 -0.4355  1.0835
 8829SOL    HW238121   2.014   2.585   6.584  3.6935  2.5766 -2.0506
 8830SOL     OW38122   4.446   1.032   2.990  0.0633  0.1307  0.0189
 8830SOL    HW138123   4.474   0.993   2.908 -2.2146 -0.9610 -0.2373
 8830SOL    HW238124   4.461   1.124   2.967 -1.8222  0.8688  1.7113
 8831SOL     OW38125   0.383   3.612   3.895 -0.3903 -0.0865  0.0694
 8831SOL    HW138126   0.431   3.535   3.865 -2.7318 -1.7498  0.6241
 8831SOL    HW238127   0.327   3.573   3.962  1.2479  0.2185  1.6089
 8832SOL     OW38128   1.515   0.749   5.798  0.0297  0.1287 -0.1204
 8832SOL    HW138129   1.492   0.840   5.776  0.1610  0.7952  2.4021
 8832SOL    HW238130   1.609   0.756   5.783  0.0560  0.3632  0.1332
 8833SOL     OW38131   1.292   2.013   4.751 -0.0591  0.0422  0.0104
 8833SOL    HW138132   1.208   1.974   4.727 -0.2271  1.1889 -1.2697
 8833SOL    HW238133   1.355   1.941   4.761  0.5450  0.5455 -0.1482
 8834SOL     OW38134   0.420   4.348   4.737  0.0246  0.0083 -0.2377
 8834SOL    HW138135   0.403   4.384   4.824 -0.2835 -0.2211 -0.2037
 8834SOL    HW238136   0.514   4.367   4.727 -0.0913  0.3722 -0.6438
 8835SOL     OW38137   3.325   4.699  14.901 -0.5056 -0.0574  0.1430
 8835SOL    HW138138   3.361   4.611  14.893 -2.8163 -1.0740  1.0122
 8835SOL    HW238139   3.313   4.726  14.810  1.9412  1.4362  0.2538
 8836SOL     OW38140   1.933   2.515  11.259  0.3862  0.6563  0.4794
 8836SOL    HW138141   1.953   2.502  11.351 -0.7845 -1.3033  0.4518
 8836SOL    HW238142   1.990   2.452  11.216  0.0701  0.9015 -0.3106
 8837SOL     OW38143   1.052   1.860  13.721  0.4819 -0.2642  0.1495
 8837SOL    HW138144   1.002   1.852  13.802 -1.1998 -0.2442 -0.8861
 8837SOL    HW238145   1.118   1.928  13.736  2.8709 -2.2945 -1.1244
 8838SOL     OW38146   2.478   1.296   6.571  0.1229 -0.1451 -0.3196
 8838SOL    HW138147   2.524   1.238   6.632 -0.7884  0.0062  0.5139
 8838SOL    HW238148   2.389   1.259   6.572  0.4736 -1.0404 -1.5461
 8839SOL     OW38149   1.259   1.059   4.474 -0.3259 -0.4839  0.9258
 8839SOL    HW138150   1.191   1.036   4.538 -0.3277  0.0011  1.0984
 8839SOL    HW238151   1.335   1.042   4.529 -1.3882  0.8519  2.7811
 8840SOL     OW38152   0.139   1.163   1.165  0.6622  0.4736 -0.4203
 8840SOL    HW138153   0.189   1.153   1.246  3.2444  0.9889 -1.9449
 8840SOL    HW238154   0.085   1.084   1.161  1.7246 -0.3194  0.9294
 8841SOL     OW38155   1.941   3.513  13.080 -0.2939  0.4269  0.0386
 8841SOL    HW138156   1.953   3.479  12.992 -0.9009  0.9964 -0.2656
 8841SOL    HW238157   1.943   3.609  13.070 -0.1622  0.6205  1.8736
 8842SOL     OW38158   3.506   0.063   8.911  0.0581 -0.7174 -0.2374
 8842SOL    HW138159   3.527   0.059   8.818 -0.1481 -0.0499 -0.3124
 8842SOL    HW238160   3.539   4.715   8.948 -0.3771 -1.6810 -2.0101
 8843SOL     OW38161   0.685   4.407   4.338  0.3554 -0.7087 -0.0551
 8843SOL    HW138162   0.753   4.461   4.379  0.4963 -0.1781 -0.9909
 8843SOL    HW238163   0.692   4.440   4.249 -0.9326 -0.8172 -0.1951
 8844SOL     OW38164   2.841   1.710   1.056  0.1239 -0.1157 -0.0216
 8844SOL    HW138165   2.793   1.731   1.136  1.1053  1.4842  0.1436
 8844SOL    HW238166   2.923   1.753   1.078 -0.6172  1.1510  0.2490
 8845SOL     OW38167   2.537   4.492   5.587 -0.8018 -0.2633  0.4137
 8845SOL    HW138168   2.598   4.456   5.652  0.3928 -1.7348 -1.5406
 8845SOL    HW238169   2.468   4.426   5.587 -0.4340 -0.6551  0.5723
 8846SOL     OW38170   3.089   4.461  12.486 -0.4000  0.6384  0.1909
 8846SOL    HW138171   3.033   4.539  12.478 -0.9607  0.2883  0.6982
 8846SOL    HW238172   3.133   4.479  12.569 -0.5536  1.0030  0.1939
 8847SOL     OW38173   2.656   0.311   0.445  0.1096 -0.1598  0.2933
 8847SOL    HW138174   2.741   0.312   0.489 -0.6329 -1.4494  1.7588
 8847SOL    HW238175   2.647   0.405   0.430 -2.7751 -0.6184 -0.9652
 8848SOL     OW38176   2.061   0.174  10.005  0.3089  0.2999  0.8286
 8848SOL    HW138177   2.050   0.128  10.088 -1.8147  0.3176  0.5660
 8848SOL    HW238178   2.089   0.103   9.947 -0.3617 -0.5241  1.5186
 8849SOL     OW38179   3.018   4.150   3.776  0.5211 -0.2668 -0.5365
 8849SOL    HW138180   3.094   4.094   3.760  0.4632 -0.2030 -1.0315
 8849SOL    HW238181   2.996   4.185   3.690 -1.2661  0.7344  0.3295
 8850SOL     OW38182   1.943   1.599  17.302 -0.0906  0.1420  0.0713
 8850SOL    HW138183   1.900   1.565  17.224  0.9941  1.3274 -1.0526
 8850SOL    HW238184   1.944   1.525  17.363  0.8065 -0.0255 -0.1381
 8851SOL     OW38185   2.791   2.177   4.908 -0.7298 -0.3881  0.1598
 8851SOL    HW138186   2.805   2.268   4.880  0.5854 -0.1991  1.3788
 8851SOL    HW238187   2.857   2.164   4.976 -1.9581  1.1049  1.6553
 8852SOL     OW38188   2.069   3.839   4.532  0.0877 -0.1148 -0.4901
 8852SOL    HW138189   2.059   3.934   4.533  2.1340  0.0702  1.7834
 8852SOL    HW238190   2.156   3.836   4.572 -0.6631  0.5560  1.1834
 8853SOL     OW38191   2.489   3.995   6.939  0.8275  0.7275 -0.2641
 8853SOL    HW138192   2.504   3.966   6.849 -1.5528 -0.4959 -0.2747
 8853SOL    HW238193   2.548   3.931   6.979  0.7294  0.3908 -0.6514
 8854SOL     OW38194   3.635   3.510  16.836  0.2173  0.3307 -0.4789
 8854SOL    HW138195   3.701   3.445  16.860  1.0149  1.2489 -0.2268
 8854SOL    HW238196   3.689   3.584  16.809  0.3337 -0.0522 -1.2818
 8855SOL     OW38197   1.910   2.139   7.324 -0.5839 -0.0334  0.6398
 8855SOL    HW138198   1.956   2.096   7.396 -1.2154 -1.2440  0.3208
 8855SOL    HW238199   1.820   2.134   7.357 -1.0370  2.6503 -0.2181
 8856SOL     OW38200   3.393   4.465  17.446  0.5247 -0.1620 -0.3707
 8856SOL    HW138201   3.343   4.394  17.487 -0.1197 -1.0633 -2.7208
 8856SOL    HW238202   3.435   4.479  17.531  1.5739 -3.1836 -0.3703
 8857SOL     OW38203   0.460   2.834   5.919  0.4010  0.0226 -0.0276
 8857SOL    HW138204   0.514   2.904   5.881 -0.9821 -0.0642 -2.1209
 8857SOL    HW238205   0.398   2.891   5.964  0.6573  0.5174 -0.3042
 8858SOL     OW38206   0.756   2.550   5.932  0.2347  0.0498 -0.9522
 8858SOL    HW138207   0.759   2.601   5.850  0.7889 -2.3946 -2.4516
 8858SOL    HW238208   0.776   2.462   5.901  0.9895  0.2350 -1.0000
 8859SOL     OW38209   1.182   4.137   3.319  0.2934 -0.0225  0.2210
 8859SOL    HW138210   1.236   4.067   3.356 -1.0535  2.0213  6.0851
 8859SOL    HW238211   1.094   4.100   3.311 -0.1427  0.8543  1.0696
 8860SOL     OW38212   4.194   3.914  14.208 -0.2927  0.3777  0.2238
 8860SOL    HW138213   4.151   3.944  14.288  0.0877 -0.4285  0.7271
 8860SOL    HW238214   4.263   3.855  14.238 -1.7128 -1.3153  0.1667
 8861SOL     OW38215   3.451   2.816   4.531 -0.5264  0.7135 -0.8450
 8861SOL    HW138216   3.534   2.837   4.487 -0.2261 -0.6034 -0.9231
 8861SOL    HW238217   3.430   2.735   4.483 -4.8768  0.7744  0.9601
 8862SOL     OW38218   3.989   3.194  11.586  0.0902  0.2434  0.5364
 8862SOL    HW138219   3.985   3.103  11.617  0.7704 -0.7520 -2.2517
 8862SOL    HW238220   3.963   3.244  11.663 -1.3259  0.8402 -0.3171
 8863SOL     OW38221   1.961   3.716   4.099 -0.7205  0.1536  0.0102
 8863SOL    HW138222   2.051   3.729   4.129 -0.4757 -0.3105 -0.5221
 8863SOL    HW238223   1.978   3.654   4.028  0.8926  0.1104  0.4223
 8864SOL     OW38224   2.723   2.505   9.041  0.6100 -0.1371 -0.6490
 8864SOL    HW138225   2.755   2.594   9.028 -1.9859  1.0035  0.6198
 8864SOL    HW238226   2.636   2.526   9.075  0.6714 -0.5309 -0.2551
 8865SOL     OW38227   3.514   3.344   3.241 -0.0215  0.3685  0.0354
 8865SOL    HW138228   3.419   3.354   3.248 -0.0798  0.8674 -1.5909
 8865SOL    HW238229   3.519   3.268   3.299  0.3206  0.9504  0.7731
 8866SOL     OW38230   2.656   1.928  10.727  0.0909 -0.1841 -0.7459
 8866SOL    HW138231   2.728   1.926  10.664  1.1923 -0.2932  0.5197
 8866SOL    HW238232   2.706   1.931  10.809 -2.1242  1.1649  0.5346
 8867SOL     OW38233   4.491   4.627   9.376 -0.0373  0.3721  0.0435
 8867SOL    HW138234   4.479   4.535   9.398 -1.3681 -0.1819 -3.0085
 8867SOL    HW238235   4.553   4.651   9.445  1.2637 -0.7624 -0.7502
 8868SOL     OW38236   0.675   2.018   9.334 -0.2563  0.3767  0.1856
 8868SOL    HW138237   0.715   1.936   9.305  1.0240  0.9912  0.1956
 8868SOL    HW238238   0.589   2.031   9.294  0.6077 -2.4858 -2.5676
 8869SOL     OW38239   3.010   1.979   8.836 -0.0032 -0.7490  0.3752
 8869SOL    HW138240   3.038   1.943   8.920 -0.6240 -0.8647  0.5324
 8869SOL    HW238241   2.924   2.015   8.857  0.9978  1.2659  1.0869
 8870SOL     OW38242   2.448   3.707   6.299  0.1823 -0.0485 -0.0175
 8870SOL    HW138243   2.486   3.791   6.273  0.4486 -0.1061  0.1875
 8870SOL    HW238244   2.385   3.731   6.366 -1.7777  0.5430 -2.0679
 8871SOL     OW38245   2.889   4.420   4.516  0.2245 -0.1548 -0.2811
 8871SOL    HW138246   2.902   4.420   4.611  1.2235 -0.0529 -0.4153
 8871SOL    HW238247   2.979   4.427   4.484  0.6033  0.9020  1.0334
 8872SOL     OW38248   1.548   0.584   3.844 -0.1245  0.4520  0.4177
 8872SOL    HW138249   1.600   0.544   3.914  1.7192 -0.4650 -1.4593
 8872SOL    HW238250   1.603   0.659   3.821 -1.3690  0.8502 -1.2448
 8873SOL     OW38251   1.177   0.997   1.173  0.7439  0.0923 -0.4641
 8873SOL    HW138252   1.144   1.021   1.260  0.2805 -0.1304 -0.5783
 8873SOL    HW238253   1.255   1.052   1.174 -0.3598  1.6704 -0.1889
 8874SOL     OW38254   4.321   4.670   8.225  0.1692  0.1285  0.8905
 8874SOL    HW138255   4.231   4.645   8.246 -0.0066  1.1642  1.3520
 8874SOL    HW238256   4.347   4.613   8.152  1.1413  2.6355 -0.7049
 8875SOL     OW38257   2.801   1.647   8.883 -1.1197  0.0009 -0.1368
 8875SOL    HW138258   2.715   1.637   8.844  0.0046  0.5665 -2.7295
 8875SOL    HW238259   2.806   1.742   8.877 -1.4260  0.1282  1.5948
 8876SOL     OW38260   2.647   4.214  15.903  0.1788 -0.2619 -0.0591
 8876SOL    HW138261   2.622   4.292  15.953 -1.2565 -2.2193  2.2749
 8876SOL    HW238262   2.586   4.148  15.936 -0.5311  0.7066  0.5855
 8877SOL     OW38263   1.108   3.848   6.978 -0.2103  0.1495 -0.4364
 8877SOL    HW138264   1.061   3.777   7.023  1.8921 -0.3010  1.0510
 8877SOL    HW238265   1.049   3.874   6.907 -0.3025 -0.9748 -0.7871
 8878SOL     OW38266   2.334   4.407   8.834  0.1487 -0.3317  0.1866
 8878SOL    HW138267   2.388   4.391   8.757  0.1296 -1.4543  0.3969
 8878SOL    HW238268   2.318   4.315   8.855  0.1402 -0.2769  0.4300
 8879SOL     OW38269   3.398   1.566  16.717 -0.1261 -0.1010 -0.0015
 8879SOL    HW138270   3.419   1.539  16.806 -1.3986 -0.5594  0.1641
 8879SOL    HW238271   3.302   1.567  16.722 -0.0548  1.8663  1.2607
 8880SOL     OW38272   2.588   4.107   1.241 -0.0813  0.0634 -0.6557
 8880SOL    HW138273   2.613   4.056   1.318 -0.5454  1.2830  0.3214
 8880SOL    HW238274   2.584   4.195   1.279  1.8962 -1.0237  2.0465
 8881SOL     OW38275   0.512   1.384   6.933  0.1503  0.2230 -0.3369
 8881SOL    HW138276   0.430   1.385   6.982  0.0061  0.2108 -0.5823
 8881SOL    HW238277   0.514   1.471   6.892  1.4047  1.4432  2.3186
 8882SOL     OW38278   3.677   3.901   1.521 -0.1400  0.1275  0.1434
 8882SOL    HW138279   3.584   3.897   1.498 -0.2940  1.7537  0.4623
 8882SOL    HW238280   3.669   3.893   1.616  2.2441  2.1824  0.5322
 8883SOL     OW38281   4.511   3.114  10.992  0.6967 -0.3134  0.4077
 8883SOL    HW138282   4.521   3.104  11.086 -1.2449 -0.4962  0.6047
 8883SOL    HW238283   4.434   3.170  10.985  0.8182 -0.0185  1.5273
 8884SOL     OW38284   2.016   4.437  13.625 -0.5360 -0.2955  0.5593
 8884SOL    HW138285   2.105   4.416  13.598 -0.5487 -3.1900  2.8035
 8884SOL    HW238286   1.993   4.359  13.675 -1.8666 -1.9016 -2.5848
 8885SOL     OW38287   0.856   3.676  11.194  0.0037 -0.2697 -0.3477
 8885SOL    HW138288   0.940   3.681  11.149 -1.2979  0.0264 -2.7466
 8885SOL    HW238289   0.891   3.697  11.281 -1.2228 -3.0030  0.7921
 8886SOL     OW38290   3.116   3.598   8.784 -0.4274  0.9354  0.1715
 8886SOL    HW138291   3.095   3.594   8.691  2.3232 -4.1130 -0.2577
 8886SOL    HW238292   3.099   3.505   8.800 -0.9705  0.6616 -2.0599
 8887SOL     OW38293   4.293   3.307   7.528  0.7052  0.6820  0.0958
 8887SOL    HW138294   4.311   3.401   7.524  1.5022  0.5418  0.3176
 8887SOL    HW238295   4.368   3.277   7.476  1.5500  0.2761  1.5660
 8888SOL     OW38296   4.500   4.155  13.960  0.0424  0.7072  0.1192
 8888SOL    HW138297   4.469   4.166  13.870 -0.8725 -4.2345 -0.1828
 8888SOL    HW238298   4.547   4.073  13.945 -1.2696 -0.1855  0.8425
 8889SOL     OW38299   2.580   1.143  10.855  0.4791 -0.6020  0.5684
 8889SOL    HW138300   2.612   1.187  10.776 -2.2723 -0.6437 -0.5387
 8889SOL    HW238301   2.661   1.108  10.892  0.7861  0.6291  1.0636
 8890SOL     OW38302   3.991   1.661   2.839 -0.5277 -0.4309  0.3997
 8890SOL    HW138303   4.060   1.598   2.857 -0.3654 -0.2192  0.5219
 8890SOL    HW238304   3.913   1.627   2.883 -0.2338 -2.2233 -0.4977
 8891SOL     OW38305   3.542   0.469   8.054  0.3440  0.1520 -0.0670
 8891SOL    HW138306   3.467   0.496   8.000  1.0500 -0.7240 -1.4806
 8891SOL    HW238307   3.598   0.546   8.042  2.2021 -0.9607  1.6620
 8892SOL     OW38308   2.459   1.143   2.059  0.0979  0.1692 -0.1269
 8892SOL    HW138309   2.383   1.198   2.038 -0.4107 -2.0319 -4.0162
 8892SOL    HW238310   2.432   1.051   2.059  1.7410 -0.3023 -0.2892
 8893SOL     OW38311   3.586   1.418  14.382 -0.4875 -0.1885 -0.2992
 8893SOL    HW138312   3.621   1.407  14.294 -0.3275  0.2599 -0.2940
 8893SOL    HW238313   3.501   1.459  14.367 -1.2316 -1.2976  0.8998
 8894SOL     OW38314   3.078   4.087  15.386  0.3414  0.2577 -0.5262
 8894SOL    HW138315   3.125   4.170  15.385  1.3209 -0.2752  0.8071
 8894SOL    HW238316   2.988   4.106  15.414  0.7089 -1.4738  1.8494
 8895SOL     OW38317   4.321   0.451   0.235 -0.4169  0.2964 -0.6187
 8895SOL    HW138318   4.374   0.464   0.157 -0.4146 -1.6315 -0.9363
 8895SOL    HW238319   4.234   0.474   0.202 -0.4469  0.3232 -0.5206
 8896SOL     OW38320   2.475   0.469  15.499 -0.3789  0.5476  0.0720
 8896SOL    HW138321   2.501   0.383  15.466  0.8739  0.7519  0.5194
 8896SOL    HW238322   2.401   0.485  15.440 -0.3609  0.8537  0.1321
 8897SOL     OW38323   4.552   4.646   8.646  0.2620 -0.2377 -0.0098
 8897SOL    HW138324   4.529   4.590   8.572 -0.3721 -0.7899  0.5996
 8897SOL    HW238325   4.468   4.649   8.692 -0.4203 -2.5026 -1.1371
 8898SOL     OW38326   1.322   1.801   6.791 -0.4461 -0.2751 -0.3076
 8898SOL    HW138327   1.340   1.878   6.844 -0.4257  0.7007 -1.7345
 8898SOL    HW238328   1.297   1.832   6.704  0.7565  0.8275 -0.2605
 8899SOL     OW38329   1.652   2.222   2.006  0.4584 -0.1062  0.3268
 8899SOL    HW138330   1.597   2.177   2.070  0.1147  1.2661  1.0076
 8899SOL    HW238331   1.699   2.287   2.058 -0.4096  0.7618  0.0252
 8900SOL     OW38332   3.137   2.344   3.056 -0.1981 -0.1088  0.1472
 8900SOL    HW138333   3.043   2.356   3.073 -1.2116 -0.8716 -5.0019
 8900SOL    HW238334   3.177   2.367   3.140 -0.9801 -0.1335  0.5239
 8901SOL     OW38335   3.777   1.006  15.820  0.3251  0.0113  0.1369
 8901SOL    HW138336   3.866   1.014  15.855 -0.0591 -0.5709  1.2242
 8901SOL    HW238337   3.793   0.936  15.758 -0.9432 -0.3437  0.2136
 8902SOL     OW38338   2.251   0.799  11.652  0.3606  0.1699 -0.0696
 8902SOL    HW138339   2.200   0.719  11.649  1.2340 -0.3381 -1.7902
 8902SOL    HW238340   2.292   0.784  11.737 -2.0529 -0.8161  0.8898
 8903SOL     OW38341   0.593   3.287   6.163  0.0593  0.2355 -0.4209
 8903SOL    HW138342   0.608   3.194   6.149 -0.9950  0.0049  0.0430
 8903SOL    HW238343   0.500   3.288   6.183 -0.0094  0.3373 -0.7355
 8904SOL     OW38344   0.613   0.042  13.846 -0.4325 -0.3316  0.9269
 8904SOL    HW138345   0.537   4.724  13.820  0.0350  0.4518 -2.0176
 8904SOL    HW238346   0.599   0.103  13.774 -3.0576  1.5005  3.0022
 8905SOL     OW38347   2.926   2.458   9.478 -0.0520 -0.7430  0.2788
 8905SOL    HW138348   2.875   2.385   9.443  0.0846 -1.3784  1.4051
 8905SOL    HW238349   2.865   2.528   9.452 -0.3698 -1.2913 -0.4365
 8906SOL     OW38350   1.032   0.334  12.987  0.0862 -0.3212 -0.1942
 8906SOL    HW138351   1.071   0.415  13.017  2.0136 -1.5176  0.5415
 8906SOL    HW238352   1.035   0.354  12.894  1.4558  2.8350  0.5675
 8907SOL     OW38353   2.829   2.941   6.762  0.0198  0.4001 -0.4439
 8907SOL    HW138354   2.840   3.016   6.821 -1.3222  0.0079  0.3064
 8907SOL    HW238355   2.812   2.989   6.682  1.7481 -2.0225 -2.2558
 8908SOL     OW38356   3.677   3.907   7.781 -0.3721 -0.3260  0.1928
 8908SOL    HW138357   3.712   3.961   7.710 -0.6162 -0.0277  0.3000
 8908SOL    HW238358   3.755   3.854   7.800  1.1777  1.5876 -0.8447
 8909SOL     OW38359   3.156   0.277  17.322 -0.0906 -0.0928  0.1293
 8909SOL    HW138360   3.096   0.208  17.295  0.1165 -0.4306  0.5343
 8909SOL    HW238361   3.097   0.347  17.350  0.0185  0.1681 -0.2939
 8910SOL     OW38362   1.971   4.674   3.121  0.2201  0.2917  0.3349
 8910SOL    HW138363   1.939   0.016   3.168 -1.0799  0.2075 -0.4061
 8910SOL    HW238364   1.954   4.707   3.033 -0.7525  0.6146  0.6529
 8911SOL     OW38365   3.527   1.990   1.712  0.3449 -0.3600 -0.2019
 8911SOL    HW138366   3.553   2.004   1.621 -1.2744  1.0867 -0.4342
 8911SOL    HW238367   3.594   2.041   1.758 -0.8821 -0.5131  1.7284
 8912SOL     OW38368   0.399   1.469   4.176  0.4141 -0.1636  0.2486
 8912SOL    HW138369   0.462   1.397   4.182 -1.2115 -1.6013  0.2837
 8912SOL    HW238370   0.358   1.462   4.090  2.1234  0.2673 -0.6017
 8913SOL     OW38371   4.571   3.651   1.853 -0.3732 -0.2272 -0.1351
 8913SOL    HW138372   4.625   3.642   1.932  0.7352 -1.2780 -0.9986
 8913SOL    HW238373   4.605   3.575   1.806  0.6286  1.7278 -2.5248
 8914SOL     OW38374   2.441   0.797   3.738 -0.2922 -0.3975  0.1532
 8914SOL    HW138375   2.385   0.769   3.665 -1.1784 -2.2842  1.5410
 8914SOL    HW238376   2.459   0.889   3.719 -0.3984 -1.0499 -3.1415
 8915SOL     OW38377   2.914   2.270   7.350 -0.0513 -0.5486 -0.1797
 8915SOL    HW138378   2.976   2.220   7.296  1.0569 -1.0089  1.5052
 8915SOL    HW238379   2.930   2.249   7.442  0.3813  0.4354 -0.0345
 8916SOL     OW38380   4.110   0.576  16.076 -0.0088  0.0109 -0.3563
 8916SOL    HW138381   4.130   0.538  16.161 -1.1802 -1.5196 -0.7702
 8916SOL    HW238382   4.116   0.502  16.016  2.9949 -0.7274  0.8547
 8917SOL     OW38383   4.080   1.892   2.966 -0.4401  0.0230 -0.1707
 8917SOL    HW138384   4.048   1.824   2.907 -0.8400 -0.5430  0.7114
 8917SOL    HW238385   4.175   1.879   2.957  0.1154  2.4888  1.9391
 8918SOL     OW38386   0.329   2.612   4.166 -0.2717  0.0282  0.0167
 8918SOL    HW138387   0.248   2.626   4.216  0.1770  1.0865  0.4422
 8918SOL    HW238388   0.394   2.664   4.213  0.7027 -0.6235 -0.6056
 8919SOL     OW38389   4.673   2.981   5.983  0.0314 -0.3683 -0.1549
 8919SOL    HW138390   4.628   3.062   6.009  0.3142 -0.5087  0.7711
 8919SOL    HW238391   4.654   2.923   6.056 -3.3077  2.7571  1.4956
 8920SOL     OW38392   1.818   1.939  13.252  0.6294  0.2013 -0.2767
 8920SOL    HW138393   1.892   1.962  13.197  2.1052 -1.4080  1.0589
 8920SOL    HW238394   1.745   1.956  13.193  0.6837  2.4411  0.2892
 8921SOL     OW38395   1.004   2.751  10.394 -0.1031  0.3146  0.1103
 8921SOL    HW138396   0.933   2.815  10.387  0.5738  1.0891  0.2354
 8921SOL    HW238397   0.969   2.667  10.363  3.2002 -1.0982  0.1541
 8922SOL     OW38398   3.960   2.965   6.036 -0.3967 -0.0628  0.1063
 8922SOL    HW138399   3.959   2.892   6.098 -0.4820  1.3750  1.8014
 8922SOL    HW238400   3.867   2.987   6.033 -0.7332 -1.3212  1.1724
 8923SOL     OW38401   4.290   2.274   8.327  0.1782 -0.2407 -0.2555
 8923SOL    HW138402   4.313   2.183   8.347  0.9945 -0.1818 -0.9413
 8923SOL    HW238403   4.289   2.312   8.415 -0.6133 -0.3041 -0.2429
 8924SOL     OW38404   4.245   1.974   9.731  0.7485  0.4864 -0.1038
 8924SOL    HW138405   4.278   2.062   9.743  0.7594  0.6016 -0.9540
 8924SOL    HW238406   4.287   1.949   9.648  2.1476  1.7554  0.2313
 8925SOL     OW38407   2.947   3.840   6.784 -0.0773 -0.0811 -0.1205
 8925SOL    HW138408   2.961   3.924   6.826 -0.7379  0.6191 -1.2834
 8925SOL    HW238409   3.022   3.792   6.819 -0.1130  0.3406  0.5204
 8926SOL     OW38410   0.284   0.802  10.463  0.0151 -0.1244 -0.3053
 8926SOL    HW138411   0.191   0.825  10.462  0.1185  0.2920 -0.2112
 8926SOL    HW238412   0.312   0.864  10.530 -0.9604 -1.0283  0.9415
 8927SOL     OW38413   2.622   0.485  12.175 -0.1257 -0.1239  0.6970
 8927SOL    HW138414   2.593   0.411  12.121 -1.0174 -1.3855  2.9102
 8927SOL    HW238415   2.715   0.462  12.177 -0.1023 -0.1950 -0.8105
 8928SOL     OW38416   0.769   1.577   2.601 -0.7830 -0.4766  0.6246
 8928SOL    HW138417   0.736   1.664   2.623  0.6631  0.4435 -0.8194
 8928SOL    HW238418   0.741   1.561   2.511  3.5762 -2.3082 -0.4175
 8929SOL     OW38419   0.656   0.356   1.740 -0.1597 -0.0986  0.0194
 8929SOL    HW138420   0.606   0.381   1.662  0.1781  1.4183  0.2878
 8929SOL    HW238421   0.738   0.321   1.707  0.1328  0.0032  0.6316
 8930SOL     OW38422   3.275   1.006   3.758  0.7237 -0.4200 -0.1181
 8930SOL    HW138423   3.343   1.009   3.691  3.5399 -1.7863  2.6687
 8930SOL    HW238424   3.302   1.061   3.831  1.6372  0.7338 -1.3253
 8931SOL     OW38425   2.527   2.317  11.485  0.4335 -0.2833  0.7963
 8931SOL    HW138426   2.445   2.273  11.503  0.7371 -1.6584 -1.1443
 8931SOL    HW238427   2.513   2.408  11.512  0.3290 -0.3570  0.9831
 8932SOL     OW38428   4.534   1.940   7.608  0.5994  1.1443 -0.1135
 8932SOL    HW138429   4.461   1.970   7.554  1.5367 -0.3671 -2.2220
 8932SOL    HW238430   4.560   1.867   7.552 -1.9506 -1.0777  1.6154
 8933SOL     OW38431   3.920   3.803   5.572  0.5284  0.7018 -0.1194
 8933SOL    HW138432   3.892   3.721   5.532  1.6978 -0.3756  1.2629
 8933SOL    HW238433   3.951   3.774   5.658 -1.1094 -0.2409  0.1411
 8934SOL     OW38434   1.005   3.014   3.769 -0.0836  1.0967  0.4010
 8934SOL    HW138435   0.971   3.100   3.794  0.0162  0.8970  1.2360
 8934SOL    HW238436   1.022   3.033   3.677  2.7336  0.7948  0.8766
 8935SOL     OW38437   3.593   4.108   2.548  0.5130  0.1895 -0.7371
 8935SOL    HW138438   3.605   4.015   2.534  0.4529  0.0595  0.0714
 8935SOL    HW238439   3.677   4.140   2.582 -0.1724  0.6110  0.5492
 8936SOL     OW38440   2.986   1.893   6.659  0.1845  0.0928 -0.2533
 8936SOL    HW138441   2.911   1.862   6.607  0.6478  1.8988 -2.0186
 8936SOL    HW238442   3.057   1.861   6.603  0.0906  0.0675 -0.3582
 8937SOL     OW38443   3.164   4.142   5.306 -0.3299  0.3275  0.1937
 8937SOL    HW138444   3.089   4.175   5.258  0.6604 -1.8628 -2.8554
 8937SOL    HW238445   3.187   4.227   5.343  1.1142  1.2700 -2.8333
 8938SOL     OW38446   3.960   2.655   3.686  0.3376 -0.1916 -0.0066
 8938SOL    HW138447   4.007   2.572   3.689  0.7938  0.0735  0.1801
 8938SOL    HW238448   3.906   2.634   3.610 -0.4986  1.5138  0.0943
 8939SOL     OW38449   0.489   2.637   6.388  0.4954  0.3974  0.3441
 8939SOL    HW138450   0.422   2.614   6.324  1.2184  1.2552 -0.7336
 8939SOL    HW238451   0.521   2.548   6.397 -1.7840 -0.4339  0.2599
 8940SOL     OW38452   2.914   0.447   2.564 -0.2637 -0.3275  0.3350
 8940SOL    HW138453   2.964   0.441   2.645  1.5072  2.6600 -0.5024
 8940SOL    HW238454   2.911   0.542   2.552 -3.8247 -0.4362  0.4974
 8941SOL     OW38455   4.650   0.107   4.116  0.1033 -0.0038 -0.0046
 8941SOL    HW138456   4.590   0.176   4.088 -0.5160 -0.9728 -1.0504
 8941SOL    HW238457   4.729   0.143   4.076 -0.1986  1.1212  0.4069
 8942SOL     OW38458   1.939   2.670   6.158  0.0593 -0.7934  0.3331
 8942SOL    HW138459   2.017   2.726   6.162 -2.6011  3.1518 -2.6025
 8942SOL    HW238460   1.977   2.583   6.158  0.0233 -0.8115  1.7250
 8943SOL     OW38461   0.428   2.550   5.668  0.4624 -0.2048 -0.7903
 8943SOL    HW138462   0.461   2.466   5.637  0.3165 -0.9310  1.0498
 8943SOL    HW238463   0.473   2.564   5.751 -1.7331 -0.6700  0.4789
 8944SOL     OW38464   1.411   0.409   3.065  0.1654 -0.0291  0.5728
 8944SOL    HW138465   1.376   0.496   3.046  0.4620  0.3063  1.5664
 8944SOL    HW238466   1.506   0.424   3.068  0.0354  0.8848  0.2673
 8945SOL     OW38467   4.171   1.557  15.092  0.2297  0.7752 -0.7091
 8945SOL    HW138468   4.133   1.515  15.169 -0.3942 -0.8818 -1.9298
 8945SOL    HW238469   4.120   1.529  15.016 -0.1420  2.7529 -1.1865
 8946SOL     OW38470   2.124   0.382   3.390 -0.0585 -0.2115  0.4055
 8946SOL    HW138471   2.153   0.384   3.482  0.0169  0.4397  0.3673
 8946SOL    HW238472   2.095   0.473   3.389  0.0392 -0.2184 -1.8708
 8947SOL     OW38473   3.020   2.207  16.885  0.1901 -0.1417 -0.5592
 8947SOL    HW138474   2.991   2.244  16.801 -1.7217  1.4114  0.7639
 8947SOL    HW238475   3.013   2.277  16.950  1.3978  0.0064 -0.5977
 8948SOL     OW38476   2.155   1.800   2.186  0.2773  0.0243 -0.3245
 8948SOL    HW138477   2.108   1.818   2.268 -0.9916 -0.8645 -0.8578
 8948SOL    HW238478   2.088   1.775   2.123 -0.3405  0.5347  0.1407
 8949SOL     OW38479   3.484   3.429  12.952  0.3613  0.0189 -0.8077
 8949SOL    HW138480   3.579   3.419  12.947  0.4800  1.5830 -1.3730
 8949SOL    HW238481   3.477   3.513  12.908 -1.3819  0.8715  1.0921
 8950SOL     OW38482   4.225   0.300   6.862 -0.3295  0.3866 -1.0651
 8950SOL    HW138483   4.157   0.328   6.923  0.1621 -0.2157 -0.2495
 8950SOL    HW238484   4.198   0.211   6.839  2.7364 -0.0364 -2.9061
 8951SOL     OW38485   4.692   3.127   3.421 -0.6521 -0.2083  0.5427
 8951SOL    HW138486   4.603   3.120   3.456 -0.9367  0.4256 -0.0537
 8951SOL    HW238487   4.682   3.048   3.368 -0.5765 -0.0259  0.2578
 8952SOL     OW38488   2.541   2.162  15.085  0.0503 -0.1476  0.5073
 8952SOL    HW138489   2.516   2.080  15.042  1.3548 -0.2913  0.0328
 8952SOL    HW238490   2.632   2.161  15.057 -0.3720 -1.2397 -0.8228
 8953SOL     OW38491   4.616   1.104  16.779 -0.9748 -0.1620  0.2257
 8953SOL    HW138492   4.615   1.170  16.710  2.3486 -0.8016 -0.4185
 8953SOL    HW238493   4.600   1.020  16.735 -3.4158 -0.6610  2.0635
 8954SOL     OW38494   1.942   3.112   1.398 -0.4831  0.4294 -0.1049
 8954SOL    HW138495   1.903   3.075   1.477  1.1422 -0.2182  0.3866
 8954SOL    HW238496   1.994   3.180   1.440 -0.7627  0.1052  0.7620
 8955SOL     OW38497   3.429   0.949   2.507 -0.0720 -0.7399  0.0398
 8955SOL    HW138498   3.453   1.019   2.447 -1.5391  0.7706  1.1964
 8955SOL    HW238499   3.353   0.992   2.547 -0.3609 -1.8414  0.6762
 8956SOL     OW38500   0.107   3.227   4.872  0.2826  0.2248 -0.1114
 8956SOL    HW138501   0.085   3.274   4.953 -1.1962  0.1569 -0.4881
 8956SOL    HW238502   0.164   3.162   4.913 -0.6143  0.8047  2.0578
 8957SOL     OW38503   2.098   3.394  16.369 -0.1432  0.5925  0.2283
 8957SOL    HW138504   2.056   3.373  16.286 -0.1669 -1.1417  0.6848
 8957SOL    HW238505   2.063   3.483  16.379  0.2302  0.5771  1.6921
 8958SOL     OW38506   2.180   3.372   5.703  0.3516 -0.5469 -0.1480
 8958SOL    HW138507   2.153   3.289   5.664 -2.1298 -1.3927  3.4786
 8958SOL    HW238508   2.214   3.418   5.626  0.2335 -1.2932 -0.6435
 8959SOL     OW38509   0.032   2.205   9.129  0.4313  0.2089 -0.1320
 8959SOL    HW138510   4.695   2.231   9.188  1.4545 -1.0695  1.6517
 8959SOL    HW238511   0.004   2.240   9.045  1.3752  1.3515  0.0298
 8960SOL     OW38512   0.172   2.700   1.834  0.9090 -0.3233  0.2227
 8960SOL    HW138513   0.091   2.650   1.846  0.5005  0.7169  1.7677
 8960SOL    HW238514   0.150   2.744   1.752 -3.2981 -0.0397  1.4609
 8961SOL     OW38515   2.019   0.124   5.857  0.4478  0.4261 -0.7281
 8961SOL    HW138516   1.983   0.049   5.809 -0.3692  1.2747 -1.4421
 8961SOL    HW238517   2.113   0.107   5.849  0.6044  1.4700 -1.0364
 8962SOL     OW38518   3.403   4.205   1.721 -0.4119  0.1866 -0.5609
 8962SOL    HW138519   3.432   4.249   1.641  2.3066  1.4613  1.1496
 8962SOL    HW238520   3.340   4.140   1.690 -0.7408 -0.1837  0.8694
 8963SOL     OW38521   1.100   3.902   2.813 -0.5330  0.6631  0.0771
 8963SOL    HW138522   1.099   3.982   2.761  0.0105  0.3648 -0.3976
 8963SOL    HW238523   1.191   3.901   2.843 -0.5349 -0.6729  0.0515
 8964SOL     OW38524   2.765   1.684   0.178 -0.5044 -0.0550 -0.2272
 8964SOL    HW138525   2.785   1.731   0.259 -0.6060  1.5778 -1.1478
 8964SOL    HW238526   2.823   1.729   0.116  1.3319 -0.0098  1.5205
 8965SOL     OW38527   2.990   2.942   7.749 -0.3908 -0.0432 -0.0937
 8965SOL    HW138528   2.908   2.897   7.729  1.5003 -2.8889 -1.6335
 8965SOL    HW238529   3.043   2.897   7.683  0.2301  1.2137 -0.4577
 8966SOL     OW38530   0.867   0.182   2.147  0.2018  0.4631 -0.0246
 8966SOL    HW138531   0.806   0.248   2.115  1.1663  2.1494  1.6350
 8966SOL    HW238532   0.845   0.098   2.106  1.3903  0.2453 -0.2350
 8967SOL     OW38533   0.327   3.748   6.916 -0.2560 -0.1576 -0.0552
 8967SOL    HW138534   0.251   3.783   6.871  0.4281 -1.4764 -2.2125
 8967SOL    HW238535   0.398   3.800   6.878  1.3314 -1.6720  0.8321
 8968SOL     OW38536   1.709   1.856   5.867  0.5219 -0.2366  0.3541
 8968SOL    HW138537   1.736   1.770   5.834 -0.7332  0.0256 -1.3522
 8968SOL    HW238538   1.724   1.854   5.961  2.3389  0.7048  0.1022
 8969SOL     OW38539   2.941   3.195   1.072  0.0484  0.7156 -0.3751
 8969SOL    HW138540   3.031   3.224   1.086  0.8711 -1.2682 -1.5273
 8969SOL    HW238541   2.937   3.150   0.987  2.0242  1.0901 -0.6681
 8970SOL     OW38542   1.815   2.353  17.589  0.5596  0.0988 -0.2027
 8970SOL    HW138543   1.782   2.332  17.502  1.4412  0.0254 -0.5224
 8970SOL    HW238544   1.734   2.382  17.631  0.4753  0.4098 -0.5733
 8971SOL     OW38545   1.173   0.672  12.055 -0.4449 -0.3407 -0.4014
 8971SOL    HW138546   1.214   0.745  12.009  2.2715 -0.3842  1.9635
 8971SOL    HW238547   1.116   0.641  11.985  0.4164  0.1563 -1.3092
 8972SOL     OW38548   2.684   3.784   6.887  0.6020  0.1473 -0.3556
 8972SOL    HW138549   2.651   3.737   6.811 -0.6793 -1.2892  1.0782
 8972SOL    HW238550   2.769   3.806   6.850 -0.7089  0.1618 -3.3436
 8973SOL     OW38551   3.002   4.185   8.626  0.2572  1.2575  0.0017
 8973SOL    HW138552   2.973   4.113   8.570 -1.4968 -0.5305  3.2438
 8973SOL    HW238553   2.972   4.259   8.572 -1.2013  0.8816  0.2814
 8974SOL     OW38554   0.289   2.904   7.224  0.4989 -0.6428  0.2065
 8974SOL    HW138555   0.260   2.871   7.139 -1.9930  0.2023  0.7124
 8974SOL    HW238556   0.383   2.910   7.212  0.3577  3.2025  1.1141
 8975SOL     OW38557   2.536   1.625   6.012  0.4288  0.0783  0.1507
 8975SOL    HW138558   2.490   1.541   6.010 -0.7169  0.7018 -0.3225
 8975SOL    HW238559   2.596   1.617   6.086 -0.2686  2.6746  1.0118
 8976SOL     OW38560   2.098   0.395  10.445 -0.0292  0.7704 -0.3265
 8976SOL    HW138561   2.126   0.312  10.407  0.3875  0.8558 -0.2106
 8976SOL    HW238562   2.096   0.365  10.535 -0.5406  0.9082 -0.2894
 8977SOL     OW38563   1.268   4.251   8.845  0.0875 -0.3759  0.5494
 8977SOL    HW138564   1.305   4.339   8.850  0.1859 -0.4187  0.5840
 8977SOL    HW238565   1.205   4.245   8.916  0.7769  1.8817  1.3450
 8978SOL     OW38566   2.722   1.008   8.917  0.2513 -0.2699  0.1399
 8978SOL    HW138567   2.709   0.922   8.877  0.9588 -1.2303  1.9757
 8978SOL    HW238568   2.630   1.036   8.919 -0.0816 -1.0403 -3.7001
 8979SOL     OW38569   4.000   0.480  14.674  0.0078 -0.1531 -0.4558
 8979SOL    HW138570   4.053   0.468  14.752  0.4508  0.0626 -0.7271
 8979SOL    HW238571   3.917   0.465  14.721 -0.3203 -0.1558 -1.0338
 8980SOL     OW38572   4.093   1.649   2.435  0.5232  0.3123  0.5856
 8980SOL    HW138573   4.185   1.630   2.453  0.4883 -1.5281 -1.1639
 8980SOL    HW238574   4.097   1.660   2.341  1.8917  2.1343  0.8619
 8981SOL     OW38575   2.196   3.070  13.030  0.4160  0.0420 -0.0829
 8981SOL    HW138576   2.263   3.078  12.962  0.5901  1.2159  0.2290
 8981SOL    HW238577   2.119   3.053  12.975  0.2695  0.6328 -0.0575
 8982SOL     OW38578   1.073   2.395   4.487 -0.4173 -0.4205 -0.1992
 8982SOL    HW138579   1.127   2.365   4.560 -0.0805  3.2108  1.0567
 8982SOL    HW238580   1.126   2.467   4.453  1.2835 -1.6756 -0.2106
 8983SOL     OW38581   0.579   2.563   3.534  0.7058  0.2900 -0.6389
 8983SOL    HW138582   0.487   2.584   3.546  0.1338 -0.4798 -3.7854
 8983SOL    HW238583   0.605   2.579   3.625 -1.8505  0.5050  0.0419
 8984SOL     OW38584   3.846   1.582   5.474 -0.4459  0.2995 -0.0620
 8984SOL    HW138585   3.857   1.605   5.567 -2.7394 -1.6129  0.6827
 8984SOL    HW238586   3.835   1.670   5.439 -0.5224 -0.6106 -2.3291
 8985SOL     OW38587   0.810   0.742   5.641  0.3743  0.2215 -0.9147
 8985SOL    HW138588   0.731   0.688   5.647  1.5509 -1.0769  2.7305
 8985SOL    HW238589   0.794   0.806   5.710  0.8532 -1.0587  0.3791
 8986SOL     OW38590   1.086   3.450   4.718 -0.8802  0.6477  0.9718
 8986SOL    HW138591   1.101   3.372   4.771  0.3091 -0.5642 -1.1273
 8986SOL    HW238592   1.176   3.473   4.694 -0.2154 -1.4612  1.4776
 8987SOL     OW38593   2.740   3.644   5.623  0.3133 -0.0708  0.3979
 8987SOL    HW138594   2.807   3.712   5.612 -0.1702  0.5593  1.3038
 8987SOL    HW238595   2.680   3.662   5.550  2.4813  1.6061 -0.9733
 8988SOL     OW38596   2.988   3.090   2.023 -0.2071 -0.3314  0.5865
 8988SOL    HW138597   2.950   3.148   1.957 -0.3750 -1.4675 -0.3156
 8988SOL    HW238598   3.050   3.148   2.069 -0.9281 -0.4537  1.7094
 8989SOL     OW38599   4.325   0.783   5.837 -0.0641  0.3494  0.1952
 8989SOL    HW138600   4.391   0.852   5.836 -0.7246  0.9757 -1.3324
 8989SOL    HW238601   4.264   0.812   5.768 -0.9636 -1.8830  0.0411
 8990SOL     OW38602   2.694   3.239  15.971  0.1125  0.2783 -0.1303
 8990SOL    HW138603   2.762   3.265  15.908  1.3654 -0.2137  0.9970
 8990SOL    HW238604   2.678   3.149  15.943  2.6527 -0.6070  1.2261
 8991SOL     OW38605   4.067   4.508   8.141  0.2744  0.1210 -0.3027
 8991SOL    HW138606   4.087   4.421   8.106 -2.7178 -1.4773  1.9710
 8991SOL    HW238607   3.995   4.478   8.197 -0.2526 -1.9714 -2.1180
 8992SOL     OW38608   4.682   2.213   6.093 -0.4065 -1.4005 -0.3361
 8992SOL    HW138609   4.690   2.165   6.010 -2.4777  0.3977 -1.5802
 8992SOL    HW238610   4.646   2.146   6.151 -0.4575 -0.5508  0.6119
 8993SOL     OW38611   1.695   1.881   2.600 -0.0508 -0.0564  0.0997
 8993SOL    HW138612   1.693   1.797   2.554  0.6754 -0.2854  0.4850
 8993SOL    HW238613   1.752   1.846   2.669 -1.2300 -1.0366  0.5632
 8994SOL     OW38614   0.261   2.314   4.692 -0.1215  0.2726  0.8107
 8994SOL    HW138615   0.339   2.261   4.710 -1.2856 -1.3190  1.1275
 8994SOL    HW238616   0.197   2.243   4.687  0.7640 -0.4534 -0.2238
 8995SOL     OW38617   1.687   1.155   7.310 -0.0096 -0.1946  0.1920
 8995SOL    HW138618   1.743   1.110   7.374  1.4071  0.8101 -0.3210
 8995SOL    HW238619   1.704   1.103   7.232 -2.8157 -0.5865 -0.1298
 8996SOL     OW38620   1.707   2.782  15.305  0.2084  0.1191 -0.6920
 8996SOL    HW138621   1.776   2.727  15.268 -0.2223 -1.1035  0.2852
 8996SOL    HW238622   1.755   2.864  15.312  0.0693  0.2981 -2.0006
 8997SOL     OW38623   3.359   1.821   5.817  0.0259  0.3843  0.2253
 8997SOL    HW138624   3.266   1.839   5.802  0.3180  0.3076 -1.7400
 8997SOL    HW238625   3.374   1.836   5.910 -1.1627  0.9929  0.3197
 8998SOL     OW38626   2.858   2.876  12.664 -0.0631 -0.6884 -0.2440
 8998SOL    HW138627   2.901   2.856  12.581  2.2472 -1.3112  1.0791
 8998SOL    HW238628   2.868   2.971  12.676 -0.5471 -0.5897 -0.6607
 8999SOL     OW38629   1.709   0.127  13.306  0.1901  0.7963  0.7906
 8999SOL    HW138630   1.616   0.126  13.285  0.1848 -1.7488  0.8850
 8999SOL    HW238631   1.710   0.157  13.397  0.9113 -0.3279  1.1581
 9000SOL     OW38632   4.172   0.637   5.219  0.2868 -0.2344  0.2693
 9000SOL    HW138633   4.152   0.713   5.274  1.5585  0.3135 -0.0065
 9000SOL    HW238634   4.198   0.689   5.143 -0.9125 -0.0744 -0.0235
 9001SOL     OW38635   3.512   3.485   2.850  0.4371  0.0813 -0.6904
 9001SOL    HW138636   3.489   3.407   2.900  0.2665  1.3507  1.2251
 9001SOL    HW238637   3.426   3.514   2.822 -0.2049 -0.2681  0.8973
 9002SOL     OW38638   3.547   3.716  12.210  0.2204  0.0208 -0.2282
 9002SOL    HW138639   3.469   3.772  12.208 -0.3726 -0.8344 -1.3565
 9002SOL    HW238640   3.509   3.632  12.237  2.4547 -1.4383 -1.6940
 9003SOL     OW38641   2.026   3.121   7.758 -0.3429 -0.0297 -0.0790
 9003SOL    HW138642   2.112   3.103   7.796  0.5653  0.5126 -1.8809
 9003SOL    HW238643   2.023   3.216   7.742 -2.3275 -0.3033 -1.3903
 9004SOL     OW38644   4.313   1.655   5.326  0.1239 -0.0375  0.1520
 9004SOL    HW138645   4.310   1.737   5.277  0.8044  0.6450  1.2409
 9004SOL    HW238646   4.346   1.595   5.260  0.3960 -0.2095  0.4407
 9005SOL     OW38647   1.930   1.538   3.629 -0.4477 -0.1185  0.0211
 9005SOL    HW138648   1.904   1.514   3.541  1.4183 -1.6623 -0.0758
 9005SOL    HW238649   1.962   1.451   3.652  1.9163  0.6101 -0.5990
 9006SOL     OW38650   1.543   3.155   3.524  0.1145 -0.1942 -0.2534
 9006SOL    HW138651   1.477   3.086   3.525 -0.0468 -0.0512 -2.7670
 9006SOL    HW238652   1.571   3.157   3.433 -0.1213 -0.2209 -0.3254
 9007SOL     OW38653   0.881   0.514   3.855  0.3778  0.5303  0.5418
 9007SOL    HW138654   0.835   0.561   3.786  1.9153 -1.4485 -1.7897
 9007SOL    HW238655   0.833   0.554   3.927  0.4210  0.6210  0.5198
 9008SOL     OW38656   0.943   4.026   8.689  0.5320 -0.0463 -0.1416
 9008SOL    HW138657   0.900   3.957   8.638  2.6416 -2.2321  1.0371
 9008SOL    HW238658   0.930   3.991   8.777 -1.4010  1.5941  0.2107
 9009SOL     OW38659   0.022   0.385   4.099 -0.0624 -0.0334 -0.1258
 9009SOL    HW138660   0.079   0.447   4.055 -1.2604  0.9356 -0.2999
 9009SOL    HW238661   0.023   0.413   4.191  1.5713  0.1182 -0.2009
 9010SOL     OW38662   4.311   2.879   8.011 -0.6067  0.1306 -0.0330
 9010SOL    HW138663   4.229   2.865   7.965 -0.4536  1.9726 -0.8935
 9010SOL    HW238664   4.351   2.792   8.009 -1.1098 -0.1517  3.3479
 9011SOL     OW38665   0.038   2.463   8.995 -0.1849  0.6951 -0.1106
 9011SOL    HW138666   0.000   2.522   9.061  1.7328  1.6479  0.1406
 9011SOL    HW238667   0.102   2.416   9.049 -0.6574  3.1608  2.6477
 9012SOL     OW38668   4.672   1.038  17.270 -0.1620  0.6642  0.3310
 9012SOL    HW138669   4.684   0.963  17.329  0.0283 -1.0394 -1.8866
 9012SOL    HW238670   4.689   1.115  17.323  1.3844  1.7324 -1.7360
 9013SOL     OW38671   0.830   4.476   7.490 -0.3955  0.0741  0.6659
 9013SOL    HW138672   0.761   4.411   7.502 -1.5317  1.2090  0.1763
 9013SOL    HW238673   0.785   4.549   7.450  0.6476  0.8778  0.9457
 9014SOL     OW38674   4.300   2.094   4.524  0.0917 -0.3493  0.4466
 9014SOL    HW138675   4.270   2.017   4.475  2.9288  0.0927 -1.9535
 9014SOL    HW238676   4.243   2.170   4.517 -1.7281 -1.5247  2.3465
 9015SOL     OW38677   1.216   0.136  14.400 -0.1320  0.0175 -0.7473
 9015SOL    HW138678   1.272   0.058  14.403  0.5846  0.5942  0.8116
 9015SOL    HW238679   1.241   0.163  14.312 -3.1496  0.4053 -1.4770
 9016SOL     OW38680   3.818   0.202  11.559 -0.1805 -0.7460 -0.5369
 9016SOL    HW138681   3.836   0.151  11.638 -1.9688 -0.5872 -0.0310
 9016SOL    HW238682   3.745   0.154  11.519 -2.1192  0.3281  1.7030
 9017SOL     OW38683   1.533   1.379  13.287 -0.1698 -0.0100 -0.3390
 9017SOL    HW138684   1.534   1.323  13.209  1.2664 -0.5640  0.0699
 9017SOL    HW238685   1.499   1.459  13.248  0.4333  0.4076 -0.0103
 9018SOL     OW38686   1.852   0.186  15.327 -0.3105  0.0463  0.1745
 9018SOL    HW138687   1.761   0.195  15.299 -0.2885 -1.9669 -0.5221
 9018SOL    HW238688   1.860   0.091  15.325  0.4748  0.1468 -1.0094
 9019SOL     OW38689   3.813   2.136   5.589  0.2271 -0.0170 -0.1843
 9019SOL    HW138690   3.807   2.231   5.583  0.7983 -0.1448 -2.8091
 9019SOL    HW238691   3.740   2.103   5.537  0.4169  0.5917 -0.8332
 9020SOL     OW38692   4.681   0.001   9.887  0.2709 -0.2445  0.0136
 9020SOL    HW138693   4.655   0.093   9.897  0.0398 -0.3392  0.2794
 9020SOL    HW238694   4.731   0.007   9.805  1.6536  2.6800  1.0507
 9021SOL     OW38695   1.972   3.138   0.840 -0.5332 -0.1700  0.0494
 9021SOL    HW138696   1.913   3.116   0.912 -0.3051 -1.2393 -0.0916
 9021SOL    HW238697   2.028   3.200   0.887 -1.5478  0.5706  0.2999
 9022SOL     OW38698   4.248   2.862  10.677 -0.5030 -0.1074  0.0724
 9022SOL    HW138699   4.192   2.939  10.671 -0.1474  0.1156 -0.4345
 9022SOL    HW238700   4.249   2.855  10.773  0.1457 -1.8164 -0.0568
 9023SOL     OW38701   4.133   3.925   5.024  0.0316  0.2140 -0.5065
 9023SOL    HW138702   4.153   3.933   4.930 -2.0268 -0.9523 -1.0291
 9023SOL    HW238703   4.096   3.837   5.015  0.8895 -0.3295  1.3878
 9024SOL     OW38704   2.648   0.579   7.983 -0.2569  0.1665  0.1609
 9024SOL    HW138705   2.599   0.529   8.049 -0.9586 -1.1402 -1.3565
 9024SOL    HW238706   2.654   0.522   7.906  0.2355 -1.6805  1.5624
 9025SOL     OW38707   2.520   0.359   6.773 -0.2964  0.5049 -0.6217
 9025SOL    HW138708   2.559   0.310   6.845 -2.0403 -2.2239 -1.5506
 9025SOL    HW238709   2.564   0.442   6.791  1.3292 -0.7833  1.4045
 9026SOL     OW38710   2.727   2.098   8.276  0.2097  0.4761  0.4405
 9026SOL    HW138711   2.748   2.167   8.339 -1.2997  0.0179  1.4376
 9026SOL    HW238712   2.719   2.154   8.199 -3.5626  0.5282  0.8949
 9027SOL     OW38713   0.022   2.768   5.457 -0.4040 -0.1275 -0.3154
 9027SOL    HW138714   4.723   2.681   5.434 -1.7198  0.5416 -0.9043
 9027SOL    HW238715   4.693   2.818   5.406  0.7422  1.5666 -0.0799
 9028SOL     OW38716   2.175   3.646   6.112 -0.1716 -0.1046 -0.3663
 9028SOL    HW138717   2.185   3.691   6.196 -0.2982 -0.3958 -0.1920
 9028SOL    HW238718   2.092   3.600   6.124 -0.4111  0.2893 -0.5125
 9029SOL     OW38719   0.924   3.848   8.321 -0.3497  0.1724 -0.0013
 9029SOL    HW138720   0.971   3.788   8.379 -0.5048 -1.0543 -1.1427
 9029SOL    HW238721   0.865   3.791   8.270  0.9274 -1.3112  0.1713
 9030SOL     OW38722   1.146   2.217   2.059 -0.1906 -0.5079 -0.1738
 9030SOL    HW138723   1.104   2.133   2.078 -0.4327 -0.0316  1.3592
 9030SOL    HW238724   1.158   2.209   1.964  1.6874  0.5907 -0.0126
 9031SOL     OW38725   1.660   2.612   6.541 -0.7459 -0.7782  0.3218
 9031SOL    HW138726   1.648   2.525   6.504 -2.1293 -0.6742  0.5334
 9031SOL    HW238727   1.624   2.668   6.472 -1.2226  0.2440  1.3872
 9032SOL     OW38728   4.694   2.238   9.828  0.3695  0.6634  0.2862
 9032SOL    HW138729   4.711   2.199   9.914  1.8138 -1.7995 -1.1036
 9032SOL    HW238730   4.678   2.157   9.780  1.0752 -0.4392  1.9142
 9033SOL     OW38731   2.290   1.771   7.106  0.3398 -0.4823  0.0891
 9033SOL    HW138732   2.359   1.706   7.097 -0.8068 -1.5501 -0.8514
 9033SOL    HW238733   2.311   1.847   7.051 -0.8755 -1.5693 -1.8555
 9034SOL     OW38734   4.081   3.608   3.776 -0.3857 -0.2435  0.0591
 9034SOL    HW138735   4.073   3.581   3.685 -0.5596 -0.3877  0.1167
 9034SOL    HW238736   4.156   3.668   3.771  0.4107 -1.2561  0.0435
 9035SOL     OW38737   1.505   3.958   7.666 -0.4642 -0.1415 -0.2588
 9035SOL    HW138738   1.444   3.961   7.593 -0.5949 -1.3150 -0.2064
 9035SOL    HW238739   1.517   3.863   7.676 -0.6277 -0.0907  0.4257
 9036SOL     OW38740   0.560   1.919   9.781  0.0353  0.4608 -0.4712
 9036SOL    HW138741   0.518   1.840   9.815  0.2305  0.9738  0.9581
 9036SOL    HW238742   0.545   1.972   9.859  1.8511 -0.8315  0.7904
 9037SOL     OW38743   4.624   2.644   8.579 -0.2043 -0.0375  0.0102
 9037SOL    HW138744   4.694   2.701   8.611  0.5555 -1.2604  0.5263
 9037SOL    HW238745   4.551   2.706   8.581 -0.7143 -0.6423  0.1169
 9038SOL     OW38746   2.660   0.262   5.597  0.5608  0.3446  0.8017
 9038SOL    HW138747   2.578   0.309   5.611  1.8800  1.2297  5.6253
 9038SOL    HW238748   2.701   0.305   5.522 -0.0713 -0.5345 -0.0361
 9039SOL     OW38749   1.599   0.724   4.440  0.0992 -0.6560  1.0921
 9039SOL    HW138750   1.573   0.734   4.532  0.0558 -0.2830  1.0401
 9039SOL    HW238751   1.511   0.731   4.405  1.1760  2.2625 -1.0252
 9040SOL     OW38752   4.046   2.934  13.297  0.1108  0.2771  0.5208
 9040SOL    HW138753   4.008   2.884  13.369  0.4872 -0.3255  0.2985
 9040SOL    HW238754   4.137   2.947  13.325  0.0988  1.6567 -0.0588
 9041SOL     OW38755   1.579   4.710   2.767 -0.0231  0.1300  0.3101
 9041SOL    HW138756   1.594   0.018   2.852  1.3324 -0.1170  0.2009
 9041SOL    HW238757   1.505   0.025   2.731 -0.9557 -1.8963 -0.4952
 9042SOL     OW38758   0.233   1.254   4.621  0.3460 -0.3304 -0.5667
 9042SOL    HW138759   0.304   1.317   4.624  1.2814 -1.3854 -0.2582
 9042SOL    HW238760   0.273   1.190   4.681 -1.7643  0.8549  2.1347
 9043SOL     OW38761   2.510   2.570   9.618 -0.0548 -0.5390  0.1164
 9043SOL    HW138762   2.461   2.489   9.637 -0.1965 -0.2345  1.0289
 9043SOL    HW238763   2.601   2.541   9.621  0.0468 -0.3396 -1.0014
 9044SOL     OW38764   0.803   3.197  16.874  0.1740  0.2983  0.0900
 9044SOL    HW138765   0.738   3.190  16.804 -0.3470 -0.6224  0.6727
 9044SOL    HW238766   0.766   3.255  16.942  0.8168 -2.0812  2.4489
 9045SOL     OW38767   2.927   4.035   6.273  0.1803 -0.2646 -0.5031
 9045SOL    HW138768   2.933   4.090   6.195  4.6903 -0.4024 -0.2599
 9045SOL    HW238769   2.902   4.092   6.345  1.1629  2.5951 -2.4232
 9046SOL     OW38770   2.863   3.891  14.375  0.4340  0.1414  0.4083
 9046SOL    HW138771   2.869   3.977  14.333  0.0961  1.2393  2.6348
 9046SOL    HW238772   2.769   3.888  14.394 -0.2416  3.3862 -2.4277
 9047SOL     OW38773   0.280   0.046  17.018  0.3183  0.1242 -0.0659
 9047SOL    HW138774   0.205   4.721  17.028  1.1723 -1.0270 -0.4773
 9047SOL    HW238775   0.286   0.078  17.108  0.3815  0.3558 -0.1530
 9048SOL     OW38776   3.403   4.550   8.685 -0.1998  0.4368  0.5246
 9048SOL    HW138777   3.330   4.510   8.637  2.3865  0.8273 -3.7296
 9048SOL    HW238778   3.385   4.521   8.774  1.3565  1.3795  1.1601
 9049SOL     OW38779   0.670   2.828   2.466 -0.3804 -0.4176 -0.3417
 9049SOL    HW138780   0.685   2.922   2.451 -1.2925 -0.2349 -0.1375
 9049SOL    HW238781   0.585   2.828   2.510 -0.1220  0.5084  0.1666
 9050SOL     OW38782   4.516   4.364   3.229 -0.2737  0.1902  0.4796
 9050SOL    HW138783   4.464   4.289   3.201 -0.6972  0.4405  0.6076
 9050SOL    HW238784   4.595   4.318   3.256 -0.7928 -0.2103  1.3038
 9051SOL     OW38785   4.656   1.255  14.199 -0.0305 -0.0939  0.2525
 9051SOL    HW138786   4.657   1.177  14.142  1.3682 -0.2994  0.5758
 9051SOL    HW238787   4.696   1.228  14.281 -0.1276 -1.7572 -0.2364
 9052SOL     OW38788   1.835   2.893  14.310  0.2969  0.0589  0.1678
 9052SOL    HW138789   1.930   2.893  14.315  0.5006 -1.2139 -3.5908
 9052SOL    HW238790   1.831   2.956  14.237  0.1122 -1.7500 -1.3688
 9053SOL     OW38791   1.972   1.665   7.877 -0.2234  0.4716  0.2899
 9053SOL    HW138792   1.899   1.701   7.927 -0.9018 -0.9937  0.3687
 9053SOL    HW238793   2.056   1.701   7.908 -0.9463  2.2254  0.1919
 9054SOL     OW38794   2.146   0.776   9.595  0.0535  0.0688 -0.5899
 9054SOL    HW138795   2.065   0.825   9.587  0.2275  0.3140 -0.8391
 9054SOL    HW238796   2.129   0.712   9.664 -0.5202  1.2262  0.3386
 9055SOL     OW38797   4.606   3.666   5.685 -0.1841  0.1199  0.3485
 9055SOL    HW138798   4.514   3.691   5.683  0.0462  0.9955  0.4179
 9055SOL    HW238799   4.621   3.630   5.598  0.7750  0.1528  0.5002
 9056SOL     OW38800   2.973   1.841  16.624 -0.2704  0.3673  0.0595
 9056SOL    HW138801   2.965   1.748  16.602 -0.6573  1.0080 -2.4764
 9056SOL    HW238802   2.948   1.885  16.543  0.0399 -0.2909 -0.3922
 9057SOL     OW38803   1.964   2.799   6.987 -0.3517 -0.1886  0.0236
 9057SOL    HW138804   1.876   2.837   6.990  0.3870  1.3680  2.4292
 9057SOL    HW238805   1.951   2.754   6.904  2.0204  0.1390 -0.4991
 9058SOL     OW38806   0.641   4.588   3.073 -0.2703 -0.3264  0.2616
 9058SOL    HW138807   0.686   4.655   3.124 -0.2959  0.3909 -0.6508
 9058SOL    HW238808   0.589   4.642   3.012  1.0089 -0.4304 -0.9298
 9059SOL     OW38809   4.048   4.670   2.101 -0.3997  0.8041  0.0732
 9059SOL    HW138810   4.073   0.013   2.050 -1.7724  1.4252  0.3550
 9059SOL    HW238811   3.976   4.706   2.153 -1.9026  0.6440 -1.9035
 9060SOL     OW38812   2.449   1.388   4.207  0.4050  0.6515  0.0952
 9060SOL    HW138813   2.499   1.326   4.155 -0.4836  0.5551 -0.6458
 9060SOL    HW238814   2.442   1.330   4.283 -1.3207 -0.0832 -0.6230
 9061SOL     OW38815   0.995   4.082  17.380  0.2720 -0.5962  0.1160
 9061SOL    HW138816   0.945   4.149  17.427 -0.3457 -0.5450 -0.6202
 9061SOL    HW238817   1.035   4.136  17.313  0.4061  1.2867  1.7008
 9062SOL     OW38818   4.126   3.211  14.104  0.4285 -0.2950  0.1233
 9062SOL    HW138819   4.038   3.224  14.068  1.0226 -2.0993 -2.0228
 9062SOL    HW238820   4.172   3.213  14.020  1.0927 -0.3464  0.4821
 9063SOL     OW38821   3.595   2.761   5.440  0.5273  0.6055  0.1048
 9063SOL    HW138822   3.608   2.812   5.360 -3.9373  0.4640 -0.7461
 9063SOL    HW238823   3.505   2.744   5.412 -0.4211  0.5656  3.2142
 9064SOL     OW38824   0.545   0.739   7.321  0.2457  0.4223  0.1422
 9064SOL    HW138825   0.552   0.757   7.227  0.2388  1.0224  0.2533
 9064SOL    HW238826   0.563   0.646   7.331  0.2768  0.4393  0.2454
 9065SOL     OW38827   0.817   2.286   5.876  0.2639  0.1853  0.2655
 9065SOL    HW138828   0.879   2.242   5.817 -1.9308 -0.0882 -1.8715
 9065SOL    HW238829   0.846   2.256   5.962 -0.2107  0.3539  0.4779
 9066SOL     OW38830   4.286   3.658   5.667 -0.1965  0.0016 -0.2762
 9066SOL    HW138831   4.232   3.582   5.647 -1.0641  0.7445 -0.7393
 9066SOL    HW238832   4.251   3.682   5.753 -0.5913  1.0738 -0.7423
 9067SOL     OW38833   2.850   3.448   7.360  0.4801  0.0546 -0.1909
 9067SOL    HW138834   2.867   3.371   7.305 -1.4512 -0.8574  0.4754
 9067SOL    HW238835   2.755   3.462   7.355  0.2391 -0.4579  2.8854
 9068SOL     OW38836   1.878   2.350   8.187 -0.6998  0.1066 -0.4246
 9068SOL    HW138837   1.938   2.383   8.254  0.4863  0.4471 -1.6578
 9068SOL    HW238838   1.849   2.425   8.135  0.7256  0.1193 -1.1851
 9069SOL     OW38839   1.593   1.658   0.101  0.1759  0.1941  0.2647
 9069SOL    HW138840   1.552   1.634   0.018 -0.7517 -1.4642  1.2023
 9069SOL    HW238841   1.680   1.689   0.075  1.1929 -1.4950  1.6665
 9070SOL     OW38842   1.809   1.804   0.049 -0.6522 -0.1374 -0.0665
 9070SOL    HW138843   1.855   1.841   0.124  0.1057  2.3111 -1.7140
 9070SOL    HW238844   1.877   1.818  17.718  2.3578 -0.9914  2.8473
 9071SOL     OW38845   1.372   3.217   5.809  0.2041  0.0475 -0.1211
 9071SOL    HW138846   1.346   3.134   5.848  1.7518 -0.1684  0.4519
 9071SOL    HW238847   1.406   3.184   5.726  0.2559 -0.0110 -0.0771
 9072SOL     OW38848   2.587   1.471   7.217 -0.6676 -0.4277  0.2465
 9072SOL    HW138849   2.559   1.543   7.162 -0.2066  1.7766  2.8889
 9072SOL    HW238850   2.520   1.472   7.286  0.0553 -1.0868  0.9543
 9073SOL     OW38851   2.410   2.307   3.177 -0.0210  0.3552 -0.1384
 9073SOL    HW138852   2.350   2.358   3.122 -2.2774 -2.1414  0.0221
 9073SOL    HW238853   2.436   2.370   3.245  1.5234 -0.7988  0.3592
 9074SOL     OW38854   1.812   4.446  12.513 -0.0195  0.0670  0.2630
 9074SOL    HW138855   1.747   4.376  12.506  2.2160 -2.1851  2.3213
 9074SOL    HW238856   1.755   4.523  12.509 -0.9351 -0.5210  2.0458
 9075SOL     OW38857   2.597   0.037   8.186  0.0744 -0.6735 -0.6469
 9075SOL    HW138858   2.683   0.074   8.167  0.1302  0.0660  1.1186
 9075SOL    HW238859   2.555   0.123   8.183 -0.6187 -0.9414  1.8705
 9076SOL     OW38860   1.735   0.748   3.719 -0.3903 -0.3865 -0.3926
 9076SOL    HW138861   1.672   0.798   3.667 -0.8911  1.1157  1.6452
 9076SOL    HW238862   1.796   0.810   3.759 -1.8863  0.0325  1.2489
 9077SOL     OW38863   3.236   2.726  11.223  0.0985 -0.3528 -0.1962
 9077SOL    HW138864   3.251   2.687  11.309 -0.5507 -0.5822 -0.1870
 9077SOL    HW238865   3.272   2.659  11.165 -0.3956 -1.6478  0.9830
 9078SOL     OW38866   2.013   3.096   4.298  0.1224  0.1474 -0.1124
 9078SOL    HW138867   1.925   3.124   4.271 -0.0655  1.1608  1.5322
 9078SOL    HW238868   1.985   3.058   4.381 -1.0644  2.1625  0.4149
 9079SOL     OW38869   4.053   1.501   3.498  0.2731 -0.2004  0.6297
 9079SOL    HW138870   3.965   1.482   3.465  0.9104  1.0291 -1.8049
 9079SOL    HW238871   4.066   1.423   3.552  0.6783  0.8176  2.0047
 9080SOL     OW38872   1.635   0.867   2.738 -0.1029  0.3006 -0.1572
 9080SOL    HW138873   1.705   0.921   2.700  0.3478 -1.9269 -2.5456
 9080SOL    HW238874   1.568   0.933   2.720 -0.8000 -0.9401 -2.1624
 9081SOL     OW38875   3.370   4.450  14.597 -0.0942  0.1556 -0.3900
 9081SOL    HW138876   3.421   4.376  14.564 -0.5258  0.6036 -2.1043
 9081SOL    HW238877   3.307   4.451  14.524 -0.5352  0.4001 -0.0037
 9082SOL     OW38878   0.216   0.297  17.526  0.1597  0.1757  1.0220
 9082SOL    HW138879   0.267   0.372  17.494 -1.1965  1.2957  1.5003
 9082SOL    HW238880   0.291   0.238  17.539  0.5399 -0.0156 -2.0298
 9083SOL     OW38881   4.275   3.027  13.702  0.1345  0.3011  0.0794
 9083SOL    HW138882   4.220   3.072  13.638  2.6341  3.4100  0.1438
 9083SOL    HW238883   4.214   2.954  13.718  1.2988 -0.5096  0.7677
 9084SOL     OW38884   0.419   0.109  17.562  0.4951 -0.4960  0.6196
 9084SOL    HW138885   0.368   0.037  17.598  2.4234 -0.7272  2.8645
 9084SOL    HW238886   0.481   0.123  17.633  0.0459 -0.4349  0.9962
 9085SOL     OW38887   2.598   1.594   2.951 -0.1411 -0.3827  0.2939
 9085SOL    HW138888   2.578   1.511   2.995 -2.6781  0.0306 -0.0937
 9085SOL    HW238889   2.685   1.611   2.988  0.4309 -0.5501 -0.9870
 9086SOL     OW38890   4.290   1.612   3.552  0.6026 -0.2244 -0.1197
 9086SOL    HW138891   4.289   1.705   3.531 -1.1326 -0.3146 -0.4237
 9086SOL    HW238892   4.206   1.575   3.523 -0.3008  1.9005 -0.1976
 9087SOL     OW38893   2.069   1.744   8.213  0.1030  0.2617  0.0126
 9087SOL    HW138894   1.990   1.775   8.170  1.9004  0.2613 -3.2680
 9087SOL    HW238895   2.071   1.798   8.292  1.6378 -0.9784  0.8176
 9088SOL     OW38896   0.936   3.084   0.803  0.4589 -0.3910  0.2904
 9088SOL    HW138897   0.866   3.143   0.832  1.0663  0.5027 -0.0422
 9088SOL    HW238898   1.005   3.148   0.784 -2.0993  2.0175 -1.0154
 9089SOL     OW38899   0.149   2.376   2.844  0.3861  0.1252 -0.2411
 9089SOL    HW138900   0.108   2.463   2.840 -0.7474 -0.3372  1.3184
 9089SOL    HW238901   0.155   2.355   2.751 -1.8348  0.3746 -0.4640
 9090SOL     OW38902   4.293   4.265   6.713  0.4615  0.4419 -0.0320
 9090SOL    HW138903   4.234   4.191   6.698  0.0644  0.9777 -1.0887
 9090SOL    HW238904   4.299   4.266   6.808  2.5391 -0.7578 -0.1617
 9091SOL     OW38905   1.562   2.938  14.143 -0.4135 -0.3621  0.2798
 9091SOL    HW138906   1.652   2.911  14.161  0.1482 -0.2256 -2.3368
 9091SOL    HW238907   1.510   2.867  14.181  0.6754 -0.0577  2.3447
 9092SOL     OW38908   2.028   3.078   8.149 -0.0799 -0.2198  0.1678
 9092SOL    HW138909   2.015   3.146   8.083 -0.6667  0.0937  0.6069
 9092SOL    HW238910   1.943   3.034   8.148  0.7147 -1.8542  3.3303
 9093SOL     OW38911   1.471   1.659   5.697  0.0623 -0.4846 -0.1031
 9093SOL    HW138912   1.408   1.587   5.704 -1.0952  0.4566 -0.7951
 9093SOL    HW238913   1.430   1.727   5.752  1.0580 -0.6821  0.8739
 9094SOL     OW38914   1.500   3.940   6.714 -0.7635 -0.0192 -0.2311
 9094SOL    HW138915   1.408   3.921   6.696 -0.7135 -1.9681  1.5557
 9094SOL    HW238916   1.495   4.030   6.748  1.7556  0.1717 -0.3831
 9095SOL     OW38917   2.001   0.810   2.764  0.0694 -0.2952  0.0904
 9095SOL    HW138918   1.985   0.722   2.797  1.7650 -0.4428  0.5057
 9095SOL    HW238919   1.951   0.810   2.682 -0.8817 -0.4504  0.6665
 9096SOL     OW38920   2.794   2.518   2.835  0.1928 -0.3787  0.4524
 9096SOL    HW138921   2.763   2.486   2.750 -0.5540  1.0323  0.1983
 9096SOL    HW238922   2.749   2.448   2.882 -1.7268 -0.3005 -1.2656
 9097SOL     OW38923   0.257   4.123  13.555  0.0720  0.0749 -0.3721
 9097SOL    HW138924   0.250   4.059  13.625  2.0856  2.2842  1.8160
 9097SOL    HW238925   0.326   4.088  13.499 -0.3726 -1.1343 -0.1534
 9098SOL     OW38926   4.083   3.514   8.367 -0.0692 -0.0626 -0.3467
 9098SOL    HW138927   4.136   3.434   8.366 -1.5979 -1.0708 -1.8233
 9098SOL    HW238928   4.022   3.489   8.297 -1.0574 -0.5216  0.6827
 9099SOL     OW38929   2.749   3.976   8.081  0.1839  0.2686 -0.3519
 9099SOL    HW138930   2.831   3.928   8.088 -0.8391 -1.5400 -0.7887
 9099SOL    HW238931   2.688   3.917   8.126  0.7153 -1.4230 -1.8646
 9100SOL     OW38932   2.012   0.181  16.391  0.3136  0.1938 -0.2045
 9100SOL    HW138933   1.971   0.153  16.310 -1.0115 -0.5216  0.7113
 9100SOL    HW238934   2.078   0.112  16.394 -1.5405 -1.5493  0.0870
 9101SOL     OW38935   3.701   2.578   9.664 -0.6029  0.2004  0.5930
 9101SOL    HW138936   3.607   2.580   9.680 -0.2846  1.2066  2.3506
 9101SOL    HW238937   3.728   2.486   9.670 -1.2651  0.2646  4.6539
 9102SOL     OW38938   4.496   3.870   7.462  0.2263  0.4421 -0.4299
 9102SOL    HW138939   4.506   3.938   7.528  1.1469 -1.1000  0.9937
 9102SOL    HW238940   4.574   3.824   7.489 -0.2565  0.4124  0.8886
 9103SOL     OW38941   0.819   3.082   6.536 -0.2310  0.0953 -0.2798
 9103SOL    HW138942   0.835   3.071   6.630 -1.6091  1.0589  0.0608
 9103SOL    HW238943   0.815   2.989   6.512 -0.5278  0.1107 -0.2803
 9104SOL     OW38944   2.383   0.351  16.968  0.5043 -0.2385  0.0099
 9104SOL    HW138945   2.413   0.422  16.911 -0.4433 -1.0813 -1.5030
 9104SOL    HW238946   2.289   0.358  16.953  0.2775  1.4359  2.0986
 9105SOL     OW38947   4.019   1.017   9.465 -0.0012  0.4486  0.5864
 9105SOL    HW138948   4.012   0.955   9.392  0.4145  1.0646  0.0340
 9105SOL    HW238949   4.076   1.083   9.426  0.3545 -0.4179 -0.3659
 9106SOL     OW38950   3.126   4.111   6.594 -0.3211 -0.0841  0.5706
 9106SOL    HW138951   3.131   4.026   6.551  2.0208  0.6007 -0.4780
 9106SOL    HW238952   3.157   4.173   6.528 -1.7735 -1.1813 -1.1335
 9107SOL     OW38953   4.436   2.001   2.638 -0.2506 -0.2635  0.3436
 9107SOL    HW138954   4.469   1.912   2.630 -1.4477 -0.5211 -1.8245
 9107SOL    HW238955   4.350   1.976   2.671 -0.8947  0.2190 -0.9465
 9108SOL     OW38956   0.322   4.668   8.850 -0.1833  0.2579  0.3002
 9108SOL    HW138957   0.227   4.679   8.843 -0.2623  0.6634  2.0130
 9108SOL    HW238958   0.350   0.025   8.856  0.3556  0.1437 -0.4055
 9109SOL     OW38959   4.637   1.812   2.445 -0.5674  0.2199  0.0272
 9109SOL    HW138960   4.721   1.855   2.460 -1.4953  1.0806  2.6660
 9109SOL    HW238961   4.646   1.800   2.350 -0.3586  1.2848 -0.0923
 9110SOL     OW38962   4.257   2.440   6.385  0.4561 -0.5050  0.1139
 9110SOL    HW138963   4.341   2.399   6.404 -0.1175 -0.6099  2.3789
 9110SOL    HW238964   4.214   2.354   6.386 -1.5532  0.5121  0.9156
 9111SOL     OW38965   0.094   1.698   1.786  0.3612  0.4682  0.7762
 9111SOL    HW138966   0.149   1.768   1.750  0.0922 -0.1657 -0.8474
 9111SOL    HW238967   0.073   1.723   1.876  0.1418 -0.2956  0.9430
 9112SOL     OW38968   0.136   1.037   7.574  0.3048  0.0943 -0.2392
 9112SOL    HW138969   0.116   1.085   7.655  0.8457  0.3073 -0.2354
 9112SOL    HW238970   0.229   1.057   7.562  0.5635 -1.5646 -0.9612
 9113SOL     OW38971   1.392   2.147   2.562 -0.6407 -0.4269  0.2151
 9113SOL    HW138972   1.304   2.132   2.528 -0.1189  0.4751 -1.5036
 9113SOL    HW238973   1.396   2.054   2.583  1.6614 -0.5290 -0.6169
 9114SOL     OW38974   1.564   3.041   6.127  0.2857  0.3377  0.4379
 9114SOL    HW138975   1.621   3.060   6.201  1.6920  1.6257 -0.9788
 9114SOL    HW238976   1.476   3.038   6.165  0.5487  0.3569  1.0481
 9115SOL     OW38977   1.120   3.619   2.097  0.1697  0.4100  0.3305
 9115SOL    HW138978   1.205   3.634   2.139 -0.0053  0.1067  0.7917
 9115SOL    HW238979   1.083   3.550   2.153 -1.5098 -0.9709 -2.4803
 9116SOL     OW38980   4.221   3.873   7.185  0.2499 -0.9399 -0.3403
 9116SOL    HW138981   4.315   3.859   7.173  0.1136 -1.2641 -1.0253
 9116SOL    HW238982   4.225   3.890   7.280  0.2943 -3.1063  0.0391
 9117SOL     OW38983   2.790   4.642  10.103  0.5337  0.4716 -0.0132
 9117SOL    HW138984   2.715   4.605  10.151  0.1060 -0.6460 -1.5527
 9117SOL    HW238985   2.846   4.659  10.179 -0.6591 -1.6943  1.3525
 9118SOL     OW38986   1.430   2.598   8.454 -0.3585 -0.3680 -0.1517
 9118SOL    HW138987   1.512   2.588   8.406 -0.3758  2.1735 -0.7458
 9118SOL    HW238988   1.430   2.523   8.513 -2.1532 -1.2673 -1.3232
 9119SOL     OW38989   3.933   0.452  12.246  0.3842 -0.3091 -0.1188
 9119SOL    HW138990   3.949   0.369  12.201 -0.8938 -0.2902 -0.6049
 9119SOL    HW238991   4.022   0.483  12.261 -0.2677  1.7525 -0.5625
 9120SOL     OW38992   1.973   2.302   6.720 -0.2864 -0.3489 -0.2798
 9120SOL    HW138993   2.026   2.232   6.682 -0.6589  0.0223 -1.4772
 9120SOL    HW238994   2.015   2.381   6.686 -0.0804 -0.7541 -0.9672
 9121SOL     OW38995   4.096   4.007   3.010  0.2099  0.7804  0.0986
 9121SOL    HW138996   4.049   3.935   3.050  1.1361 -0.3106 -0.7919
 9121SOL    HW238997   4.079   4.078   3.073 -0.6454 -2.9093  3.9991
 9122SOL     OW38998   4.226   3.644   1.212  0.4932 -0.1903  0.6322
 9122SOL    HW138999   4.206   3.667   1.303 -0.1214 -1.0454  0.7099
 9122SOL    HW239000   4.212   3.550   1.219 -0.1608 -0.1842 -0.7869
 9123SOL     OW39001   0.372   4.039   7.321  0.2499 -0.1908 -0.0119
 9123SOL    HW139002   0.386   4.114   7.264  2.0963  0.7853  1.7431
 9123SOL    HW239003   0.369   4.084   7.405  1.0322  1.4932 -0.8881
 9124SOL     OW39004   1.625   0.705   1.513  0.2796  0.0579  0.1185
 9124SOL    HW139005   1.713   0.691   1.476 -0.4345 -1.0601 -1.1647
 9124SOL    HW239006   1.599   0.787   1.470 -0.4163 -0.3030 -0.1384
 9125SOL     OW39007   1.382   3.789   8.325 -0.0953  0.3533  0.2950
 9125SOL    HW139008   1.369   3.705   8.281  1.1374 -0.8161  2.1242
 9125SOL    HW239009   1.388   3.767   8.418 -1.4728 -2.1067 -0.2036
 9126SOL     OW39010   4.032   4.246   6.111  0.5095  0.1260  0.3084
 9126SOL    HW139011   4.124   4.240   6.087  0.4717  5.1222 -1.0781
 9126SOL    HW239012   4.017   4.332   6.149  1.6893  1.1305 -1.5728
 9127SOL     OW39013   2.752   3.384   3.529  0.4518 -0.1338  0.5086
 9127SOL    HW139014   2.749   3.412   3.621 -1.3382 -0.6899  0.6238
 9127SOL    HW239015   2.687   3.449   3.501 -0.6291 -0.9780  1.0767
 9128SOL     OW39016   0.333   4.151   6.742 -0.1908 -0.0453 -0.2650
 9128SOL    HW139017   0.406   4.100   6.706  0.1198  1.3606 -1.6337
 9128SOL    HW239018   0.344   4.216   6.672 -1.8906  0.6902  0.1626
 9129SOL     OW39019   3.819   1.449   3.174 -0.2486  0.5480 -0.7247
 9129SOL    HW139020   3.791   1.447   3.266  2.2064  0.2765  0.0275
 9129SOL    HW239021   3.866   1.533   3.165  1.7913 -0.3221  1.7421
 9130SOL     OW39022   2.103   0.063   0.147  0.8684 -0.7677  0.4799
 9130SOL    HW139023   2.029   0.002   0.142  1.6026 -1.5032 -1.4816
 9130SOL    HW239024   2.057   0.146   0.157 -0.5067 -1.6448  1.5182
 9131SOL     OW39025   2.826   1.959   4.251 -0.0707 -0.0846 -0.3853
 9131SOL    HW139026   2.836   2.013   4.329 -0.3018  1.9448 -1.7604
 9131SOL    HW239027   2.900   1.898   4.253  1.1914  1.4262 -1.3613
 9132SOL     OW39028   2.145   3.552  13.266 -0.9487  0.4180  0.0710
 9132SOL    HW139029   2.170   3.488  13.199  2.6159 -1.7212  3.4358
 9132SOL    HW239030   2.056   3.564  13.234 -0.1507  1.2813 -1.7626
 9133SOL     OW39031   2.252   1.828   2.550 -0.4458  0.0847 -0.0539
 9133SOL    HW139032   2.328   1.824   2.492 -0.5092  0.8324 -0.1933
 9133SOL    HW239033   2.284   1.897   2.609  0.3221  0.7921 -1.2969
 9134SOL     OW39034   4.550   4.556   6.134 -0.3334 -0.2498  0.4517
 9134SOL    HW139035   4.551   4.600   6.219  2.1672  0.1358  0.2120
 9134SOL    HW239036   4.645   4.552   6.130 -0.2564  1.3707  0.4938
 9135SOL     OW39037   1.418   1.192  11.265  0.3743 -0.0028 -0.2759
 9135SOL    HW139038   1.341   1.157  11.219 -1.4903  3.0332  0.5274
 9135SOL    HW239039   1.457   1.248  11.198  1.9388  1.1094  1.5685
 9136SOL     OW39040   1.583   0.903  11.164 -0.1432 -0.2842  0.4334
 9136SOL    HW139041   1.491   0.926  11.155 -0.2143  0.0621  2.0468
 9136SOL    HW239042   1.620   0.901  11.076 -1.3807 -0.5895 -0.0652
 9137SOL     OW39043   4.133   0.767   0.823  0.9115  0.6253  0.1109
 9137SOL    HW139044   4.203   0.763   0.759  0.4999  1.6987 -0.4080
 9137SOL    HW239045   4.087   0.684   0.813  0.3736  0.8032  1.1443
 9138SOL     OW39046   1.433   0.112  13.268  0.1036  0.4075 -0.1196
 9138SOL    HW139047   1.390   0.061  13.200  0.5417  0.7774 -0.6647
 9138SOL    HW239048   1.386   0.194  13.253 -0.2266 -0.2419 -2.5847
 9139SOL     OW39049   2.259   0.362   7.764  0.2939  0.5233  0.8644
 9139SOL    HW139050   2.310   0.308   7.704  0.3062  3.7931 -2.0411
 9139SOL    HW239051   2.256   0.445   7.716  1.0781  0.8566  1.3825
 9140SOL     OW39052   4.530   0.116   1.553  0.8242 -0.1060 -0.5329
 9140SOL    HW139053   4.533   0.195   1.608 -0.0988 -1.3331  1.2445
 9140SOL    HW239054   4.443   0.082   1.569  1.1466 -1.2773 -1.2680
 9141SOL     OW39055   3.067   0.610   7.826 -0.8668 -0.2331  0.4061
 9141SOL    HW139056   3.109   0.691   7.799 -1.4396 -0.2824 -0.6448
 9141SOL    HW239057   3.140   0.581   7.881 -1.6077 -0.2215  1.3928
 9142SOL     OW39058   2.105   0.623   9.000 -0.8806 -0.2246 -0.2117
 9142SOL    HW139059   2.080   0.697   9.056  2.0769 -0.0285  0.8124
 9142SOL    HW239060   2.198   0.622   9.024 -0.4601  2.8594 -1.6721
 9143SOL     OW39061   1.026   2.116   5.899  0.1306 -0.0344 -0.0038
 9143SOL    HW139062   1.078   2.197   5.895  0.3874 -0.2365 -0.7125
 9143SOL    HW239063   1.095   2.054   5.925  1.2702  0.2843 -2.2318
 9144SOL     OW39064   3.938   1.370   7.581  0.3861  0.2664  0.0938
 9144SOL    HW139065   4.009   1.432   7.595 -0.3104  1.0794 -0.0318
 9144SOL    HW239066   3.856   1.409   7.610  1.9656  2.1664  1.9672
 9145SOL     OW39067   3.519   3.325   6.890  0.3836  0.0413  0.5291
 9145SOL    HW139068   3.452   3.286   6.833 -0.6131 -0.3942  2.0232
 9145SOL    HW239069   3.473   3.404   6.919 -1.8228  0.1766 -3.2386
 9146SOL     OW39070   0.561   1.226   3.735  0.0387 -0.2490 -0.4722
 9146SOL    HW139071   0.485   1.174   3.709 -0.4369 -0.9820  2.3413
 9146SOL    HW239072   0.625   1.163   3.704 -0.2703  0.2692 -2.1266
 9147SOL     OW39073   0.453   3.949   3.324  0.0842 -0.0184 -0.0813
 9147SOL    HW139074   0.415   3.861   3.324 -1.1825  0.5229 -0.1257
 9147SOL    HW239075   0.494   3.959   3.410 -2.2563  0.5896  0.9645
 9148SOL     OW39076   2.454   1.232   5.072  0.2800 -0.3375  0.1168
 9148SOL    HW139077   2.451   1.142   5.039  1.6616  0.2880 -1.6845
 9148SOL    HW239078   2.400   1.230   5.151  0.2918 -0.4415  0.1216
 9149SOL     OW39079   1.881   0.686  12.584 -0.0866  0.3436  0.9837
 9149SOL    HW139080   1.913   0.598  12.564  0.9361  0.7048  1.0361
 9149SOL    HW239081   1.920   0.731  12.510  1.0461 -0.1136  1.3055
 9150SOL     OW39082   4.475   1.112   8.910 -0.3201  0.4620 -0.0034
 9150SOL    HW139083   4.478   1.199   8.871  4.7174 -1.0270 -2.8915
 9150SOL    HW239084   4.448   1.130   9.000  1.1361  1.3233  0.2559
 9151SOL     OW39085   4.451   2.403   0.935 -0.2406 -0.2186  0.0362
 9151SOL    HW139086   4.444   2.472   1.002  0.9706 -0.0127 -0.0408
 9151SOL    HW239087   4.546   2.412   0.921 -0.4346 -0.1131 -1.2687
 9152SOL     OW39088   4.196   2.975  11.232  0.6145 -0.0145 -1.4215
 9152SOL    HW139089   4.283   2.959  11.269  0.1399  0.1818 -0.1980
 9152SOL    HW239090   4.149   2.972  11.316  0.8630  1.1172 -1.2386
 9153SOL     OW39091   1.913   2.100   7.033 -0.4807 -0.2106  0.0482
 9153SOL    HW139092   1.887   2.110   7.125  0.7874 -0.8109  0.4714
 9153SOL    HW239093   2.002   2.134   7.044 -0.1753 -0.7764 -0.6668
 9154SOL     OW39094   3.390   1.440   5.876  0.4791  0.3516  0.2200
 9154SOL    HW139095   3.463   1.381   5.859 -1.2456 -1.4620 -0.9865
 9154SOL    HW239096   3.340   1.392   5.942  1.0607  0.5146  0.7682
 9155SOL     OW39097   0.468   3.834   8.104  0.0949  0.1003 -0.1744
 9155SOL    HW139098   0.389   3.784   8.127 -0.0336  0.5975  0.4722
 9155SOL    HW239099   0.433   3.923   8.103  1.3596  0.5942  0.4691
 9156SOL     OW39100   3.840   4.590   0.051  0.2316  0.2664  0.1081
 9156SOL    HW139101   3.833   4.673   0.004 -0.0192 -0.6087 -1.4188
 9156SOL    HW239102   3.926   4.590   0.091  0.6344  2.1612 -0.7880
 9157SOL     OW39103   0.801   0.668   6.030  0.2386 -0.0930  0.0500
 9157SOL    HW139104   0.879   0.657   6.084  0.6746  1.4759 -0.2711
 9157SOL    HW239105   0.733   0.711   6.083 -0.9045 -0.9135 -0.7568
 9158SOL     OW39106   2.219   1.072   9.275 -0.1818  0.4125 -0.3096
 9158SOL    HW139107   2.143   1.130   9.276  0.9917  1.9580 -0.6104
 9158SOL    HW239108   2.234   1.045   9.366  0.0774 -1.6071 -0.9424
 9159SOL     OW39109   0.454   3.739  10.238  0.3248  0.3320  0.3248
 9159SOL    HW139110   0.545   3.751  10.212  0.5710  0.7837  1.3921
 9159SOL    HW239111   0.433   3.649  10.213  0.9941 -0.5723  3.0395
 9160SOL     OW39112   0.246   1.860  17.474 -0.3413  0.0688  0.0741
 9160SOL    HW139113   0.298   1.780  17.483 -0.7231 -0.2899 -0.9086
 9160SOL    HW239114   0.185   1.822  17.410 -1.7941 -3.2089  3.3901
 9161SOL     OW39115   0.495   1.472  11.743  0.3854 -0.4110  0.7321
 9161SOL    HW139116   0.545   1.445  11.666 -0.2192 -0.1442  0.2525
 9161SOL    HW239117   0.447   1.545  11.704  0.9335 -0.3969  0.0830
 9162SOL     OW39118   2.963   3.516   6.811  0.1293 -0.4557  0.3284
 9162SOL    HW139119   2.940   3.508   6.718 -1.9904  2.8860  0.5799
 9162SOL    HW239120   3.031   3.583   6.819  0.5514 -1.0715  1.8549
 9163SOL     OW39121   0.671   1.686   4.618  0.0717  0.0421 -0.7293
 9163SOL    HW139122   0.599   1.659   4.675  0.4616  0.0373 -0.2522
 9163SOL    HW239123   0.716   1.604   4.598 -3.1488 -1.5801 -1.3684
 9164SOL     OW39124   4.569   4.692  17.172 -0.0386  0.0567 -0.3159
 9164SOL    HW139125   4.631   4.653  17.111  2.0939  0.2597  1.7335
 9164SOL    HW239126   4.616   0.032  17.210  6.1671 -2.9353 -2.0641
 9165SOL     OW39127   2.846   4.006   1.936  0.7956  0.1283  0.2722
 9165SOL    HW139128   2.841   3.911   1.932 -1.5492  0.2619 -0.6359
 9165SOL    HW239129   2.932   4.016   1.976 -0.0339  0.2870  1.9866
 9166SOL     OW39130   1.458   2.220  15.170 -0.2526  0.3487 -0.3301
 9166SOL    HW139131   1.372   2.181  15.185 -0.4277 -0.1264 -2.6901
 9166SOL    HW239132   1.509   2.162  15.228  0.6020  1.4613  0.0306
 9167SOL     OW39133   2.014   1.066   2.451  0.5189  0.6103 -0.5567
 9167SOL    HW139134   2.083   1.133   2.444 -0.7949  1.8953 -1.1818
 9167SOL    HW239135   1.952   1.090   2.382 -1.0767 -1.1921  0.2553
 9168SOL     OW39136   2.625   3.183  14.904  0.5046  0.2319 -0.2118
 9168SOL    HW139137   2.635   3.206  14.811 -0.9817  1.6593 -0.0057
 9168SOL    HW239138   2.694   3.240  14.939 -0.0543  1.4436 -1.1046
 9169SOL     OW39139   1.618   0.176  15.225  0.4811 -0.0456  0.3494
 9169SOL    HW139140   1.530   0.211  15.239 -0.5096 -1.3126 -2.6113
 9169SOL    HW239141   1.593   0.096  15.177  4.5273 -1.3185  0.3044
 9170SOL     OW39142   3.833   0.068   0.319 -0.6628 -0.0755  0.2552
 9170SOL    HW139143   3.741   0.082   0.295 -0.5175 -0.6593 -0.6372
 9170SOL    HW239144   3.839   4.708   0.337 -1.8255 -0.3126 -0.5595
 9171SOL     OW39145   4.284   3.288  10.953 -1.0708 -0.0668  0.3843
 9171SOL    HW139146   4.256   3.318  10.867  0.9798 -0.9537 -0.5819
 9171SOL    HW239147   4.211   3.233  10.982  1.7064 -3.0372  1.7286
 9172SOL     OW39148   3.663   3.241   8.237 -0.3804  0.0629  0.9565
 9172SOL    HW139149   3.700   3.154   8.228 -0.7798  0.0818 -0.8594
 9172SOL    HW239150   3.573   3.234   8.206  0.4421 -1.1861 -1.1341
 9173SOL     OW39151   0.006   1.178   2.469 -0.1915 -0.2571  0.0023
 9173SOL    HW139152   0.023   1.110   2.403  0.6149 -0.1436  0.0933
 9173SOL    HW239153   4.652   1.144   2.487 -0.6514  1.0495  0.1930
 9174SOL     OW39154   2.932   0.464  17.267 -0.0532 -0.2502 -0.0015
 9174SOL    HW139155   2.876   0.459  17.190 -1.7297 -0.4312  1.2486
 9174SOL    HW239156   2.899   0.399  17.328 -1.6407 -1.2254 -1.8973
 9175SOL     OW39157   2.185   3.925  16.471  0.0771 -0.5359  0.1021
 9175SOL    HW139158   2.161   3.868  16.397  0.3040  1.7958 -1.7899
 9175SOL    HW239159   2.273   3.889  16.483  0.7642  0.9316 -0.5690
 9176SOL     OW39160   2.969   0.747   8.448 -0.2609  0.8917  0.1861
 9176SOL    HW139161   2.974   0.725   8.355  1.6170 -0.7345  0.6410
 9176SOL    HW239162   2.937   0.836   8.439 -2.5644  0.1625  1.1590
 9177SOL     OW39163   2.078   3.103   5.715 -0.4226 -0.3056  0.0040
 9177SOL    HW139164   2.156   3.054   5.740 -0.1562 -0.6616 -1.4982
 9177SOL    HW239165   2.062   3.074   5.625  2.3817  0.6629 -0.8226
 9178SOL     OW39166   4.267   0.210   1.838 -0.9093 -0.3359 -0.3432
 9178SOL    HW139167   4.338   0.190   1.899 -0.1112  2.4902 -0.3543
 9178SOL    HW239168   4.200   0.210   1.906 -0.0309  2.6338  0.5321
 9179SOL     OW39169   1.539   3.868  12.831  0.6474 -0.7449  0.7088
 9179SOL    HW139170   1.482   3.849  12.905  1.3955  1.4256  1.8417
 9179SOL    HW239171   1.594   3.792  12.849  0.9138 -0.3900  1.4183
 9180SOL     OW39172   4.260   2.065  12.683 -0.0755  0.5148 -0.3555
 9180SOL    HW139173   4.337   2.021  12.647 -2.1506 -0.9170 -3.0503
 9180SOL    HW239174   4.262   2.061  12.778 -0.3476 -2.3917 -0.4975
 9181SOL     OW39175   2.839   2.384   3.131  0.1411 -0.0512  0.0965
 9181SOL    HW139176   2.770   2.360   3.070 -0.4943  0.9219  0.4195
 9181SOL    HW239177   2.826   2.476   3.157  2.8016  0.5731 -0.7353
 9182SOL     OW39178   2.337   0.694   9.124  0.0421  0.0625 -0.6398
 9182SOL    HW139179   2.336   0.674   9.218 -1.8245 -0.2605 -0.7283
 9182SOL    HW239180   2.428   0.713   9.101  0.6715  1.3903  2.8820
 9183SOL     OW39181   1.552   4.241   8.450 -0.1154  0.1902  0.0419
 9183SOL    HW139182   1.511   4.326   8.435 -1.7579 -0.7263 -0.6968
 9183SOL    HW239183   1.488   4.178   8.418 -1.0215 -0.1633  2.5481
 9184SOL     OW39184   2.553   4.157  11.728  0.3391  0.9547  0.1374
 9184SOL    HW139185   2.579   4.191  11.814  1.7652  0.3184 -0.0405
 9184SOL    HW239186   2.587   4.224  11.669  0.4163  1.2861  0.5589
 9185SOL     OW39187   2.626   3.611   4.346  0.1680  0.9891  0.2676
 9185SOL    HW139188   2.639   3.620   4.251 -0.9080 -2.8431 -0.2718
 9185SOL    HW239189   2.543   3.658   4.351 -0.1109  0.2388  2.4941
 9186SOL     OW39190   4.098   3.135   9.228  0.3537  0.2555  0.2409
 9186SOL    HW139191   4.147   3.120   9.309  0.9371  1.8820  0.2047
 9186SOL    HW239192   4.014   3.094   9.247 -0.1447 -0.2010 -2.9558
 9187SOL     OW39193   3.049   1.594   6.803  0.4629 -0.2867 -0.2499
 9187SOL    HW139194   2.995   1.635   6.871  0.5020  0.7692 -0.8504
 9187SOL    HW239195   2.972   1.560   6.757  0.1717 -0.5479  0.4306
 9188SOL     OW39196   1.707   2.670   9.518 -0.0200  0.1845  0.0705
 9188SOL    HW139197   1.632   2.639   9.468  1.2109 -0.7903 -1.1928
 9188SOL    HW239198   1.718   2.595   9.577  1.3728  0.8693  0.6790
 9189SOL     OW39199   2.602   2.833   3.256  0.6224  0.1407  0.3639
 9189SOL    HW139200   2.598   2.775   3.180  0.5003 -1.9551  1.9656
 9189SOL    HW239201   2.641   2.920   3.247  0.0971  0.4987  1.5020
 9190SOL     OW39202   0.509   4.593  15.764 -0.1059 -0.5059 -0.0706
 9190SOL    HW139203   0.507   4.685  15.793 -0.8857  0.2499 -2.4796
 9190SOL    HW239204   0.460   4.559  15.839 -2.1846 -2.7204 -2.4247
 9191SOL     OW39205   0.231   2.427   7.016  0.1515  0.6450 -0.1271
 9191SOL    HW139206   0.247   2.333   7.006 -0.9562  0.6232 -1.8299
 9191SOL    HW239207   0.143   2.439   6.981 -0.3856  0.3088  1.1127
 9192SOL     OW39208   1.683   1.841   4.383  0.5977 -0.3853  0.4758
 9192SOL    HW139209   1.768   1.806   4.356  0.4315  0.2378 -0.8531
 9192SOL    HW239210   1.692   1.866   4.475 -1.6202  1.2313  0.2522
 9193SOL     OW39211   4.400   1.974  14.018 -0.4567  0.5897 -0.2353
 9193SOL    HW139212   4.396   1.899  13.959  1.7351 -0.9276  1.5389
 9193SOL    HW239213   4.314   2.017  14.017 -0.2033  1.0911 -0.3898
 9194SOL     OW39214   2.482   4.033   5.231  0.2743 -0.0949 -0.1402
 9194SOL    HW139215   2.504   4.107   5.173 -1.8512 -0.3773 -1.3061
 9194SOL    HW239216   2.557   4.026   5.290  0.5661 -0.7052 -0.5869
 9195SOL     OW39217   3.185   0.280  14.912 -0.2954 -0.2436 -0.8327
 9195SOL    HW139218   3.236   0.331  14.975  0.0275  0.8658 -1.9745
 9195SOL    HW239219   3.106   0.335  14.917  0.3637  0.5286  1.0696
 9196SOL     OW39220   1.000   0.567   8.207  0.0786  0.3323 -0.4899
 9196SOL    HW139221   0.986   0.501   8.139 -0.1357  1.5160 -1.6100
 9196SOL    HW239222   0.959   0.517   8.277  2.7212 -0.1989  0.6661
 9197SOL     OW39223   1.276   3.419   3.094  0.1040  0.4789 -0.2811
 9197SOL    HW139224   1.288   3.395   3.186 -0.4709 -1.8082 -0.8004
 9197SOL    HW239225   1.200   3.477   3.098 -0.0934  0.4470 -3.1764
 9198SOL     OW39226   2.440   1.838  15.278  0.2167 -0.1595  0.0055
 9198SOL    HW139227   2.443   1.880  15.192  2.7146  0.6940  0.5192
 9198SOL    HW239228   2.487   1.903  15.330  0.5908 -2.3820  2.4517
 9199SOL     OW39229   1.767   3.150   6.353  0.1074 -0.1702 -0.1959
 9199SOL    HW139230   1.773   3.204   6.274 -1.6795 -0.3719 -0.4655
 9199SOL    HW239231   1.848   3.100   6.348  0.4007  0.3686 -0.8559
 9200SOL     OW39232   2.654   3.402  16.610  0.1072  0.0553 -0.2864
 9200SOL    HW139233   2.688   3.477  16.658 -0.0714 -0.5041  0.7241
 9200SOL    HW239234   2.698   3.324  16.645 -1.3532  0.2400  2.0089
 9201SOL     OW39235   2.380   0.499   6.232  0.0158 -0.0377 -0.0004
 9201SOL    HW139236   2.413   0.485   6.321  2.6409  1.2169 -0.7616
 9201SOL    HW239237   2.356   0.408   6.213  2.3019 -0.3567 -1.3713
 9202SOL     OW39238   3.575   1.985  17.731 -0.0954 -0.2479  0.2533
 9202SOL    HW139239   3.526   1.910   0.030 -1.4251  1.2296  1.6265
 9202SOL    HW239240   3.570   1.967  17.638 -2.2117  1.1168  0.0798
 9203SOL     OW39241   4.599   1.374   0.220  0.3009  0.4602  0.2931
 9203SOL    HW139242   4.636   1.438   0.159 -0.1949  1.3078  0.8815
 9203SOL    HW239243   4.659   1.390   0.293 -3.9505  1.8658  3.4482
 9204SOL     OW39244   4.184   2.335   4.914 -0.5012  0.7372  0.1082
 9204SOL    HW139245   4.205   2.247   4.883 -0.3681  0.9477 -0.3931
 9204SOL    HW239246   4.269   2.372   4.936 -1.1251  1.0708  1.9881
 9205SOL     OW39247   0.225   0.405   1.302  0.6635 -0.5945 -0.2293
 9205SOL    HW139248   0.287   0.437   1.367 -0.3301  0.9318 -0.0296
 9205SOL    HW239249   0.146   0.412   1.356 -0.2493  4.5204 -2.2024
 9206SOL     OW39250   2.251   4.275   2.292 -0.0256 -0.1338  0.6457
 9206SOL    HW139251   2.335   4.230   2.298  0.4366  0.7515  0.7939
 9206SOL    HW239252   2.264   4.349   2.350 -0.8444 -0.0702  0.7558
 9207SOL     OW39253   3.594   3.033  10.911 -0.3403 -0.5183  0.0226
 9207SOL    HW139254   3.604   3.108  10.970 -1.1869 -0.0910 -0.3812
 9207SOL    HW239255   3.502   3.011  10.928 -0.2039 -0.4541  0.8628
 9208SOL     OW39256   3.520   4.298   4.818 -0.3373 -0.6505  0.6249
 9208SOL    HW139257   3.486   4.219   4.775 -2.0026  1.1756 -1.3814
 9208SOL    HW239258   3.461   4.301   4.893 -0.7747 -0.5066  0.2718
 9209SOL     OW39259   2.623   2.306   3.493 -0.4632 -0.1504  0.6654
 9209SOL    HW139260   2.625   2.255   3.574 -0.3042 -2.8556 -1.0286
 9209SOL    HW239261   2.533   2.304   3.460 -0.8436  0.6796  1.6702
 9210SOL     OW39262   1.432   2.577   1.762  0.3127 -0.2234  0.6521
 9210SOL    HW139263   1.337   2.567   1.759  0.3878  0.0085 -2.7390
 9210SOL    HW239264   1.449   2.537   1.847  2.8470  1.3967  0.9411
 9211SOL     OW39265   3.347   1.759  16.269 -0.1452  0.1034  0.0852
 9211SOL    HW139266   3.345   1.671  16.231 -2.4789 -0.5358  1.6976
 9211SOL    HW239267   3.313   1.819  16.203  0.7180  0.2348 -0.2378
 9212SOL     OW39268   2.019   1.014   6.765 -0.4832 -0.4594  0.4801
 9212SOL    HW139269   2.030   0.945   6.700  0.2889 -2.2893  2.5743
 9212SOL    HW239270   1.927   1.033   6.746 -0.2791  0.5948  0.5323
 9213SOL     OW39271   0.791   4.367   3.031 -0.0087  0.2789  0.0285
 9213SOL    HW139272   0.729   4.295   3.039  0.2271  0.1235  0.4463
 9213SOL    HW239273   0.754   4.452   3.055 -0.8888  0.3444 -1.5517
 9214SOL     OW39274   1.692   1.321   3.916 -0.3713  0.3836 -0.0114
 9214SOL    HW139275   1.669   1.255   3.982 -0.8718 -0.9571 -1.5318
 9214SOL    HW239276   1.781   1.288   3.902  0.3391  3.1722 -1.9442
 9215SOL     OW39277   2.413   2.404   6.450  0.2217  0.2093 -0.0717
 9215SOL    HW139278   2.326   2.419   6.413  0.7458 -0.5962 -1.6241
 9215SOL    HW239279   2.446   2.330   6.399 -1.2922 -0.1521 -0.5206
 9216SOL     OW39280   2.811   4.630   6.660  0.3093 -0.1212  0.4099
 9216SOL    HW139281   2.746   4.593   6.600 -0.1358 -0.6477  1.2144
 9216SOL    HW239282   2.756   4.707   6.675 -0.5483 -0.6726  0.1115
 9217SOL     OW39283   2.023   4.482   5.840  0.1535  0.9688  0.3245
 9217SOL    HW139284   2.110   4.504   5.872  0.2729  0.0207  0.6545
 9217SOL    HW239285   2.020   4.395   5.880  2.0596  0.0054 -1.6108
 9218SOL     OW39286   4.541   2.828   5.788  0.0497  0.4756 -0.1125
 9218SOL    HW139287   4.607   2.793   5.728 -1.5462 -0.0282 -1.5766
 9218SOL    HW239288   4.594   2.893   5.834  3.3692 -1.6838 -0.8557
 9219SOL     OW39289   2.995   0.055   5.513  0.2709 -0.5336  0.2249
 9219SOL    HW139290   2.911   0.036   5.473  0.6317  0.6177 -1.0896
 9219SOL    HW239291   3.053   0.041   5.438  1.1793 -1.7516  1.1469
 9220SOL     OW39292   3.771   0.756   5.399  0.4540  0.2105 -0.4145
 9220SOL    HW139293   3.812   0.842   5.409  2.6286 -0.9751  0.8956
 9220SOL    HW239294   3.712   0.764   5.473  1.0672 -1.9385  0.3052
 9221SOL     OW39295   2.107   1.526  13.056 -0.0956  0.0360 -0.4515
 9221SOL    HW139296   2.050   1.595  13.089 -2.6941 -0.9756 -2.8320
 9221SOL    HW239297   2.162   1.507  13.132 -0.9184  1.9128  0.5963
 9222SOL     OW39298   0.552   1.242   4.244 -0.3480 -0.4300  0.1086
 9222SOL    HW139299   0.492   1.191   4.190  0.8632 -1.0137 -0.6869
 9222SOL    HW239300   0.622   1.260   4.182 -2.6022  3.4814 -1.3151
 9223SOL     OW39301   2.805   2.095   6.292 -0.1352  0.4758 -0.3999
 9223SOL    HW139302   2.820   2.051   6.208  0.7590 -0.4462  0.2520
 9223SOL    HW239303   2.881   2.153   6.291 -0.3662  0.8557  2.8509
 9224SOL     OW39304   0.108   0.109   2.546  0.0801 -0.3403  0.4100
 9224SOL    HW139305   0.184   0.086   2.598 -2.0352 -2.6043  2.5069
 9224SOL    HW239306   0.113   0.055   2.468  0.4594 -0.6156  0.6296
 9225SOL     OW39307   1.780   2.908   2.661 -0.1633  0.4607 -0.5143
 9225SOL    HW139308   1.786   2.986   2.717 -1.9034 -1.1695  1.9256
 9225SOL    HW239309   1.848   2.922   2.595  1.8402  1.0686  1.6996
 9226SOL     OW39310   0.902   1.413   9.612  0.1790 -0.2475 -0.1021
 9226SOL    HW139311   0.957   1.420   9.534  0.2655  0.1035 -0.0099
 9226SOL    HW239312   0.890   1.505   9.633 -1.2459 -0.9356  2.0384
 9227SOL     OW39313   4.715   4.126  13.091 -0.7114  0.5741  0.4549
 9227SOL    HW139314   0.008   4.185  13.162 -2.1236  1.0449  0.5993
 9227SOL    HW239315   4.622   4.148  13.092 -0.5939  1.1099 -0.5488
 9228SOL     OW39316   2.431   1.366  15.039 -0.2692  0.0537 -0.3274
 9228SOL    HW139317   2.495   1.435  15.056  0.0521  0.2241 -2.2302
 9228SOL    HW239318   2.478   1.290  15.074 -0.6195 -0.0623 -0.1055
 9229SOL     OW39319   1.694   3.564   9.836  0.4628  0.4769 -0.0573
 9229SOL    HW139320   1.653   3.623   9.774  1.3394  1.4341  0.2763
 9229SOL    HW239321   1.776   3.613   9.838 -0.1693  1.5600 -0.7789
 9230SOL     OW39322   2.649   2.065  11.134  0.8826  0.0854 -0.4133
 9230SOL    HW139323   2.635   2.135  11.071 -0.7058 -0.4659 -0.6878
 9230SOL    HW239324   2.569   2.090  11.181 -1.0346 -2.4819 -2.3304
 9231SOL     OW39325   2.371   0.670   1.393 -0.4456  0.4290  0.5208
 9231SOL    HW139326   2.431   0.597   1.384 -1.1753 -0.3001  1.4962
 9231SOL    HW239327   2.421   0.739   1.436  0.4990  1.0756 -1.6487
 9232SOL     OW39328   3.875   2.035   9.879  0.2551 -0.2137  0.4243
 9232SOL    HW139329   3.852   2.045   9.971 -2.0682 -1.3230 -0.0343
 9232SOL    HW239330   3.829   2.114   9.850 -0.3198 -0.5725  0.3569
 9233SOL     OW39331   0.894   4.277   7.260  0.3117 -0.0173  0.1299
 9233SOL    HW139332   0.838   4.346   7.225 -0.7436 -1.0618 -0.2070
 9233SOL    HW239333   0.986   4.287   7.233  0.4108  1.2277  0.8909
 9234SOL     OW39334   2.115   2.335   7.353  0.2671 -0.2105 -0.0224
 9234SOL    HW139335   2.182   2.282   7.310  0.4281  0.0585 -0.1037
 9234SOL    HW239336   2.032   2.293   7.329 -0.3361  0.6647  0.5237
 9235SOL     OW39337   3.488   0.313   7.474 -0.0228 -0.3399 -0.3358
 9235SOL    HW139338   3.514   0.275   7.558  0.5699  2.7457  0.8599
 9235SOL    HW239339   3.420   0.250   7.450 -0.8909  1.2570 -2.0432
 9236SOL     OW39340   2.548   2.087   2.799 -0.1408 -0.0931  0.8394
 9236SOL    HW139341   2.558   2.015   2.862 -2.7610  1.8259  3.4694
 9236SOL    HW239342   2.466   2.058   2.758 -0.3522  0.5560  0.8095
 9237SOL     OW39343   2.331   2.532   6.693 -0.0015  0.1626 -0.1802
 9237SOL    HW139344   2.241   2.501   6.685  0.7392 -2.1096  0.2805
 9237SOL    HW239345   2.374   2.494   6.617  0.1170  0.1980 -0.1321
 9238SOL     OW39346   2.902   3.324  10.341  0.5217  0.0454 -0.0897
 9238SOL    HW139347   2.946   3.378  10.276 -0.5644 -1.2495 -1.8851
 9238SOL    HW239348   2.958   3.247  10.336 -1.4938 -1.1450 -4.0090
 9239SOL     OW39349   0.752   0.551   5.401  0.1064  0.0865  0.4253
 9239SOL    HW139350   0.834   0.599   5.393  0.0047  0.1494 -0.2372
 9239SOL    HW239351   0.705   0.589   5.327  0.7713  1.9569  0.9743
 9240SOL     OW39352   2.157   2.064   6.057 -0.0322  0.0755 -0.4394
 9240SOL    HW139353   2.179   2.114   5.978  2.0509  2.8183  1.8747
 9240SOL    HW239354   2.244   2.069   6.096 -0.0083 -2.9783 -0.1447
 9241SOL     OW39355   4.431   2.315   5.270  0.8320 -0.0475 -0.8142
 9241SOL    HW139356   4.432   2.358   5.355 -0.0355 -0.9496 -0.3436
 9241SOL    HW239357   4.340   2.331   5.243  1.0106 -1.4576 -2.2531
 9242SOL     OW39358   2.449   1.993   1.051  0.1929  0.0174 -0.2068
 9242SOL    HW139359   2.425   1.954   0.967 -1.2395 -0.9192  0.6270
 9242SOL    HW239360   2.405   2.078   1.043  0.9918  0.3177 -1.3928
 9243SOL     OW39361   3.017   2.558   0.562 -0.4402 -0.1881  0.4825
 9243SOL    HW139362   3.079   2.565   0.490 -0.3179  0.2090  0.6233
 9243SOL    HW239363   3.004   2.463   0.556 -0.9087 -0.0606 -0.3943
 9244SOL     OW39364   1.555   2.926   3.772  0.2276  0.2168  0.4340
 9244SOL    HW139365   1.461   2.934   3.788  0.3995  0.3856  1.3343
 9244SOL    HW239366   1.577   3.013   3.806  1.1800  0.2110 -0.1346
 9245SOL     OW39367   2.330   3.197   6.156  0.1562 -0.3332  0.0818
 9245SOL    HW139368   2.257   3.137   6.172 -0.1046 -0.0346 -0.0021
 9245SOL    HW239369   2.293   3.247   6.084 -1.1508  1.2178  1.8226
 9246SOL     OW39370   3.146   3.034   6.360 -1.1702 -0.1525 -0.4358
 9246SOL    HW139371   3.197   3.057   6.438 -0.9137 -1.9856 -0.0750
 9246SOL    HW239372   3.173   3.111   6.308  3.5408 -2.3691 -1.2525
 9247SOL     OW39373   1.652   2.800   9.958 -0.0630 -0.4479  0.1651
 9247SOL    HW139374   1.730   2.825   9.908  0.4935 -0.6522  0.9202
 9247SOL    HW239375   1.594   2.765   9.891  0.0204 -0.4309  0.0836
 9248SOL     OW39376   0.892   1.435   3.674 -0.0869  0.2511  0.0476
 9248SOL    HW139377   0.811   1.440   3.724  0.4913  4.5730  0.5959
 9248SOL    HW239378   0.914   1.528   3.678  0.9894  0.0376 -0.7003
 9249SOL     OW39379   4.669   0.522   0.142  0.4997  0.0667  0.0116
 9249SOL    HW139380   4.583   0.523   0.099  0.8430  0.8118 -0.6594
 9249SOL    HW239381   4.712   0.604   0.115  0.2328  1.0615  2.6817
 9250SOL     OW39382   4.264   2.642   8.239  0.0140 -0.2958  0.0897
 9250SOL    HW139383   4.185   2.655   8.187 -0.9392 -1.2752  1.3034
 9250SOL    HW239384   4.286   2.734   8.252 -0.8235 -0.3303  1.7170
 9251SOL     OW39385   3.438   4.352  12.748 -0.0948 -0.0873  0.1093
 9251SOL    HW139386   3.457   4.284  12.684 -1.9346 -2.2951  1.8838
 9251SOL    HW239387   3.513   4.334  12.804 -0.4656  0.7704  0.8803
 9252SOL     OW39388   3.743   1.637   8.123  0.2711  0.2054 -0.2536
 9252SOL    HW139389   3.693   1.586   8.059  0.9252 -2.1383  1.1073
 9252SOL    HW239390   3.809   1.572   8.145 -0.5927 -0.7599 -0.5137
 9253SOL     OW39391   2.401   1.804   8.611 -0.1825 -0.1496  0.4703
 9253SOL    HW139392   2.407   1.773   8.520  3.1248 -0.1329  0.6745
 9253SOL    HW239393   2.476   1.860   8.628 -0.0815  0.1596 -0.9663
 9254SOL     OW39394   3.474   4.051   3.218 -0.4220 -0.4324  0.0242
 9254SOL    HW139395   3.511   4.112   3.154  0.1966 -0.3962  0.4169
 9254SOL    HW239396   3.435   3.993   3.153  1.8718  0.0194 -1.7665
 9255SOL     OW39397   1.277   2.730  11.872  0.4265 -0.5028  0.6254
 9255SOL    HW139398   1.293   2.741  11.779 -2.2896 -1.7669  0.0081
 9255SOL    HW239399   1.183   2.711  11.870  0.0759  1.2100  0.7756
 9256SOL     OW39400   4.226   0.692   2.895 -0.4244 -0.0875  0.1580
 9256SOL    HW139401   4.170   0.644   2.834  1.0690  0.7123 -1.8243
 9256SOL    HW239402   4.226   0.624   2.962 -2.3054 -2.6336 -2.4303
 9257SOL     OW39403   0.573   2.169   3.863 -0.2725  0.0563 -0.2924
 9257SOL    HW139404   0.639   2.238   3.872  1.3276 -1.5365  0.1810
 9257SOL    HW239405   0.526   2.207   3.789 -1.3595  1.7052  1.2440
 9258SOL     OW39406   3.645   0.697  15.752  0.0963 -0.2816 -0.2548
 9258SOL    HW139407   3.724   0.748  15.733  1.7025 -3.3286 -1.8405
 9258SOL    HW239408   3.656   0.624  15.691 -0.5754 -2.2433  1.9942
 9259SOL     OW39409   3.680   1.490   8.561 -0.3570 -0.1442 -0.1092
 9259SOL    HW139410   3.741   1.551   8.602 -0.6637 -1.6343  2.5644
 9259SOL    HW239411   3.720   1.463   8.478 -0.1490  0.5265 -0.2305
 9260SOL     OW39412   1.757   3.164   4.208 -0.0500  0.0835 -0.3740
 9260SOL    HW139413   1.719   3.221   4.141  0.8120  1.8113  0.6275
 9260SOL    HW239414   1.701   3.086   4.209  1.8957 -1.2841  0.8593
 9261SOL     OW39415   3.596   1.164  10.804  0.3109 -0.1555  0.2056
 9261SOL    HW139416   3.680   1.179  10.847  0.2830 -1.9364  0.9048
 9261SOL    HW239417   3.616   1.220  10.729 -0.4690  0.7434  0.6782
 9262SOL     OW39418   0.064   3.583  11.914 -0.4824 -0.0157  0.5234
 9262SOL    HW139419   0.036   3.600  11.824  2.7349  0.1500 -0.4438
 9262SOL    HW239420   0.089   3.671  11.942 -1.7138 -0.0087  1.5632
 9263SOL     OW39421   2.668   0.172   1.779 -0.0781  0.5374  0.1891
 9263SOL    HW139422   2.746   0.136   1.822  0.9607  3.4686  0.7119
 9263SOL    HW239423   2.591   0.127   1.812  1.8190 -0.7691  2.7899
 9264SOL     OW39424   1.368   1.805   5.928  0.1843  0.0369  0.2351
 9264SOL    HW139425   1.293   1.821   5.985  0.2610 -3.4246  1.3252
 9264SOL    HW239426   1.438   1.800   5.994 -0.2397  2.3688  0.8770
 9265SOL     OW39427   2.865   0.796  14.236 -0.0106 -0.1267  0.5208
 9265SOL    HW139428   2.803   0.815  14.166  0.9640  1.1282  0.0138
 9265SOL    HW239429   2.804   0.751  14.295 -1.2023  0.6282 -0.1594
 9266SOL     OW39430   1.778   1.746   2.862 -0.6460  0.1386  0.0644
 9266SOL    HW139431   1.775   1.707   2.949 -1.6589 -2.3553 -1.0730
 9266SOL    HW239432   1.827   1.827   2.873  1.4784 -1.0084 -0.8677
 9267SOL     OW39433   2.379   1.661   4.515 -0.2485 -0.0451 -0.1246
 9267SOL    HW139434   2.396   1.754   4.532 -1.2164  0.3095 -1.1340
 9267SOL    HW239435   2.454   1.615   4.554 -0.2967  0.9317  1.1170
 9268SOL     OW39436   0.563   3.674  16.895 -0.2451 -0.4361  0.3723
 9268SOL    HW139437   0.494   3.670  16.829 -0.4749 -1.1787  0.6602
 9268SOL    HW239438   0.642   3.672  16.841 -2.1201 -0.9812 -2.3738
 9269SOL     OW39439   4.256   2.525   4.133  0.2212  0.0789 -0.9457
 9269SOL    HW139440   4.286   2.574   4.210  1.6046 -1.3796 -0.5719
 9269SOL    HW239441   4.282   2.437   4.160  2.2374  1.0423  0.2862
 9270SOL     OW39442   0.999   1.581   4.405  0.1170  0.5412 -0.0479
 9270SOL    HW139443   0.985   1.618   4.318  1.6827  0.9105 -0.1402
 9270SOL    HW239444   0.967   1.658   4.451  2.0314  0.6552  1.0822
 9271SOL     OW39445   0.265   2.806   7.902  0.9370 -0.5896  0.5665
 9271SOL    HW139446   0.223   2.723   7.877 -1.0951 -0.0056  1.9891
 9271SOL    HW239447   0.353   2.774   7.922  0.2238 -2.5677  0.5448
 9272SOL     OW39448   4.268   2.744   7.373 -0.1320 -0.7388 -0.5024
 9272SOL    HW139449   4.176   2.733   7.347 -0.6281 -1.0110  1.3556
 9272SOL    HW239450   4.267   2.823   7.427  0.2951  0.5108 -2.3258
 9273SOL     OW39451   0.445   0.936   6.150  0.1993 -0.0515 -0.0309
 9273SOL    HW139452   0.501   1.000   6.106  1.0998 -0.0045  1.1675
 9273SOL    HW239453   0.422   0.880   6.076 -1.6755  0.0600  0.4755
 9274SOL     OW39454   4.528   0.486  10.747 -0.4030 -0.7196  0.0246
 9274SOL    HW139455   4.545   0.393  10.730  0.4529 -0.8120  1.3858
 9274SOL    HW239456   4.434   0.482  10.733 -0.2336 -1.2181 -0.9736
 9275SOL     OW39457   0.927   2.012  16.720  0.0724 -0.4348 -0.3126
 9275SOL    HW139458   0.936   2.052  16.806  2.9170  1.0840 -1.3231
 9275SOL    HW239459   1.014   1.987  16.690  0.7023 -0.0251  1.1739
 9276SOL     OW39460   1.252   2.574   8.233 -0.0295 -0.0907  0.5656
 9276SOL    HW139461   1.319   2.584   8.300  0.6974 -0.5287 -0.0905
 9276SOL    HW239462   1.174   2.608   8.276  0.8316  1.5888  0.7842
 9277SOL     OW39463   1.097   2.208   3.461  0.5538  0.8070  0.2664
 9277SOL    HW139464   1.153   2.211   3.539  2.8250 -0.6518 -1.2963
 9277SOL    HW239465   1.058   2.296   3.457  0.2603  0.7493  1.6814
 9278SOL     OW39466   1.220   2.359   2.793  0.8477 -0.0157  0.5143
 9278SOL    HW139467   1.306   2.322   2.771  1.2010  0.6572  0.7466
 9278SOL    HW239468   1.232   2.450   2.765 -0.8513  0.0329 -0.0229
 9279SOL     OW39469   2.802   4.572   1.856  0.5535  0.4739  0.6330
 9279SOL    HW139470   2.747   4.623   1.797 -0.9226 -3.3862 -1.3463
 9279SOL    HW239471   2.855   4.643   1.893  1.6432 -0.2379  0.4427
 9280SOL     OW39472   1.318   3.352   2.455  0.4314  0.1000  0.5817
 9280SOL    HW139473   1.306   3.274   2.509 -0.2622 -0.2823 -0.1234
 9280SOL    HW239474   1.331   3.420   2.521  1.6004  0.1615  0.2827
 9281SOL     OW39475   1.746   3.193   4.752 -0.1349 -0.2143 -0.3278
 9281SOL    HW139476   1.796   3.274   4.765 -0.0385  0.0476 -2.3522
 9281SOL    HW239477   1.709   3.214   4.667  0.0489  1.9669  0.1309
 9282SOL     OW39478   2.431   3.015  14.948 -0.0809  0.2988  0.2830
 9282SOL    HW139479   2.476   2.941  14.989  0.2806 -1.0028 -2.4614
 9282SOL    HW239480   2.501   3.068  14.910  0.7768  0.1060  1.5917
 9283SOL     OW39481   1.051   1.138   7.436  0.0519  0.1361  0.0271
 9283SOL    HW139482   1.122   1.125   7.499  0.3523 -0.3579 -0.4156
 9283SOL    HW239483   1.052   1.234   7.435 -2.1956  0.1928  1.5860
 9284SOL     OW39484   1.885   4.676   3.511  0.1281  0.3964 -0.3507
 9284SOL    HW139485   1.882   4.595   3.461  1.3792  0.1174  0.0004
 9284SOL    HW239486   1.844   0.007   3.454 -0.3914 -1.2705 -1.8377
 9285SOL     OW39487   0.589   3.877   7.699  0.6202 -0.1584  0.1162
 9285SOL    HW139488   0.616   3.902   7.611 -2.0684 -1.8845 -1.2181
 9285SOL    HW239489   0.608   3.784   7.710  1.7299  0.0795  0.2377
 9286SOL     OW39490   1.556   3.939   8.144  0.4112 -0.3131 -0.1705
 9286SOL    HW139491   1.521   3.882   8.212  0.9618 -0.7633 -0.2605
 9286SOL    HW239492   1.491   3.937   8.074  1.4353  0.2420 -1.1604
 9287SOL     OW39493   0.812   2.300  10.880 -0.0587  0.1984  0.4913
 9287SOL    HW139494   0.784   2.215  10.912  0.1332 -0.8981 -2.2663
 9287SOL    HW239495   0.903   2.284  10.853 -0.2218 -0.2883  0.2382
 9288SOL     OW39496   1.048   0.630   6.918 -0.1478 -0.2431 -0.6145
 9288SOL    HW139497   0.973   0.663   6.869  2.5544  3.1699 -2.4656
 9288SOL    HW239498   1.022   0.651   7.008 -2.0471 -0.8579 -1.0315
 9289SOL     OW39499   1.803   1.181   3.659 -0.2681 -0.2130 -0.7889
 9289SOL    HW139500   1.889   1.220   3.678 -1.4650  0.4816  3.2463
 9289SOL    HW239501   1.832   1.099   3.620  1.1285  0.8973 -2.1265
 9290SOL     OW39502   4.509   0.635   6.641  0.1088 -0.5010 -0.4009
 9290SOL    HW139503   4.423   0.674   6.626  0.7048  0.7943 -0.3730
 9290SOL    HW239504   4.485   0.545   6.663 -0.9599  0.1229  0.9359
 9291SOL     OW39505   1.433   1.883   2.556 -0.5649 -0.2810 -0.5923
 9291SOL    HW139506   1.527   1.900   2.559 -0.6533 -0.1928  1.6289
 9291SOL    HW239507   1.423   1.840   2.471 -0.0959 -1.2229 -0.1641
 9292SOL     OW39508   3.660   3.877   1.237 -0.2093  0.1433  0.1327
 9292SOL    HW139509   3.641   3.967   1.263 -1.7689 -0.2768  0.4161
 9292SOL    HW239510   3.571   3.841   1.235  0.0785 -0.4195 -2.3333
 9293SOL     OW39511   0.262   2.327   8.313  0.2939 -0.6110  0.4806
 9293SOL    HW139512   0.174   2.357   8.288 -0.2045 -1.0875  1.6592
 9293SOL    HW239513   0.313   2.313   8.234  0.7550  3.1684  0.0987
 9294SOL     OW39514   1.006   4.699   7.722 -0.6972 -0.4124 -0.1013
 9294SOL    HW139515   1.073   4.643   7.763 -1.3590 -0.2347  1.1981
 9294SOL    HW239516   0.921   4.656   7.734 -0.7280 -0.2287  0.3250
 9295SOL     OW39517   4.630   2.099   7.824 -0.3145  0.6956  0.2338
 9295SOL    HW139518   4.604   2.035   7.758 -0.9565  0.5983  0.5825
 9295SOL    HW239519   4.564   2.165   7.800  0.1966  0.9750 -0.4125
 9296SOL     OW39520   1.110   3.182   8.806  0.2737 -0.3173  0.1992
 9296SOL    HW139521   1.117   3.156   8.898 -0.4865  0.5204  0.4889
 9296SOL    HW239522   1.156   3.114   8.757  0.8191  1.3031 -1.5149
 9297SOL     OW39523   3.637   0.985   8.432  0.2231  0.6007 -0.7939
 9297SOL    HW139524   3.706   1.007   8.494 -0.0430  0.8270 -0.5797
 9297SOL    HW239525   3.608   1.072   8.406 -0.6594  0.0197 -1.7546
 9298SOL     OW39526   2.990   0.519  14.474 -0.6338 -0.4720  0.0866
 9298SOL    HW139527   3.014   0.476  14.392 -2.0560 -1.3083  0.1135
 9298SOL    HW239528   3.052   0.470  14.527 -0.8681  0.6060  1.3574
 9299SOL     OW39529   2.909   1.708   2.775 -0.1594  0.4812 -0.4584
 9299SOL    HW139530   2.984   1.672   2.726  1.6883  1.4314  1.6466
 9299SOL    HW239531   2.947   1.771   2.836 -1.2367  0.3454  0.3394
 9300SOL     OW39532   2.786   3.048   3.405 -0.3242 -0.4387 -0.1471
 9300SOL    HW139533   2.703   3.091   3.428 -0.7150 -1.0906 -0.3364
 9300SOL    HW239534   2.856   3.101   3.442 -0.9178  0.2227  0.0208
 9301SOL     OW39535   2.260   1.527   2.510  0.1824 -0.1805 -0.1738
 9301SOL    HW139536   2.192   1.503   2.448 -0.7478 -1.3052  1.2833
 9301SOL    HW239537   2.235   1.617   2.531 -1.6653 -0.1391 -2.5254
 9302SOL     OW39538   3.396   3.809   1.124  0.0756 -0.2694 -0.0794
 9302SOL    HW139539   3.467   3.789   1.063 -1.0928  0.5324 -1.6988
 9302SOL    HW239540   3.327   3.749   1.093 -1.7981  1.5795  0.5260
 9303SOL     OW39541   0.408   2.362   7.219 -0.1009 -0.3144 -0.1209
 9303SOL    HW139542   0.357   2.294   7.263  0.2857  0.4504  1.5403
 9303SOL    HW239543   0.337   2.403   7.170 -0.2416  0.1620  0.4797
 9304SOL     OW39544   1.451   2.069   9.569 -0.1288  0.3694 -0.1166
 9304SOL    HW139545   1.429   2.160   9.588  1.6985  0.4997  1.3073
 9304SOL    HW239546   1.493   2.037   9.649 -2.9503 -2.8592  0.1147
 9305SOL     OW39547   3.256   0.300   2.054 -0.6988 -0.1633  0.1042
 9305SOL    HW139548   3.193   0.372   2.055 -1.6891 -1.0506  0.6660
 9305SOL    HW239549   3.200   0.225   2.036  2.5280 -2.8347  1.1543
 9306SOL     OW39550   2.308   4.117   4.861 -0.4397 -0.5718  0.0377
 9306SOL    HW139551   2.235   4.066   4.896 -0.5612  0.3549  1.1137
 9306SOL    HW239552   2.274   4.205   4.846 -0.7166 -1.0812 -2.3181
 9307SOL     OW39553   4.087   0.291   2.480 -0.0389 -0.0831  0.5016
 9307SOL    HW139554   4.011   0.291   2.539  1.2551 -0.1978  2.1717
 9307SOL    HW239555   4.129   0.207   2.498  0.8125 -0.0786 -1.4684
 9308SOL     OW39556   1.647   3.672   2.417  0.0375  0.6122  0.4475
 9308SOL    HW139557   1.682   3.616   2.347  0.5086 -0.1002  1.2503
 9308SOL    HW239558   1.663   3.761   2.386  2.8058  0.6350  1.9136
 9309SOL     OW39559   0.771   4.372  11.286 -0.2979 -0.7217  0.5626
 9309SOL    HW139560   0.772   4.468  11.284 -0.1393 -0.7736 -1.2854
 9309SOL    HW239561   0.689   4.362  11.336 -0.1749  4.4678  1.8217
 9310SOL     OW39562   2.608   0.253   4.164  0.1908 -0.0541  0.5188
 9310SOL    HW139563   2.656   0.178   4.201  0.1934 -0.0326  0.5588
 9310SOL    HW239564   2.628   0.322   4.226 -1.6878  1.3589 -0.4469
 9311SOL     OW39565   1.305   3.670  13.771 -0.1201  0.2663 -0.6637
 9311SOL    HW139566   1.380   3.705  13.819  0.3129 -1.5499  0.0033
 9311SOL    HW239567   1.247   3.641  13.842 -0.5601  0.4490 -0.9468
 9312SOL     OW39568   4.128   0.381  10.453 -0.1311  0.2912 -0.3948
 9312SOL    HW139569   4.112   0.424  10.369  1.2615  2.0309  0.2230
 9312SOL    HW239570   4.112   0.456  10.511  2.2363  2.1507 -2.1200
 9313SOL     OW39571   4.545   0.687   4.982 -0.0029 -0.5094 -0.0660
 9313SOL    HW139572   4.621   0.736   4.953 -1.0880  1.5318  0.5558
 9313SOL    HW239573   4.594   0.622   5.033  0.7862  0.7137  0.7268
 9314SOL     OW39574   1.727   3.543   3.827  0.0845 -0.4001 -0.0011
 9314SOL    HW139575   1.709   3.491   3.906  0.9283  0.6180  0.8521
 9314SOL    HW239576   1.664   3.497   3.771  0.4030  0.2864 -0.9088
 9315SOL     OW39577   3.469   2.637   3.916  0.1714  0.0744 -0.1495
 9315SOL    HW139578   3.524   2.596   3.850  0.2492  0.1584 -0.1373
 9315SOL    HW239579   3.384   2.652   3.874 -0.8311  1.9798  2.5289
 9316SOL     OW39580   2.632   3.633   7.751  0.7046 -0.3877 -0.6218
 9316SOL    HW139581   2.624   3.622   7.846  1.1343  0.2444 -0.5101
 9316SOL    HW239582   2.704   3.572   7.735 -0.0873 -0.8643 -2.3588
 9317SOL     OW39583   2.899   4.282   7.013 -0.1494  0.6151 -0.2646
 9317SOL    HW139584   2.880   4.195   7.049  2.2966  0.0826 -0.2485
 9317SOL    HW239585   2.817   4.301   6.967  0.2167  0.1928 -1.0890
 9318SOL     OW39586   3.753   4.269   6.029  0.3164 -0.2094  0.2541
 9318SOL    HW139587   3.848   4.257   6.041  0.2525  1.6158  2.6347
 9318SOL    HW239588   3.745   4.323   5.951 -1.8642  0.6054  1.0556
 9319SOL     OW39589   4.002   3.772   8.376 -0.2483  0.3341  0.3737
 9319SOL    HW139590   4.006   3.682   8.408  0.7687  0.6841  1.2415
 9319SOL    HW239591   4.081   3.800   8.422 -1.4970  3.8596  0.3795
 9320SOL     OW39592   1.069   4.192   2.317 -0.7280  0.1412 -0.0630
 9320SOL    HW139593   1.124   4.119   2.346 -0.0856  0.6506 -0.0087
 9320SOL    HW239594   1.081   4.178   2.223  0.0330  0.2840  0.0176
 9321SOL     OW39595   3.449   0.548   5.340 -0.3081 -0.8812  0.3587
 9321SOL    HW139596   3.440   0.535   5.246 -0.8806 -1.2320  0.4593
 9321SOL    HW239597   3.366   0.591   5.357 -0.0198 -0.1471 -0.1261
 9322SOL     OW39598   4.269   3.137   7.132 -0.1665 -0.1971  0.0758
 9322SOL    HW139599   4.310   3.092   7.206  2.0551  2.4244  0.4437
 9322SOL    HW239600   4.338   3.199   7.108 -0.8140  0.8701  0.9564
 9323SOL     OW39601   4.368   0.315   7.918  0.5147  0.1391 -0.3040
 9323SOL    HW139602   4.276   0.340   7.918  0.9412  1.6786  1.4692
 9323SOL    HW239603   4.409   0.393   7.954 -2.0215  0.4245  1.9002
 9324SOL     OW39604   1.340   0.280   2.695  0.4657 -0.1297  0.1513
 9324SOL    HW139605   1.351   0.193   2.657  1.4177  0.5542 -1.1363
 9324SOL    HW239606   1.262   0.270   2.749  1.6067 -0.3214  1.7864
 9325SOL     OW39607   4.196   3.950   9.220  0.4240  0.1964 -0.2305
 9325SOL    HW139608   4.201   4.028   9.274 -1.7004 -0.5500  1.0515
 9325SOL    HW239609   4.281   3.907   9.224  0.3527 -0.1771 -2.8931
 9326SOL     OW39610   1.370   2.803   6.617  0.6743  0.4749  0.0634
 9326SOL    HW139611   1.450   2.855   6.631  1.1458  0.0797 -1.1612
 9326SOL    HW239612   1.403   2.713   6.621 -2.1781 -0.4027  2.9513
 9327SOL     OW39613   2.123   2.409   6.396  0.7588 -0.3751 -0.0526
 9327SOL    HW139614   2.119   2.404   6.300 -1.5415 -0.5527  0.0570
 9327SOL    HW239615   2.033   2.440   6.407  0.7283  0.0032 -1.3256
 9328SOL     OW39616   2.487   1.925  14.975 -0.5548  0.1013 -0.3215
 9328SOL    HW139617   2.533   1.862  14.920  0.9407  0.5784  0.3763
 9328SOL    HW239618   2.405   1.876  14.981 -0.0647 -0.6659  0.0681
 9329SOL     OW39619   3.452   4.714  15.148  0.3514  0.4125  0.2729
 9329SOL    HW139620   3.407   4.715  15.063  2.2583 -0.9936 -0.7639
 9329SOL    HW239621   3.511   0.055  15.137  1.3425 -0.7673 -2.7437
 9330SOL     OW39622   0.765   4.256   8.707 -0.1257  0.0085  0.5310
 9330SOL    HW139623   0.838   4.203   8.674  0.0090  1.6271 -1.7481
 9330SOL    HW239624   0.785   4.271   8.799 -2.4636 -1.2073  1.2470
 9331SOL     OW39625   4.695   4.001  10.289  0.4758 -0.4901  0.4028
 9331SOL    HW139626   4.655   3.920  10.322 -0.7444 -0.4294 -0.9444
 9331SOL    HW239627   0.018   3.954  10.228 -0.9075  0.1555 -1.3737
 9332SOL     OW39628   1.912   2.838   4.201 -0.1742 -0.3207 -0.2588
 9332SOL    HW139629   1.904   2.918   4.254  1.5431 -1.8966  2.3811
 9332SOL    HW239630   1.979   2.862   4.137 -0.4057  0.2620 -0.2828
 9333SOL     OW39631   4.067   0.636   6.859 -0.3139  0.0965  0.6824
 9333SOL    HW139632   4.123   0.678   6.794 -1.2157  0.3162  0.0451
 9333SOL    HW239633   4.089   0.697   6.929  2.7376 -0.4205  0.1971
 9334SOL     OW39634   1.812   1.881   3.217 -0.1705 -0.1987  0.1652
 9334SOL    HW139635   1.750   1.947   3.184  0.3638  0.3470  0.2424
 9334SOL    HW239636   1.883   1.888   3.153 -0.1844  0.6491  0.2406
 9335SOL     OW39637   2.175   0.792   4.383 -0.4701  0.0110  0.3405
 9335SOL    HW139638   2.214   0.721   4.434  0.1130  0.1997  0.1547
 9335SOL    HW239639   2.225   0.794   4.301 -1.5498  0.5453 -0.3106
 9336SOL     OW39640   3.688   4.682  13.084 -0.4135  0.2187  0.1898
 9336SOL    HW139641   3.666   4.626  13.009  2.1057 -1.2532  0.5539
 9336SOL    HW239642   3.676   0.038  13.054 -2.9279  0.2078  1.1346
 9337SOL     OW39643   4.483   4.709   4.548  0.1800  0.2728 -0.0858
 9337SOL    HW139644   4.492   4.677   4.458 -0.3497  1.2516 -0.4797
 9337SOL    HW239645   4.395   0.012   4.550 -0.5759 -1.6238  1.1894
 9338SOL     OW39646   2.115   1.573  10.958  0.3591 -0.4179  0.2714
 9338SOL    HW139647   2.092   1.595  11.048  1.2772 -0.2252  0.4589
 9338SOL    HW239648   2.208   1.594  10.965  0.5458 -0.4526 -1.9793
 9339SOL     OW39649   3.792   4.604  11.941 -0.6780 -0.2156 -0.2281
 9339SOL    HW139650   3.765   4.672  12.002  2.5142  1.1692 -0.3914
 9339SOL    HW239651   3.844   4.538  11.987 -2.1804 -2.6453 -2.0332
 9340SOL     OW39652   0.851   0.847   4.020 -0.1313 -0.0673  0.0410
 9340SOL    HW139653   0.819   0.762   4.050  0.1125 -0.2162 -0.1201
 9340SOL    HW239654   0.896   0.811   3.944  0.4935 -0.0800  0.4158
 9341SOL     OW39655   3.506   0.023  14.345 -0.2633 -0.0922 -0.2173
 9341SOL    HW139656   3.547   0.007  14.260  1.2543  0.3946  0.4341
 9341SOL    HW239657   3.499   0.118  14.347  1.0077  0.0042 -0.8471
 9342SOL     OW39658   4.133   0.807  16.395  0.5990 -0.5849  0.7245
 9342SOL    HW139659   4.145   0.817  16.300 -1.1856 -1.4173  0.4229
 9342SOL    HW239660   4.051   0.758  16.394  0.1904  0.0892  1.1850
 9343SOL     OW39661   1.526   3.607  13.105  0.4343  0.0530  0.1856
 9343SOL    HW139662   1.589   3.551  13.060  1.7663  1.2155  0.5931
 9343SOL    HW239663   1.587   3.642  13.170  1.1373  0.1966 -0.5594
 9344SOL     OW39664   2.186   2.385  13.919 -0.5029  0.3311  0.4827
 9344SOL    HW139665   2.105   2.431  13.942  0.2779  0.1136  3.7409
 9344SOL    HW239666   2.244   2.434  13.977  1.6706 -0.3899 -1.0643
 9345SOL     OW39667   2.332   3.897   8.251  0.4328 -0.0756  0.4563
 9345SOL    HW139668   2.384   3.830   8.297 -0.1164 -0.5280  0.4167
 9345SOL    HW239669   2.358   3.868   8.163 -1.1516  1.9808 -0.6857
 9346SOL     OW39670   3.651   1.253  15.869 -0.3148 -0.2372 -0.0293
 9346SOL    HW139671   3.597   1.241  15.947  0.1075  0.0539  0.3119
 9346SOL    HW239672   3.696   1.170  15.855 -0.8045 -0.8488  2.1024
 9347SOL     OW39673   0.665   2.403   6.489 -0.2900  0.3006 -0.4567
 9347SOL    HW139674   0.628   2.366   6.409 -1.2116 -0.2978  0.2422
 9347SOL    HW239675   0.720   2.332   6.522 -3.1454 -2.6281 -1.9785
 9348SOL     OW39676   2.452   4.402  13.398 -0.0979  0.2144 -0.0437
 9348SOL    HW139677   2.462   4.478  13.455  4.1592  1.4254 -2.4165
 9348SOL    HW239678   2.527   4.345  13.418  0.5839  1.6154  1.3960
 9349SOL     OW39679   4.106   3.364  16.854 -0.4061 -0.1248  0.1537
 9349SOL    HW139680   4.010   3.368  16.852 -0.4895 -1.8311  0.8864
 9349SOL    HW239681   4.124   3.430  16.920  0.8022 -0.6276  0.3195
 9350SOL     OW39682   1.552   4.242   6.041 -1.2582 -0.1585  0.2587
 9350SOL    HW139683   1.591   4.310   6.096 -0.7957  0.3065 -0.6483
 9350SOL    HW239684   1.497   4.198   6.105  1.0547 -1.4961  1.3367
 9351SOL     OW39685   3.941   0.787  15.982 -0.5529 -0.0638  0.4997
 9351SOL    HW139686   3.992   0.713  16.017  0.7452  1.8552  2.6849
 9351SOL    HW239687   3.998   0.857  16.014 -0.9977  0.3122  0.4606
 9352SOL     OW39688   0.175   2.139  17.497 -0.0716  0.9650  0.5907
 9352SOL    HW139689   0.189   2.169  17.408  0.8196 -2.7093 -0.5264
 9352SOL    HW239690   0.165   2.043  17.492 -0.2698  0.9773  0.7410
 9353SOL     OW39691   0.571   0.200   7.017  0.2253  0.1321  0.2939
 9353SOL    HW139692   0.588   0.117   6.972 -0.2395  1.6390 -2.6200
 9353SOL    HW239693   0.628   0.261   6.970 -0.9189  1.0193  0.0640
 9354SOL     OW39694   3.594   0.561   8.475  0.1773  0.6491 -0.0881
 9354SOL    HW139695   3.627   0.596   8.557 -0.1704  1.8976 -0.4722
 9354SOL    HW239696   3.663   0.502   8.447 -0.7973 -0.1607 -0.8183
 9355SOL     OW39697   3.368   4.381   3.095  0.3232  0.1439 -0.6679
 9355SOL    HW139698   3.316   4.372   3.015 -0.2941 -1.1069 -0.1307
 9355SOL    HW239699   3.307   4.355   3.164  0.9121  0.6089  0.0204
 9356SOL     OW39700   3.096   0.028   6.174  0.0154 -0.4164  0.6187
 9356SOL    HW139701   3.006   0.012   6.144 -0.2558  2.1395  0.0568
 9356SOL    HW239702   3.139   4.705   6.111  0.3516 -1.3482  1.6981
 9357SOL     OW39703   1.951   4.720  17.282 -0.1905  0.9612  0.6257
 9357SOL    HW139704   2.003   4.677  17.350  0.8474  1.5372  0.1984
 9357SOL    HW239705   2.013   4.710  17.209  0.0803 -0.9507  1.1041
 9358SOL     OW39706   3.201   2.629   7.620  0.3776  0.4624 -0.6539
 9358SOL    HW139707   3.227   2.716   7.588  0.0272  1.3750  1.5390
 9358SOL    HW239708   3.245   2.573   7.557 -3.2704 -0.2821 -2.5132
 9359SOL     OW39709   2.372   0.082   2.418 -0.4317 -0.9715 -0.3546
 9359SOL    HW139710   2.279   0.064   2.422 -0.6158 -0.1966 -1.1362
 9359SOL    HW239711   2.377   0.125   2.333  2.8234  1.2085  0.9108
 9360SOL     OW39712   3.506   2.173  14.009 -0.3563 -0.4256 -0.3427
 9360SOL    HW139713   3.520   2.140  13.919  1.4984  0.4935 -0.3978
 9360SOL    HW239714   3.413   2.152  14.017 -0.6005  0.6068 -0.5443
 9361SOL     OW39715   1.120   4.193   6.032 -0.3681  0.5521  0.4394
 9361SOL    HW139716   1.093   4.201   6.124 -1.5591  1.5588 -0.0043
 9361SOL    HW239717   1.180   4.118   6.027 -1.7262 -0.4627 -0.6104
 9362SOL     OW39718   0.892   2.243  12.793 -0.2127 -0.0859 -0.2524
 9362SOL    HW139719   0.818   2.239  12.853 -0.8617 -0.9684 -1.1209
 9362SOL    HW239720   0.922   2.334  12.795  1.2783 -0.6503  3.6276
 9363SOL     OW39721   2.376   2.450   5.677 -0.4822 -0.2811  0.2975
 9363SOL    HW139722   2.363   2.499   5.596  0.5726  0.2083  0.4216
 9363SOL    HW239723   2.447   2.504   5.714  0.1898 -1.2754  0.4553
 9364SOL     OW39724   2.919   4.666  17.479 -0.1522  0.3947  0.0975
 9364SOL    HW139725   2.957   4.587  17.442  0.0181  0.9280 -0.8522
 9364SOL    HW239726   2.826   4.645  17.494 -0.2421  0.0127 -1.0515
 9365SOL     OW39727   0.128   3.115  17.620  0.5472  0.6028  0.3924
 9365SOL    HW139728   0.097   3.174  17.551  2.7910  0.1272 -1.0566
 9365SOL    HW239729   0.200   3.065  17.582 -0.0449 -0.3798  0.5803
 9366SOL     OW39730   3.114   3.493  11.590 -0.1982  0.3724  0.1566
 9366SOL    HW139731   3.169   3.440  11.648 -1.2987  0.0123  0.8649
 9366SOL    HW239732   3.060   3.544  11.651 -1.1648 -0.9915  0.4287
 9367SOL     OW39733   4.050   4.216   3.244 -0.1956 -0.1583 -0.4279
 9367SOL    HW139734   4.046   4.217   3.340  2.8373 -0.3144 -0.2922
 9367SOL    HW239735   3.958   4.192   3.233  0.5416 -3.2227 -0.0105
 9368SOL     OW39736   1.148   3.981   9.315  0.0589 -0.1994 -0.2869
 9368SOL    HW139737   1.160   4.069   9.352 -0.9296  0.0055 -0.4358
 9368SOL    HW239738   1.227   3.976   9.262 -0.3863  0.2150 -1.0023
 9369SOL     OW39739   2.419   0.572   5.246  0.5661  0.0064 -0.2477
 9369SOL    HW139740   2.389   0.651   5.290  0.8779  1.2988 -2.3907
 9369SOL    HW239741   2.505   0.603   5.217  0.1433 -0.7335 -2.2954
 9370SOL     OW39742   3.156   0.381   3.613  0.1871  0.0762  0.0114
 9370SOL    HW139743   3.142   0.473   3.634 -2.6607  0.1743 -2.3159
 9370SOL    HW239744   3.066   0.356   3.633  0.4324 -0.9912 -0.2200
 9371SOL     OW39745   4.060   2.558  17.026  0.7037 -0.1301 -0.0291
 9371SOL    HW139746   4.018   2.594  16.947  0.4078 -0.1713  0.1102
 9371SOL    HW239747   4.007   2.480  17.037  0.5358  0.0513  0.4433
 9372SOL     OW39748   0.773   1.070   3.701  0.1207 -0.4164  0.0391
 9372SOL    HW139749   0.863   1.096   3.721 -0.0784 -0.3274  0.8285
 9372SOL    HW239750   0.802   1.002   3.640  0.6526  0.9064 -1.1877
 9373SOL     OW39751   4.285   0.606   7.286 -0.1964 -0.3438 -0.0522
 9373SOL    HW139752   4.307   0.543   7.354  0.5937 -0.0784 -0.0648
 9373SOL    HW239753   4.282   0.547   7.211 -2.5543 -0.0001 -0.2224
 9374SOL     OW39754   4.292   4.648   7.035  0.0654 -0.6532  0.5116
 9374SOL    HW139755   4.369   4.702   7.050  0.1639 -1.4049  2.7871
 9374SOL    HW239756   4.330   4.560   7.031 -1.8948 -1.4866  0.1669
 9375SOL     OW39757   4.699   2.327   4.910  0.0218 -0.3531 -0.5750
 9375SOL    HW139758   4.725   2.310   5.000 -0.2068 -0.1268 -0.4651
 9375SOL    HW239759   0.025   2.271   4.862  2.2077 -0.1985  2.0143
 9376SOL     OW39760   4.522   1.037   8.280 -0.8411 -0.0094  0.3902
 9376SOL    HW139761   4.533   0.966   8.343 -0.4627  0.1534  0.5071
 9376SOL    HW239762   4.607   1.041   8.236 -0.9072 -1.6286  0.1169
 9377SOL     OW39763   4.635   0.669  14.470  0.8918 -0.0345 -0.9491
 9377SOL    HW139764   4.555   0.721  14.475  0.8868 -0.3469  2.2103
 9377SOL    HW239765   4.620   0.607  14.542  3.6558 -1.3692 -1.5166
 9378SOL     OW39766   0.005   3.551  14.486 -0.2812 -0.0082 -0.9222
 9378SOL    HW139767   4.712   3.522  14.399  0.3727  0.4650 -1.2899
 9378SOL    HW239768   4.663   3.536  14.542  0.7320 -1.4511  0.0653
 9379SOL     OW39769   2.319   4.058   1.849 -0.5140  0.3416 -0.2552
 9379SOL    HW139770   2.400   4.064   1.901  0.6714 -1.1810 -1.9202
 9379SOL    HW239771   2.300   3.964   1.853  1.2963 -0.0068  0.3308
 9380SOL     OW39772   4.447   1.283   2.912  0.0053  0.1178 -0.5613
 9380SOL    HW139773   4.494   1.366   2.909  1.8161 -0.9927 -3.4125
 9380SOL    HW239774   4.382   1.297   2.843 -0.8602 -2.2914 -0.2466
 9381SOL     OW39775   4.457   1.857   6.145 -0.4483 -0.0507  1.0979
 9381SOL    HW139776   4.410   1.902   6.075  3.7238  2.6484  0.0277
 9381SOL    HW239777   4.380   1.834   6.197 -1.7387 -0.0489 -0.8225
 9382SOL     OW39778   3.912   2.166   4.425  0.5475 -0.3567  0.5197
 9382SOL    HW139779   3.899   2.077   4.457 -1.6351 -0.8257 -1.7285
 9382SOL    HW239780   3.991   2.155   4.372  1.0031  1.8336  0.7446
 9383SOL     OW39781   4.706   4.560   3.141  0.0888 -0.1703  0.8036
 9383SOL    HW139782   4.650   4.623   3.184  1.1045 -0.6576  2.8356
 9383SOL    HW239783   4.652   4.485   3.164  1.9062 -2.1591 -1.4273
 9384SOL     OW39784   3.983   2.625   7.014 -0.2255  0.4465 -0.2709
 9384SOL    HW139785   3.890   2.638   7.035 -0.1898 -2.2020  1.6234
 9384SOL    HW239786   3.978   2.595   6.923  2.6062 -0.1996 -0.2226
 9385SOL     OW39787   0.190   0.499   8.897 -0.3433 -0.5588  0.1861
 9385SOL    HW139788   0.126   0.509   8.827 -0.4307  0.5891  0.4154
 9385SOL    HW239789   0.180   0.408   8.923  0.1328 -0.4937  0.6087
 9386SOL     OW39790   4.296   4.100   1.010  0.2610  0.1648  0.0604
 9386SOL    HW139791   4.366   4.162   1.030 -0.5910  0.8660  0.8664
 9386SOL    HW239792   4.233   4.133   1.075  0.5113  1.8957 -0.5804
 9387SOL     OW39793   1.769   0.602  12.237  0.0270  0.1430 -0.1027
 9387SOL    HW139794   1.737   0.519  12.273  1.7886  0.1819  1.5346
 9387SOL    HW239795   1.861   0.590  12.211 -0.4078 -0.8918 -1.1802
 9388SOL     OW39796   3.744   1.855   2.058 -0.2457  0.3526  0.6050
 9388SOL    HW139797   3.654   1.838   2.086 -0.8528  0.3391 -1.3488
 9388SOL    HW239798   3.773   1.907   2.134 -0.7865  2.2641 -0.5042
 9389SOL     OW39799   1.476   1.319  11.593 -0.2814  0.2282  0.9025
 9389SOL    HW139800   1.476   1.405  11.636  2.0409  0.5252  0.2761
 9389SOL    HW239801   1.565   1.309  11.560 -0.6812  0.1924 -0.1625
 9390SOL     OW39802   0.868   2.588  12.768  0.0444  0.0730 -0.1252
 9390SOL    HW139803   0.773   2.583  12.776  0.1432 -0.8649  0.3865
 9390SOL    HW239804   0.868   2.674  12.726 -1.1745 -0.1162 -0.5038
 9391SOL     OW39805   1.145   1.682   2.274 -0.0684 -0.4345  0.1722
 9391SOL    HW139806   1.092   1.693   2.196 -1.3101 -1.1135  0.9232
 9391SOL    HW239807   1.098   1.729   2.343 -3.4105 -0.8843 -1.8215
 9392SOL     OW39808   1.498   1.461   2.324  0.0684 -0.2322 -0.0536
 9392SOL    HW139809   1.506   1.424   2.411  0.7079  1.5126  0.6343
 9392SOL    HW239810   1.412   1.441   2.286  0.2338 -0.5114 -0.2826
 9393SOL     OW39811   0.958   1.086  12.434 -0.2825  0.6847 -0.0835
 9393SOL    HW139812   0.876   1.039  12.420 -0.0298 -0.0276  0.8513
 9393SOL    HW239813   0.931   1.177  12.422 -0.4797  0.6129 -0.1784
 9394SOL     OW39814   0.254   2.476  16.118 -0.1030 -0.1986 -0.7847
 9394SOL    HW139815   0.311   2.539  16.073  0.4529 -0.3590 -0.3015
 9394SOL    HW239816   0.166   2.503  16.090 -0.1387 -0.3779 -0.8462
 9395SOL     OW39817   4.331   1.332   3.366  0.2163  0.1853 -0.0733
 9395SOL    HW139818   4.372   1.295   3.444 -1.1807 -0.2581  0.4458
 9395SOL    HW239819   4.243   1.294   3.369 -0.4605  1.7371 -0.6172
 9396SOL     OW39820   3.040   0.434   2.810  0.8580  0.6950 -0.1406
 9396SOL    HW139821   3.117   0.395   2.852  0.3855 -0.9314 -0.7872
 9396SOL    HW239822   2.976   0.394   2.870  2.5837 -0.8733  0.6598
 9397SOL     OW39823   0.375   1.627   7.734 -0.0369  0.2350  0.1460
 9397SOL    HW139824   0.433   1.629   7.658 -1.1594 -1.8926 -0.7859
 9397SOL    HW239825   0.289   1.651   7.700  0.2056 -0.3307 -0.8757
 9398SOL     OW39826   1.406   3.995   0.099  0.1947  0.0156 -0.1665
 9398SOL    HW139827   1.497   4.025   0.102  0.1309  0.2175 -0.2928
 9398SOL    HW239828   1.378   4.033   0.183 -0.8370  2.1539 -1.4919
 9399SOL     OW39829   3.035   0.185  11.769  0.0054  0.0481  0.1142
 9399SOL    HW139830   3.092   0.236  11.711  0.3114  2.6465  2.7081
 9399SOL    HW239831   3.098   0.137  11.824 -0.2872  0.2333  0.6011
 9400SOL     OW39832   0.717   2.653   9.872 -0.5551 -0.1208 -0.8115
 9400SOL    HW139833   0.768   2.730   9.846 -0.0816  0.1115  0.8018
 9400SOL    HW239834   0.783   2.585   9.857  0.7980  0.7332  1.3179
 9401SOL     OW39835   2.479   1.701   5.369 -0.4664  0.1550  0.0910
 9401SOL    HW139836   2.404   1.751   5.402 -1.3146  0.4013 -2.2014
 9401SOL    HW239837   2.479   1.722   5.276 -0.5978  1.0900  0.3018
 9402SOL     OW39838   4.644   2.624   3.782 -0.1247  0.1329  0.0505
 9402SOL    HW139839   4.606   2.712   3.780 -0.5616 -0.0099  3.1449
 9402SOL    HW239840   4.596   2.595   3.859  0.8214 -0.4155  0.4288
 9403SOL     OW39841   1.686   1.103   7.940  0.2100  0.1760 -0.3604
 9403SOL    HW139842   1.744   1.144   8.004  0.3585  0.0478 -0.4131
 9403SOL    HW239843   1.678   1.015   7.976  1.6565  0.5868  0.9640
 9404SOL     OW39844   4.638   0.285   5.547  0.2715 -0.0595  0.3106
 9404SOL    HW139845   4.566   0.274   5.609  0.4000  1.6119  0.7758
 9404SOL    HW239846   4.587   0.268   5.468 -1.4908  0.8064  1.2564
 9405SOL     OW39847   2.952   2.266   2.189 -0.2422 -0.4528  0.7599
 9405SOL    HW139848   2.902   2.198   2.234 -1.4560  0.0237  0.1370
 9405SOL    HW239849   2.911   2.348   2.216 -0.7892 -0.2213 -0.7522
 9406SOL     OW39850   2.616   2.325   2.958  0.3181  0.0732 -0.0705
 9406SOL    HW139851   2.595   2.263   2.888 -1.3477  0.5549 -0.0056
 9406SOL    HW239852   2.545   2.312   3.022  0.4553 -1.1102 -0.1608
 9407SOL     OW39853   1.353   3.872   9.161 -0.0144 -0.4098 -0.3078
 9407SOL    HW139854   1.393   3.787   9.144 -1.7898 -0.7095 -2.9081
 9407SOL    HW239855   1.360   3.907   9.072  0.9286  0.0489 -0.0500
 9408SOL     OW39856   2.161   1.308   5.569  0.4594 -0.5649  1.0296
 9408SOL    HW139857   2.119   1.293   5.654 -0.3411  1.9537  1.0691
 9408SOL    HW239858   2.246   1.266   5.582  0.7233 -0.6645 -0.9981
 9409SOL     OW39859   4.238   0.744   7.590  0.6766  0.3201 -0.0502
 9409SOL    HW139860   4.253   0.830   7.630 -1.7552 -0.0775  1.7560
 9409SOL    HW239861   4.269   0.762   7.502  1.0756  0.1834  0.0612
 9410SOL     OW39862   0.749   3.076   6.092  0.9944  0.2598 -0.3907
 9410SOL    HW139863   0.713   2.996   6.131  2.0139  0.3883  0.7739
 9410SOL    HW239864   0.758   3.059   5.998  3.1750  1.1133 -0.3191
 9411SOL     OW39865   0.893   0.128   3.687  0.1175 -0.1051 -0.0680
 9411SOL    HW139866   0.891   0.040   3.725  0.3615 -0.4344 -0.8067
 9411SOL    HW239867   0.983   0.121   3.656  0.2713 -0.3066  0.4191
 9412SOL     OW39868   0.539   3.815  12.268 -0.7174  0.0387 -0.7779
 9412SOL    HW139869   0.472   3.751  12.288 -0.9081  0.6728  0.6366
 9412SOL    HW239870   0.511   3.835  12.179 -2.0672  1.5326 -0.0010
 9413SOL     OW39871   2.396   2.614   8.537 -0.1847  0.5777  0.3378
 9413SOL    HW139872   2.326   2.572   8.587  0.5787 -0.0041  0.9185
 9413SOL    HW239873   2.349   2.671   8.476  0.6439 -1.1070 -1.8684
 9414SOL     OW39874   0.480   1.349   8.200  0.9224 -0.3055 -0.4865
 9414SOL    HW139875   0.461   1.404   8.124  3.1648 -1.0046 -1.5476
 9414SOL    HW239876   0.515   1.418   8.257 -0.2815 -0.2232  0.1519
 9415SOL     OW39877   0.454   2.575   4.497  0.2431  0.0270 -0.4894
 9415SOL    HW139878   0.456   2.483   4.473  2.5488 -0.3211  1.0716
 9415SOL    HW239879   0.467   2.622   4.415 -0.6610 -1.3945 -1.4378
 9416SOL     OW39880   0.740   3.246   9.190 -0.1784  0.1706  0.0086
 9416SOL    HW139881   0.780   3.160   9.180 -2.3347 -0.9628  1.2399
 9416SOL    HW239882   0.662   3.232   9.244 -0.4427  3.9207  0.5823
 9417SOL     OW39883   3.143   0.112   4.592 -0.2520 -1.0948  0.1785
 9417SOL    HW139884   3.151   0.139   4.500 -0.8684 -2.6951 -0.3545
 9417SOL    HW239885   3.237   0.110   4.605 -0.2887 -0.0656  0.5840
 9418SOL     OW39886   2.577   0.568   2.570  0.3015 -0.2920 -0.3054
 9418SOL    HW139887   2.507   0.610   2.519 -0.1317 -1.7947 -0.9670
 9418SOL    HW239888   2.643   0.627   2.532  1.0877 -1.7038 -1.1304
 9419SOL     OW39889   4.307   2.710  13.701  0.9480  0.6055 -0.1285
 9419SOL    HW139890   4.225   2.759  13.708  0.5449  0.0860 -1.1372
 9419SOL    HW239891   4.327   2.679  13.789  0.0551  1.0447  0.2369
 9420SOL     OW39892   1.088   1.130   0.761 -0.2350 -0.1955  0.2322
 9420SOL    HW139893   1.088   1.091   0.673  1.0123 -0.7259  0.4696
 9420SOL    HW239894   1.153   1.075   0.804  0.0289 -0.8804 -1.0339
 9421SOL     OW39895   2.114   3.231   7.274  0.4086 -0.4776  0.6867
 9421SOL    HW139896   2.129   3.301   7.338  0.8780  0.7816 -0.7861
 9421SOL    HW239897   2.099   3.158   7.334 -0.1268  1.1988  2.5981
 9422SOL     OW39898   1.399   2.790  12.678 -0.1371 -0.0950  0.1363
 9422SOL    HW139899   1.323   2.760  12.629 -2.4035  2.2198  2.2101
 9422SOL    HW239900   1.359   2.864  12.724 -0.1402  1.4148 -2.2979
 9423SOL     OW39901   0.134   2.739   3.358  0.0137  0.2722  0.6699
 9423SOL    HW139902   0.072   2.811   3.346  0.6436  0.7069  0.0429
 9423SOL    HW239903   0.150   2.701   3.272 -2.0251 -0.3352  0.5777
 9424SOL     OW39904   0.151   3.737   1.447 -0.0178 -0.2048 -0.3614
 9424SOL    HW139905   0.095   3.675   1.400 -0.6627 -0.6659  1.0392
 9424SOL    HW239906   0.088   3.776   1.508  0.3335 -2.0390  1.1699
 9425SOL     OW39907   0.390   0.094  14.216  0.1580 -0.5147 -0.4181
 9425SOL    HW139908   0.438   0.083  14.299  0.5551 -0.4230 -0.6379
 9425SOL    HW239909   0.433   0.031  14.158  2.1243  0.9979 -0.5947
 9426SOL     OW39910   3.207   2.773   2.467  0.3388 -0.0684 -0.1399
 9426SOL    HW139911   3.207   2.781   2.563  1.3439  1.0610 -0.2366
 9426SOL    HW239912   3.235   2.857   2.431  2.2872 -0.8126 -0.3415
 9427SOL     OW39913   1.916   3.165   9.276 -0.3631  0.5092  0.0175
 9427SOL    HW139914   1.898   3.259   9.269  0.2610  0.5659 -0.8793
 9427SOL    HW239915   1.913   3.166   9.371  1.9326 -1.4991  0.1151
 9428SOL     OW39916   1.336   1.630   8.543 -0.5547  0.0097  0.6035
 9428SOL    HW139917   1.344   1.619   8.638  0.2896 -0.8829  0.4252
 9428SOL    HW239918   1.428   1.651   8.526 -0.9511  1.4928  0.3235
 9429SOL     OW39919   0.072   2.788  12.110  0.1322 -0.0102 -0.1804
 9429SOL    HW139920   0.021   2.753  12.182  0.1943  0.0115 -0.1253
 9429SOL    HW239921   0.143   2.723  12.110 -0.2029 -0.3869 -1.8539
 9430SOL     OW39922   4.708   0.673   6.149 -0.2459  0.4424 -0.4234
 9430SOL    HW139923   0.001   0.628   6.069  0.8113 -0.3739  0.4061
 9430SOL    HW239924   4.630   0.723   6.123 -1.4789  0.3963  3.2848
 9431SOL     OW39925   3.523   0.706   4.277  0.3429 -0.1086 -0.1710
 9431SOL    HW139926   3.477   0.717   4.194 -1.2032 -0.6710  0.6140
 9431SOL    HW239927   3.488   0.621   4.303  0.9211 -0.1226  0.5608
 9432SOL     OW39928   1.316   3.315   4.879 -0.5950 -0.1963  0.6933
 9432SOL    HW139929   1.258   3.238   4.885  1.2512 -1.7137 -0.9340
 9432SOL    HW239930   1.404   3.278   4.886 -0.8798 -0.6214  2.1938
 9433SOL     OW39931   2.679   2.111   7.250  0.1442 -0.0999  0.5469
 9433SOL    HW139932   2.626   2.070   7.319  1.5036 -0.6834  1.2546
 9433SOL    HW239933   2.733   2.167   7.306  2.5760  0.8210 -2.6986
 9434SOL     OW39934   4.608   3.898  14.061  0.2732  0.2429 -0.2076
 9434SOL    HW139935   4.680   3.844  14.093  1.5824  3.1572  1.7744
 9434SOL    HW239936   4.539   3.866  14.119 -0.3014  0.5621 -0.7118
 9435SOL     OW39937   4.362   0.280   7.112  0.0542  0.4085  0.2655
 9435SOL    HW139938   4.346   0.332   7.033  1.0166  1.5185  0.7948
 9435SOL    HW239939   4.415   0.215   7.065  0.2960  0.6808  0.1600
 9436SOL     OW39940   1.167   3.665  12.809  0.2799 -0.3591  0.3853
 9436SOL    HW139941   1.155   3.733  12.742 -2.0089 -2.1773 -1.0518
 9436SOL    HW239942   1.236   3.710  12.859  0.7614  1.2838 -1.7534
 9437SOL     OW39943   1.501   0.722   4.683  0.2632 -0.1847  0.2587
 9437SOL    HW139944   1.411   0.731   4.714  0.0272 -2.0849  0.0833
 9437SOL    HW239945   1.539   0.678   4.759  1.1678  0.3600  0.1316
 9438SOL     OW39946   3.243   4.065   8.676 -0.1631  0.8395 -0.0623
 9438SOL    HW139947   3.264   4.092   8.765 -2.0249 -1.7990  1.1772
 9438SOL    HW239948   3.159   4.109   8.663 -0.6928 -0.4752 -1.1383
 9439SOL     OW39949   0.233   0.984   9.378 -0.0243 -0.1173  0.5267
 9439SOL    HW139950   0.301   1.016   9.438  0.4366  0.0598 -0.0862
 9439SOL    HW239951   0.198   1.066   9.344 -0.1283 -1.0447 -1.5456
 9440SOL     OW39952   2.945   1.503   8.552 -0.1690 -0.0681 -0.3156
 9440SOL    HW139953   2.982   1.429   8.503 -0.1145  0.0006 -0.3777
 9440SOL    HW239954   2.936   1.463   8.638 -0.1970  1.8583  0.5619
 9441SOL     OW39955   2.436   0.202   9.842 -0.0159  0.3671  0.6282
 9441SOL    HW139956   2.429   0.219   9.936 -0.0860 -1.2650  0.9208
 9441SOL    HW239957   2.443   0.107   9.844  0.1127  0.3706  0.1706
 9442SOL     OW39958   2.034   4.508   3.322  0.8106 -0.2276 -0.0930
 9442SOL    HW139959   2.024   4.568   3.248  2.0491 -0.5281 -0.4963
 9442SOL    HW239960   2.122   4.536   3.348  0.4062  2.5958 -1.6982
 9443SOL     OW39961   4.568   1.128   9.732  0.2378 -0.4728 -0.0058
 9443SOL    HW139962   4.477   1.155   9.743 -0.2365 -1.8794 -0.4917
 9443SOL    HW239963   4.583   1.069   9.806 -0.7705 -0.6292  0.0745
 9444SOL     OW39964   3.827   4.525   0.900 -0.0715  0.0772  0.2823
 9444SOL    HW139965   3.739   4.488   0.899 -0.3307  0.6892 -0.1952
 9444SOL    HW239966   3.878   4.444   0.905 -3.5641 -1.9907  2.5075
 9445SOL     OW39967   0.759   3.395  12.256  0.5555  0.1395 -0.1222
 9445SOL    HW139968   0.782   3.304  12.238 -1.3910 -0.6005  1.0516
 9445SOL    HW239969   0.684   3.408  12.198  0.4708 -0.3281 -0.1235
 9446SOL     OW39970   1.006   2.496   3.895 -0.0549 -0.5476 -0.5496
 9446SOL    HW139971   0.973   2.586   3.899  0.1166 -0.4593 -1.1023
 9446SOL    HW239972   1.091   2.513   3.854  1.9984 -1.9942  3.1197
 9447SOL     OW39973   0.896   4.320   8.097 -0.4366  0.1785 -0.1191
 9447SOL    HW139974   0.847   4.386   8.146 -1.5138 -0.1525 -0.7453
 9447SOL    HW239975   0.972   4.323   8.154  0.3574  0.8783 -1.2267
 9448SOL     OW39976   3.734   1.770  12.302 -0.0599  0.4531  0.5033
 9448SOL    HW139977   3.772   1.743  12.218  0.1353  0.3234  0.6320
 9448SOL    HW239978   3.731   1.689  12.354  0.5872  0.4327  0.5115
 9449SOL     OW39979   2.799   2.965   8.336  0.0323 -0.9821 -0.3500
 9449SOL    HW139980   2.872   2.942   8.279 -0.1286 -0.6832 -0.6726
 9449SOL    HW239981   2.849   2.972   8.418 -0.6562 -1.0212  0.0669
 9450SOL     OW39982   4.087   0.417   7.873  0.0850 -0.0891 -0.2533
 9450SOL    HW139983   4.005   0.367   7.877 -0.1478  0.0587 -3.2328
 9450SOL    HW239984   4.101   0.446   7.783 -0.8529  1.7067  0.1893
 9451SOL     OW39985   3.923   2.678  17.263  0.1463  0.1824 -0.3565
 9451SOL    HW139986   3.966   2.644  17.184  1.2046  2.8000 -0.8997
 9451SOL    HW239987   3.837   2.636  17.253 -0.1544  0.3552  1.6257
 9452SOL     OW39988   4.129   0.514   2.705 -0.0932 -0.2979  0.4876
 9452SOL    HW139989   4.099   0.466   2.628 -0.2202  2.3028 -1.0599
 9452SOL    HW239990   4.206   0.461   2.725 -0.4842 -1.0857 -0.0842
 9453SOL     OW39991   3.549   2.778   9.859  0.2402 -0.3657  0.5775
 9453SOL    HW139992   3.611   2.849   9.876 -0.7495  0.1224  2.1222
 9453SOL    HW239993   3.564   2.760   9.766 -3.8094 -2.6190  0.3540
 9454SOL     OW39994   3.609   1.932  16.313 -0.3155 -0.3614  0.0737
 9454SOL    HW139995   3.630   1.840  16.329  0.1101  0.1136  2.2457
 9454SOL    HW239996   3.515   1.920  16.299 -0.9392 -0.0669  3.9842
 9455SOL     OW39997   0.158   0.001   4.393  0.9684  0.3030 -0.2986
 9455SOL    HW139998   0.184   4.670   4.458 -1.3735  0.2929  0.6530
 9455SOL    HW239999   0.079   0.036   4.435  0.7447 -2.6930  1.7389
 9456SOL     OW40000   1.359   4.704  14.674 -0.8438  0.5177  0.2604
 9456SOL    HW140001   1.396   4.617  14.689 -0.9429  0.2220 -1.2107
 9456SOL    HW240002   1.335   4.686  14.583  1.3126 -1.5949  0.1201
 9457SOL     OW40003   2.428   2.090   6.019  0.2876 -0.4199  0.2120
 9457SOL    HW140004   2.415   2.147   5.943  0.5217  1.2955  1.4387
 9457SOL    HW240005   2.500   2.037   5.984  2.0648  1.3243  1.2149
 9458SOL     OW40006   3.169   0.538  10.199  0.0422  0.5193  0.1758
 9458SOL    HW140007   3.182   0.630  10.221  0.0559  0.6497 -0.3665
 9458SOL    HW240008   3.177   0.540  10.104  0.4018  0.6061  0.2093
 9459SOL     OW40009   0.020   3.402  11.146 -0.3584  0.5848  0.2517
 9459SOL    HW140010   4.714   3.389  11.232  0.4908  0.1867  0.5940
 9459SOL    HW240011   0.039   3.496  11.153 -0.1000  0.7481 -2.9740
 9460SOL     OW40012   3.009   1.793  16.183 -0.6852 -0.0513  0.4211
 9460SOL    HW140013   3.056   1.847  16.119 -0.5028 -0.3070  0.3395
 9460SOL    HW240014   3.079   1.780  16.246  0.2409  0.7399 -0.4461
 9461SOL     OW40015   0.140   0.627  13.050 -0.6420 -0.5351  0.1533
 9461SOL    HW140016   0.215   0.595  13.100 -0.5242  0.5594  0.6719
 9461SOL    HW240017   0.089   0.548  13.030 -1.0632 -0.0137 -0.8217
 9462SOL     OW40018   0.859   3.786  12.553  0.0646  0.0149  0.0017
 9462SOL    HW140019   0.901   3.800  12.469 -0.5827  1.2016 -0.1248
 9462SOL    HW240020   0.934   3.789  12.612  0.5247  0.7485 -0.6339
 9463SOL     OW40021   0.894   4.118   5.484 -0.0424  0.3547  0.2812
 9463SOL    HW140022   0.900   4.093   5.576  0.6779  1.5468  0.5557
 9463SOL    HW240023   0.824   4.181   5.494  0.2829  0.7182  0.2763
 9464SOL     OW40024   4.089   2.138   5.118 -0.6130  0.1718  0.4600
 9464SOL    HW140025   3.999   2.131   5.149 -1.0916  1.8549 -0.5558
 9464SOL    HW240026   4.092   2.230   5.089 -1.7281 -0.5580 -1.9795
 9465SOL     OW40027   1.143   4.415   4.255  0.0094 -0.2980 -0.1527
 9465SOL    HW140028   1.085   4.452   4.189 -0.2369 -1.9229 -0.8437
 9465SOL    HW240029   1.098   4.339   4.292 -0.6109  0.0787 -0.1308
 9466SOL     OW40030   3.799   4.531   4.376 -0.1222  0.1618 -0.2086
 9466SOL    HW140031   3.718   4.516   4.425  0.7778  1.7018  1.7575
 9466SOL    HW240032   3.862   4.486   4.431  1.0801 -0.2815 -1.9487
 9467SOL     OW40033   2.830   2.695  15.512 -0.1151  0.1349  0.1279
 9467SOL    HW140034   2.778   2.619  15.483 -0.6304  1.1846 -1.7054
 9467SOL    HW240035   2.806   2.753  15.440  2.0904  0.3243 -0.4406
 9468SOL     OW40036   3.981   4.508   6.257 -0.1994 -0.0607  0.4539
 9468SOL    HW140037   3.898   4.549   6.281 -1.0103  0.3630 -3.0541
 9468SOL    HW240038   3.992   4.526   6.164 -0.7498  1.9426  0.7899
 9469SOL     OW40039   1.020   1.507   8.421 -0.1118 -0.1428  0.0935
 9469SOL    HW140040   1.051   1.422   8.453  0.5957  0.7553  1.7897
 9469SOL    HW240041   1.090   1.566   8.447  0.4352 -0.3994 -0.8045
 9470SOL     OW40042   1.306   1.864   7.686 -0.2767 -0.0578 -0.4120
 9470SOL    HW140043   1.381   1.823   7.643 -1.3112 -2.3317 -0.0145
 9470SOL    HW240044   1.285   1.927   7.616 -1.0529 -1.4661 -1.4489
 9471SOL     OW40045   3.053   1.933  16.904 -0.3690 -0.9125 -0.1667
 9471SOL    HW140046   3.009   1.886  16.833 -1.8057  0.0887  0.0561
 9471SOL    HW240047   3.028   2.022  16.881  1.0705 -0.3690  0.3614
 9472SOL     OW40048   4.626   4.319   9.908 -0.1547  0.4651 -0.3322
 9472SOL    HW140049   4.592   4.334   9.820 -0.8235 -0.2679 -0.2069
 9472SOL    HW240050   4.683   4.393   9.926  0.5725 -1.0847  3.7491
 9473SOL     OW40051   0.767   4.649   5.087  0.3558  0.1400  0.3445
 9473SOL    HW140052   0.767   4.647   5.183  2.1320 -1.0468  0.3232
 9473SOL    HW240053   0.690   4.598   5.064 -0.2642  1.0982  0.2893
 9474SOL     OW40054   2.371   1.397  14.742 -0.1991 -0.2294 -0.0210
 9474SOL    HW140055   2.436   1.443  14.796  1.7330 -0.9055 -1.7984
 9474SOL    HW240056   2.337   1.332  14.804 -2.0568  0.1006 -0.7073
 9475SOL     OW40057   2.422   1.925   9.145 -0.1075  0.2160  0.2320
 9475SOL    HW140058   2.444   2.015   9.120  0.5290  0.5107  1.8716
 9475SOL    HW240059   2.500   1.873   9.126 -1.1108 -0.4986 -2.0391
 9476SOL     OW40060   1.418   4.377   4.356  0.0582 -0.0424  0.5963
 9476SOL    HW140061   1.461   4.445   4.305 -2.4256  2.0556  1.3145
 9476SOL    HW240062   1.331   4.361   4.320  0.6143 -1.1161 -0.2573
 9477SOL     OW40063   0.350   4.452   2.343 -0.3508  0.1069 -0.3016
 9477SOL    HW140064   0.272   4.398   2.355  0.1610 -0.3808  0.8742
 9477SOL    HW240065   0.344   4.519   2.411  0.2346 -1.2151  1.0884
 9478SOL     OW40066   4.430   3.862   8.318 -0.1900  0.1440 -0.1044
 9478SOL    HW140067   4.445   3.928   8.250  2.3251  1.5497  1.8293
 9478SOL    HW240068   4.513   3.881   8.361 -0.8441  1.6579  0.4805
 9479SOL     OW40069   3.594   3.766   8.769 -0.0270 -0.1803 -0.9263
 9479SOL    HW140070   3.508   3.754   8.808  0.4597 -1.8268 -0.3359
 9479SOL    HW240071   3.632   3.678   8.778  4.5718  2.0646  1.6088
 9480SOL     OW40072   3.217   3.989  15.174 -0.0091 -0.5321  0.7519
 9480SOL    HW140073   3.132   3.959  15.143  0.1087 -0.5480  0.4419
 9480SOL    HW240074   3.208   3.996  15.269  0.2657 -0.5144  0.7776
 9481SOL     OW40075   3.315   3.023   6.592  0.4429  0.6660  0.5962
 9481SOL    HW140076   3.256   2.975   6.650 -0.1264 -0.3511 -0.8274
 9481SOL    HW240077   3.316   3.099   6.651 -0.0391  0.3624  0.9964
 9482SOL     OW40078   1.816   0.777   0.414 -0.5314 -0.5047  0.5659
 9482SOL    HW140079   1.776   0.721   0.347  0.0769 -0.8275  0.4780
 9482SOL    HW240080   1.819   0.861   0.368 -2.6480 -0.0424  1.2378
 9483SOL     OW40081   3.716   2.859   3.431 -0.4157 -0.0386  0.0925
 9483SOL    HW140082   3.743   2.926   3.493  0.6288 -1.8285  1.5949
 9483SOL    HW240083   3.786   2.860   3.365 -1.8656 -1.7056 -1.4625
 9484SOL     OW40084   4.418   4.340   0.424 -0.1741  0.0827 -0.0275
 9484SOL    HW140085   4.474   4.285   0.370 -0.8003 -1.2300  0.6641
 9484SOL    HW240086   4.418   4.299   0.511  1.7497  1.1055  0.4522
 9485SOL     OW40087   2.067   4.427  12.586  0.4804  0.0886  0.0035
 9485SOL    HW140088   1.977   4.414  12.558  0.1966  0.6169  0.6690
 9485SOL    HW240089   2.058   4.479  12.666  0.8978 -0.7710  0.6123
 9486SOL     OW40090   2.076   0.547   6.405  0.6567 -0.0792  0.0350
 9486SOL    HW140091   1.984   0.531   6.384  0.4555  3.1906 -1.5988
 9486SOL    HW240092   2.100   0.460   6.435  1.2739 -0.8507 -2.6375
 9487SOL     OW40093   3.399   0.692   4.044  0.0144 -0.1121  0.3076
 9487SOL    HW140094   3.319   0.639   4.037 -0.3443  0.4045  0.4999
 9487SOL    HW240095   3.432   0.660   3.960  0.2577 -0.2669  0.4643
 9488SOL     OW40096   3.329   4.695   8.393 -0.1393  0.4309 -0.4205
 9488SOL    HW140097   3.419   4.672   8.371 -0.3303 -0.6435 -0.0967
 9488SOL    HW240098   3.302   0.016   8.319 -1.6844 -0.4746 -0.5406
 9489SOL     OW40099   2.224   2.935   1.627 -0.0669  0.5566  0.4940
 9489SOL    HW140100   2.161   2.863   1.631  0.1729  0.2208 -2.0198
 9489SOL    HW240101   2.300   2.891   1.589 -0.9344 -1.4924  1.1611
 9490SOL     OW40102   1.862   3.808   1.148  0.2109  0.0190 -0.1569
 9490SOL    HW140103   1.845   3.716   1.168 -0.6716  0.6778  2.2079
 9490SOL    HW240104   1.852   3.842   1.237 -1.7155 -0.3344 -0.2287
 9491SOL     OW40105   3.610   2.884   5.131 -0.0931  0.1770  0.5389
 9491SOL    HW140106   3.698   2.910   5.161  1.2211 -0.8694 -2.3535
 9491SOL    HW240107   3.631   2.805   5.081  0.6997  0.4949  0.3692
 9492SOL     OW40108   1.317   2.266   4.587 -0.7248  0.0315 -0.1373
 9492SOL    HW140109   1.301   2.339   4.647  1.9353  2.0299 -1.8906
 9492SOL    HW240110   1.362   2.200   4.640  3.4294  2.8321 -0.2064
 9493SOL     OW40111   0.247   2.611   6.266  0.2851 -0.3151 -0.0977
 9493SOL    HW140112   0.240   2.594   6.172  0.1505  1.9359 -0.4995
 9493SOL    HW240113   0.256   2.527   6.311  1.9414 -0.3628 -0.5230
 9494SOL     OW40114   4.704   0.826   2.281  0.0610 -0.6438 -0.3646
 9494SOL    HW140115   0.007   0.738   2.292  0.7793 -0.7384 -3.6296
 9494SOL    HW240116   0.038   0.851   2.218 -0.4185  0.9654 -0.2314
 9495SOL     OW40117   3.010   0.798   8.185  0.3195 -0.4025 -0.4898
 9495SOL    HW140118   2.959   0.843   8.119  0.5216 -0.6160 -0.7888
 9495SOL    HW240119   3.098   0.805   8.149  0.6261 -2.3041 -0.0877
 9496SOL     OW40120   1.463   2.147   5.260  0.0787 -0.0864 -0.1626
 9496SOL    HW140121   1.436   2.138   5.169 -0.8762  2.2883 -0.1100
 9496SOL    HW240122   1.471   2.054   5.282  2.2688  0.2525  0.4880
 9497SOL     OW40123   1.217   3.586   3.528  0.3319 -0.1867  0.2639
 9497SOL    HW140124   1.136   3.595   3.579 -1.2314  1.6369 -2.5407
 9497SOL    HW240125   1.272   3.645   3.578  1.5108 -0.4830 -0.6841
 9498SOL     OW40126   2.255   1.811  14.939  0.0144  0.3289 -0.0173
 9498SOL    HW140127   2.190   1.875  14.909  0.7893  0.7228 -0.8530
 9498SOL    HW240128   2.259   1.770  14.852 -1.5753  0.3515 -0.1116
 9499SOL     OW40129   2.292   3.217  13.762 -0.0963  0.4438  0.2571
 9499SOL    HW140130   2.206   3.254  13.742  0.5045  1.4848 -0.4030
 9499SOL    HW240131   2.352   3.264  13.704 -1.9510  1.8055 -0.5669
 9500SOL     OW40132   3.916   3.915   1.135  0.1611  0.4309 -0.2180
 9500SOL    HW140133   3.941   4.002   1.169  3.2589 -0.3245 -0.5460
 9500SOL    HW240134   3.836   3.892   1.182 -0.3508  0.0977 -1.2612
 9501SOL     OW40135   4.665   2.483   6.124  0.0223  0.5066  0.0149
 9501SOL    HW140136   4.660   2.390   6.102 -2.3252  1.2892 -2.8013
 9501SOL    HW240137   4.643   2.525   6.040 -0.6885  0.8721  0.3826
 9502SOL     OW40138   4.214   3.646  10.558  0.6063  0.0987  0.4080
 9502SOL    HW140139   4.183   3.737  10.564  1.4322  0.3604  0.5901
 9502SOL    HW240140   4.283   3.655  10.623  1.0898  1.3228 -0.2740
 9503SOL     OW40141   3.152   2.488   6.918 -0.3441  0.0196 -0.5605
 9503SOL    HW140142   3.166   2.513   6.827 -0.1483 -0.2132 -0.5963
 9503SOL    HW240143   3.215   2.541   6.966  0.1830  0.6691 -1.9632
 9504SOL     OW40144   3.332   4.435   4.272  0.7065  0.1679  0.2029
 9504SOL    HW140145   3.358   4.397   4.188  1.2617  3.0148 -0.8782
 9504SOL    HW240146   3.408   4.483   4.303  1.0321 -0.4238  0.3170
 9505SOL     OW40147   2.592   2.023   5.072  0.3362 -0.0409 -0.0554
 9505SOL    HW140148   2.610   2.095   5.012  0.5439  0.1209  0.2021
 9505SOL    HW240149   2.678   2.002   5.107 -0.1982 -1.8809  0.1225
 9506SOL     OW40150   0.211   1.228   6.842  0.4085  0.3615 -0.4135
 9506SOL    HW140151   0.293   1.255   6.884  0.2255 -1.8608  1.2854
 9506SOL    HW240152   0.236   1.193   6.756 -1.0553  1.3579 -1.2438
 9507SOL     OW40153   1.124   3.699  13.563  0.2052 -0.5249 -0.0663
 9507SOL    HW140154   1.170   3.712  13.645 -1.0182  0.2396  0.4993
 9507SOL    HW240155   1.069   3.626  13.593  1.0765 -0.1026  2.5221
 9508SOL     OW40156   2.823   4.451  11.378  0.6056 -0.1646 -0.0959
 9508SOL    HW140157   2.802   4.386  11.312 -0.1014  0.2615 -0.2915
 9508SOL    HW240158   2.894   4.503  11.338  0.4130  1.1238  1.2360
 9509SOL     OW40159   2.354   2.858   3.900  0.5025  0.1666  0.4654
 9509SOL    HW140160   2.395   2.934   3.942 -0.4835 -0.1347  1.9722
 9509SOL    HW240161   2.382   2.786   3.956  1.0256  0.3481  0.4375
 9510SOL     OW40162   2.216   0.890   7.545  0.3298 -0.9359  0.0369
 9510SOL    HW140163   2.298   0.902   7.593 -0.5179  3.8376  0.3175
 9510SOL    HW240164   2.177   0.975   7.565  2.6803  0.3436 -0.8150
 9511SOL     OW40165   3.539   2.523   5.640  0.4314  0.0210 -0.4850
 9511SOL    HW140166   3.478   2.558   5.706 -1.2199 -1.2118 -1.3643
 9511SOL    HW240167   3.561   2.595   5.582  1.4286  1.9500  2.2837
 9512SOL     OW40168   3.184   4.519   4.915 -0.2922 -0.3024 -0.3153
 9512SOL    HW140169   3.108   4.468   4.889 -1.0799  0.0585  1.2786
 9512SOL    HW240170   3.242   4.515   4.839  1.0961  0.9360  0.6522
 9513SOL     OW40171   1.458   0.309   9.023  0.1645 -0.0681  0.9608
 9513SOL    HW140172   1.377   0.265   8.998  3.1201 -3.8316 -2.0076
 9513SOL    HW240173   1.522   0.273   8.962  0.7196  2.8637 -0.1892
 9514SOL     OW40174   1.564   3.283   8.538 -0.7708  0.1447 -0.0198
 9514SOL    HW140175   1.541   3.248   8.624  0.3577  0.0333  0.2281
 9514SOL    HW240176   1.594   3.367   8.572  0.9195 -0.9480  1.1652
 9515SOL     OW40177   4.214   3.258  11.451 -0.0761  0.1512 -0.1148
 9515SOL    HW140178   4.281   3.192  11.434 -1.8504 -1.5167 -0.6500
 9515SOL    HW240179   4.144   3.199  11.478  0.1655  0.3635  1.0001
 9516SOL     OW40180   2.485   1.476   2.403  0.1250 -0.5615 -0.0133
 9516SOL    HW140181   2.539   1.535   2.456 -0.8503 -0.6994  1.1291
 9516SOL    HW240182   2.404   1.480   2.454  1.0927  1.0902  1.4062
 9517SOL     OW40183   3.419   1.858   2.014 -0.3718  1.0504  0.2453
 9517SOL    HW140184   3.425   1.856   1.919  0.6706 -0.0587  0.3397
 9517SOL    HW240185   3.401   1.952   2.022 -1.1259  0.9458 -0.2668
 9518SOL     OW40186   3.127   1.615   4.832  0.1795 -0.1002 -0.1397
 9518SOL    HW140187   3.086   1.541   4.788 -1.2937  1.0133 -0.6596
 9518SOL    HW240188   3.080   1.686   4.787  0.1659  0.3106  0.5150
 9519SOL     OW40189   3.243   0.486  14.677  0.0410 -0.3997  0.1627
 9519SOL    HW140190   3.250   0.392  14.692  1.6962 -0.2495  0.3278
 9519SOL    HW240191   3.193   0.505  14.757 -0.4955 -2.7258  0.3761
 9520SOL     OW40192   3.766   1.575  17.653 -0.2175  0.1236 -0.2277
 9520SOL    HW140193   3.821   1.514  17.703 -2.6413 -0.4047  1.7941
 9520SOL    HW240194   3.691   1.576  17.712  1.5000  1.3969  1.9432
 9521SOL     OW40195   2.929   2.000   9.160 -0.0112 -0.2759  0.6602
 9521SOL    HW140196   2.924   2.096   9.157 -3.6326 -0.5067 -0.7394
 9521SOL    HW240197   2.842   1.981   9.196  0.1865  0.1807  1.3833
 9522SOL     OW40198   2.254   0.616  12.395  0.0551  0.5035 -0.1896
 9522SOL    HW140199   2.331   0.559  12.401 -0.3537  0.0270  0.5732
 9522SOL    HW240200   2.190   0.582  12.458 -0.5303  1.5738 -0.2170
 9523SOL     OW40201   2.532   2.841   9.103  0.4994 -0.7363  0.6662
 9523SOL    HW140202   2.617   2.823   9.062 -0.1013 -1.3795 -0.2856
 9523SOL    HW240203   2.545   2.936   9.097  0.5337 -0.9764 -3.0618
 9524SOL     OW40204   0.793   1.516   8.276 -0.0803  0.2364  0.1420
 9524SOL    HW140205   0.865   1.508   8.337  0.0284 -0.1072 -0.0312
 9524SOL    HW240206   0.809   1.608   8.255  3.8082 -0.8066 -1.5201
 9525SOL     OW40207   3.571   0.810  11.338  0.0879  0.3702  0.3169
 9525SOL    HW140208   3.643   0.765  11.383 -0.1426  1.7306  2.0664
 9525SOL    HW240209   3.588   0.795  11.245  1.7630  0.9724  0.5227
 9526SOL     OW40210   1.204   1.420   9.789 -0.4424 -0.2499 -0.0712
 9526SOL    HW140211   1.163   1.462   9.714 -0.6217  0.1170  0.2302
 9526SOL    HW240212   1.140   1.369   9.840  0.4955 -0.9833  0.3822
 9527SOL     OW40213   4.715   3.717   7.522  0.0114 -0.5367 -0.0853
 9527SOL    HW140214   0.032   3.792   7.490 -1.6485  0.2548 -0.8657
 9527SOL    HW240215   0.052   3.654   7.540  1.3119  0.8045 -0.5084
 9528SOL     OW40216   4.465   3.349   7.984 -0.1700  0.3354  0.1072
 9528SOL    HW140217   4.416   3.284   8.035  1.1446 -0.9597 -0.2770
 9528SOL    HW240218   4.478   3.300   7.902  0.4421  0.7454 -0.0446
 9529SOL     OW40219   4.704   0.213  17.602 -0.5161 -0.2485  0.0402
 9529SOL    HW140220   4.642   0.275  17.640  0.7070 -1.2341  3.6474
 9529SOL    HW240221   0.059   0.245  17.587 -0.7371  0.5933  0.4965
 9530SOL     OW40222   1.693   4.472   1.237 -0.1925 -0.3976 -0.3912
 9530SOL    HW140223   1.757   4.413   1.198  0.7121  0.7944 -0.7209
 9530SOL    HW240224   1.701   4.546   1.176 -2.6251 -0.3320 -0.6375
 9531SOL     OW40225   0.087   0.615   3.964 -0.5074  0.1455 -0.5939
 9531SOL    HW140226   0.016   0.655   3.915 -0.1481  1.3890 -0.0983
 9531SOL    HW240227   0.112   0.674   4.035  0.7442 -3.7650  2.2302
 9532SOL     OW40228   0.843   1.607   5.883 -0.7046  0.5231 -0.0201
 9532SOL    HW140229   0.779   1.652   5.938 -1.3676  0.8882 -1.0809
 9532SOL    HW240230   0.919   1.608   5.941  0.8512  1.5103 -2.0737
 9533SOL     OW40231   4.291   2.464  10.738 -0.6225  0.1700 -0.1605
 9533SOL    HW140232   4.320   2.523  10.808 -2.1402  0.3371  0.3316
 9533SOL    HW240233   4.370   2.472  10.684 -0.8685  0.5127 -0.4704
 9534SOL     OW40234   4.290   2.827   2.932  0.2331 -0.0924 -0.0446
 9534SOL    HW140235   4.199   2.809   2.957 -0.1434  1.0870 -0.5908
 9534SOL    HW240236   4.328   2.739   2.930 -0.6114 -0.4591 -0.2442
 9535SOL     OW40237   4.343   3.830   8.877  0.1340 -0.3918  0.3527
 9535SOL    HW140238   4.299   3.835   8.792  2.0174  1.5919 -0.4935
 9535SOL    HW240239   4.395   3.910   8.870  1.9486 -1.6679 -0.5524
 9536SOL     OW40240   2.815   4.242   0.922 -0.4663  0.0751 -1.2722
 9536SOL    HW140241   2.886   4.179   0.915 -0.5222  0.0828 -1.8653
 9536SOL    HW240242   2.741   4.187   0.896 -1.7977  0.9691  0.5436
 9537SOL     OW40243   1.197   1.694   3.353  0.0415  0.6436 -0.4431
 9537SOL    HW140244   1.261   1.765   3.358 -1.1150  1.6925 -0.6070
 9537SOL    HW240245   1.121   1.743   3.322 -1.6941 -0.7102  1.7236
 9538SOL     OW40246   0.757   0.853  17.566 -0.2044  0.0097  0.3366
 9538SOL    HW140247   0.664   0.831  17.560 -0.5289  2.1351 -2.8126
 9538SOL    HW240248   0.763   0.947  17.547  0.0377 -0.0755 -0.0207
 9539SOL     OW40249   3.779   4.646   0.646  0.1213  0.1955 -0.5205
 9539SOL    HW140250   3.789   4.584   0.718  0.0711  1.0196  0.1782
 9539SOL    HW240251   3.816   4.595   0.573  1.4967 -0.4245  0.6068
 9540SOL     OW40252   2.109   0.301   4.859 -0.1093 -0.5458 -0.5620
 9540SOL    HW140253   2.141   0.250   4.933  2.3392 -0.4491 -1.5755
 9540SOL    HW240254   2.116   0.240   4.785 -0.4604 -1.7005  0.3592
 9541SOL     OW40255   4.107   0.658   4.379 -0.6666  0.0733  0.2235
 9541SOL    HW140256   4.068   0.581   4.338 -0.4419 -1.3613  2.7020
 9541SOL    HW240257   4.142   0.701   4.302 -1.8977 -2.2262 -1.6267
 9542SOL     OW40258   1.276   2.217  11.233 -0.1649 -0.5291  0.0002
 9542SOL    HW140259   1.325   2.146  11.192  1.7916  0.3467  0.7888
 9542SOL    HW240260   1.232   2.176  11.308 -1.2297 -2.6465 -1.8124
 9543SOL     OW40261   4.086   0.972   8.911 -0.2185 -0.5632  0.4121
 9543SOL    HW140262   4.071   0.983   9.005 -0.1026  1.1385  0.2358
 9543SOL    HW240263   4.045   1.053   8.880  0.3167 -0.3339  0.2964
 9544SOL     OW40264   0.507   1.545   7.963  0.1220 -0.2313 -0.5438
 9544SOL    HW140265   0.445   1.569   7.894  0.2175  1.4687 -0.0340
 9544SOL    HW240266   0.575   1.497   7.915 -1.1818 -3.2498  0.5753
 9545SOL     OW40267   3.964   3.871   1.530  0.4523 -0.2337  0.3962
 9545SOL    HW140268   3.871   3.877   1.510  0.5085 -0.4006  0.0915
 9545SOL    HW240269   3.962   3.900   1.622 -0.0013  1.8706 -0.2819
 9546SOL     OW40270   0.692   2.300   2.124 -0.1079 -0.3838  0.4944
 9546SOL    HW140271   0.702   2.391   2.152  0.5061 -0.2101 -0.2884
 9546SOL    HW240272   0.606   2.304   2.081  0.8881  2.8029 -1.1857
 9547SOL     OW40273   3.816   3.107   3.542 -0.2940  0.3051 -0.2560
 9547SOL    HW140274   3.844   3.193   3.573  0.8355 -0.4644  0.8608
 9547SOL    HW240275   3.879   3.053   3.591  0.4694  0.4290 -1.0976
 9548SOL     OW40276   0.728   3.090   3.307 -0.3490 -0.5335  0.0494
 9548SOL    HW140277   0.642   3.126   3.284 -0.6175 -1.6619 -0.7244
 9548SOL    HW240278   0.709   3.110   3.398  0.0263 -1.8663  0.4149
 9549SOL     OW40279   2.512   2.178   6.346 -0.2495  1.0286  0.2301
 9549SOL    HW140280   2.470   2.165   6.260 -1.4834  0.8454  0.8584
 9549SOL    HW240281   2.605   2.158   6.336 -0.0652  0.8788  2.3746
 9550SOL     OW40282   2.845   0.986  10.884  0.0230 -0.4100 -0.3213
 9550SOL    HW140283   2.893   1.046  10.941  1.1382 -1.8827  0.3032
 9550SOL    HW240284   2.917   0.948  10.834  0.2760  0.1121 -0.3553
 9551SOL     OW40285   3.065   4.253  17.243  0.0993  0.0329  0.0519
 9551SOL    HW140286   3.137   4.302  17.203  1.5122 -1.4557  0.7501
 9551SOL    HW240287   3.109   4.174  17.275 -1.7217 -0.6931  0.7226
 9552SOL     OW40288   0.998   1.795   8.772 -0.0399 -0.7119  0.1282
 9552SOL    HW140289   1.058   1.772   8.701 -0.5983  0.9866 -0.9209
 9552SOL    HW240290   0.956   1.875   8.740 -1.6014 -2.5540 -2.4095
 9553SOL     OW40291   4.423   1.353   3.897 -0.1427  0.4694 -0.3345
 9553SOL    HW140292   4.432   1.336   3.990 -0.8530 -1.9549 -0.7115
 9553SOL    HW240293   4.334   1.388   3.899 -1.8243 -3.7801 -1.5349
 9554SOL     OW40294   3.246   1.982   0.010 -0.1344 -0.0983 -0.1407
 9554SOL    HW140295   3.156   1.951   0.012  0.2476 -1.2216 -0.5633
 9554SOL    HW240296   3.300   1.905   0.029  1.4208  1.3464  1.3224
 9555SOL     OW40297   4.564   4.480   2.902  0.0758 -0.1628 -0.6196
 9555SOL    HW140298   4.599   4.523   2.981 -0.7067  0.4135 -0.5836
 9555SOL    HW240299   4.646   4.459   2.857  0.4211  0.2599 -0.1968
 9556SOL     OW40300   2.578   0.762   3.949  0.5373  0.0376 -0.0777
 9556SOL    HW140301   2.529   0.795   3.874  0.9112  2.6947  0.8450
 9556SOL    HW240302   2.602   0.675   3.918 -1.6375  0.1362 -1.9759
 9557SOL     OW40303   1.760   0.875   3.177  0.1868 -0.0083 -0.2091
 9557SOL    HW140304   1.838   0.881   3.121 -0.5616  1.2296 -1.1217
 9557SOL    HW240305   1.716   0.802   3.135  0.6033 -0.4530  0.1362
 9558SOL     OW40306   0.424   0.822   6.499  0.2911 -0.0597  0.1576
 9558SOL    HW140307   0.399   0.783   6.582  0.2063  1.0302  0.6382
 9558SOL    HW240308   0.448   0.741   6.454  2.4490  0.2236  0.8024
 9559SOL     OW40309   3.153   3.640  11.941  0.4737 -0.1194  0.1043
 9559SOL    HW140310   3.232   3.675  11.900 -0.5261 -0.9292 -2.4763
 9559SOL    HW240311   3.079   3.690  11.906  1.0850  1.0757  0.4898
 9560SOL     OW40312   0.224   2.899   2.811 -0.0267 -0.1105 -0.4247
 9560SOL    HW140313   0.295   2.947   2.767  0.5333  1.1326  1.8459
 9560SOL    HW240314   0.148   2.956   2.798 -0.5075 -0.6141  0.1661
 9561SOL     OW40315   0.672   2.814   8.128  0.0869  0.6422  0.6282
 9561SOL    HW140316   0.686   2.887   8.187  0.8973  2.5154 -1.8964
 9561SOL    HW240317   0.682   2.853   8.041  1.3322 -1.2834 -0.1272
 9562SOL     OW40318   0.248   0.944   4.353  0.8484 -0.0427  0.5284
 9562SOL    HW140319   0.225   0.895   4.432 -1.7200 -0.5137 -0.5177
 9562SOL    HW240320   0.245   0.877   4.285 -0.0505  1.7626 -1.2109
 9563SOL     OW40321   3.572   4.382   8.552  0.0951 -0.1537  0.4234
 9563SOL    HW140322   3.511   4.327   8.504  1.5023 -0.6100 -0.8408
 9563SOL    HW240323   3.516   4.429   8.615 -0.6232  2.1079 -1.9192
 9564SOL     OW40324   1.768   0.264  10.896  0.1195 -0.1147  0.7276
 9564SOL    HW140325   1.737   0.272  10.806 -1.0638  0.9134  1.2202
 9564SOL    HW240326   1.689   0.284  10.946 -0.2132 -0.0451  0.1695
 9565SOL     OW40327   1.740   2.795  14.554 -0.0809  0.1217 -0.1836
 9565SOL    HW140328   1.760   2.842  14.473  1.5006 -0.0639  0.0814
 9565SOL    HW240329   1.825   2.751  14.562 -1.3304 -2.3543 -0.7072
 9566SOL     OW40330   4.583   1.499   2.878  0.3839  0.6590 -0.0399
 9566SOL    HW140331   4.593   1.550   2.958 -0.8832  2.3220 -0.9420
 9566SOL    HW240332   4.606   1.565   2.813  0.2260  0.1033 -0.6582
 9567SOL     OW40333   4.400   1.344   8.783 -0.1222  0.3797 -0.0344
 9567SOL    HW140334   4.356   1.416   8.828 -0.3023  0.5715 -0.5217
 9567SOL    HW240335   4.327   1.290   8.753 -0.1139  0.1357  0.3800
 9568SOL     OW40336   1.987   4.131   2.654 -0.0612  0.2672 -0.0746
 9568SOL    HW140337   1.987   4.226   2.642 -2.3270  0.2777 -0.0508
 9568SOL    HW240338   1.929   4.128   2.730 -0.1125  2.0339 -0.0343
 9569SOL     OW40339   1.182   3.919   5.574 -0.2058 -0.3405 -0.2791
 9569SOL    HW140340   1.250   3.864   5.614  1.1552  0.6106 -1.3160
 9569SOL    HW240341   1.139   3.855   5.517  0.1555 -0.2270 -0.6747
 9570SOL     OW40342   1.060   4.322   0.656 -0.0792 -0.1907  0.4664
 9570SOL    HW140343   1.010   4.299   0.735 -1.4935 -1.8189 -0.9247
 9570SOL    HW240344   1.053   4.246   0.599 -2.0517 -0.5860  1.2231
 9571SOL     OW40345   4.373   1.860   2.975  0.3709  0.0676  0.1203
 9571SOL    HW140346   4.395   1.803   3.049 -0.2731  0.7832  0.8496
 9571SOL    HW240347   4.409   1.942   3.009  0.4506  0.2648 -0.4406
   4.73402   4.73402  17.73519
