Membrane in water
40347
    1TMC1    C1    1   3.758   1.446  10.925 -0.9156  0.1938 -0.3499
    1TMC1    C2    2   3.770   1.479  10.795 -0.3805 -0.0824  0.0217
    1TMC1    C3    3   3.855   1.578  10.765 -0.2612  0.0123  0.8220
    1TMC1    C4    4   3.820   1.506  11.028 -0.1418  0.4408  0.0999
    1TMC1    C5    5   3.888   1.625  10.992 -0.4305 -0.6137  0.3065
    1TMC1    C6    6   3.922   1.651  10.861 -0.7387 -0.4364  0.6659
    1TMC1     C    7   3.647   1.372  10.966  0.0431 -0.1041 -0.1094
    1TMC1     O    8   3.639   1.331  11.080  0.0592  0.4980 -0.3670
    1TMC1     H    9   3.726   1.421  10.714  0.3975 -1.6413  0.7279
    1TMC1    H1   10   3.781   1.498  11.129  0.6415  0.3477  0.3957
    1TMC1    H2   11   3.999   1.725  10.840 -0.2191 -0.6397  1.8583
    1TMC1    C7   12   3.955   1.683  11.103  0.3360  0.6458 -0.6673
    1TMC1    C8   13   3.889   1.593  10.628  0.6353  0.7573 -0.7968
    1TMC1    O1   14   3.965   1.638  11.219  0.1998 -0.7489 -0.0307
    1TMC1    O2   15   3.902   1.504  10.550 -0.9175  0.0628 -0.5003
    1TMC1    O3   16   3.983   1.814  11.074 -0.4125  0.3669 -0.2908
    1TMC1    H3   17   3.942   1.854  10.995  0.7215  1.0096 -0.5508
    1TMC1    O5   18   3.923   1.721  10.600 -0.0896  0.4504 -0.1705
    1TMC1    H5   19   3.898   1.777  10.676 -1.5423 -2.9884  1.9163
    2MPD2     C   20   3.135   1.433  10.935 -0.0702  0.4227 -0.0686
    2MPD2    C1   21   3.218   1.414  11.046 -0.2876 -0.2512 -0.0713
    2MPD2    C2   22   3.354   1.405  11.026  0.6358 -0.3889 -0.2792
    2MPD2    C3   23   3.410   1.404  10.899  0.4116  1.1293  0.2120
    2MPD2    C4   24   3.330   1.431  10.797 -0.5911 -0.4641  0.3496
    2MPD2    C5   25   3.188   1.440  10.810  0.0443 -0.4426 -0.1988
    2MPD2     H   26   3.416   1.390  11.114  0.5117  1.9156  0.2037
    2MPD2    H1   27   3.382   1.421  10.703 -2.9323  1.4382 -1.1506
    2MPD2    H2   28   3.026   1.434  10.938 -0.1359  2.4682 -2.6705
    2MPD2    H3   29   3.124   1.451  10.723  0.8121 -0.7609 -0.8056
    2MPD2     N   30   3.545   1.394  10.869 -0.1721 -0.5341 -0.4494
    2MPD2    H5   31   3.579   1.417  10.776  3.1869 -2.8823  0.1842
    2MPD2    N1   32   3.167   1.404  11.180 -0.4601 -0.6185  0.1097
    2MPD2    H7   33   3.229   1.366  11.251  0.7974 -1.2601 -1.3135
    3TMC1    C1   34   2.853   2.989  10.213 -0.3568 -0.5357  0.0128
    3TMC1    C2   35   2.892   3.119  10.207  0.1557  0.3663  0.2351
    3TMC1    C3   36   2.979   3.148  10.106 -0.3993 -0.4080  0.8532
    3TMC1    C4   37   2.920   2.888  10.143 -0.2023  0.3616  0.0312
    3TMC1    C5   38   3.029   2.928  10.065  0.2160  0.4968 -0.1183
    3TMC1    C6   39   3.054   3.055  10.041  0.3082 -0.5521 -0.0574
    3TMC1     C   40   2.734   2.944  10.273 -0.5139 -0.4503  0.1046
    3TMC1     O   41   2.683   2.858  10.208 -0.3951 -0.0492  0.0377
    3TMC1     H   42   2.838   3.205  10.246 -0.3082 -0.2814  1.0330
    3TMC1    H1   43   2.894   2.784  10.158 -1.5848  1.0446  2.4227
    3TMC1    H2   44   3.133   3.072   9.969  1.7118 -1.6244  1.2330
    3TMC1    C7   45   3.075   2.826   9.979 -0.1227 -0.5442 -0.1811
    3TMC1    C8   46   3.004   3.292  10.092  0.2313 -0.4519 -0.3720
    3TMC1    O1   47   3.006   2.736   9.940  0.8482  0.1584 -0.5209
    3TMC1    O2   48   2.993   3.373  10.181  0.1203 -0.8921  0.0780
    3TMC1    O3   49   3.197   2.852   9.936  0.1104 -0.6359  0.2877
    3TMC1    H3   50   3.233   2.922   9.995 -1.2564  2.4463 -2.5718
    3TMC1    O5   51   3.003   3.311   9.962  0.2373 -0.3419 -0.0195
    3TMC1    H5   52   2.994   3.226   9.915 -0.7090  0.7779 -1.8623
    4MPD2     C   53   2.365   2.888  10.630  0.7031 -0.4603  0.0833
    4MPD2    C1   54   2.450   2.989  10.672 -0.0598 -0.1004 -0.1515
    4MPD2    C2   55   2.561   3.021  10.591  0.6922 -0.1576 -0.0020
    4MPD2    C3   56   2.574   2.964  10.467 -0.2928  0.5463 -0.4817
    4MPD2    C4   57   2.483   2.874  10.424 -0.1234 -0.0686 -0.0363
    4MPD2    C5   58   2.389   2.826  10.509  0.8218  0.9155  0.2082
    4MPD2     H   59   2.636   3.091  10.626  0.4155 -0.2946  0.8847
    4MPD2    H1   60   2.505   2.812  10.338 -0.9848  2.9397 -2.3780
    4MPD2    H2   61   2.292   2.852  10.701  0.8657 -0.7988  0.0823
    4MPD2    H3   62   2.333   2.736  10.488 -0.8848  2.3486 -1.2687
    4MPD2     N   63   2.697   2.988  10.396  0.1232  0.0359 -0.1288
    4MPD2    H5   64   2.766   3.054  10.429 -0.3088  0.3363  0.1728
    4MPD2    N1   65   2.435   3.058  10.792 -0.6109 -0.5457 -0.2953
    4MPD2    H7   66   2.514   3.105  10.834 -1.5337  0.2801  0.5063
    5TCq1    O1   67   3.926   4.091  12.024 -0.1419 -0.1060 -0.5940
    5TCq1    C1   68   3.891   4.172  11.920 -0.0735  0.1687  0.1585
    5TCq1    O2   69   3.956   4.192  11.822  0.0249  0.0233 -0.4316
    5TCq1    C2   70   3.743   4.184  11.909 -0.6561  0.2835 -0.5867
    5TCq1    C3   71   3.662   4.224  12.010 -0.1394 -0.7563  0.1418
    5TCq1    C4   72   3.532   4.253  11.979  0.3637  0.5261 -0.1062
    5TCq1    C5   73   3.493   4.246  11.847  0.0947  0.0303 -0.2011
    5TCq1    C6   74   3.578   4.214  11.744 -0.2399 -0.7192 -0.1010
    5TCq1    C7   75   3.705   4.174  11.779  0.2589  0.1716 -0.2437
    5TCq1    C8   76   3.535   4.235  11.606  0.1457 -0.6646  0.3916
    5TCq1    O4   77   3.605   4.193  11.515  0.0478  0.3457  0.5005
    5TCq1    C9   78   3.447   4.314  12.086  0.3369  0.2921  0.1231
    5TCq1    O5   79   3.487   4.317  12.206 -0.5463 -0.0931 -0.6334
    5TCq1    O6   80   3.343   4.366  12.036  0.0879  0.2732 -0.6772
    5TCq1    H1   81   3.841   4.060  12.063  0.2707  1.8842  1.8307
    5TCq1    H2   82   3.703   4.243  12.109 -0.0860  1.5016 -0.3029
    5TCq1    H3   83   3.390   4.266  11.820  0.0868  2.7436  1.8703
    5TCq1    H4   84   3.773   4.143  11.701 -1.0976 -1.8241 -0.6352
    6MPD2     C   85   3.278   4.450  11.475 -0.3313 -0.0231 -0.0292
    6MPD2    C1   86   3.370   4.349  11.472  0.1957 -0.5460  0.2096
    6MPD2    C2   87   3.387   4.284  11.356  0.7637  0.0608  0.4023
    6MPD2    C3   88   3.332   4.328  11.242 -0.7632  0.0837  0.8524
    6MPD2    C4   89   3.251   4.443  11.245 -0.4973 -0.1355  0.4547
    6MPD2    C5   90   3.226   4.509  11.364  0.2476 -0.2720  0.5613
    6MPD2     H   91   3.457   4.201  11.349  0.0768 -0.6892  2.7910
    6MPD2    H1   92   3.209   4.488  11.156  1.8210  0.3594 -0.3955
    6MPD2    H2   93   3.253   4.501  11.567 -0.4246  0.0508 -0.0947
    6MPD2    H3   94   3.153   4.589  11.376  3.1679  2.2470  1.4039
    6MPD2     N   95   3.371   4.258  11.128 -0.1409 -0.2199  0.0885
    6MPD2    H5   96   3.433   4.178  11.133 -1.4037 -1.2667 -1.2012
    6MPD2    N1   97   3.432   4.326  11.587  0.0271  0.6850  0.3867
    6MPD2    H7   98   3.399   4.378  11.667 -1.7740  1.3110 -0.7720
    7TCq1    O1   99   0.667   4.099  12.538  0.1411  0.2286 -0.7197
    7TCq1    C1  100   0.687   4.041  12.412 -0.2153 -0.1367 -0.5144
    7TCq1    O2  101   0.769   4.088  12.335 -0.2545  0.5568  0.6062
    7TCq1    C2  102   0.643   3.903  12.423 -0.2392 -0.7687 -0.4293
    7TCq1    C3  103   0.602   3.837  12.310 -0.8073 -0.3414  0.1273
    7TCq1    C4  104   0.595   3.698  12.314 -0.8849  0.1665  1.1286
    7TCq1    C5  105   0.622   3.628  12.424  0.7899  0.6216  0.3633
    7TCq1    C6  106   0.652   3.699  12.536  0.5301  0.3441  0.0169
    7TCq1    C7  107   0.675   3.835  12.538 -0.2611  0.0544 -0.2219
    7TCq1    C8  108   0.698   3.620  12.651  0.3960  0.3343  0.1712
    7TCq1    O4  109   0.690   3.500  12.634 -0.1347  0.4802  0.4152
    7TCq1    C9  110   0.543   3.617  12.206  0.1817  0.3165  0.2853
    7TCq1    O5  111   0.526   3.677  12.095  0.1968 -0.4891  0.6152
    7TCq1    O6  112   0.473   3.517  12.232  0.0125 -1.0388  0.2382
    7TCq1    H1  113   0.597   4.049  12.585  1.1342  0.9965  1.5494
    7TCq1    H2  114   0.564   3.884  12.221  1.9417 -0.7816 -1.2987
    7TCq1    H3  115   0.603   3.522  12.428  1.1783  0.5783  1.1311
    7TCq1    H4  116   0.713   3.894  12.621  1.0757 -0.5105 -0.4292
    8MPD2     C  117   0.748   3.563  13.165 -0.1359 -0.2245 -0.9987
    8MPD2    C1  118   0.763   3.469  13.066  0.5104  0.3834  0.7478
    8MPD2    C2  119   0.760   3.506  12.933  0.1746 -0.2716  0.5574
    8MPD2    C3  120   0.729   3.636  12.900  0.0755 -0.1141 -0.2268
    8MPD2    C4  121   0.700   3.729  13.001 -0.5008  0.0697 -0.5469
    8MPD2    C5  122   0.708   3.691  13.130 -0.7766 -0.5276 -0.3237
    8MPD2     H  123   0.780   3.428  12.860  0.2632  0.8698 -0.6330
    8MPD2    H1  124   0.679   3.834  12.983  0.7684  0.3787 -0.2249
    8MPD2    H2  125   0.766   3.530  13.267  0.1503 -1.7399 -1.5471
    8MPD2    H3  126   0.683   3.754  13.214 -0.7848  0.3172 -0.9680
    8MPD2     N  127   0.716   3.690  12.765 -0.6304 -0.1900  0.5680
    8MPD2    H5  128   0.709   3.791  12.762  0.5466 -0.0883  1.3085
    8MPD2    N1  129   0.808   3.342  13.113 -0.5883  0.2534  0.4310
    8MPD2    H7  130   0.813   3.315  13.211  0.8491 -0.6742  0.1061
    9TMC1    C1  131   3.191   2.790  10.845 -0.3488  0.3732 -0.2911
    9TMC1    C2  132   3.301   2.827  10.770 -0.4158 -0.8475 -0.1280
    9TMC1    C3  133   3.338   2.751  10.665  0.5461  0.8230 -0.3018
    9TMC1    C4  134   3.122   2.684  10.800  0.0046 -0.0797 -0.6860
    9TMC1    C5  135   3.158   2.619  10.688 -0.9156  0.2918  0.4409
    9TMC1    C6  136   3.269   2.648  10.618  0.3138  0.7001  0.3750
    9TMC1     C  137   3.153   2.878  10.953  0.1766 -0.3685  0.2942
    9TMC1     O  138   3.192   2.995  10.939  0.0640  0.3644  0.0236
    9TMC1     H  139   3.362   2.911  10.801 -3.2629  0.8941  0.7377
    9TMC1    H1  140   3.024   2.658  10.839 -0.2859 -0.2908 -1.5745
    9TMC1    H2  141   3.302   2.596  10.528  0.4375 -1.1511  1.4979
    9TMC1    C7  142   3.089   2.498  10.658 -0.2505 -0.2085  0.2498
    9TMC1    C8  143   3.454   2.783  10.587 -0.1645  0.0449  0.2351
    9TMC1    O1  144   3.025   2.441  10.741  0.3374  0.5007  0.0572
    9TMC1    O2  145   3.508   2.706  10.507  0.0409  0.3398  0.2984
    9TMC1    O3  146   3.067   2.486  10.527 -0.2444 -0.5579  0.1997
    9TMC1    H3  147   3.092   2.554  10.461  0.0906 -0.5496  0.3323
    9TMC1    O5  148   3.452   2.916  10.554  0.6862 -0.3694  0.2272
    9TMC1    H5  149   3.403   2.973  10.618 -0.9506 -0.4404 -0.9684
   10MPD2     C  150   3.033   3.013  11.192  0.0459  0.1300  0.1791
   10MPD2    C1  151   2.999   2.885  11.153 -0.4797 -0.4365  0.5980
   10MPD2    C2  152   2.903   2.811  11.224 -0.5298  0.6232  0.4297
   10MPD2    C3  153   2.847   2.866  11.339  0.3389 -0.0088  0.4198
   10MPD2    C4  154   2.899   2.986  11.383  0.1512 -0.2220  0.1448
   10MPD2    C5  155   2.980   3.060  11.307  0.3803  0.4554 -0.0012
   10MPD2     H  156   2.887   2.707  11.200  1.5257  0.5496 -0.6705
   10MPD2    H1  157   2.851   3.021  11.474  0.4640  1.3734 -0.3083
   10MPD2    H2  158   3.111   3.067  11.140 -0.1015 -1.4319 -1.6592
   10MPD2    H3  159   3.015   3.160  11.331  0.2835  0.4094  0.3379
   10MPD2     N  160   2.773   2.787  11.436  0.2816 -0.0575 -0.1291
   10MPD2    H5  161   2.776   2.822  11.531  0.5189 -1.3651  0.3330
   10MPD2    N1  162   3.064   2.825  11.043 -0.3103  0.1858 -1.1775
   10MPD2    H7  163   3.037   2.730  11.021 -1.3999  0.3288 -0.4104
   11TCq1    O1  164   4.045   2.934  14.908  0.6696 -0.0093 -0.5294
   11TCq1    C1  165   3.961   2.980  14.813 -0.1943 -1.0207 -0.4368
   11TCq1    O2  166   3.914   3.091  14.815 -0.0221 -0.3249 -0.3059
   11TCq1    C2  167   3.941   2.890  14.702  0.3771 -0.4990 -0.6105
   11TCq1    C3  168   4.003   2.774  14.693  0.1431  0.0797  0.3027
   11TCq1    C4  169   3.981   2.688  14.587  0.0908  0.1979 -0.4359
   11TCq1    C5  170   3.887   2.723  14.498 -0.1084  0.2950  0.5642
   11TCq1    C6  171   3.823   2.842  14.508  0.3171 -1.0586 -0.0586
   11TCq1    C7  172   3.859   2.925  14.600 -0.2001 -0.5006 -0.0692
   11TCq1    C8  173   3.709   2.868  14.414 -1.0872  0.1359  0.2797
   11TCq1    O4  174   3.668   2.985  14.406 -0.2334 -0.5294  0.5616
   11TCq1    C9  175   4.033   2.559  14.580 -0.0298  0.9594  0.5895
   11TCq1    O5  176   3.963   2.476  14.512  0.3268  0.2913 -0.1470
   11TCq1    O6  177   4.120   2.527  14.665  0.0866 -0.3895  0.3658
   11TCq1    H1  178   4.052   2.837  14.913 -0.4977 -0.1873 -2.2871
   11TCq1    H2  179   4.074   2.741  14.767  1.6793  0.5978 -0.9348
   11TCq1    H3  180   3.884   2.653  14.415 -0.4125  2.7281 -1.4454
   11TCq1    H4  181   3.806   3.019  14.593  0.8501 -0.0783 -2.2795
   12MPD2     C  182   3.479   2.853  14.214 -0.3970 -0.2070  0.2777
   12MPD2    C1  183   3.544   2.754  14.277  0.1506  0.4335 -0.3361
   12MPD2    C2  184   3.505   2.626  14.247 -0.1461 -0.9927  0.3803
   12MPD2    C3  185   3.397   2.592  14.168  0.0355 -0.7932  0.5451
   12MPD2    C4  186   3.345   2.692  14.090  0.2089  0.2647 -0.7286
   12MPD2    C5  187   3.383   2.825  14.120  0.4406  0.0281 -0.4155
   12MPD2     H  188   3.556   2.542  14.294 -1.3189 -0.3824  2.7221
   12MPD2    H1  189   3.254   2.675  14.035 -0.6767  0.8293  0.5615
   12MPD2    H2  190   3.510   2.956  14.226  2.0696 -1.0541  1.0182
   12MPD2    H3  191   3.337   2.909  14.068  0.4586  0.9891  1.1165
   12MPD2     N  192   3.348   2.466  14.139 -0.3402 -0.3570  0.3661
   12MPD2    H5  193   3.273   2.458  14.070  0.5392 -0.8247 -0.5239
   12MPD2    N1  194   3.650   2.758  14.368 -0.7062 -0.1335  0.2926
   12MPD2    H7  195   3.678   2.668  14.406 -0.1967  0.7083  1.9234
   13TCq1    O1  196   3.884   2.435  10.924 -0.2831  0.4896 -0.1793
   13TCq1    C1  197   3.799   2.445  10.819 -0.4209 -0.5602 -0.1927
   13TCq1    O2  198   3.766   2.543  10.757 -0.0555  0.1270  0.5930
   13TCq1    C2  199   3.722   2.324  10.814  0.4242  0.0206 -0.1342
   13TCq1    C3  200   3.792   2.208  10.828 -0.8286  1.0603  0.4888
   13TCq1    C4  201   3.727   2.090  10.797 -0.1263  0.3227 -0.4267
   13TCq1    C5  202   3.594   2.093  10.756 -0.1499 -0.9399  0.1180
   13TCq1    C6  203   3.535   2.214  10.736  0.0919  0.3382 -0.5316
   13TCq1    C7  204   3.597   2.332  10.766  0.5485  0.2098 -0.0328
   13TCq1    C8  205   3.398   2.223  10.695  0.3427 -0.1738  0.3536
   13TCq1    O4  206   3.340   2.329  10.697  0.1236  0.0094  0.4039
   13TCq1    C9  207   3.804   1.967  10.801  0.8309 -0.8230 -0.6798
   13TCq1    O5  208   3.905   1.957  10.881 -0.4195  0.8244 -0.0913
   13TCq1    O6  209   3.759   1.871  10.733 -0.4509 -0.4925  0.2800
   13TCq1    H1  210   3.877   2.352  10.975  2.0720 -0.6781 -1.7460
   13TCq1    H2  211   3.891   2.203  10.872 -0.1287 -0.4940 -1.2525
   13TCq1    H3  212   3.544   1.999  10.737  1.3716 -1.5105 -1.0745
   13TCq1    H4  213   3.544   2.426  10.756 -0.4023 -0.5708 -2.3588
   14MPD2     C  214   3.241   1.973  10.488  0.1869 -0.2729  0.7335
   14MPD2    C1  215   3.247   2.086  10.570 -0.3667 -0.6192 -0.8949
   14MPD2    C2  216   3.139   2.163  10.601 -0.0963  0.4869 -0.0632
   14MPD2    C3  217   3.017   2.133  10.552 -0.0181 -0.2820 -0.3572
   14MPD2    C4  218   3.006   2.032  10.460 -0.1075  0.0933  0.7745
   14MPD2    C5  219   3.116   1.952  10.430  0.2768 -0.1722  0.1551
   14MPD2     H  220   3.143   2.247  10.669  0.2588  0.4415 -0.0274
   14MPD2    H1  221   2.918   1.993  10.411 -0.9923  2.3402  0.5812
   14MPD2    H2  222   3.325   1.909  10.463  0.2854 -0.2553  1.0214
   14MPD2    H3  223   3.101   1.876  10.354  1.7826 -0.7071  0.3863
   14MPD2     N  224   2.904   2.210  10.596 -0.7398 -0.1844 -0.2384
   14MPD2    H5  225   2.925   2.289  10.656 -1.2827 -1.4343  1.5851
   14MPD2    N1  226   3.375   2.117  10.614  0.2874  0.0183 -0.1913
   14MPD2    H7  227   3.446   2.046  10.599 -0.9932 -1.2785 -0.0936
   15TCq1    O1  228   4.501   1.921   0.799  0.1949  0.0515 -0.1126
   15TCq1    C1  229   4.474   1.906   0.672  0.7022  0.2912  0.7325
   15TCq1    O2  230   4.409   1.982   0.604 -0.4021  0.6216 -0.0027
   15TCq1    C2  231   4.533   1.785   0.620  0.0335  0.8865 -0.0415
   15TCq1    C3  232   4.480   1.730   0.503  0.0470 -0.4875  0.3731
   15TCq1    C4  233   4.529   1.612   0.454 -0.0876  0.3656  0.0122
   15TCq1    C5  234   4.621   1.545   0.527  0.0883 -0.3344 -0.9262
   15TCq1    C6  235   4.672   1.597   0.639 -0.0909  0.1951 -0.8910
   15TCq1    C7  236   4.640   1.721   0.678  0.3727 -0.7293  0.0947
   15TCq1    C8  237   0.037   1.514   0.716 -0.0564  0.7186 -0.1579
   15TCq1    O4  238   0.117   1.573   0.787  0.1918  0.6941  0.3495
   15TCq1    C9  239   4.481   1.550   0.332  0.4757 -0.4888  0.4111
   15TCq1    O5  240   4.379   1.592   0.278  0.0022  0.4902 -0.4002
   15TCq1    O6  241   4.517   1.427   0.325  0.3495  0.5815  0.5005
   15TCq1    H1  242   4.528   1.838   0.843 -1.9539 -1.2132 -1.1636
   15TCq1    H2  243   4.402   1.780   0.447  1.9309 -0.3953 -2.1620
   15TCq1    H3  244   4.655   1.448   0.493 -1.2941 -1.4564  0.8909
   15TCq1    H4  245   4.687   1.757   0.769 -1.9874  0.2058  0.9349
   16MPD2     C  246   0.043   1.148   0.717 -0.1285 -0.3348 -0.0672
   16MPD2    C1  247   0.093   1.274   0.744  0.1127  0.1714  0.2297
   16MPD2    C2  248   0.207   1.296   0.821 -0.1254 -0.0318 -0.2774
   16MPD2    C3  249   0.275   1.186   0.865 -0.3010 -0.5634  0.5776
   16MPD2    C4  250   0.237   1.063   0.823 -0.6701 -0.7107  0.1147
   16MPD2    C5  251   0.118   1.040   0.757 -0.3595  0.4111 -0.6887
   16MPD2     H  252   0.221   1.394   0.866 -1.3785  0.8380 -1.7849
   16MPD2    H1  253   0.297   0.978   0.850  0.1587 -0.3396 -0.5747
   16MPD2    H2  254   4.687   1.130   0.660 -0.9337 -0.1055  1.1424
   16MPD2    H3  255   0.095   0.937   0.732  0.2530  0.4193 -1.2889
   16MPD2     N  256   0.389   1.208   0.956 -0.0037 -0.0055  0.6214
   16MPD2    H5  257   0.424   1.303   0.965 -0.3376 -0.0059  1.9950
   16MPD2    N1  258   0.016   1.381   0.692 -0.1644  0.2980 -0.4250
   16MPD2    H7  259   4.669   1.350   0.641 -0.0952  2.6400 -1.9345
   17TMC1    C1  260   2.874   0.935  10.371  0.6191 -0.1186 -0.6786
   17TMC1    C2  261   2.955   0.868  10.456 -0.2009 -0.2591  0.3099
   17TMC1    C3  262   2.919   0.739  10.476  0.6794 -0.0767  0.2365
   17TMC1    C4  263   2.761   0.891  10.310  0.0999  0.2972 -0.5272
   17TMC1    C5  264   2.729   0.760  10.348  0.0696  0.7592  0.1337
   17TMC1    C6  265   2.807   0.683  10.429  1.3618 -0.2768  0.6562
   17TMC1     C  266   2.893   1.081  10.367  0.4197 -0.3754  0.1137
   17TMC1     O  267   2.793   1.145  10.353  0.1430  0.2964  0.6436
   17TMC1     H  268   3.055   0.901  10.479  0.2064 -0.4946 -1.0839
   17TMC1    H1  269   2.697   0.957  10.252 -0.0246  0.3118 -0.3743
   17TMC1    H2  270   2.764   0.599  10.481  3.2764 -2.1455 -0.7724
   17TMC1    C7  271   2.623   0.698  10.278 -0.2139 -0.3484  0.0882
   17TMC1    C8  272   2.978   0.669  10.590 -0.5510 -0.2032 -0.3449
   17TMC1    O1  273   2.537   0.766  10.219 -0.7522  1.1295  0.1524
   17TMC1    O2  274   2.959   0.551  10.605  0.2906  1.4109 -0.3828
   17TMC1    O3  275   2.658   0.574  10.243  0.2892  0.0997 -0.1506
   17TMC1    H3  276   2.725   0.546  10.309  1.3432  0.5059 -1.0416
   17TMC1    O5  277   3.057   0.750  10.666 -0.0655  0.1614  0.2383
   17TMC1    H5  278   3.061   0.841  10.631 -1.7463 -0.6085 -1.9654
   18MPD2     C  279   2.980   1.362  10.404  0.5881 -0.4052 -0.5211
   18MPD2    C1  280   3.065   1.260  10.363 -0.7887 -0.3164 -0.6883
   18MPD2    C2  281   3.199   1.282  10.350 -0.3712 -0.4033 -1.6225
   18MPD2    C3  282   3.254   1.406  10.378 -0.6985  0.7000  0.4017
   18MPD2    C4  283   3.175   1.505  10.424  0.6454 -0.3222  0.2969
   18MPD2    C5  284   3.041   1.482  10.434 -0.6295  0.1593  0.1727
   18MPD2     H  285   3.259   1.202  10.308  0.4887 -1.3413  1.4061
   18MPD2    H1  286   3.223   1.593  10.465 -0.9799  0.2355  0.9805
   18MPD2    H2  287   2.874   1.352  10.424  0.6406  0.7145  0.3365
   18MPD2    H3  288   2.985   1.568  10.468 -1.1665 -1.0377  2.3438
   18MPD2     N  289   3.389   1.443  10.361 -0.4559  0.4016 -0.2126
   18MPD2    H5  290   3.412   1.526  10.415 -0.0533 -0.6967  1.3113
   18MPD2    N1  291   3.022   1.126  10.349  0.3586 -0.1980 -0.3556
   18MPD2    H7  292   3.092   1.060  10.317  1.6896  1.3668 -0.6962
   19TMC2    C1  293   0.260   2.090  13.944  0.2416 -1.1047  0.0464
   19TMC2    C2  294   0.246   2.224  13.972 -1.0435  0.6411  0.0086
   19TMC2    C3  295   0.123   2.260  14.016  0.4086  0.4923 -0.4985
   19TMC2    C4  296   0.152   2.005  13.944  0.0861  0.0356  0.3343
   19TMC2    C5  297   0.030   2.052  13.991  0.4038  0.0620  0.6553
   19TMC2    C6  298   0.013   2.183  14.035  0.4709  0.0535  0.1507
   19TMC2     C  299   0.392   2.039  13.948 -0.7159  0.2058 -0.2580
   19TMC2     O  300   0.478   2.102  13.894  0.0611  0.0970 -0.6489
   19TMC2     H  301   0.316   2.306  13.963 -0.3829  0.1538  0.7131
   19TMC2    H1  302   0.167   1.902  13.913  0.0962  0.4038 -0.8608
   19TMC2    H2  303   4.659   2.227  14.081  0.6928  0.9260 -0.2743
   19TMC2    C7  304   4.655   1.955  13.981  0.7935  0.7231 -0.3854
   19TMC2    C8  305   0.114   2.397  14.053 -0.2105  0.0883 -0.6713
   19TMC2    O1  306   4.668   1.835  13.988  0.1782  0.0064  0.0371
   19TMC2    O2  307   0.207   2.472  14.074 -0.3767 -0.0699 -0.0223
   19TMC2    O5  308   0.011   2.445  13.986  0.0801  0.6188  0.3555
   19TMC2    H5  309   4.670   2.384  13.966  0.1329  1.4101 -2.2090
   20MPD2     C  310   0.654   1.906  14.016 -0.5681 -0.8238 -0.4943
   20MPD2    C1  311   0.523   1.869  14.061  0.5611 -0.0101 -0.4248
   20MPD2    C2  312   0.523   1.760  14.144  0.3427  0.6959  0.3511
   20MPD2    C3  313   0.631   1.680  14.178  0.4906 -0.8179 -0.4470
   20MPD2    C4  314   0.745   1.717  14.121  0.3785  0.2121  0.3727
   20MPD2    C5  315   0.763   1.837  14.060  0.3435  0.5961 -0.6014
   20MPD2     H  316   0.424   1.727  14.175 -0.4952  2.1847 -0.7133
   20MPD2    H1  317   0.833   1.655  14.131  0.4020  0.4781  1.8037
   20MPD2    H2  318   0.669   1.990  13.949  1.6591  0.6561  1.8733
   20MPD2    H3  319   0.859   1.863  14.018  0.3937  0.8353 -0.3391
   20MPD2     N  320   0.622   1.555  14.252 -0.2477 -0.3881 -0.4821
   20MPD2    H5  321   0.712   1.509  14.262 -1.6446 -3.1424 -0.5114
   20MPD2    N1  322   0.400   1.930  14.027 -0.0676  0.0775  0.4125
   20MPD2    H7  323   0.313   1.900  14.069 -0.5055 -0.3873 -0.8194
   21TMC2    C1  324   2.437   2.196  14.754  0.1097 -0.2546  0.5107
   21TMC2    C2  325   2.482   2.062  14.763 -0.0058 -0.4933  0.0342
   21TMC2    C3  326   2.404   1.961  14.808  0.9541 -0.0232  0.0627
   21TMC2    C4  327   2.309   2.225  14.794 -0.0700 -0.4354 -0.0415
   21TMC2    C5  328   2.227   2.115  14.827  0.3643  0.4676  0.0463
   21TMC2    C6  329   2.271   1.989  14.831 -0.2391 -0.2923  0.3756
   21TMC2     C  330   2.529   2.302  14.710  0.7823 -0.2810  0.3211
   21TMC2     O  331   2.647   2.283  14.691 -0.5643 -0.2768 -0.2413
   21TMC2     H  332   2.581   2.045  14.722 -0.2242 -2.5172  0.3606
   21TMC2    H1  333   2.275   2.328  14.799 -2.1737 -1.1363  0.4160
   21TMC2    H2  334   2.203   1.908  14.857  0.6134 -0.7929  1.0426
   21TMC2    C7  335   2.104   2.150  14.896  0.5413 -0.7076 -0.1298
   21TMC2    C8  336   2.448   1.823  14.797 -0.2214  1.1220 -0.8294
   21TMC2    O1  337   2.076   2.082  14.994  0.3805 -0.1764  0.1898
   21TMC2    O2  338   2.483   1.786  14.687 -0.0285 -0.0781  0.6545
   21TMC2    O5  339   2.388   1.750  14.888  0.1813 -0.7566  0.0023
   21TMC2    H5  340   2.350   1.806  14.958 -2.7546 -1.6455 -0.8584
   22MPD2     C  341   2.641   2.793  14.571  0.3416 -0.1163  0.1288
   22MPD2    C1  342   2.719   2.682  14.592 -0.0915  0.1788 -0.0583
   22MPD2    C2  343   2.666   2.566  14.640  0.0423  0.6461 -0.2134
   22MPD2    C3  344   2.533   2.552  14.660  0.6303 -0.0968 -0.2179
   22MPD2    C4  345   2.453   2.666  14.624 -0.2679 -0.1399 -0.4710
   22MPD2    C5  346   2.508   2.786  14.593  0.2653  0.8792  0.0336
   22MPD2     H  347   2.729   2.478  14.650  1.2519  1.2077 -3.1843
   22MPD2    H1  348   2.346   2.666  14.638 -0.2049 -1.8858  0.0118
   22MPD2    H2  349   2.674   2.892  14.541  1.5804 -1.1735 -1.9852
   22MPD2    H3  350   2.443   2.873  14.598 -0.1639  0.5652 -0.1598
   22MPD2     N  351   2.471   2.430  14.704 -0.4084  0.4545  0.2526
   22MPD2    H5  352   2.376   2.437  14.739  0.3157 -2.4185  2.7945
   22MPD2    N1  353   2.848   2.684  14.556  0.1376  0.2215  0.5456
   22MPD2    H7  354   2.900   2.598  14.569  0.7625  0.5498  0.2502
   23TMC2    C1  355   3.815   4.015  14.728  0.3122  0.7212 -0.4574
   23TMC2    C2  356   3.769   4.108  14.815 -0.5005 -0.1885  0.0142
   23TMC2    C3  357   3.660   4.183  14.779 -0.4789 -0.4415  0.2797
   23TMC2    C4  358   3.768   4.005  14.599 -0.2004 -0.5324 -0.2300
   23TMC2    C5  359   3.658   4.074  14.569 -0.0256 -0.5198  0.0322
   23TMC2    C6  360   3.596   4.161  14.656 -0.0251 -0.6470 -0.6971
   23TMC2     C  361   3.898   3.909  14.788  0.1299  0.4056 -0.2480
   23TMC2     O  362   3.898   3.896  14.911  0.0089 -0.7758  0.0003
   23TMC2     H  363   3.827   4.142  14.900 -3.5025  0.2810  1.8483
   23TMC2    H1  364   3.794   3.922  14.534  2.8949  0.6474 -0.5153
   23TMC2    H2  365   3.523   4.232  14.619  0.6101 -0.3328 -1.3633
   23TMC2    C7  366   3.600   4.064  14.435  0.1487 -1.0555 -0.8314
   23TMC2    C8  367   3.594   4.265  14.881 -0.6088  0.3945  0.6329
   23TMC2    O1  368   3.668   4.034  14.337  0.2227  0.3083 -0.4286
   23TMC2    O2  369   3.644   4.310  14.983  0.2246 -0.2918  0.0592
   23TMC2    O5  370   3.459   4.237  14.873 -0.1674  0.5247  0.6231
   23TMC2    H5  371   3.447   4.181  14.793  1.0375 -0.9344  1.4537
   24MPD2     C  372   4.228   3.528  14.685  0.2222 -0.7290  0.1110
   24MPD2    C1  373   4.163   3.549  14.804 -0.2161 -0.0818 -0.1204
   24MPD2    C2  374   4.058   3.639  14.808  0.2113  0.6723  0.8240
   24MPD2    C3  375   4.039   3.725  14.697  0.0875 -0.0445 -0.5013
   24MPD2    C4  376   4.105   3.698  14.572 -0.6909 -0.3429  0.5785
   24MPD2    C5  377   4.192   3.591  14.569 -0.3272  0.5529 -0.5260
   24MPD2     H  378   3.986   3.657  14.887 -1.2019 -3.6139  0.5034
   24MPD2    H1  379   4.087   3.755  14.481 -0.2705 -1.8817 -0.4682
   24MPD2    H2  380   4.298   3.447  14.671 -1.2676 -1.9235 -0.4363
   24MPD2    H3  381   4.243   3.559  14.479 -2.4456 -1.4575 -1.0287
   24MPD2     N  382   3.957   3.837  14.689 -0.3177  0.7661 -0.3492
   24MPD2    H5  383   3.949   3.882  14.598  0.4870  1.8607  0.1198
   24MPD2    N1  384   4.187   3.483  14.925  0.2647  0.5227 -0.3898
   24MPD2    H7  385   4.131   3.516  15.003  1.5153 -0.4386  0.9106
   25TMC2    C1  386   2.127   1.745  11.657  0.0598  0.7952 -0.6541
   25TMC2    C2  387   2.176   1.874  11.667  0.4884 -0.0988  0.2188
   25TMC2    C3  388   2.189   1.926  11.793 -0.0433 -0.4151  0.5472
   25TMC2    C4  389   2.109   1.665  11.764 -0.6051 -0.6420  0.5657
   25TMC2    C5  390   2.131   1.723  11.889 -0.8673  0.4321 -0.2628
   25TMC2    C6  391   2.154   1.859  11.907  0.3610  0.2187  0.0832
   25TMC2     C  392   2.137   1.686  11.520 -0.0513 -0.2225  0.5420
   25TMC2     O  393   2.128   1.769  11.429 -0.3303 -0.7977  0.2935
   25TMC2     H  394   2.203   1.929  11.578  1.7902  0.9575  1.2642
   25TMC2    H1  395   2.087   1.559  11.756 -0.5860 -0.4231 -2.2268
   25TMC2    H2  396   2.179   1.901  12.003 -0.4264 -3.7187  1.9995
   25TMC2    C7  397   2.123   1.637  12.004  0.5350  1.1342 -0.1532
   25TMC2    C8  398   2.255   2.053  11.825 -0.2560 -0.0120  0.3581
   25TMC2    O1  399   2.165   1.682  12.105  0.0714  0.4635  0.6494
   25TMC2    O2  400   2.193   2.148  11.866  0.3741  0.5735  0.4181
   25TMC2    O5  401   2.378   2.013  11.876 -0.3139  0.3090 -0.0416
   25TMC2    H5  402   2.408   1.922  11.852  0.7871  1.2239 -2.1460
   26MPD2     C  403   2.277   1.310  11.192 -0.1522  0.5272  0.6144
   26MPD2    C1  404   2.273   1.256  11.319  0.7259 -0.1548  0.5509
   26MPD2    C2  405   2.235   1.334  11.428 -0.1392 -0.1942  0.1598
   26MPD2    C3  406   2.207   1.468  11.410 -0.5407  1.2922  0.5689
   26MPD2    C4  407   2.214   1.524  11.284  0.4713  0.1512  0.5382
   26MPD2    C5  408   2.256   1.448  11.178  0.6771  0.3352  0.6362
   26MPD2     H  409   2.222   1.288  11.525 -1.3646  3.6623  1.8159
   26MPD2    H1  410   2.195   1.629  11.266 -0.6099  0.0791  1.2845
   26MPD2    H2  411   2.309   1.248  11.108 -0.6524  0.7180  0.2805
   26MPD2    H3  412   2.274   1.492  11.081 -0.9941 -3.5144 -1.4218
   26MPD2     N  413   2.181   1.550  11.523  0.3224  0.1456 -0.5174
   26MPD2    H5  414   2.190   1.510  11.616 -0.3742 -0.7773 -0.8454
   26MPD2    N1  415   2.289   1.112  11.329  0.4588  0.0686 -0.2422
   26MPD2    H7  416   2.328   1.062  11.250  1.1092 -1.6444  1.1442
   27TMC2    C1  417   2.371   3.166  12.533  0.4999  0.0799  0.1098
   27TMC2    C2  418   2.484   3.216  12.483  0.1194  0.4621  0.0090
   27TMC2    C3  419   2.600   3.166  12.528  0.0976  0.3257 -0.7168
   27TMC2    C4  420   2.378   3.079  12.639  0.3323 -0.0522  0.0781
   27TMC2    C5  421   2.494   3.048  12.697 -0.1793  0.3532  0.0623
   27TMC2    C6  422   2.613   3.082  12.635  0.3633 -0.5153  0.0031
   27TMC2     C  423   2.272   3.130  12.433 -0.3441 -0.1505 -0.3506
   27TMC2     O  424   2.320   3.138  12.322 -0.0303 -0.2358 -0.0938
   27TMC2     H  425   2.490   3.285  12.400 -1.2468  1.0996  0.4397
   27TMC2    H1  426   2.285   3.032  12.671  0.0360  0.2843 -0.2920
   27TMC2    H2  427   2.707   3.041  12.670 -0.1103 -0.9996  0.7128
   27TMC2    C7  428   2.509   2.942  12.792 -0.6278 -0.3958 -0.0925
   27TMC2    C8  429   2.697   3.152  12.419  0.1369 -0.1646 -0.8936
   27TMC2    O1  430   2.609   2.874  12.785  0.3292 -0.5296 -0.2155
   27TMC2    O2  431   2.797   3.090  12.453 -0.3672 -0.6049 -0.6257
   27TMC2    O5  432   2.613   3.092  12.326 -0.3101 -0.8864 -0.4360
   27TMC2    H5  433   2.524   3.134  12.319 -0.1983 -0.4177  0.7917
   28MPD2     C  434   1.808   3.012  12.255 -0.2861  0.6909 -0.0985
   28MPD2    C1  435   1.793   3.048  12.390  0.2188  0.5312  0.6345
   28MPD2    C2  436   1.911   3.080  12.456 -0.6866  0.1078  0.6089
   28MPD2    C3  437   2.034   3.089  12.397 -0.1869 -0.2381  1.3271
   28MPD2    C4  438   2.042   3.062  12.264  0.1073  0.0634  1.1035
   28MPD2    C5  439   1.931   3.029  12.193  0.0253  0.1026 -0.4324
   28MPD2     H  440   1.897   3.090  12.563  0.7787  1.9224  0.6279
   28MPD2    H1  441   2.133   3.045  12.206 -0.3202 -0.9433  0.7115
   28MPD2    H2  442   1.724   2.981  12.193 -1.9969  0.4105  2.3524
   28MPD2    H3  443   1.946   3.013  12.087  0.0897 -0.2973 -0.3648
   28MPD2     N  444   2.144   3.113  12.475  0.3944  0.3158  0.0123
   28MPD2    H5  445   2.130   3.131  12.573 -3.2198  0.3902 -0.5272
   28MPD2    N1  446   1.667   3.036  12.441  0.2788  0.0070  0.0060
   28MPD2    H7  447   1.592   2.989  12.391  0.4752 -0.0528 -0.2336
   29TMC2    C1  448   1.259   0.783  14.331 -0.9159  0.7567 -0.0983
   29TMC2    C2  449   1.236   0.744  14.466 -0.2556 -0.1129 -0.2889
   29TMC2    C3  450   1.240   0.846  14.557  0.0769 -0.0311 -0.9035
   29TMC2    C4  451   1.298   0.904  14.286  0.1793 -0.3528  0.1917
   29TMC2    C5  452   1.317   0.993  14.386 -0.3425  0.2382 -0.3174
   29TMC2    C6  453   1.286   0.971  14.519 -0.5909  0.0588 -0.1443
   29TMC2     C  454   1.233   0.690  14.226  0.5152  0.9939 -0.1002
   29TMC2     O  455   1.235   0.572  14.258  0.2243 -0.4342 -0.1705
   29TMC2     H  456   1.189   0.652  14.498 -1.5656  0.6529 -0.0195
   29TMC2    H1  457   1.350   0.914  14.192  1.0486 -1.4470  0.5526
   29TMC2    H2  458   1.297   1.049  14.594  2.3285  0.0676 -0.5517
   29TMC2    C7  459   1.400   1.104  14.357 -0.5034  0.7976 -0.4437
   29TMC2    C8  460   1.268   0.815  14.698 -0.1543  0.6120 -0.0578
   29TMC2    O1  461   1.469   1.147  14.449  0.8665 -0.4603 -1.1536
   29TMC2    O2  462   1.255   0.891  14.796 -0.3350  0.8252  0.3055
   29TMC2    O5  463   1.318   0.695  14.707  0.3875  0.2627  0.2650
   29TMC2    H5  464   1.337   0.649  14.622 -0.1624 -0.1674  0.3714
   30MPD2     C  465   0.934   0.571  13.826  0.0328 -0.2984 -0.6348
   30MPD2    C1  466   1.010   0.486  13.914 -0.2716  0.2975 -0.4519
   30MPD2    C2  467   1.094   0.549  14.008  0.9334  0.5723 -0.7660
   30MPD2    C3  468   1.111   0.686  14.013  0.5606  0.7065 -0.6106
   30MPD2    C4  469   1.044   0.764  13.924 -0.6182 -0.3695 -0.8419
   30MPD2    C5  470   0.964   0.705  13.831 -0.3584 -0.8469  0.1611
   30MPD2     H  471   1.144   0.476  14.070 -1.2856 -0.5723 -0.3528
   30MPD2    H1  472   1.043   0.872  13.929  3.7372 -0.3762  0.3855
   30MPD2    H2  473   0.866   0.536  13.749 -0.5869  2.8390 -1.4821
   30MPD2    H3  474   0.907   0.766  13.761  0.7758  1.0249  0.8949
   30MPD2     N  475   1.168   0.750  14.120  0.5032  0.1283 -0.9143
   30MPD2    H5  476   1.162   0.852  14.123  0.0422  0.0944 -0.6810
   30MPD2    N1  477   1.016   0.352  13.898 -0.2247  0.0641 -0.5635
   30MPD2    H7  478   1.087   0.302  13.951  0.1219 -1.3500 -2.3626
   31TMC2    C1  479   4.207   4.013  15.000  0.0581  0.8001 -0.5344
   31TMC2    C2  480   4.281   3.895  14.995  0.3456 -0.0285 -0.3830
   31TMC2    C3  481   4.319   3.848  15.112  0.0058  0.5414  0.0698
   31TMC2    C4  482   4.192   4.089  15.114 -0.0158  0.0223 -0.2267
   31TMC2    C5  483   4.242   4.036  15.228 -0.8328 -0.8385 -0.2758
   31TMC2    C6  484   4.305   3.912  15.230  0.3054 -0.2291  0.0068
   31TMC2     C  485   4.178   4.077  14.879 -0.1930  0.1236 -1.0218
   31TMC2     O  486   4.123   4.184  14.877 -0.4281  0.0654 -0.1421
   31TMC2     H  487   4.254   3.827  14.915  1.7154  1.0137 -1.7311
   31TMC2    H1  488   4.145   4.186  15.103  0.3130  0.2800  0.6144
   31TMC2    H2  489   4.343   3.867  15.322 -0.8938  1.4768  1.3289
   31TMC2    C7  490   4.167   4.081  15.340  0.2630 -0.6215  0.2838
   31TMC2    C8  491   4.386   3.721  15.109  0.4420  0.4472 -0.2666
   31TMC2    O1  492   4.106   4.188  15.328  0.0643 -0.2314 -0.3542
   31TMC2    O2  493   4.392   3.660  15.215 -0.0865 -0.1219 -0.1173
   31TMC2    O5  494   4.492   3.741  15.023 -0.6879 -0.3980 -0.7255
   31TMC2    H5  495   4.474   3.772  14.931 -0.2922  1.3909 -0.1984
   32MPD2     C  496   4.239   4.142  14.374  0.1461 -0.0345 -0.4093
   32MPD2    C1  497   4.148   4.194  14.462 -0.2354 -0.8807 -0.5844
   32MPD2    C2  498   4.145   4.152  14.591 -0.6740 -0.5473  0.2312
   32MPD2    C3  499   4.228   4.052  14.633  0.2640  0.2779 -0.1610
   32MPD2    C4  500   4.304   3.990  14.540  0.0547  0.4790 -0.0042
   32MPD2    C5  501   4.308   4.038  14.413  0.3406  0.7279 -0.6269
   32MPD2     H  502   4.069   4.196  14.655 -1.3651 -3.2806  1.2943
   32MPD2    H1  503   4.370   3.910  14.571  0.5955  1.0389  0.2922
   32MPD2    H2  504   4.242   4.173  14.270  0.1614 -1.2053 -0.7537
   32MPD2    H3  505   4.371   3.979  14.348 -0.6779 -1.3625  0.2956
   32MPD2     N  506   4.234   4.010  14.769  0.5459 -0.4593  0.5106
   32MPD2    H5  507   4.290   3.926  14.780  1.0274 -0.3196 -0.9027
   32MPD2    N1  508   4.063   4.292  14.416  0.2683  0.0782 -0.3199
   32MPD2    H7  509   4.088   4.332  14.326  2.0552  0.6301  0.4398
   33TMC2    C1  510   3.648   2.469  10.106 -0.0504 -0.5677 -0.6203
   33TMC2    C2  511   3.565   2.524  10.194  0.0254  0.0938  0.1188
   33TMC2    C3  512   3.478   2.617  10.148  0.4681 -0.1243  0.1229
   33TMC2    C4  513   3.657   2.507   9.975  0.4121  0.2164  0.1598
   33TMC2    C5  514   3.569   2.598   9.928 -0.0137  0.1129 -0.5797
   33TMC2    C6  515   3.476   2.652  10.013 -0.7375  0.0071  0.6869
   33TMC2     C  516   3.700   2.336  10.137  0.3615  0.2168 -0.6172
   33TMC2     O  517   3.712   2.258  10.043 -0.1072  0.0470 -0.1090
   33TMC2     H  518   3.566   2.496  10.299 -0.5636  0.2445  0.1611
   33TMC2    H1  519   3.719   2.449   9.909 -1.5519  0.1616 -1.6509
   33TMC2    H2  520   3.410   2.727   9.970  0.7030  0.9187  0.0868
   33TMC2    C7  521   3.579   2.646   9.790 -0.0339  0.4691 -0.4620
   33TMC2    C8  522   3.368   2.655  10.228  0.7245 -0.8828  0.3123
   33TMC2    O1  523   3.688   2.649   9.741  0.7219  0.2494  0.4833
   33TMC2    O2  524   3.307   2.757  10.204  0.7927  0.0924 -0.2378
   33TMC2    O5  525   3.301   2.537  10.264 -0.0282 -0.0738 -0.0658
   33TMC2    H5  526   3.356   2.456  10.260  1.3307  0.8769 -0.9453
   34MPD2     C  527   3.939   2.029  10.465  0.0701 -0.1440  0.1188
   34MPD2    C1  528   3.856   1.992  10.367 -0.1073 -0.8607  0.2664
   34MPD2    C2  529   3.806   2.096  10.288  0.4447 -0.3585  0.8665
   34MPD2    C3  530   3.828   2.234  10.318  0.3382 -0.2383  0.1711
   34MPD2    C4  531   3.896   2.262  10.434 -0.0350  0.2297 -0.6355
   34MPD2    C5  532   3.949   2.159  10.506  0.4038  0.8845 -1.0676
   34MPD2     H  533   3.740   2.077  10.205  1.3622  0.0465  0.0432
   34MPD2    H1  534   3.905   2.364  10.470  1.0890  0.3496 -1.2397
   34MPD2    H2  535   3.989   1.958  10.530 -0.4532 -0.7298 -0.1182
   34MPD2    H3  536   3.989   2.171  10.606  0.8037  1.0383 -1.2472
   34MPD2     N  537   3.759   2.344  10.258 -0.6220 -0.4908  0.7357
   34MPD2    H5  538   3.748   2.429  10.313  1.8736  0.6222 -0.4537
   34MPD2    N1  539   3.835   1.852  10.342  0.3768  0.5397 -0.4942
   34MPD2    H7  540   3.895   1.782  10.383  0.7968 -0.0563 -2.1204
   35TMC2    C1  541   4.488   3.271  11.648 -0.3985 -0.0858  0.1646
   35TMC2    C2  542   4.426   3.389  11.614  0.0197 -0.5584  0.3722
   35TMC2    C3  543   4.302   3.373  11.560 -0.5341  1.0684  0.0574
   35TMC2    C4  544   4.433   3.148  11.626  0.8738 -0.2648 -0.1653
   35TMC2    C5  545   4.314   3.138  11.571  0.5979  0.5187  0.1521
   35TMC2    C6  546   4.253   3.251  11.532  0.3595 -0.0696  0.2092
   35TMC2     C  547   4.603   3.280  11.738  0.3036  0.4864  0.5676
   35TMC2     O  548   4.601   3.381  11.810  0.0133 -0.1481  1.0883
   35TMC2     H  549   4.460   3.490  11.636  1.8535 -0.7285 -1.6997
   35TMC2    H1  550   4.491   3.064  11.661 -0.8926 -2.3138 -2.1248
   35TMC2    H2  551   4.168   3.254  11.465  0.1938 -0.1985  0.4162
   35TMC2    C7  552   4.269   3.005  11.541 -0.3333 -0.7437 -0.9840
   35TMC2    C8  553   4.222   3.487  11.507 -0.3341 -0.3821  0.3562
   35TMC2    O1  554   4.344   2.915  11.567 -0.5842 -0.4252 -0.6008
   35TMC2    O2  555   4.257   3.607  11.513 -0.0008  0.6682  0.0965
   35TMC2    O5  556   4.087   3.449  11.521 -0.2906  0.4272  0.3122
   35TMC2    H5  557   4.055   3.360  11.545  0.0172  0.0351 -0.7542
   36MPD2     C  558   0.346   3.154  11.894  0.0157 -0.0158 -0.5892
   36MPD2    C1  559   0.306   3.059  11.795 -1.2219  0.2999  0.1961
   36MPD2    C2  560   0.172   3.059  11.753 -0.8231 -0.1626  0.3713
   36MPD2    C3  561   0.083   3.160  11.795 -0.1387  0.2815  0.3817
   36MPD2    C4  562   0.127   3.261  11.881  0.0642 -0.1235  0.6326
   36MPD2    C5  563   0.263   3.259  11.930 -0.8248 -0.3384  0.4020
   36MPD2     H  564   0.138   2.973  11.696 -0.9304  0.4874 -0.5559
   36MPD2    H1  565   0.057   3.337  11.913  0.1723 -0.3128  1.3212
   36MPD2    H2  566   0.439   3.148  11.949 -1.5800 -1.1717  1.9822
   36MPD2    H3  567   0.303   3.321  12.010  1.5476  1.2262 -1.9808
   36MPD2     N  568   4.692   3.177  11.730  0.6500  0.3410  0.5682
   36MPD2    H5  569   4.671   3.107  11.659 -4.3062  0.9557  1.4331
   36MPD2    N1  570   0.393   2.952  11.768  0.5791  0.1611  0.6810
   36MPD2    H7  571   0.478   2.955  11.824  1.4215  0.3778 -0.6184
   37TMC2    C1  572   1.649   3.425  12.372 -0.0428  0.0589 -0.1884
   37TMC2    C2  573   1.514   3.400  12.351  0.1368 -0.2621  0.8293
   37TMC2    C3  574   1.481   3.334  12.241 -0.3199  0.6646 -0.5955
   37TMC2    C4  575   1.744   3.374  12.287  0.2280  0.5136 -0.0023
   37TMC2    C5  576   1.709   3.327  12.164  0.4704  0.1114 -0.1263
   37TMC2    C6  577   1.574   3.298  12.144 -0.3015  0.3741  0.1162
   37TMC2     C  578   1.687   3.461  12.508  0.0785 -0.4202 -0.6947
   37TMC2     O  579   1.593   3.489  12.583 -0.0648  0.2695 -0.8298
   37TMC2     H  580   1.430   3.438  12.407  2.4989  0.1953  4.0273
   37TMC2    H1  581   1.845   3.415  12.292  0.4210 -0.0234  0.4645
   37TMC2    H2  582   1.546   3.240  12.057  1.5606 -0.9238  0.3957
   37TMC2    C7  583   1.814   3.330  12.061  0.2627  0.0366  0.5653
   37TMC2    C8  584   1.345   3.315  12.211  0.0593 -0.0041 -0.1375
   37TMC2    O1  585   1.927   3.361  12.097 -0.2721  0.1174 -0.0819
   37TMC2    O2  586   1.263   3.324  12.301 -0.5307  0.5020 -0.0031
   37TMC2    O5  587   1.325   3.352  12.082  0.6414  0.0785 -0.2660
   37TMC2    H5  588   1.404   3.353  12.024  2.1967 -0.9684  1.8269
   38MPD2     C  589   2.050   3.585  12.847 -0.1474 -0.4150  0.2939
   38MPD2    C1  590   2.103   3.562  12.727 -0.5866  0.4451 -0.3234
   38MPD2    C2  591   2.021   3.522  12.622  0.5226  0.0368  0.2044
   38MPD2    C3  592   1.883   3.521  12.639 -0.0281  0.5876 -0.3997
   38MPD2    C4  593   1.826   3.547  12.757 -0.6507 -0.2637 -0.0580
   38MPD2    C5  594   1.911   3.584  12.858 -0.2788  0.0064  0.7972
   38MPD2     H  595   2.067   3.496  12.528 -0.3426 -1.4748  0.1948
   38MPD2    H1  596   1.720   3.547  12.776 -0.9317 -3.0839 -1.6006
   38MPD2    H2  597   2.115   3.595  12.933  1.3510 -0.8807 -0.7951
   38MPD2    H3  598   1.865   3.610  12.953  0.8089 -0.8967  1.5628
   38MPD2     N  599   1.819   3.482  12.524 -0.5711 -0.1424 -0.2902
   38MPD2    H5  600   1.873   3.478  12.438 -0.6159 -0.0315 -0.3245
   38MPD2    N1  601   2.239   3.564  12.702 -0.1355 -0.2864  0.0426
   38MPD2    H7  602   2.252   3.558  12.601 -0.5478 -0.0969 -0.0222
   39TMC2    C1  603   0.650   1.613   1.382 -0.0572  0.0989 -0.0570
   39TMC2    C2  604   0.629   1.698   1.277 -0.0329 -0.1025  0.6774
   39TMC2    C3  605   0.717   1.803   1.250  0.4125 -0.5551  0.1037
   39TMC2    C4  606   0.763   1.630   1.461 -0.0371  0.5213  0.0606
   39TMC2    C5  607   0.850   1.731   1.433 -0.2324  0.6469 -0.2689
   39TMC2    C6  608   0.835   1.818   1.322  0.5145 -0.2292  0.4326
   39TMC2     C  609   0.573   1.489   1.371  0.2770  0.8818  0.2847
   39TMC2     O  610   0.476   1.478   1.295 -0.1497  0.1512 -0.6067
   39TMC2     H  611   0.542   1.686   1.214  0.5912  0.7228 -0.3665
   39TMC2    H1  612   0.771   1.573   1.553 -1.6074 -2.1563 -1.4427
   39TMC2    H2  613   0.914   1.886   1.292  0.2937 -0.4549 -0.6620
   39TMC2    C7  614   0.965   1.737   1.521 -0.2961  0.1795 -0.2638
   39TMC2    C8  615   0.706   1.890   1.138  0.0331  0.7155  0.8439
   39TMC2    O1  616   0.978   1.649   1.606 -0.1575  0.9047  0.0862
   39TMC2    O2  617   0.794   1.965   1.099 -0.9151  0.3144  0.5307
   39TMC2    O5  618   0.584   1.899   1.091  0.7798 -0.2299 -0.0446
   39TMC2    H5  619   0.526   1.866   1.163 -0.2227 -1.1292 -1.2692
   40MPD2     C  620   0.666   1.182   1.547  0.1600 -0.1712  0.0256
   40MPD2    C1  621   0.584   1.267   1.468  0.7967  0.3212 -0.2426
   40MPD2    C2  622   0.470   1.207   1.415  0.1828 -0.6637  0.1443
   40MPD2    C3  623   0.423   1.075   1.446  0.1926 -0.0257 -0.8047
   40MPD2    C4  624   0.508   1.004   1.532 -0.1811 -0.3871  0.0207
   40MPD2    C5  625   0.631   1.054   1.576  0.5423  0.1296 -0.4169
   40MPD2     H  626   0.401   1.266   1.356 -1.0396 -1.7880  0.4421
   40MPD2    H1  627   0.497   0.896   1.529  0.6452 -0.4527 -0.7851
   40MPD2    H2  628   0.753   1.234   1.585 -0.7066 -1.0208  3.1018
   40MPD2    H3  629   0.696   0.990   1.636  0.4332  0.0465 -0.3882
   40MPD2     N  630   0.311   1.018   1.383 -0.2606  0.4420  0.3923
   40MPD2    H5  631   0.280   0.924   1.404  0.1639  0.0851 -0.5731
   40MPD2    N1  632   0.633   1.398   1.446 -0.2507 -0.4744 -0.2087
   40MPD2    H7  633   0.716   1.430   1.494 -1.2008 -2.0814  2.4752
   41TMC2    C1  634   4.625   3.694  13.142 -0.3168  0.1322 -0.5732
   41TMC2    C2  635   4.520   3.773  13.183  0.0077  0.0819 -1.6086
   41TMC2    C3  636   4.485   3.879  13.102  0.2333  0.1088  0.1198
   41TMC2    C4  637   4.693   3.711  13.027  0.1301 -0.4101 -0.2271
   41TMC2    C5  638   4.650   3.819  12.948  0.7262  0.1915 -0.4195
   41TMC2    C6  639   4.559   3.913  12.988  0.4855  0.0221 -0.2896
   41TMC2     C  640   4.655   3.570  13.220  0.0734  0.4944 -0.2983
   41TMC2     O  641   4.718   3.485  13.166 -0.4440  0.3012 -0.2541
   41TMC2     H  642   4.449   3.739  13.258  0.6604 -1.1186 -1.5313
   41TMC2    H1  643   0.044   3.651  12.999  0.5860  0.6678 -1.1580
   41TMC2    H2  644   4.531   3.995  12.924 -1.9824 -1.1628 -0.7382
   41TMC2    C7  645   4.733   3.861  12.833 -0.0392  0.8777  0.0825
   41TMC2    C8  646   4.350   3.925  13.118  0.0272  0.2320  0.0987
   41TMC2    O1  647   0.001   3.983  12.813 -0.4303  0.3808 -0.0082
   41TMC2    O2  648   4.289   3.966  13.024 -0.5859 -0.1497 -0.5579
   41TMC2    O5  649   4.344   3.967  13.249 -0.7605  0.7151 -0.0751
   41TMC2    H5  650   4.423   3.939  13.300 -1.6652  0.5662  1.2343
   42MPD2     C  651   4.673   3.343  13.421 -0.8425  0.1323  0.1318
   42MPD2    C1  652   4.651   3.476  13.447  0.3582  0.2634 -0.0157
   42MPD2    C2  653   4.654   3.517  13.580 -0.6857  0.0212 -0.3470
   42MPD2    C3  654   4.685   3.428  13.683 -0.2046 -0.5115  0.1142
   42MPD2    C4  655   4.724   3.295  13.653 -0.7073  0.2579 -0.3115
   42MPD2    C5  656   4.710   3.259  13.519 -1.1542  0.8810  0.3170
   42MPD2     H  657   4.649   3.625  13.589  2.4565  0.1075  0.2617
   42MPD2    H1  658   0.020   3.223  13.728 -1.6817 -0.9899 -1.1297
   42MPD2    H2  659   4.664   3.310  13.318  1.1925  0.1979 -0.0672
   42MPD2    H3  660   4.730   3.159  13.484 -0.7339  0.5613  1.4720
   42MPD2     N  661   4.687   3.459  13.816  0.0398  0.4385  0.4736
   42MPD2    H5  662   0.007   3.403  13.882  1.2069 -0.4026 -1.1968
   42MPD2    N1  663   4.612   3.571  13.346 -0.1062  0.2362 -0.1593
   42MPD2    H7  664   4.582   3.657  13.390 -1.0851 -1.5530  2.6629
   43TMC2    C1  665   1.418   2.293   0.843 -0.0608 -0.1762 -0.0970
   43TMC2    C2  666   1.466   2.346   0.730  0.0656  0.4276 -1.0478
   43TMC2    C3  667   1.501   2.477   0.734 -0.4031  0.7936 -0.0888
   43TMC2    C4  668   1.409   2.366   0.961  0.4667 -0.1567 -0.2774
   43TMC2    C5  669   1.446   2.494   0.958  0.0498 -0.3267 -0.1125
   43TMC2    C6  670   1.487   2.561   0.846 -1.0422 -0.1560 -0.2923
   43TMC2     C  671   1.371   2.152   0.835 -0.5869 -0.4133  0.4073
   43TMC2     O  672   1.346   2.094   0.939  0.3435 -0.2239 -0.3149
   43TMC2     H  673   1.489   2.281   0.647 -1.6528  0.0629 -1.2411
   43TMC2    H1  674   1.378   2.316   1.052 -1.0924 -1.3491 -1.4566
   43TMC2    H2  675   1.538   2.657   0.846  1.9276 -1.7369  2.1930
   43TMC2    C7  676   1.452   2.574   1.075  1.0356 -0.1374 -0.5249
   43TMC2    C8  677   1.544   2.548   0.616 -0.3321 -0.5919  0.2358
   43TMC2    O1  678   1.479   2.691   1.062  0.1257 -0.2145  0.0187
   43TMC2    O2  679   1.634   2.624   0.609 -0.0624 -0.0932 -0.1302
   43TMC2    O5  680   1.493   2.479   0.513 -0.1869 -0.3227  0.0231
   43TMC2    H5  681   1.417   2.421   0.533 -2.0076  1.6631 -1.0715
   44MPD2     C  682   1.229   1.720   0.590  0.0509 -0.1290 -0.3584
   44MPD2    C1  683   1.286   1.734   0.718  1.0963  0.3058  0.5399
   44MPD2    C2  684   1.320   1.862   0.760  1.1626 -0.0481  0.0417
   44MPD2    C3  685   1.310   1.975   0.673  0.7974 -0.0024  0.0908
   44MPD2    C4  686   1.265   1.953   0.541  0.0602  0.0443 -0.6188
   44MPD2    C5  687   1.233   1.825   0.500 -0.0827  0.2315 -0.6124
   44MPD2     H  688   1.371   1.863   0.856 -0.9049 -0.7736  1.1635
   44MPD2    H1  689   1.267   2.036   0.471  2.3474  1.8906  1.6507
   44MPD2    H2  690   1.189   1.625   0.558 -2.8933  0.7712  0.6391
   44MPD2    H3  691   1.200   1.811   0.398  1.5356 -0.5028 -1.0268
   44MPD2     N  692   1.349   2.106   0.710 -0.3297 -0.3307  0.4338
   44MPD2    H5  693   1.353   2.170   0.631  0.4319 -0.4492  0.3720
   44MPD2    N1  694   1.328   1.625   0.800 -0.0797 -0.1830  0.1270
   44MPD2    H7  695   1.378   1.652   0.884 -2.3280  0.7684  1.1582
   45TMC2    C1  696   2.170   3.470  10.302 -0.3462 -0.5778 -0.3823
   45TMC2    C2  697   2.275   3.415  10.371  0.5559  0.3223 -0.2884
   45TMC2    C3  698   2.342   3.507  10.447  0.5691 -0.2889 -0.2836
   45TMC2    C4  699   2.133   3.601  10.292  0.6840  0.0797  0.5487
   45TMC2    C5  700   2.206   3.683  10.374  0.4404  0.1673  0.3632
   45TMC2    C6  701   2.315   3.640  10.444  0.6853 -0.2308 -0.0855
   45TMC2     C  702   2.108   3.373  10.210 -0.5580 -0.4126  0.2701
   45TMC2     O  703   2.103   3.259  10.245  0.5358 -0.3368  0.1275
   45TMC2     H  704   2.298   3.309  10.375 -1.6188 -0.0587  2.6848
   45TMC2    H1  705   2.042   3.629  10.238 -0.3348 -2.4667  0.9673
   45TMC2    H2  706   2.377   3.703  10.507  0.8114 -0.9865  0.5525
   45TMC2    C7  707   2.173   3.820  10.381 -0.1358 -0.2529 -0.3020
   45TMC2    C8  708   2.471   3.472  10.502  0.0064 -0.5347  0.6094
   45TMC2    O1  709   2.240   3.881  10.463 -0.4888  0.5057 -0.0130
   45TMC2    O2  710   2.557   3.558  10.524 -0.0955 -0.2184  1.0980
   45TMC2    O5  711   2.454   3.360  10.583  0.1478 -1.0209  0.3975
   45TMC2    H5  712   2.375   3.303  10.569  0.8908 -1.6873 -1.0800
   46MPD2     C  713   1.902   3.232  10.052  0.3027  0.1966 -0.9437
   46MPD2    C1  714   1.950   3.356  10.024 -0.0612  0.1402  0.9822
   46MPD2    C2  715   1.909   3.417   9.909 -0.3605  0.1553  0.2823
   46MPD2    C3  716   1.812   3.365   9.828  0.0849 -0.1531  0.3373
   46MPD2    C4  717   1.774   3.240   9.852  0.5335 -0.5189 -0.1703
   46MPD2    C5  718   1.813   3.176   9.965  0.1763  0.0733  0.1764
   46MPD2     H  719   1.945   3.516   9.887 -0.6921 -0.0933 -1.3958
   46MPD2    H1  720   1.699   3.184   9.798  0.7081 -1.2512  0.3347
   46MPD2    H2  721   1.932   3.184  10.145 -0.7724  0.2071 -0.5806
   46MPD2    H3  722   1.766   3.080   9.982  1.2807 -0.7481 -1.4016
   46MPD2     N  723   1.769   3.435   9.710  0.5901 -0.1759 -0.6894
   46MPD2    H5  724   1.809   3.524   9.680  0.5950  1.2024  3.4696
   46MPD2    N1  725   2.042   3.430  10.104 -0.7357  0.5530 -0.5964
   46MPD2    H7  726   2.071   3.523  10.076 -1.9543  0.8515 -0.8741
   47TMC2    C1  727   3.527   4.263   9.412 -0.5105 -0.1963 -0.5977
   47TMC2    C2  728   3.516   4.123   9.413 -0.1463  0.0546 -0.5723
   47TMC2    C3  729   3.434   4.065   9.508  0.5979  1.1644  0.2167
   47TMC2    C4  730   3.432   4.336   9.484  0.2972 -0.6396 -0.1374
   47TMC2    C5  731   3.350   4.274   9.576  0.7769 -0.2494  0.5602
   47TMC2    C6  732   3.347   4.134   9.591  0.3149 -0.0219  0.0389
   47TMC2     C  733   3.629   4.325   9.328 -0.7253 -0.2209 -0.1061
   47TMC2     O  734   3.630   4.448   9.311 -0.7129 -0.0525 -0.4862
   47TMC2     H  735   3.575   4.051   9.356 -3.0531 -1.5991 -1.4884
   47TMC2    H1  736   3.422   4.442   9.466 -1.5276 -0.4563  2.0718
   47TMC2    H2  737   3.285   4.081   9.662 -0.4027  0.7554 -0.0139
   47TMC2    C7  738   3.238   4.350   9.630  0.1081  0.0601  0.2246
   47TMC2    C8  739   3.382   3.936   9.450  0.0304  0.2221 -0.0994
   47TMC2    O1  740   3.256   4.472   9.644  0.3672  0.4009 -0.4611
   47TMC2    O2  741   3.380   3.906   9.333  0.0566  0.2707 -0.2980
   47TMC2    O5  742   3.301   3.888   9.551  0.1697  0.3020  0.1346
   47TMC2    H5  743   3.329   3.929   9.636 -3.3955  0.0823  1.4160
   48MPD2     C  744   3.834   4.370   9.115 -0.2007 -0.4125 -0.0952
   48MPD2    C1  745   3.815   4.252   9.184  0.0206  0.6327 -0.1036
   48MPD2    C2  746   3.898   4.144   9.152  0.6834 -0.6068  0.1512
   48MPD2    C3  747   4.015   4.165   9.081 -0.2833 -0.7118 -0.1356
   48MPD2    C4  748   4.041   4.290   9.036 -0.1027 -0.2057 -0.4725
   48MPD2    C5  749   3.942   4.388   9.043 -0.0362  0.0732 -0.1654
   48MPD2     H  750   3.870   4.042   9.177 -0.4511 -0.4977 -0.6428
   48MPD2    H1  751   4.131   4.320   8.984  0.1149 -2.2593 -1.3031
   48MPD2    H2  752   3.767   4.455   9.123 -1.2112 -1.1625 -0.4962
   48MPD2    H3  753   3.953   4.484   8.995  0.5583  0.0932  0.0042
   48MPD2     N  754   4.097   4.054   9.048  0.8098  0.5628  0.3990
   48MPD2    H5  755   4.059   3.962   9.071  2.1039 -0.1911 -0.4461
   48MPD2    N1  756   3.707   4.232   9.266 -0.1166  0.2035 -0.4926
   48MPD2    H7  757   3.699   4.132   9.279 -2.8868  0.5614  0.4662
   49TMC2    C1  758   2.078   0.902  10.672  1.1003  0.6033  0.0811
   49TMC2    C2  759   2.042   0.827  10.564  0.2283  0.0569 -0.5799
   49TMC2    C3  760   1.971   0.713  10.572 -0.0402  0.4416  0.6576
   49TMC2    C4  761   2.048   0.849  10.794 -0.6966 -1.1139 -0.1148
   49TMC2    C5  762   1.968   0.732  10.802 -0.2465 -0.3297  0.1682
   49TMC2    C6  763   1.927   0.660  10.689  0.1369  0.4082 -0.8545
   49TMC2     C  764   2.165   1.018  10.665  0.2889  0.0571  0.0986
   49TMC2     O  765   2.240   1.016  10.568 -0.2161 -0.2671  0.3191
   49TMC2     H  766   2.065   0.875  10.469  1.2758  0.4633 -0.1222
   49TMC2    H1  767   2.077   0.907  10.881  0.3958 -1.1259 -0.4735
   49TMC2    H2  768   1.849   0.586  10.705  0.5152  0.3243  0.6606
   49TMC2    C7  769   1.931   0.677  10.933 -0.1629  0.0429  0.1081
   49TMC2    C8  770   1.893   0.674  10.459  0.0982  0.2263 -0.1639
   49TMC2    O1  771   1.884   0.568  10.925  0.1338 -0.3643  0.2052
   49TMC2    O2  772   1.858   0.760  10.377  0.1766  0.2432 -0.6011
   49TMC2    O5  773   1.899   0.545  10.434 -0.0843 -0.4727  0.2309
   49TMC2    H5  774   1.923   0.483  10.506 -0.4066 -0.5977  0.2339
   50MPD2     C  775   2.325   1.272  10.708  0.2029  0.2771  0.5582
   50MPD2    C1  776   2.208   1.244  10.768 -0.6587  0.3244  0.2597
   50MPD2    C2  777   2.140   1.352  10.828 -0.1688 -0.1189 -0.0465
   50MPD2    C3  778   2.186   1.483  10.829  0.2449 -0.5534 -0.6142
   50MPD2    C4  779   2.307   1.503  10.763  0.0188 -0.6417  0.0873
   50MPD2    C5  780   2.377   1.400  10.699  0.2250  0.6558  0.3997
   50MPD2     H  781   2.042   1.327  10.867  0.0816  2.7592  2.4279
   50MPD2    H1  782   2.349   1.603  10.753  0.3242 -0.4460  3.2800
   50MPD2    H2  783   2.378   1.196  10.653  0.3424  1.1958 -0.5746
   50MPD2    H3  784   2.474   1.407  10.653 -0.1650 -0.9920 -0.6708
   50MPD2     N  785   2.115   1.595  10.865 -0.8999 -0.5921 -0.1983
   50MPD2    H5  786   2.152   1.682  10.827 -0.2119 -1.3641 -1.3090
   50MPD2    N1  787   2.130   1.122  10.751  0.4442  0.1410 -0.6423
   50MPD2    H7  788   2.043   1.112  10.801  0.3765  1.4018 -0.5067
   51TMC2    C1  789   2.786   0.181   1.431  0.5174 -0.2654  0.8574
   51TMC2    C2  790   2.894   0.210   1.511  0.1678  0.1402  0.0360
   51TMC2    C3  791   3.013   0.177   1.448 -0.7868  0.2866  0.7092
   51TMC2    C4  792   2.798   0.145   1.301  0.0966  0.2374 -0.0493
   51TMC2    C5  793   2.921   0.134   1.240  0.3805  0.3285  0.5343
   51TMC2    C6  794   3.028   0.146   1.316 -0.0198 -0.1444 -0.6917
   51TMC2     C  795   2.653   0.241   1.463 -0.2613 -0.5564 -0.0181
   51TMC2     O  796   2.559   0.194   1.403  0.6901  0.2862 -0.2791
   51TMC2     H  797   2.886   0.236   1.616 -0.5614 -0.4060  0.1112
   51TMC2    H1  798   2.713   0.134   1.235  1.0276  1.2521 -1.4100
   51TMC2    H2  799   3.125   0.119   1.277 -0.5452 -0.6353 -1.6598
   51TMC2    C7  800   2.928   0.154   1.095  0.8546 -0.0445  0.2422
   51TMC2    C8  801   3.130   0.222   1.512  0.3885  0.2283 -0.1116
   51TMC2    O1  802   3.021   0.213   1.046 -0.3785 -0.3598  0.0831
   51TMC2    O2  803   3.243   0.183   1.486 -0.0095 -0.0396  0.4414
   51TMC2    O5  804   3.098   0.346   1.555  0.7132  0.6422 -0.3082
   51TMC2    H5  805   3.010   0.376   1.525 -0.2115 -0.4288  1.3425
   52MPD2     C  806   2.339   0.508   1.773 -0.8513  0.0410  0.1964
   52MPD2    C1  807   2.310   0.412   1.684 -0.0739  0.0639 -0.1810
   52MPD2    C2  808   2.412   0.351   1.612 -0.8166  0.0391  0.1168
   52MPD2    C3  809   2.546   0.380   1.639  0.3331  0.1590 -0.3307
   52MPD2    C4  810   2.579   0.469   1.737  0.4758  0.1687 -0.0772
   52MPD2    C5  811   2.473   0.520   1.805  0.3310  0.0256  0.4027
   52MPD2     H  812   2.382   0.286   1.531 -2.3345 -0.8613  1.4171
   52MPD2    H1  813   2.679   0.491   1.770  0.2908  0.4820  0.2724
   52MPD2    H2  814   2.264   0.543   1.842  1.4326  1.8007  1.7651
   52MPD2    H3  815   2.498   0.577   1.894 -0.3564  1.4480 -0.3189
   52MPD2     N  816   2.656   0.320   1.578  0.2475 -0.5649  0.3347
   52MPD2    H5  817   2.746   0.350   1.613  0.0784 -0.8221  0.9879
   52MPD2    N1  818   2.179   0.375   1.641 -0.7141  0.3152  0.4356
   52MPD2    H7  819   2.175   0.307   1.566 -3.1876 -0.8111  1.5992
   53TMC2    C1  820   2.406   3.391  11.635  0.3019  0.2509  0.4016
   53TMC2    C2  821   2.527   3.361  11.581  0.1170 -0.3103 -0.2442
   53TMC2    C3  822   2.626   3.437  11.635 -0.3185  0.5224  0.3179
   53TMC2    C4  823   2.391   3.467  11.745  0.7576  0.0735 -0.1569
   53TMC2    C5  824   2.497   3.536  11.797  0.6301  0.3425 -0.1016
   53TMC2    C6  825   2.619   3.518  11.741  0.3647  0.0625  0.3415
   53TMC2     C  826   2.291   3.305  11.593 -0.1535 -0.5060 -0.5868
   53TMC2     O  827   2.309   3.225  11.503 -0.0036  0.2277 -0.1475
   53TMC2     H  828   2.535   3.312  11.484 -1.0199 -1.3962  0.2222
   53TMC2    H1  829   2.295   3.514  11.767  0.9679 -0.2437  1.4921
   53TMC2    H2  830   2.711   3.559  11.780  0.7537 -0.7812  0.3170
   53TMC2    C7  831   2.467   3.643  11.897  0.2583  0.7302 -0.7597
   53TMC2    C8  832   2.754   3.377  11.609  0.0382  0.6346 -0.0939
   53TMC2    O1  833   2.352   3.644  11.941 -0.1636  0.4259 -0.2665
   53TMC2    O2  834   2.859   3.424  11.647  0.2147  0.0351 -0.2933
   53TMC2    O5  835   2.729   3.244  11.608  0.0558  0.0860 -0.0429
   53TMC2    H5  836   2.639   3.206  11.616  0.8616 -2.1329 -1.3479
   54MPD2     C  837   2.005   3.203  11.582  0.2047  0.3323  0.2606
   54MPD2    C1  838   2.059   3.265  11.688  0.3245  0.0756 -0.4563
   54MPD2    C2  839   1.988   3.277  11.810  0.4358 -0.1732 -0.3387
   54MPD2    C3  840   1.853   3.252  11.819  0.1315 -0.2584  0.2574
   54MPD2    C4  841   1.798   3.188  11.708 -0.2615 -0.1093 -0.6721
   54MPD2    C5  842   1.872   3.169  11.597 -0.0061 -0.0329 -0.3910
   54MPD2     H  843   2.036   3.326  11.894 -2.6383  1.9234  0.1650
   54MPD2    H1  844   1.694   3.157  11.707 -0.5781  0.8770  2.2655
   54MPD2    H2  845   2.066   3.175  11.496 -0.8104  0.7783 -0.6040
   54MPD2    H3  846   1.829   3.114  11.514 -2.0408  1.3556 -0.2414
   54MPD2     N  847   1.777   3.282  11.939 -0.2569  0.0089 -0.1919
   54MPD2    H5  848   1.677   3.274  11.924 -0.3056  0.9418 -0.3463
   54MPD2    N1  849   2.190   3.324  11.686  0.4256  0.1986  0.4082
   54MPD2    H7  850   2.207   3.366  11.776 -1.4143  2.1811 -0.1532
   55TMC2    C1  851   4.095   1.219  17.531 -0.1507 -0.7093  0.2724
   55TMC2    C2  852   4.130   1.187  17.406  0.4384  0.5586 -0.1409
   55TMC2    C3  853   4.101   1.060  17.376 -0.0954 -0.2579 -0.1989
   55TMC2    C4  854   4.028   1.134  17.614 -0.4744 -0.6026  0.0257
   55TMC2    C5  855   4.004   1.002  17.578  0.1796  0.1439 -0.3328
   55TMC2    C6  856   4.052   0.965  17.458 -0.2091 -0.4239  0.0384
   55TMC2     C  857   4.075   1.356  17.568 -0.2975  0.8309 -0.2070
   55TMC2     O  858   4.019   1.377  17.676  0.4178  0.5021 -0.2084
   55TMC2     H  859   4.185   1.254  17.341  0.5882 -0.1259 -0.7149
   55TMC2    H1  860   3.977   1.174  17.700 -0.6497  2.1071 -1.3230
   55TMC2    H2  861   4.030   0.863  17.428  0.3287 -0.9501  1.4333
   55TMC2    C7  862   3.950   0.901  17.675  0.2883  0.0688  0.3629
   55TMC2    C8  863   4.114   1.021  17.236  0.1852  0.3847 -0.5134
   55TMC2    O1  864   3.911   0.795  17.623  0.9274  0.1404 -0.0801
   55TMC2    O2  865   4.166   1.097  17.157 -0.7982 -0.0431 -0.8168
   55TMC2    O5  866   4.011   0.946  17.199  0.1073  0.0152 -0.0668
   55TMC2    H5  867   3.997   0.862  17.249  2.5408 -0.7683 -0.6836
   56MPD2     C  868   4.198   1.661  17.374 -0.4269  0.1542 -0.3675
   56MPD2    C1  869   4.126   1.585  17.470 -0.7069  0.1218 -1.1073
   56MPD2    C2  870   4.057   1.657  17.565 -0.1519 -0.4078  0.2582
   56MPD2    C3  871   4.048   1.796  17.564  0.2660  1.1340 -0.7056
   56MPD2    C4  872   4.110   1.866  17.463  0.2927  0.2323  0.0577
   56MPD2    C5  873   4.182   1.802  17.371  0.1139  0.4369 -0.4845
   56MPD2     H  874   4.013   1.603  17.648  0.0526 -1.5601 -0.3871
   56MPD2    H1  875   4.111   1.973  17.448  1.2766  0.1550 -0.4387
   56MPD2    H2  876   4.266   1.626  17.297  2.0391  3.2828  0.4037
   56MPD2    H3  877   4.237   1.858  17.297 -0.6604 -0.1271 -1.4854
   56MPD2     N  878   3.985   1.859  17.679 -0.2857 -0.4021  0.0775
   56MPD2    H5  879   3.968   1.795   0.021 -1.1052 -1.2128 -0.7779
   56MPD2    N1  880   4.127   1.443  17.473 -0.7654 -0.3368  0.8748
   56MPD2    H7  881   4.171   1.407  17.389  1.1497 -1.7710  2.4850
   57TMC2    C1  882   2.427   2.209  13.503 -0.5119 -0.0110 -0.6245
   57TMC2    C2  883   2.306   2.155  13.492 -0.5957 -0.7428 -0.4051
   57TMC2    C3  884   2.268   2.104  13.365  0.6058 -0.0214 -0.7362
   57TMC2    C4  885   2.505   2.231  13.392  0.3135 -0.1630 -0.2378
   57TMC2    C5  886   2.467   2.180  13.273 -0.2579  0.6286  0.3994
   57TMC2    C6  887   2.350   2.117  13.256  0.5547 -0.5155  0.7619
   57TMC2     C  888   2.474   2.266  13.628  0.2857 -0.6124  0.2954
   57TMC2     O  889   2.393   2.278  13.717 -0.2196 -0.4900  0.1684
   57TMC2     H  890   2.240   2.148  13.577 -0.0346 -0.4995  0.0511
   57TMC2    H1  891   2.589   2.300  13.392  2.4043 -2.6760 -3.4155
   57TMC2    H2  892   2.318   2.089  13.156  0.9748  1.5227  0.0545
   57TMC2    C7  893   2.554   2.190  13.159  0.6355 -0.1217  0.4586
   57TMC2    C8  894   2.124   2.077  13.344  0.0383 -1.2585 -0.1432
   57TMC2    O1  895   2.575   2.085  13.107 -0.0304  0.3632  0.3967
   57TMC2    O2  896   2.064   2.082  13.237  0.2727 -0.4109  0.5447
   57TMC2    O5  897   2.053   2.074  13.456 -0.2907  0.0407 -0.1869
   57TMC2    H5  898   2.107   2.056  13.536 -3.0373 -1.3604  1.3539
   58MPD2     C  899   2.827   2.456  13.953  0.0567  0.3037 -0.1893
   58MPD2    C1  900   2.695   2.473  13.938 -0.2880 -0.0449 -0.4115
   58MPD2    C2  901   2.614   2.418  13.839  0.3273  0.2280 -0.7902
   58MPD2    C3  902   2.675   2.347  13.737  0.2237  0.6524  0.2918
   58MPD2    C4  903   2.813   2.343  13.748  0.5696  0.5287  0.7940
   58MPD2    C5  904   2.887   2.396  13.847  0.4666 -0.1524  0.1897
   58MPD2     H  905   2.507   2.437  13.839  0.2327 -0.3303 -0.3161
   58MPD2    H1  906   2.872   2.293  13.672  0.4490  0.9290  0.4375
   58MPD2    H2  907   2.892   2.497  14.029  1.9997  0.3056 -1.8510
   58MPD2    H3  908   2.993   2.376  13.854  1.3869  3.9775 -1.7060
   58MPD2     N  909   2.611   2.286  13.631  0.0034  0.1856 -0.2293
   58MPD2    H5  910   2.665   2.240  13.558  0.0975  1.1693 -0.7889
   58MPD2    N1  911   2.623   2.545  14.036  0.0544 -0.6270 -0.4744
   58MPD2    H7  912   2.528   2.565  14.008  0.7160  1.0380 -1.5201
   59TMC2    C1  913   1.164   2.611  12.657 -0.3837 -0.0083 -0.3456
   59TMC2    C2  914   1.262   2.605  12.563 -0.7302 -0.0604  0.2733
   59TMC2    C3  915   1.239   2.539  12.448  0.1392  0.3411 -0.5082
   59TMC2    C4  916   1.037   2.568  12.623  0.5376 -0.2136 -0.0361
   59TMC2    C5  917   1.013   2.500  12.507  0.2731 -0.3129 -1.5921
   59TMC2    C6  918   1.119   2.477  12.414 -0.4443  0.1898 -0.0393
   59TMC2     C  919   1.184   2.730  12.735 -0.3794 -0.3894 -0.0981
   59TMC2     O  920   1.209   2.828  12.659  0.5276  0.2395 -0.0207
   59TMC2     H  921   1.361   2.640  12.590 -1.7972  2.4506  0.8975
   59TMC2    H1  922   0.963   2.592  12.698  0.7011 -1.1828  0.4406
   59TMC2    H2  923   1.107   2.422  12.321 -0.1080 -0.4433  0.2986
   59TMC2    C7  924   0.870   2.476  12.470 -0.1669 -0.0882  0.7519
   59TMC2    C8  925   1.360   2.514  12.367  0.5838  0.6155 -0.1771
   59TMC2    O1  926   0.775   2.490  12.544  0.1217 -0.1703  0.0111
   59TMC2    O2  927   1.471   2.540  12.418  0.0291 -0.6351  0.3068
   59TMC2    O5  928   1.325   2.535  12.238  0.0554 -0.4028 -0.3625
   59TMC2    H5  929   1.233   2.565  12.228  0.6676  0.7814 -2.3703
   60MPD2     C  930   1.275   2.952  12.909  0.4260  0.7002 -0.8411
   60MPD2    C1  931   1.243   2.829  12.954 -0.5934  0.5337 -0.9005
   60MPD2    C2  932   1.259   2.807  13.088  0.1433 -0.3994 -1.1879
   60MPD2    C3  933   1.291   2.904  13.179 -0.2229 -0.6229  0.5810
   60MPD2    C4  934   1.317   3.032  13.129  0.8872 -0.9711 -0.2668
   60MPD2    C5  935   1.298   3.055  13.001 -0.8202 -0.2104 -0.0381
   60MPD2     H  936   1.253   2.705  13.125 -0.1605  0.5103  1.2639
   60MPD2    H1  937   1.354   3.103  13.202  0.1790 -0.2179 -0.6474
   60MPD2    H2  938   1.264   2.975  12.804 -3.2081  1.4240 -0.3046
   60MPD2    H3  939   1.322   3.156  12.969 -2.1688  0.5535  1.4063
   60MPD2     N  940   1.334   2.878  13.314 -0.1369 -0.2163  0.5539
   60MPD2    H5  941   1.365   2.962  13.362  0.1718  1.3511 -2.3817
   60MPD2    N1  942   1.186   2.724  12.869 -0.1297 -0.5070 -0.1299
   60MPD2    H7  943   1.177   2.634  12.916  1.1139 -1.7216 -2.2551
   61TMC2    C1  944   0.512   3.976  15.414 -0.0391  0.0271  0.0913
   61TMC2    C2  945   0.460   3.926  15.529 -0.7785  0.2553  0.3481
   61TMC2    C3  946   0.434   4.013  15.631 -0.1000 -0.5193  0.1466
   61TMC2    C4  947   0.527   4.114  15.400  0.3846 -0.1636  0.2535
   61TMC2    C5  948   0.479   4.194  15.502  0.0547  0.0603 -0.8580
   61TMC2    C6  949   0.424   4.144  15.611  0.2432  0.6628  0.2640
   61TMC2     C  950   0.531   3.887  15.301 -0.5222  0.0747  0.3614
   61TMC2     O  951   0.497   3.771  15.319 -1.4493  0.2469  0.1797
   61TMC2     H  952   0.441   3.819  15.528 -1.8552  0.4491 -0.4157
   61TMC2    H1  953   0.542   4.162  15.304 -0.0279 -0.6445 -0.0516
   61TMC2    H2  954   0.393   4.215  15.687  0.8417  3.3509 -1.9937
   61TMC2    C7  955   0.443   4.326  15.464  0.2951  0.0070 -0.0684
   61TMC2    C8  956   0.404   3.967  15.767  0.0677 -0.7141  0.0172
   61TMC2    O1  957   0.519   4.383  15.387 -0.4187 -0.5909  0.0420
   61TMC2    O2  958   0.316   4.015  15.835  0.4220 -0.2032  0.0789
   61TMC2    O5  959   0.484   3.862  15.793  0.7640 -0.2116  0.0673
   61TMC2    H5  960   0.553   3.853  15.724  2.0040  0.7771  1.1675
   62MPD2     C  961   0.553   3.773  15.028 -0.6430 -0.6498 -0.4393
   62MPD2    C1  962   0.597   3.901  15.064  0.7222  0.1690 -0.3582
   62MPD2    C2  963   0.655   3.980  14.969  0.2091  0.5342 -0.3234
   62MPD2    C3  964   0.689   3.922  14.853 -0.5265  0.0584  0.0748
   62MPD2    C4  965   0.649   3.794  14.820  0.1012  0.0138 -0.5414
   62MPD2    C5  966   0.575   3.722  14.905 -0.0016  0.3137 -0.1642
   62MPD2     H  967   0.685   4.083  14.984 -0.1347  0.8884 -2.0586
   62MPD2    H1  968   0.672   3.754  14.722 -0.0928  0.7778 -0.8987
   62MPD2    H2  969   0.506   3.704  15.098  1.6413 -3.5454 -1.7797
   62MPD2    H3  970   0.533   3.629  14.870  3.3634 -2.1813  2.4868
   62MPD2     N  971   0.763   3.984  14.746 -0.3442  0.2581  0.0793
   62MPD2    H5  972   0.769   3.935  14.657  0.7362 -0.6816  0.6700
   62MPD2    N1  973   0.568   3.952  15.188 -0.4626 -0.4021 -0.5072
   62MPD2    H7  974   0.585   4.052  15.189  0.5146 -0.5809  0.2530
   63TMC2    C1  975   4.553   4.276   9.803 -0.1967 -0.2611  0.4701
   63TMC2    C2  976   4.665   4.214   9.845  0.0643 -0.6574 -0.1320
   63TMC2    C3  977   0.049   4.280   9.858 -0.1217  0.2439  0.2982
   63TMC2    C4  978   4.557   4.409   9.767  0.2089 -0.4421 -0.0538
   63TMC2    C5  979   4.674   4.469   9.785 -0.1234 -0.2052 -0.0702
   63TMC2    C6  980   0.056   4.406   9.826 -0.1685  0.5645  0.3360
   63TMC2     C  981   4.426   4.212   9.804 -0.3574 -0.4028  0.9208
   63TMC2     O  982   4.330   4.262   9.743 -0.4205  0.0614 -0.5654
   63TMC2     H  983   4.655   4.109   9.871  1.3597 -0.3006  1.7686
   63TMC2    H1  984   4.471   4.469   9.739 -0.4517 -0.9370  0.9198
   63TMC2    H2  985   0.156   4.448   9.824 -0.0928  0.2361 -2.4498
   63TMC2    C7  986   4.690   4.602   9.730 -0.2890 -0.0141  0.0708
   63TMC2    C8  987   0.149   4.207   9.936 -0.8965  0.1956 -0.6096
   63TMC2    O1  988   4.607   4.641   9.647 -0.2392  0.2559 -0.2425
   63TMC2    O2  989   0.141   4.086   9.950 -0.5547  0.2832  0.4920
   63TMC2    O5  990   0.176   4.292  10.035 -0.0351 -0.3691  0.0388
   63TMC2    H5  991   0.181   4.388  10.014  1.1909 -0.5814 -0.5907
   64MPD2     C  992   4.149   3.776   9.840 -0.5412  0.8224  0.6494
   64MPD2    C1  993   4.261   3.771   9.923  0.0965  0.4430 -0.2526
   64MPD2    C2  994   4.346   3.877   9.935  1.0040  0.8699 -0.3352
   64MPD2    C3  995   4.319   3.991   9.868  0.7900  0.2977  1.3126
   64MPD2    C4  996   4.215   3.997   9.780  0.0318  0.0096  0.0537
   64MPD2    C5  997   4.133   3.889   9.765 -0.2657 -0.1510 -0.5601
   64MPD2     H  998   4.437   3.882   9.993  0.4954  2.9935  0.2702
   64MPD2    H1  999   4.200   4.083   9.715  2.3198 -0.3770 -0.9689
   64MPD2    H2 1000   4.082   3.695   9.813 -0.3503  0.0271  2.5733
   64MPD2    H3 1001   4.060   3.890   9.685 -0.9432  1.1679  0.0776
   64MPD2     N 1002   4.422   4.088   9.871  0.0121  0.6436  0.7916
   64MPD2    H5 1003   4.509   4.071   9.922  0.6105  0.7674 -0.1836
   64MPD2    N1 1004   4.297   3.657  10.001  0.4502  0.0344  0.0392
   64MPD2    H7 1005   4.374   3.652  10.067  0.9001 -0.5018 -0.5295
   65TMC2    C1 1006   0.776   3.504  15.328  0.0973 -0.4126 -0.1068
   65TMC2    C2 1007   0.749   3.447  15.206 -0.5999  0.2865  0.0518
   65TMC2    C3 1008   0.776   3.525  15.096  0.4317 -0.3558 -0.1097
   65TMC2    C4 1009   0.824   3.632  15.331  0.1580  0.1920  0.4619
   65TMC2    C5 1010   0.867   3.698  15.217 -1.4159 -0.4614 -0.1663
   65TMC2    C6 1011   0.841   3.642  15.098 -0.1247 -0.2674 -0.1132
   65TMC2     C 1012   0.746   3.438  15.458 -0.0969 -0.1539 -0.3506
   65TMC2     O 1013   0.756   3.502  15.559  0.0902 -0.2370  0.0626
   65TMC2     H 1014   0.714   3.345  15.194 -1.3533  0.8193 -2.2381
   65TMC2    H1 1015   0.831   3.684  15.426 -1.3680  1.6242 -0.2150
   65TMC2    H2 1016   0.866   3.690  15.004  2.5426  0.6498  1.0532
   65TMC2    C7 1017   0.896   3.845  15.225  0.8026  0.0818 -0.3817
   65TMC2    C8 1018   0.765   3.454  14.970 -0.0824  0.2003  0.4600
   65TMC2    O1 1019   0.931   3.903  15.119  0.5989 -0.4535  0.0364
   65TMC2    O2 1020   0.836   3.479  14.871 -0.0481  0.2060 -0.0433
   65TMC2    O5 1021   0.638   3.409  14.959 -0.1660  0.1588  0.3914
   65TMC2    H5 1022   0.586   3.443  15.034  1.1854 -0.2873  1.5219
   66MPD2     C 1023   0.722   3.233  15.679  0.0089 -0.5266 -0.2803
   66MPD2    C1 1024   0.737   3.206  15.541 -0.2920 -0.2598 -0.3557
   66MPD2    C2 1025   0.737   3.071  15.501  0.0145  0.6702 -0.2551
   66MPD2    C3 1026   0.723   2.969  15.597 -0.4203  0.8554 -0.1268
   66MPD2    C4 1027   0.708   3.004  15.728 -0.6163  0.2451 -0.7119
   66MPD2    C5 1028   0.708   3.129  15.768  0.8820  0.6890 -0.7835
   66MPD2     H 1029   0.746   3.040  15.398 -0.9952  2.5437 -0.8990
   66MPD2    H1 1030   0.705   2.929  15.807  0.0759  1.8746  0.8391
   66MPD2    H2 1031   0.726   3.331  15.725  0.8049 -0.4110 -0.5933
   66MPD2    H3 1032   0.694   3.152  15.873 -0.8465  0.0512 -0.8749
   66MPD2     N 1033   0.712   2.830  15.574  0.5205 -0.4415 -0.3349
   66MPD2    H5 1034   0.685   2.765  15.648  2.7178  0.0576  0.8950
   66MPD2    N1 1035   0.734   3.305  15.438  0.5984  0.5814 -0.0556
   66MPD2    H7 1036   0.739   3.272  15.342  0.2125  0.5991 -0.0829
   67TMC2    C1 1037   1.093   2.350  14.281 -0.2021 -0.5975 -0.3877
   67TMC2    C2 1038   0.999   2.450  14.260  0.5867 -0.3762  0.1858
   67TMC2    C3 1039   0.986   2.541  14.361  0.2196 -0.7940 -0.1709
   67TMC2    C4 1040   1.162   2.343  14.401  0.5546  0.5552  0.1222
   67TMC2    C5 1041   1.155   2.445  14.488 -0.2061 -0.9279  0.0141
   67TMC2    C6 1042   1.070   2.550  14.476 -0.5741  0.4172 -0.3547
   67TMC2     C 1043   1.102   2.230  14.192 -0.3156  0.1793  0.7344
   67TMC2     O 1044   1.179   2.137  14.213  0.1623  0.3989  0.1246
   67TMC2     H 1045   0.934   2.452  14.173 -0.0058 -2.0295  0.5859
   67TMC2    H1 1046   1.221   2.255  14.421 -1.9031 -1.7844 -2.9439
   67TMC2    H2 1047   1.060   2.626  14.553 -2.0950 -2.0665  1.9003
   67TMC2    C7 1048   1.257   2.448  14.594  0.4007  0.1665 -0.5327
   67TMC2    C8 1049   0.871   2.630  14.369  0.6246  0.4246  0.0251
   67TMC2    O1 1050   1.362   2.393  14.564  0.8428 -0.3621  0.4614
   67TMC2    O2 1051   0.822   2.670  14.473  1.0747  0.1644 -0.5853
   67TMC2    O5 1052   0.845   2.677  14.244  0.1151  0.0608  0.7587
   67TMC2    H5 1053   0.905   2.637  14.177  0.9334  1.6080  0.5850
   68MPD2     C 1054   1.088   2.036  13.956 -0.0163  0.3468 -0.0639
   68MPD2    C1 1055   1.015   2.153  13.969  0.0573 -0.4836 -0.1564
   68MPD2    C2 1056   0.924   2.191  13.869  0.9700  0.3786 -0.0760
   68MPD2    C3 1057   0.909   2.122  13.750  0.6179 -0.6028 -0.0881
   68MPD2    C4 1058   0.959   1.995  13.747 -0.1182 -0.1355  0.4708
   68MPD2    C5 1059   1.060   1.960  13.839 -0.1906 -0.2493 -0.2720
   68MPD2     H 1060   0.877   2.288  13.877  2.0255  0.7418  1.6923
   68MPD2    H1 1061   0.938   1.923  13.669  0.7944  1.4904 -1.2833
   68MPD2    H2 1062   1.159   2.006  14.032  1.2090  0.4508 -1.1652
   68MPD2    H3 1063   1.111   1.865  13.824 -0.5183 -0.4061 -0.3793
   68MPD2     N 1064   0.827   2.162  13.651  0.6658 -0.2684  0.5037
   68MPD2    H5 1065   0.814   2.093  13.579 -1.6280  0.1705  0.5211
   68MPD2    N1 1066   1.023   2.244  14.077 -0.9899 -0.0744  0.1081
   68MPD2    H7 1067   0.969   2.328  14.062  1.1691  1.3474  0.2745
   69TMC2    C1 1068   3.207   4.206  12.551  0.2197  0.0114  1.0081
   69TMC2    C2 1069   3.066   4.213  12.563  0.1270 -0.3111  0.2525
   69TMC2    C3 1070   3.000   4.170  12.451  0.3295  0.0883 -0.3081
   69TMC2    C4 1071   3.270   4.170  12.434  0.5481 -0.4802  0.9803
   69TMC2    C5 1072   3.198   4.133  12.327  0.0968 -0.1003  0.1814
   69TMC2    C6 1073   3.063   4.127  12.339  0.1521 -0.0018  0.1311
   69TMC2     C 1074   3.292   4.189  12.672 -0.2388 -0.0421 -0.0241
   69TMC2     O 1075   3.249   4.186  12.784 -0.5167  0.1294 -0.3183
   69TMC2     H 1076   3.019   4.228  12.659 -0.3801  2.0855 -0.3597
   69TMC2    H1 1077   3.378   4.155  12.426  0.6781 -0.2248  2.3237
   69TMC2    H2 1078   3.001   4.089  12.259 -1.5683  0.1125  1.4094
   69TMC2    C7 1079   3.251   4.014  12.263  0.1261  0.2820  0.0022
   69TMC2    C8 1080   2.884   4.092  12.481 -0.5701  0.6699  0.3147
   69TMC2    O1 1081   3.227   3.989  12.147 -0.0380  0.2363 -0.2855
   69TMC2    O2 1082   2.890   3.973  12.450 -0.2532  0.0042 -0.3330
   69TMC2    O5 1083   2.782   4.177  12.453 -0.0231  0.3868  0.2714
   69TMC2    H5 1084   2.822   4.266  12.459 -2.9049  1.7098 -0.0076
   70MPD2     C 1085   3.647   4.132  12.674  0.4636 -0.2981 -0.0181
   70MPD2    C1 1086   3.518   4.108  12.707  0.3495  0.2266 -0.6186
   70MPD2    C2 1087   3.481   3.996  12.773 -0.4924 -0.0658  0.4048
   70MPD2    C3 1088   3.579   3.898  12.804 -0.6031  0.2644 -0.1689
   70MPD2    C4 1089   3.706   3.921  12.763 -0.2195 -0.2425 -0.2271
   70MPD2    C5 1090   3.745   4.041  12.710 -0.0931 -0.7776 -0.7171
   70MPD2     H 1091   3.376   3.979  12.792 -1.2288  0.9743 -2.7753
   70MPD2    H1 1092   3.783   3.845  12.772 -0.0689 -0.4032 -2.8131
   70MPD2    H2 1093   3.667   4.219  12.612 -1.3359  1.2413  1.5640
   70MPD2    H3 1094   3.851   4.055  12.697  0.0841 -0.3335  1.2389
   70MPD2     N 1095   3.542   3.772  12.850 -0.3624 -0.1707 -0.0102
   70MPD2    H5 1096   3.615   3.702  12.854 -1.3954 -1.1705  1.4111
   70MPD2    N1 1097   3.425   4.187  12.641 -0.2439  0.5529  0.1112
   70MPD2    H7 1098   3.461   4.257  12.577  1.6652  0.8093  1.4771
   71TMC2    C1 1099   0.046   0.417   1.567 -0.1173  0.1591  0.1152
   71TMC2    C2 1100   0.072   0.529   1.643 -0.3435  0.0025  0.5438
   71TMC2    C3 1101   4.699   0.603   1.691 -0.2512  0.3548  0.0268
   71TMC2    C4 1102   4.645   0.387   1.541 -0.2859  0.3714 -0.4828
   71TMC2    C5 1103   4.544   0.465   1.586  0.1951  0.1133  0.0486
   71TMC2    C6 1104   4.568   0.581   1.655  0.3573 -0.5394 -0.1951
   71TMC2     C 1105   0.159   0.355   1.494  0.1884 -0.1885 -0.1536
   71TMC2     O 1106   0.267   0.413   1.495 -0.8294  0.8728  0.3475
   71TMC2     H 1107   0.175   0.558   1.663 -0.0293  0.6550 -2.0424
   71TMC2    H1 1108   4.614   0.295   1.492  1.7510 -0.9747  0.8070
   71TMC2    H2 1109   4.488   0.652   1.673 -0.3923 -0.8048 -2.5121
   71TMC2    C7 1110   4.405   0.425   1.567 -0.3608  0.7981  0.0752
   71TMC2    C8 1111   4.731   0.736   1.729  0.7368  0.1340 -0.2527
   71TMC2    O1 1112   4.320   0.450   1.648 -0.0588 -0.3607  0.0356
   71TMC2    O2 1113   0.102   0.795   1.701 -0.9892  0.1398 -0.0590
   71TMC2    O5 1114   4.630   0.799   1.793  0.4445 -0.2345  0.5515
   71TMC2    H5 1115   4.560   0.739   1.826 -1.2657  0.3834 -1.9322
   72MPD2     C 1116   0.366   4.693   1.238  0.3792  0.0038  0.6905
   72MPD2    C1 1117   0.423   0.082   1.278 -0.2489  0.8763 -0.3075
   72MPD2    C2 1118   0.343   0.167   1.347  0.1905  0.0309 -0.3269
   72MPD2    C3 1119   0.208   0.149   1.363 -0.2650  0.6129 -0.8188
   72MPD2    C4 1120   0.152   0.035   1.314  0.8336  0.1873 -0.1420
   72MPD2    C5 1121   0.234   4.674   1.263 -0.6513 -0.0002 -0.7071
   72MPD2     H 1122   0.390   0.257   1.384 -1.6939  0.7118  0.4269
   72MPD2    H1 1123   0.045   0.022   1.320  0.6808  1.1332 -0.7421
   72MPD2    H2 1124   0.416   4.622   1.174 -0.0233 -0.0416  0.4250
   72MPD2    H3 1125   0.180   4.589   1.223  0.3037 -0.7208 -0.4880
   72MPD2     N 1126   0.124   0.235   1.433  0.2269  0.0031 -0.4513
   72MPD2    H5 1127   0.031   0.195   1.444  1.0179 -1.3876  1.2796
   72MPD2    N1 1128   0.562   0.103   1.286 -0.8131 -0.0183  0.0855
   72MPD2    H7 1129   0.603   0.181   1.337 -1.4398 -0.0619  0.6629
   73TMC2    C1 1130   0.154   1.103  14.043  0.6599 -0.1464 -0.0518
   73TMC2    C2 1131   0.107   1.138  14.163 -0.4735 -0.3812 -0.0138
   73TMC2    C3 1132   0.171   1.101  14.279  0.2251 -0.4485 -0.2946
   73TMC2    C4 1133   0.274   1.029  14.035 -0.7175  0.1928  0.0216
   73TMC2    C5 1134   0.345   1.008  14.153  0.7690  0.1611  0.4736
   73TMC2    C6 1135   0.300   1.045  14.277 -0.0007  0.3367 -0.3523
   73TMC2     C 1136   0.156   1.212  13.941 -0.1077  0.2388 -0.5395
   73TMC2     O 1137   0.264   1.233  13.890 -0.3362  0.3957  0.4334
   73TMC2     H 1138   0.009   1.185  14.164 -1.0985 -1.7352  1.9039
   73TMC2    H1 1139   0.332   1.012  13.945  1.4198  2.5438  0.9464
   73TMC2    H2 1140   0.362   1.044  14.366 -2.2722 -0.3879  1.2088
   73TMC2    C7 1141   0.488   1.048  14.136 -0.0651 -0.3988 -0.1316
   73TMC2    C8 1142   0.096   1.120  14.405  0.5317 -0.9330  0.5168
   73TMC2    O1 1143   0.573   1.001  14.210 -0.1983  0.0833 -0.0507
   73TMC2    O2 1144   0.037   1.222  14.428  0.0083 -0.2016 -0.2728
   73TMC2    O5 1145   0.120   1.022  14.495 -0.4381 -0.2277 -0.4722
   73TMC2    H5 1146   0.170   0.946  14.460  0.7546  0.6178 -0.6357
   74MPD2     C 1147   4.709   1.622  13.694 -0.8210  0.4500 -0.0025
   74MPD2    C1 1148   0.102   1.579  13.719  1.0935  0.7263 -0.6179
   74MPD2    C2 1149   0.121   1.467  13.801  0.1861  0.3564  0.4871
   74MPD2    C3 1150   0.013   1.389  13.841  0.3844  0.6358  0.1385
   74MPD2    C4 1151   4.622   1.435  13.809 -0.9707 -0.5380 -0.4741
   74MPD2    C5 1152   4.602   1.554  13.740 -0.3214 -0.4079  0.8343
   74MPD2     H 1153   0.219   1.438  13.838 -1.3076 -0.3638  3.8969
   74MPD2    H1 1154   4.540   1.378  13.851 -1.5626 -0.7333 -1.8899
   74MPD2    H2 1155   4.687   1.718  13.651 -0.1690 -0.8113 -3.1580
   74MPD2    H3 1156   4.505   1.600  13.723  0.1670  0.2119 -0.3296
   74MPD2     N 1157   0.035   1.275  13.922  0.0695  0.1400 -0.4852
   74MPD2    H5 1158   4.688   1.240  13.971 -0.9972  1.6277 -1.1879
   74MPD2    N1 1159   0.216   1.653  13.674 -0.2205  0.8675  0.5801
   74MPD2    H7 1160   0.201   1.712  13.593 -0.5643  0.1104  0.0868
   75TMC2    C1 1161   0.671   2.278  13.512 -0.0166 -0.3995 -0.2099
   75TMC2    C2 1162   0.584   2.175  13.513  0.6980  0.1313 -0.0808
   75TMC2    C3 1163   0.483   2.174  13.427  0.5129 -0.0584  0.3490
   75TMC2    C4 1164   0.652   2.392  13.441 -0.0616  0.9232 -0.2048
   75TMC2    C5 1165   0.549   2.385  13.350  0.0947 -0.6742 -0.9041
   75TMC2    C6 1166   0.467   2.276  13.336  0.1248  0.4056  0.7373
   75TMC2     C 1167   0.757   2.282  13.630 -0.5807 -0.2683 -0.2040
   75TMC2     O 1168   0.760   2.384  13.697  0.9178 -0.5422  0.1970
   75TMC2     H 1169   0.597   2.105  13.594  1.4219  0.5297  0.1493
   75TMC2    H1 1170   0.720   2.477  13.447  1.7087 -0.5092 -0.1226
   75TMC2    H2 1171   0.383   2.293  13.269 -0.3273  0.3394  1.2836
   75TMC2    C7 1172   0.542   2.491  13.245 -0.2942  0.1089  0.2805
   75TMC2    C8 1173   0.375   2.073  13.443 -0.2580 -0.0788  0.0835
   75TMC2    O1 1174   0.475   2.464  13.146  0.1319  0.4084  0.5898
   75TMC2    O2 1175   0.356   2.026  13.552  0.1949  0.3390 -0.1631
   75TMC2    O5 1176   0.310   2.052  13.325  0.5250  0.2124  0.3044
   75TMC2    H5 1177   0.362   2.066  13.243  0.5736  1.7829  0.6041
   76TMC2    C1 1178   4.209   2.856  11.892  0.6051 -0.8185  0.2699
   76TMC2    C2 1179   4.108   2.766  11.866  0.0353  0.0109 -0.5655
   76TMC2    C3 1180   4.142   2.634  11.847 -0.1995  0.1458  0.1076
   76TMC2    C4 1181   4.340   2.815  11.898 -0.4410 -0.2781 -0.6984
   76TMC2    C5 1182   4.367   2.678  11.891  0.4388  0.5956 -0.1809
   76TMC2    C6 1183   4.267   2.588  11.872  0.6828 -0.6211  0.3004
   76TMC2     C 1184   4.177   3.001  11.876 -0.4545  0.5070 -0.5361
   76TMC2     O 1185   4.062   3.033  11.848 -0.1923 -0.0807 -0.3881
   76TMC2     H 1186   4.011   2.806  11.840 -0.0159  0.1513 -0.1527
   76TMC2    H1 1187   4.423   2.884  11.885 -2.8311  2.9160  0.9993
   76TMC2    H2 1188   4.296   2.489  11.838  2.2116 -0.8860  2.3455
   76TMC2    C7 1189   4.502   2.633  11.877 -0.6729 -0.8217 -0.0245
   76TMC2    C8 1190   4.041   2.523  11.835 -0.3382 -0.1243 -0.0527
   76TMC2    O1 1191   4.527   2.517  11.850 -0.0520  0.6505  0.0440
   76TMC2    O2 1192   4.076   2.406  11.831 -0.5540 -0.3288  0.2770
   76TMC2    O5 1193   3.915   2.568  11.861  0.4973  0.4633 -0.0586
   76TMC2    H5 1194   3.912   2.666  11.851  2.2745  0.4619 -0.6909
   77MPD2     C 1195   4.269   3.486  12.003 -0.9815  1.2061 -1.1633
   77MPD2    C1 1196   4.163   3.430  11.939 -0.1833 -0.3884 -0.3976
   77MPD2    C2 1197   4.169   3.300  11.904 -0.4535 -0.6055 -0.4766
   77MPD2    C3 1198   4.270   3.217  11.950  0.4478  0.4273 -0.0651
   77MPD2    C4 1199   4.370   3.277  12.018  0.8914 -0.4056  0.1949
   77MPD2    C5 1200   4.372   3.409  12.042  1.0247 -0.0946  0.2506
   77MPD2     H 1201   4.091   3.256  11.843  0.3254 -0.0850 -1.8434
   77MPD2    H1 1202   4.457   3.219  12.045  0.0112 -2.5428 -1.5876
   77MPD2    H2 1203   4.279   3.589  12.036  2.6148  0.3822  0.3146
   77MPD2    H3 1204   4.457   3.456  12.090  1.4441  1.0675 -1.6199
   77MPD2     N 1205   4.278   3.077  11.927 -0.2543  0.1702  0.1702
   77MPD2    H5 1206   4.361   3.037  11.969 -0.2333 -1.8940 -1.9056
   77MPD2    N1 1207   4.063   3.515  11.894 -0.2633 -0.0516 -0.4662
   77MPD2    H7 1208   4.077   3.614  11.913 -0.3475  0.0922 -1.1631
   78TMC2    C1 1209   1.055   3.407   0.781 -0.5145 -0.6581  0.4844
   78TMC2    C2 1210   1.020   3.352   0.907  0.9177 -0.3276 -0.2447
   78TMC2    C3 1211   1.061   3.430   1.011  0.8015 -0.1396  0.0692
   78TMC2    C4 1212   1.117   3.530   0.762  0.3314  0.3486  0.7584
   78TMC2    C5 1213   1.142   3.604   0.876 -0.4918  0.0609 -0.3845
   78TMC2    C6 1214   1.117   3.555   1.000 -0.0867 -0.1827  0.5304
   78TMC2     C 1215   1.018   3.339   0.659 -0.2951 -1.3323 -0.2291
   78TMC2     O 1216   1.093   3.347   0.563  0.4904 -0.1325 -0.5086
   78TMC2     H 1217   0.968   3.257   0.908  1.1416 -0.4045  2.7421
   78TMC2    H1 1218   1.116   3.569   0.661 -0.6521 -0.5317  0.4302
   78TMC2    H2 1219   1.152   3.595   1.094  0.7787 -1.2225  0.6428
   78TMC2    C7 1220   1.197   3.734   0.869  0.3837 -0.4409 -0.5674
   78TMC2    C8 1221   1.031   3.393   1.149  0.2759 -0.8493 -0.0042
   78TMC2    O1 1222   1.162   3.802   0.962  0.3223 -0.0710 -0.2094
   78TMC2    O2 1223   1.004   3.470   1.239  0.1736  0.2835  0.0225
   78TMC2    O5 1224   0.992   3.268   1.149 -0.5636 -0.0542 -0.1810
   78TMC2    H5 1225   1.015   3.215   1.070 -1.4107  1.2211 -1.2860
   79MPD1     C 1226   0.680   3.109   0.354  0.3932 -0.8869 -0.2895
   79MPD1    C1 1227   0.811   3.143   0.338 -0.6662  0.2717  0.4034
   79MPD1    C2 1228   0.882   3.190   0.449 -0.4781  0.3301 -0.5449
   79MPD1    C3 1229   0.822   3.207   0.571  0.3500 -0.0938  0.4127
   79MPD1    C4 1230   0.690   3.176   0.587  0.1693 -0.8548 -0.2153
   79MPD1    C5 1231   0.620   3.129   0.476  0.3526  0.8892 -0.6500
   79MPD1     H 1232   0.980   3.224   0.417  0.9629 -1.6688  1.7238
   79MPD1    H1 1233   0.644   3.199   0.682  0.6517 -0.7696  0.0013
   79MPD1    H2 1234   0.622   3.063   0.275  1.1713  0.6978 -1.8058
   79MPD1    H3 1235   0.517   3.104   0.498 -0.8597  2.0397 -5.1502
   79MPD1     N 1236   0.894   3.280   0.672  0.2483 -0.5932  0.0303
   79MPD1    H5 1237   0.840   3.287   0.757  0.6201  2.8993 -0.0237
   79MPD1    N1 1238   0.880   3.112   0.218 -0.1555  0.5352 -0.0481
   79MPD1    H6 1239   0.817   3.122   0.139  0.3334 -2.7435 -0.8335
   79MPD1    H7 1240   0.962   3.169   0.196  0.1710 -0.0313 -0.3037
   80TMC2    C1 1241   2.338   3.037  11.865 -0.0901 -0.7861  0.0946
   80TMC2    C2 1242   2.282   2.997  11.745 -0.4762  0.6382 -0.6412
   80TMC2    C3 1243   2.185   2.902  11.750 -0.6989 -0.3304  0.4222
   80TMC2    C4 1244   2.298   2.991  11.988 -0.0898  0.3927 -0.6068
   80TMC2    C5 1245   2.203   2.889  11.980 -0.1623  0.4919 -0.7137
   80TMC2    C6 1246   2.143   2.842  11.872  0.6147  0.0723  0.3162
   80TMC2     C 1247   2.455   3.126  11.854 -0.0163 -0.4825  0.5916
   80TMC2     O 1248   2.523   3.126  11.753  0.2836  0.2743 -0.0608
   80TMC2     H 1249   2.320   3.039  11.652  0.5025  2.5439  0.5984
   80TMC2    H1 1250   2.341   3.032  12.079  0.5937  0.3225 -0.8960
   80TMC2    H2 1251   2.059   2.773  11.870  0.9686 -0.2430 -3.2597
   80TMC2    C7 1252   2.187   2.807  12.101  1.1228 -0.1981  0.2337
   80TMC2    C8 1253   2.138   2.843  11.627  0.0401 -0.2220 -0.0295
   80TMC2    O1 1254   2.081   2.755  12.116 -0.1424  0.2832 -0.0238
   80TMC2    O2 1255   2.206   2.814  11.527  0.5102 -0.3336  0.1287
   80TMC2    O5 1256   2.015   2.803  11.657  0.0621 -0.0272  0.0158
   80TMC2    H5 1257   1.976   2.860  11.727 -0.3928 -1.3457  0.8298
   81MPD2     C 1258   2.706   3.246  11.957  0.0802 -0.3735 -0.4396
   81MPD2    C1 1259   2.585   3.260  12.016 -0.1123  0.2971 -0.2528
   81MPD2    C2 1260   2.581   3.334  12.133  0.6504 -0.1209 -0.4602
   81MPD2    C3 1261   2.691   3.395  12.195 -0.0099  0.2460 -0.1956
   81MPD2    C4 1262   2.816   3.363  12.141  0.0007  0.2359 -0.5452
   81MPD2    C5 1263   2.814   3.285  12.027 -0.3566 -0.1237 -0.6484
   81MPD2     H 1264   2.481   3.342  12.174  0.3452 -4.9082 -0.3141
   81MPD2    H1 1265   2.909   3.382  12.193 -0.1054 -0.5083 -0.0840
   81MPD2    H2 1266   2.726   3.188  11.868  0.4331 -0.9215  0.0008
   81MPD2    H3 1267   2.908   3.257  11.983 -1.1324 -1.8885 -1.1541
   81MPD2     N 1268   2.680   3.479  12.315 -0.3888 -0.4975 -0.6952
   81MPD2    H5 1269   2.766   3.524  12.345 -0.6651  0.3913 -1.2224
   81MPD2    N1 1270   2.468   3.206  11.966  0.2534  0.2409  0.1081
   81MPD2    H7 1271   2.386   3.217  12.024 -0.7557 -2.6504 -0.7755
   82TMC2    C1 1272   1.194   2.278  10.664  0.9818  0.1112 -0.0727
   82TMC2    C2 1273   1.254   2.353  10.768 -0.4785 -0.0712  0.5235
   82TMC2    C3 1274   1.287   2.290  10.884  0.7756 -0.1371  0.7452
   82TMC2    C4 1275   1.167   2.140  10.672 -0.3598  0.0002 -0.1115
   82TMC2    C5 1276   1.203   2.085  10.789 -0.0951 -0.5022  0.4092
   82TMC2    C6 1277   1.267   2.156  10.896 -0.8709 -0.1070 -0.1874
   82TMC2     C 1278   1.119   2.351  10.566  0.5865 -0.1557 -1.0371
   82TMC2     O 1279   1.040   2.287  10.497 -0.2843 -0.0499  0.4060
   82TMC2     H 1280   1.245   2.460  10.756  3.0798  0.3461  1.5159
   82TMC2    H1 1281   1.138   2.081  10.585 -2.8037 -0.4528  1.0126
   82TMC2    H2 1282   1.282   2.100  10.988 -0.8343 -0.7103 -0.5637
   82TMC2    C7 1283   1.119   1.979  10.836  0.1834  0.2607  0.2877
   82TMC2    C8 1284   1.324   2.369  11.000 -0.1475 -0.5759  0.2516
   82TMC2    O1 1285   1.108   1.970  10.960 -0.3235  0.4298  0.6869
   82TMC2    O2 1286   1.281   2.480  11.027  0.2040 -0.1338  0.1317
   82TMC2    O5 1287   1.411   2.289  11.071  0.5655  0.1624  0.1578
   82TMC2    H5 1288   1.454   2.211  11.029 -0.0206 -0.6728  1.1149
   83MPD2     C 1289   0.989   2.729  10.246  0.4777 -0.1845 -0.0212
   83MPD2    C1 1290   0.920   2.623  10.301  0.2216 -0.2551  0.5083
   83MPD2    C2 1291   0.983   2.542  10.392  0.0694 -0.1133 -0.6290
   83MPD2    C3 1292   1.108   2.563  10.438  0.4820  0.3018  0.7622
   83MPD2    C4 1293   1.180   2.666  10.375  0.2267 -0.0457 -0.1449
   83MPD2    C5 1294   1.119   2.750  10.284  0.4358 -0.5397 -0.2678
   83MPD2     H 1295   0.926   2.461  10.436  0.8968 -0.3103  0.0931
   83MPD2    H1 1296   1.284   2.689  10.392  0.1668  0.5762 -0.6102
   83MPD2    H2 1297   0.951   2.786  10.162  0.3088  0.6339  0.6009
   83MPD2    H3 1298   1.178   2.824  10.231 -0.8636 -0.2370 -1.3200
   83MPD2     N 1299   1.165   2.478  10.535 -0.3914  0.0639  0.0915
   83MPD2    H5 1300   1.253   2.501  10.580  0.6837 -1.6357 -1.1147
   83MPD2    N1 1301   0.790   2.608  10.257 -0.0220  0.0437  1.1064
   83MPD2    H7 1302   0.767   2.683  10.192  0.5004 -0.1535  0.6894
   84TMC2    C1 1303   1.828   1.876  10.758  0.4517 -0.0851  0.3185
   84TMC2    C2 1304   1.694   1.860  10.800 -0.7766  0.1035  0.7082
   84TMC2    C3 1305   1.667   1.744  10.864 -0.1012 -0.5913 -0.0550
   84TMC2    C4 1306   1.931   1.795  10.798  0.0322  0.0774 -0.1417
   84TMC2    C5 1307   1.898   1.690  10.879 -0.5925 -0.4432 -0.2051
   84TMC2    C6 1308   1.769   1.661  10.894  0.1578 -0.3345  0.2484
   84TMC2     C 1309   1.853   2.013  10.758  0.5442 -0.3346  0.2060
   84TMC2     O 1310   1.764   2.076  10.813  0.1603 -0.5767  0.1080
   84TMC2     H 1311   1.618   1.924  10.756 -1.6096 -2.3754 -1.4428
   84TMC2    H1 1312   2.036   1.810  10.777 -0.6023  3.1261 -1.2055
   84TMC2    H2 1313   1.737   1.582  10.961 -0.4553 -1.0545 -0.9017
   84TMC2    C7 1314   1.988   1.581  10.910 -0.2000 -0.0915  0.1796
   84TMC2    C8 1315   1.530   1.735  10.912  0.1312  0.2561 -1.0805
   84TMC2    O1 1316   1.929   1.488  10.962 -0.0001  0.5817 -0.2502
   84TMC2    O2 1317   1.466   1.828  10.946 -0.4863  0.1696 -0.1898
   84TMC2    O5 1318   1.486   1.605  10.895  0.8675  0.6015 -0.3506
   84TMC2    H5 1319   1.543   1.542  10.846  1.2773  0.9384 -0.3192
   85TMC2    C1 1320   3.333   0.007  15.994  0.3543 -0.2439 -0.1475
   85TMC2    C2 1321   3.239   0.106  15.995 -0.5111 -0.1936  0.1181
   85TMC2    C3 1322   3.257   0.212  15.910 -0.4125 -0.0656  0.3602
   85TMC2    C4 1323   3.442   0.014  15.910 -0.0873  0.1752  0.2033
   85TMC2    C5 1324   3.457   0.121  15.831  0.6520  0.1037 -0.0443
   85TMC2    C6 1325   3.364   0.219  15.825 -0.6627  0.5146  0.4584
   85TMC2     C 1326   3.336   4.619  16.078 -0.6554 -0.4525 -0.4878
   85TMC2     O 1327   3.448   4.585  16.124  0.3106  0.2977  0.3942
   85TMC2     H 1328   3.143   0.096  16.044 -0.3937  2.1536  0.7854
   85TMC2    H1 1329   3.506   4.661  15.908 -0.0820  0.1838 -0.0889
   85TMC2    H2 1330   3.375   0.303  15.758 -1.5090  0.7065  0.5575
   85TMC2    C7 1331   3.552   0.115  15.723 -0.0359  0.3195  0.3572
   85TMC2    C8 1332   3.176   0.328  15.910  0.2023 -0.4689  0.6965
   85TMC2    O1 1333   3.641   0.033  15.742  0.0658  0.6731 -0.1881
   85TMC2    O2 1334   3.184   0.417  15.825 -0.0645  0.0445 -0.2759
   85TMC2    O5 1335   3.119   0.338  16.032  0.4305  0.2603 -0.4178
   85TMC2    H5 1336   3.147   0.271  16.098 -0.9557  0.9240  0.8599
   86MPD2     C 1337   3.175   4.131  16.102  0.4612  0.3940  0.0397
   86MPD2    C1 1338   3.067   4.209  16.073  0.4675 -0.8644  0.8352
   86MPD2    C2 1339   3.079   4.345  16.073 -0.3570  0.4029 -0.2001
   86MPD2    C3 1340   3.204   4.408  16.095 -0.2998  0.0128  0.7552
   86MPD2    C4 1341   3.309   4.321  16.120  1.0223 -0.5547 -0.6335
   86MPD2    C5 1342   3.293   4.184  16.126  0.3562 -0.2380 -0.3524
   86MPD2     H 1343   2.992   4.408  16.058 -0.9821 -0.4320 -0.0439
   86MPD2    H1 1344   3.411   4.354  16.135  0.5598 -1.0412  3.5754
   86MPD2    H2 1345   3.167   4.023  16.102  1.2025  0.3359 -0.6137
   86MPD2    H3 1346   3.387   4.134  16.148  0.3050  0.3747  1.2749
   86MPD2     N 1347   3.223   4.545  16.067 -0.4475  0.0854 -0.1917
   86MPD2    H5 1348   3.141   4.593  16.031  1.1983  1.2263 -2.4128
   86MPD2    N1 1349   2.944   4.150  16.039 -0.1612 -0.3743  0.0893
   86MPD2    H7 1350   2.861   4.203  16.016  0.0827  0.1729  0.4935
   87TMC2    C1 1351   0.477   2.798   0.626  0.0743 -0.7106  0.1455
   87TMC2    C2 1352   0.506   2.852   0.750  0.1615  0.6104 -1.0787
   87TMC2    C3 1353   0.404   2.898   0.824 -0.0870  0.6482 -0.3776
   87TMC2    C4 1354   0.353   2.752   0.594  0.0220 -0.9319  0.0457
   87TMC2    C5 1355   0.249   2.789   0.685  0.6421 -0.0885  0.3955
   87TMC2    C6 1356   0.276   2.864   0.797 -0.3700 -0.3592  0.2967
   87TMC2     C 1357   0.597   2.761   0.548  0.4935 -0.0394 -0.2999
   87TMC2     O 1358   0.706   2.808   0.589 -0.2767 -0.4539 -0.2935
   87TMC2     H 1359   0.609   2.876   0.774  0.3653  0.4463 -1.7994
   87TMC2    H1 1360   0.332   2.710   0.496 -1.0788 -2.1645  0.8197
   87TMC2    H2 1361   0.191   2.896   0.855 -0.4872 -0.1236 -0.0060
   87TMC2    C7 1362   0.114   2.788   0.642 -0.0195  0.6813 -0.5327
   87TMC2    C8 1363   0.423   2.966   0.949  0.3874  0.4045  0.3992
   87TMC2    O1 1364   0.040   2.878   0.679  0.4473  0.0651  0.2003
   87TMC2    O2 1365   0.530   2.957   1.005  0.3540 -0.4097 -0.0891
   87TMC2    O5 1366   0.320   3.042   0.989  0.5398 -0.0665  0.3013
   87TMC2    H5 1367   0.242   3.049   0.930  0.4221  0.4712  0.5309
   88MPD2     C 1368   4.686   2.561   0.403  0.9945  0.4992  0.5879
   88MPD2    C1 1369   4.704   2.685   0.467 -0.6784  0.4971 -0.2506
   88MPD2    C2 1370   4.630   2.799   0.438  0.3558  0.1155  0.1489
   88MPD2    C3 1371   4.528   2.792   0.345  0.1115 -0.5936  0.3483
   88MPD2    C4 1372   4.516   2.668   0.277 -0.1073  0.4175  0.1470
   88MPD2    C5 1373   4.591   2.554   0.307 -0.0124 -0.3822 -0.2514
   88MPD2     H 1374   4.652   2.890   0.492 -0.7880 -0.9161  2.3340
   88MPD2    H1 1375   4.445   2.656   0.197  1.3835 -1.9710 -0.8210
   88MPD2    H2 1376   0.018   2.480   0.431 -0.1937 -0.8746 -0.6197
   88MPD2    H3 1377   4.576   2.458   0.258  3.0226 -1.1493  0.3024
   88MPD2     N 1378   4.445   2.898   0.307 -0.1409 -0.0250 -0.0146
   88MPD2    H5 1379   4.404   2.895   0.214 -1.7304  1.6259  0.6314
   88MPD2    N1 1380   0.087   2.687   0.550  0.1449 -0.7095 -0.7213
   88MPD2    H7 1381   0.149   2.607   0.557  0.9997  0.1350  1.5187
   89TMC2    C1 1382   1.632   2.272   1.509  0.2673 -0.0294 -0.7437
   89TMC2    C2 1383   1.677   2.384   1.570  0.4756 -0.0660  0.7327
   89TMC2    C3 1384   1.715   2.494   1.499 -0.1008  0.0830 -0.4393
   89TMC2    C4 1385   1.609   2.278   1.372 -0.6082  0.0550  0.0487
   89TMC2    C5 1386   1.664   2.383   1.301  0.4083  0.1558  0.3687
   89TMC2    C6 1387   1.719   2.490   1.365  0.4190  0.0857 -0.2121
   89TMC2     C 1388   1.545   2.185   1.591  0.2793  0.2793  0.1310
   89TMC2     O 1389   1.587   2.170   1.705  0.3062  0.1014  0.5068
   89TMC2     H 1390   1.678   2.382   1.678  1.4815 -0.1209  0.7210
   89TMC2    H1 1391   1.583   2.183   1.328  0.0253 -1.5641  3.2346
   89TMC2    H2 1392   1.741   2.577   1.304  0.9046 -0.4698 -0.8321
   89TMC2    C7 1393   1.686   2.370   1.164 -0.0591  0.0554  0.2005
   89TMC2    C8 1394   1.762   2.610   1.568 -0.1159 -0.4977 -0.0666
   89TMC2    O1 1395   1.732   2.477   1.115  0.0639  0.0464 -0.1021
   89TMC2    O2 1396   1.732   2.643   1.684  0.0635 -0.4407  0.0007
   89TMC2    O5 1397   1.865   2.654   1.490  0.3158  0.0190  0.1632
   89TMC2    H5 1398   1.886   2.599   1.411  1.9366  1.7055 -0.5620
   90MPD2     C 1399   1.175   1.849   1.699  0.0956 -0.3786 -0.3029
   90MPD2    C1 1400   1.154   1.891   1.570  0.2232  0.0120 -0.3247
   90MPD2    C2 1401   1.245   1.983   1.524  0.4455  0.3951  0.4588
   90MPD2    C3 1402   1.351   2.038   1.597 -0.2738  0.2540 -0.6821
   90MPD2    C4 1403   1.366   1.991   1.726 -0.1115  0.1524  0.6017
   90MPD2    C5 1404   1.278   1.898   1.775  0.5408  0.5460  0.4651
   90MPD2     H 1405   1.230   2.027   1.427 -0.6684  1.6712  1.2101
   90MPD2    H1 1406   1.441   2.016   1.800 -1.3474  0.7689  1.6458
   90MPD2    H2 1407   1.128   1.762   1.745 -2.6774  1.0953 -0.3198
   90MPD2    H3 1408   1.297   1.838   1.863 -3.5883 -1.4455 -0.0262
   90MPD2     N 1409   1.434   2.132   1.530 -0.1913  0.4276 -0.6954
   90MPD2    H5 1410   1.413   2.152   1.433 -2.0003  2.4085  0.0894
   90MPD2    N1 1411   1.045   1.842   1.489  0.3744 -0.1392  0.2896
   90MPD2    H7 1412   1.020   1.891   1.403  1.0601  0.9502  0.7104
   91TMC2    C1 1413   3.049   0.875  16.790  0.1356 -0.4683 -1.3435
   91TMC2    C2 1414   3.073   0.894  16.925 -0.4502 -0.4638 -0.2345
   91TMC2    C3 1415   2.970   0.913  17.010  0.3157  0.1109  0.3656
   91TMC2    C4 1416   2.922   0.869  16.756 -0.1055 -0.6303 -0.2994
   91TMC2    C5 1417   2.815   0.881  16.840  0.6807 -0.0961  0.5583
   91TMC2    C6 1418   2.839   0.912  16.968  0.2321 -0.2966  0.3896
   91TMC2     C 1419   3.134   0.766  16.748  0.1960 -0.6366 -0.2784
   91TMC2     O 1420   3.071   0.666  16.721 -0.1035 -0.4847  0.1003
   91TMC2     H 1421   3.169   0.873  16.969 -0.7075  3.4700  2.1760
   91TMC2    H1 1422   2.900   0.847  16.652 -0.9393 -2.5833  0.3083
   91TMC2    H2 1423   2.759   0.936  17.037 -0.0023  1.6614 -0.5604
   91TMC2    C7 1424   2.673   0.874  16.798  0.5050  0.0169  0.2655
   91TMC2    C8 1425   2.992   0.996  17.132  0.3131 -0.2889 -0.6036
   91TMC2    O1 1426   2.584   0.870  16.884 -0.2899  0.1027  0.1535
   91TMC2    O2 1427   3.059   1.099  17.126  0.1225 -0.0847  0.1955
   91TMC2    O5 1428   2.888   0.964  17.216 -0.2799  0.4961  0.4033
   91TMC2    H5 1429   2.838   0.883  17.193  0.5521  0.1746 -0.2861
   92MPD2     C 1430   3.364   0.567  16.746 -0.8939 -0.0710  0.0479
   92MPD2    C1 1431   3.375   0.702  16.764  0.1223  0.8342 -0.4018
   92MPD2    C2 1432   3.509   0.747  16.776  0.1944  0.0614 -0.5132
   92MPD2    C3 1433   3.618   0.663  16.794  0.2466 -0.2268  0.1407
   92MPD2    C4 1434   3.594   0.529  16.792 -0.6203 -0.7922 -0.6539
   92MPD2    C5 1435   3.470   0.483  16.750  0.1973  0.0084  0.2219
   92MPD2     H 1436   3.511   0.855  16.772 -0.4888  0.2105  2.9390
   92MPD2    H1 1437   3.676   0.459  16.793 -0.0264 -0.0375  3.0034
   92MPD2    H2 1438   3.265   0.530  16.718 -1.1424  0.2437  0.5177
   92MPD2    H3 1439   3.453   0.376  16.740  0.5417  0.0469 -0.7684
   92MPD2     N 1440   3.745   0.725  16.817 -0.0146 -0.5804  0.0447
   92MPD2    H5 1441   3.746   0.827  16.824  0.5419 -0.4507 -1.7232
   92MPD2    N1 1442   3.270   0.792  16.766  0.3276 -0.1843 -0.1526
   92MPD2    H7 1443   3.293   0.891  16.776 -0.2561  0.1360 -1.8718
   93TMC2    C1 1444   0.590   1.233  13.679 -0.6755  0.1404 -0.6403
   93TMC2    C2 1445   0.544   1.112  13.730  0.1578 -0.9842 -0.6981
   93TMC2    C3 1446   0.640   1.029  13.778  0.0257 -0.8813  0.4276
   93TMC2    C4 1447   0.722   1.259  13.664 -0.4726 -0.0447  0.0638
   93TMC2    C5 1448   0.807   1.165  13.712 -0.9743 -0.5433  0.4903
   93TMC2    C6 1449   0.774   1.052  13.779  0.6562  0.2536 -0.7911
   93TMC2     C 1450   0.506   1.304  13.590 -0.0817  0.4010  0.3436
   93TMC2     O 1451   0.569   1.360  13.501 -0.3969  0.1324 -0.0277
   93TMC2     H 1452   0.439   1.095  13.752  0.4770 -1.6844  0.2781
   93TMC2    H1 1453   0.744   1.362  13.640 -1.7534  0.9326  3.1225
   93TMC2    H2 1454   0.848   0.998  13.838  0.0072 -0.6320 -0.7974
   93TMC2    C7 1455   0.952   1.177  13.690 -0.7546 -0.1386 -0.3393
   93TMC2    C8 1456   0.600   0.896  13.833 -0.3919 -0.7899  0.0954
   93TMC2    O1 1457   1.028   1.107  13.759  0.4094  0.2968  0.0541
   93TMC2    O2 1458   0.651   0.841  13.926 -0.0973  0.5781  0.2582
   93TMC2    O5 1459   0.506   0.848  13.751 -0.0445 -0.6408 -0.0163
   93TMC2    H5 1460   0.490   0.883  13.661  3.0340 -0.3091 -0.4229
   94MPD2     C 1461   0.281   1.382  13.410 -0.8781 -0.3169  0.1730
   94MPD2    C1 1462   0.265   1.303  13.518 -0.3929  0.0309  0.1837
   94MPD2    C2 1463   0.143   1.245  13.547  0.8213  0.5116  0.6273
   94MPD2    C3 1464   0.044   1.268  13.455 -0.6619 -0.9465  0.3214
   94MPD2    C4 1465   0.060   1.347  13.345 -0.2649  0.6026 -0.2477
   94MPD2    C5 1466   0.177   1.410  13.331 -0.3943  0.2057 -0.3520
   94MPD2     H 1467   0.129   1.173  13.626  1.1475 -1.1832 -0.8695
   94MPD2    H1 1468   4.727   1.355  13.260 -1.6866  3.4301  1.1579
   94MPD2    H2 1469   0.374   1.428  13.380 -1.0732 -0.9532 -1.4272
   94MPD2    H3 1470   0.195   1.460  13.237  0.6139 -0.5145 -0.5408
   94MPD2     N 1471   4.650   1.208  13.470  0.9326  0.2944  0.1855
   94MPD2    H5 1472   4.578   1.230  13.402  0.4144 -2.0844 -0.0692
   94MPD2    N1 1473   0.372   1.273  13.605 -1.1459  0.3392 -0.0010
   94MPD2    H7 1474   0.342   1.217  13.684  1.4095 -0.9042  0.0719
   95TMC2    C1 1475   0.105   2.253  16.055  0.7562  0.6740 -0.2261
   95TMC2    C2 1476   0.123   2.228  16.191  0.0222 -0.6515 -0.4006
   95TMC2    C3 1477   0.025   2.286  16.272  0.7203 -0.7819 -0.7648
   95TMC2    C4 1478   0.015   2.334  16.001  0.2389 -0.7467  0.3497
   95TMC2    C5 1479   4.659   2.391  16.088  0.0883 -0.3348  0.1891
   95TMC2    C6 1480   4.667   2.376  16.225  0.1760  0.4063 -0.1403
   95TMC2     C 1481   0.215   2.228  15.970 -0.1038  0.1140 -0.2991
   95TMC2     O 1482   0.215   2.268  15.857  0.5145 -0.5679  0.0980
   95TMC2     H 1483   0.196   2.162  16.236 -0.6408 -1.6073 -0.7347
   95TMC2    H1 1484   0.011   2.351  15.894  0.3159 -0.0752  0.4541
   95TMC2    H2 1485   4.594   2.423  16.289  1.3661  0.6351  1.0577
   95TMC2    C7 1486   4.550   2.464  16.021  0.1816 -0.3333  0.3903
   95TMC2    C8 1487   0.066   2.299  16.414 -0.0566 -0.9454  0.0550
   95TMC2    O1 1488   4.561   2.489  15.902  0.1146 -0.2133 -0.0404
   95TMC2    O2 1489   4.722   2.286  16.505  0.2602 -0.4514  0.1027
   95TMC2    O5 1490   0.170   2.393  16.412  0.3628  0.3696 -0.0461
   95TMC2    H5 1491   0.207   2.396  16.322  1.0685  1.7268  0.2877
   96MPD2     C 1492   0.677   2.052  15.875 -0.0005 -0.6562  0.3929
   96MPD2    C1 1493   0.614   2.168  15.828 -0.2783  0.3077 -0.1893
   96MPD2    C2 1494   0.486   2.188  15.873 -0.0597  0.0625 -0.4948
   96MPD2    C3 1495   0.429   2.109  15.967  0.2571 -0.3411  0.1700
   96MPD2    C4 1496   0.499   2.008  16.023  0.1057  0.1219  0.0902
   96MPD2    C5 1497   0.622   1.974  15.972 -0.0764  0.9280  0.6195
   96MPD2     H 1498   0.429   2.273  15.840 -1.9623 -0.9194  0.2685
   96MPD2    H1 1499   0.445   1.942  16.090  2.4677 -0.0953  1.7721
   96MPD2    H2 1500   0.779   2.038  15.843 -0.6184 -1.4611 -1.2156
   96MPD2    H3 1501   0.677   1.888  16.007 -2.8528 -1.2051 -0.2660
   96MPD2     N 1502   0.307   2.146  16.025  0.4757 -0.0151 -0.2698
   96MPD2    H5 1503   0.279   2.101  16.112 -0.6848  0.0419 -0.6174
   96MPD2    N1 1504   0.679   2.251  15.729 -0.5484 -0.0461  0.7097
   96MPD2    H7 1505   0.769   2.211  15.707 -1.1327 -0.3384 -1.1210
   97TMC2    C1 1506   2.274   0.435   0.273  0.4410  0.2079  0.0030
   97TMC2    C2 1507   2.234   0.361   0.172 -0.6552 -0.5682 -0.2249
   97TMC2    C3 1508   2.261   0.394   0.038 -0.0030  0.1102 -0.7441
   97TMC2    C4 1509   2.330   0.559   0.250 -0.3398  0.0875 -0.0998
   97TMC2    C5 1510   2.340   0.600   0.121 -0.3157  0.9943 -0.2716
   97TMC2    C6 1511   2.316   0.518   0.011  0.2423  0.1133 -0.5323
   97TMC2     C 1512   2.230   0.406   0.403  1.0298 -0.5038 -0.8548
   97TMC2     O 1513   2.263   0.491   0.488 -0.2130  0.5550  0.2543
   97TMC2     H 1514   2.201   0.259   0.187 -1.6731 -0.2092 -0.0805
   97TMC2    H1 1515   2.374   0.611   0.334 -1.1378  0.2136  0.2414
   97TMC2    H2 1516   2.347   0.537  17.644  1.0080 -1.0547 -0.5124
   97TMC2    C7 1517   2.406   0.726   0.092  0.0633 -0.3986 -0.2951
   97TMC2    C8 1518   2.256   0.295  17.669  0.5516  0.3804 -0.0221
   97TMC2    O1 1519   2.484   0.772   0.177  0.3339  0.1812  0.5512
   97TMC2    O2 1520   2.313   0.305  17.562  0.5927  0.1670 -0.1995
   97TMC2    O5 1521   2.169   0.200  17.702  0.6467  0.1964  0.1494
   97TMC2    H5 1522   2.115   0.216   0.048  0.8383  0.3444  0.2504
   98MPD2     C 1523   1.876   0.245   0.742 -0.1572  0.0087 -0.3186
   98MPD2    C1 1524   1.953   0.356   0.738 -0.9123 -0.1948 -0.6360
   98MPD2    C2 1525   2.049   0.375   0.637  0.2849  0.6882 -0.6575
   98MPD2    C3 1526   2.065   0.285   0.535  0.1144  0.7248 -0.1276
   98MPD2    C4 1527   1.986   0.172   0.534 -0.3343 -0.6479 -0.5663
   98MPD2    C5 1528   1.894   0.153   0.639  0.5305 -0.3474 -0.2132
   98MPD2     H 1529   2.091   0.475   0.625  1.3269  0.0702 -2.1252
   98MPD2    H1 1530   2.015   0.099   0.459  1.3442 -0.2873 -0.2856
   98MPD2    H2 1531   1.809   0.220   0.824 -1.5932 -0.8154 -1.7357
   98MPD2    H3 1532   1.813   0.082   0.625  0.8243 -0.1430 -3.0316
   98MPD2     N 1533   2.151   0.298   0.419 -0.5336  0.3213 -0.2636
   98MPD2    H5 1534   2.139   0.229   0.346  0.2016  0.4434 -0.5055
   98MPD2    N1 1535   1.911   0.456   0.832 -0.7262  0.8821 -0.3747
   98MPD2    H7 1536   1.835   0.434   0.895 -0.2415  0.8722  0.1996
   99TMC2    C1 1537   1.205   2.361   1.863  0.2110 -0.0299 -0.1176
   99TMC2    C2 1538   1.263   2.326   1.981  0.6943  0.3080  0.3426
   99TMC2    C3 1539   1.227   2.217   2.051  0.1519  0.4422 -0.6494
   99TMC2    C4 1540   1.102   2.290   1.812 -0.0555 -0.6434 -0.4901
   99TMC2    C5 1541   1.065   2.176   1.882  0.3442  0.2781  0.6582
   99TMC2    C6 1542   1.126   2.142   2.000  0.3298 -0.5343 -0.1165
   99TMC2     C 1543   1.266   2.469   1.782 -0.1289 -0.0586  0.4591
   99TMC2     O 1544   1.305   2.562   1.849 -0.0274  0.1292 -0.0132
   99TMC2     H 1545   1.358   2.372   2.007  1.1731  0.3821 -1.5763
   99TMC2    H1 1546   1.049   2.336   1.730 -0.4023  0.5313  0.4003
   99TMC2    H2 1547   1.102   2.046   2.044 -0.1348 -0.3630  0.0049
   99TMC2    C7 1548   0.957   2.092   1.833  0.0877  0.1558  0.3319
   99TMC2    C8 1549   1.331   2.137   2.101 -0.1642  0.3866  0.8073
   99TMC2    O1 1550   0.922   2.003   1.911  0.1923 -0.3826 -0.5193
   99TMC2    O2 1551   1.443   2.145   2.051  0.1268 -0.1823 -0.3487
   99TMC2    O5 1552   1.292   2.065   2.208 -0.4243 -0.2013 -0.4410
   99TMC2    H5 1553   1.198   2.080   2.231 -0.1901 -0.9453  1.0010
  100MPD2     C 1554   1.370   2.659   1.577  0.3596  0.2414 -0.0787
  100MPD2    C1 1555   1.328   2.529   1.549  0.2117  0.4384 -0.7318
  100MPD2    C2 1556   1.341   2.482   1.421 -0.6562 -0.0419  0.2523
  100MPD2    C3 1557   1.393   2.562   1.319  0.9600  0.0900  0.6007
  100MPD2    C4 1558   1.439   2.689   1.351  0.1168  0.4331  0.3410
  100MPD2    C5 1559   1.429   2.739   1.479 -0.0839  0.0233  0.1346
  100MPD2     H 1560   1.300   2.384   1.402  1.5996 -1.1824  1.2952
  100MPD2    H1 1561   1.474   2.751   1.270 -1.5685 -2.0292 -2.2409
  100MPD2    H2 1562   1.379   2.700   1.677  2.3468 -0.7432  0.1424
  100MPD2    H3 1563   1.470   2.833   1.511 -0.5985 -0.6017  2.5875
  100MPD2     N 1564   1.400   2.507   1.193  0.8814 -0.5149  0.8015
  100MPD2    H5 1565   1.367   2.412   1.180 -0.2082 -0.1837  1.1482
  100MPD2    N1 1566   1.262   2.445   1.648 -0.3966  0.2834  0.1812
  100MPD2    H7 1567   1.221   2.359   1.615 -1.3106  1.3347 -1.4464
  101TMC2    C1 1568   2.162   3.457  13.541 -0.0819  0.0230 -0.3851
  101TMC2    C2 1569   2.297   3.450  13.502 -0.0794 -0.4986  0.4139
  101TMC2    C3 1570   2.360   3.569  13.473 -0.4527 -0.6430  0.6132
  101TMC2    C4 1571   2.098   3.576  13.556  0.4404  0.2609  0.2153
  101TMC2    C5 1572   2.160   3.688  13.514  0.8291  0.2715  0.4250
  101TMC2    C6 1573   2.292   3.687  13.471  0.4092  0.4977 -0.1837
  101TMC2     C 1574   2.085   3.338  13.541 -0.0662 -0.0389 -0.7478
  101TMC2     O 1575   1.989   3.345  13.612 -0.3496  0.3772 -0.4241
  101TMC2     H 1576   2.363   3.364  13.509  0.5798 -0.0212  0.0370
  101TMC2    H1 1577   1.998   3.576  13.597  0.7814 -0.0896  1.0449
  101TMC2    H2 1578   2.335   3.779  13.434 -1.3550  1.1474 -0.6334
  101TMC2    C7 1579   2.067   3.788  13.457  0.1434  0.6051  0.7818
  101TMC2    C8 1580   2.510   3.568  13.488 -0.1407 -0.8477 -0.6343
  101TMC2    O1 1581   1.950   3.776  13.489  0.0406 -0.5963 -0.1728
  101TMC2    O2 1582   2.577   3.470  13.511 -0.4427  0.5801  0.0409
  101TMC2    O5 1583   2.548   3.698  13.467  0.7174 -0.0681 -0.1857
  101TMC2    H5 1584   2.643   3.719  13.477  0.9633 -1.0283 -0.5213
  102MPD2     C 1585   2.186   3.006  13.423 -0.2205  0.7532  0.1466
  102MPD2    C1 1586   2.097   3.095  13.475 -0.0521  0.3548  0.2096
  102MPD2    C2 1587   1.974   3.054  13.517 -0.2670 -0.8331  0.5878
  102MPD2    C3 1588   1.928   2.930  13.505  0.0953  0.1097 -0.0260
  102MPD2    C4 1589   2.001   2.837  13.436  0.5932 -0.1425 -0.1239
  102MPD2    C5 1590   2.133   2.883  13.392 -0.2456  0.4427 -0.7057
  102MPD2     H 1591   1.915   3.132  13.565  1.5289  0.1982  1.1268
  102MPD2    H1 1592   1.956   2.745  13.402  1.5295 -0.3280 -0.8809
  102MPD2    H2 1593   2.287   3.029  13.393 -0.6520  0.1855 -1.7158
  102MPD2    H3 1594   2.189   2.819  13.325  0.2847 -1.0664  1.1597
  102MPD2     N 1595   1.797   2.895  13.532 -0.2600 -0.0429 -0.2669
  102MPD2    H5 1596   1.772   2.802  13.500 -1.1406 -0.8116  2.6439
  102MPD2    N1 1597   2.146   3.227  13.487 -0.1604  0.2081  0.8316
  102MPD2    H7 1598   2.228   3.252  13.433 -0.2734  0.1038  0.6100
  103TMC2    C1 1599   0.291   3.063  12.279 -0.3573  0.0072  0.7949
  103TMC2    C2 1600   0.418   3.076  12.226  0.7231  0.1835  0.2295
  103TMC2    C3 1601   0.492   3.183  12.273 -0.2188  0.5836 -0.3082
  103TMC2    C4 1602   0.237   3.151  12.366  0.9619 -0.2299  0.8433
  103TMC2    C5 1603   0.316   3.260  12.403 -0.4974 -0.5747  0.7831
  103TMC2    C6 1604   0.446   3.277  12.358 -0.1575 -0.2213  0.3881
  103TMC2     C 1605   0.201   2.985  12.209 -0.5591  1.2605  0.3063
  103TMC2     O 1606   0.084   3.023  12.206  0.2085 -0.0058  0.0466
  103TMC2     H 1607   0.468   3.003  12.163 -1.5583 -1.9625  0.8838
  103TMC2    H1 1608   0.138   3.122  12.400  1.8238 -1.8494  1.9591
  103TMC2    H2 1609   0.514   3.358  12.384  0.2062 -0.8820  1.4784
  103TMC2    C7 1610   0.240   3.365  12.465  0.2378 -0.3793 -0.4750
  103TMC2    C8 1611   0.610   3.211  12.198  0.2041  0.1893  0.0933
  103TMC2    O1 1612   0.132   3.336  12.519  0.3153 -0.6664 -0.2734
  103TMC2    O2 1613   0.666   3.113  12.146  0.5640  0.7138 -0.5859
  103TMC2    O5 1614   0.564   3.312  12.124 -0.1758 -0.4135  0.4714
  103TMC2    H5 1615   0.509   3.379  12.169  1.1722  2.1100 -1.5799
  104MPD2     C 1616   0.271   2.679  12.025 -0.9398  0.0713  0.6557
  104MPD2    C1 1617   0.200   2.796  12.056 -0.2699 -0.5944  0.3091
  104MPD2    C2 1618   0.073   2.807  12.010 -0.1056  0.0678 -0.3101
  104MPD2    C3 1619   0.002   2.711  11.946  0.5278 -1.4566  0.7970
  104MPD2    C4 1620   0.075   2.597  11.903 -0.0154 -0.0070 -0.2779
  104MPD2    C5 1621   0.202   2.587  11.947 -0.4299 -0.2843 -0.1553
  104MPD2     H 1622   0.011   2.882  12.059  0.8606  1.1452 -0.7292
  104MPD2    H1 1623   0.024   2.514  11.855 -1.2190  0.2174  0.5960
  104MPD2    H2 1624   0.363   2.646  12.072 -1.9183 -2.4996  0.7646
  104MPD2    H3 1625   0.248   2.494  11.914  0.2831 -0.0995  0.3214
  104MPD2     N 1626   4.591   2.727  11.934 -0.5822 -0.1220  0.1446
  104MPD2    H5 1627   4.553   2.812  11.976 -0.1524  1.3574 -2.4489
  104MPD2    N1 1628   0.266   2.884  12.140 -0.3233  0.1460  0.1682
  104MPD2    H7 1629   0.358   2.862  12.176  0.9232  0.9876 -2.5356
  105TMC2    C1 1630   1.321   2.896  17.599 -0.1049 -0.2283 -0.1939
  105TMC2    C2 1631   1.335   3.023  17.654  0.4272 -0.1134  0.8351
  105TMC2    C3 1632   1.253   3.060   0.023  0.1493  0.0121 -0.1629
  105TMC2    C4 1633   1.236   2.803  17.663  0.4927 -0.8728 -0.1471
  105TMC2    C5 1634   1.157   2.842   0.037  0.6867  0.3936 -0.0999
  105TMC2    C6 1635   1.165   2.972   0.075 -0.1984  0.4328 -0.6162
  105TMC2     C 1636   1.421   2.849  17.506 -0.5127  0.3994 -0.2875
  105TMC2     O 1637   1.398   2.746  17.446  0.0788  0.4624  0.4857
  105TMC2     H 1638   1.388   3.098  17.596 -1.4434  0.0041 -0.7426
  105TMC2    H1 1639   1.234   2.704  17.619  1.6173 -0.9612 -0.0029
  105TMC2    H2 1640   1.092   3.021   0.138  0.5032 -0.1745  0.6674
  105TMC2    C7 1641   1.071   2.740   0.096 -0.4608  0.9240 -1.0664
  105TMC2    C8 1642   1.241   3.196   0.056 -0.1103  0.2389 -0.4308
  105TMC2    O1 1643   1.103   2.623   0.074 -0.6553  0.1518  0.3663
  105TMC2    O2 1644   1.139   3.246   0.100  0.1395  0.2149  0.0272
  105TMC2    O5 1645   1.368   3.243   0.072  0.0443 -0.0333 -0.1310
  105TMC2    H5 1646   1.445   3.185   0.055  0.3330 -0.3274  2.1826
  106MPD2     C 1647   1.927   2.837  17.381 -0.5723 -0.3857 -0.7554
  106MPD2    C1 1648   1.818   2.778  17.316  0.5564 -0.5030  0.6653
  106MPD2    C2 1649   1.693   2.790  17.369  0.4065  0.2520 -0.0222
  106MPD2    C3 1650   1.674   2.868  17.490 -0.4492  0.8010 -0.8140
  106MPD2    C4 1651   1.783   2.935  17.541 -0.1351  0.5666 -0.0337
  106MPD2    C5 1652   1.909   2.908  17.491 -1.2869  0.0588 -0.0667
  106MPD2     H 1653   1.615   2.741  17.313  0.0666 -0.3836  1.0025
  106MPD2    H1 1654   1.778   3.022  17.605  2.5614  0.2555  0.5711
  106MPD2    H2 1655   2.033   2.828  17.365 -0.5933  0.8787 -1.6253
  106MPD2    H3 1656   1.977   2.980  17.535 -2.5883  0.3292  1.4929
  106MPD2     N 1657   1.546   2.902  17.541 -0.0503  0.2117  0.6285
  106MPD2    H5 1658   1.548   2.977  17.609  0.9162  2.7379 -2.1982
  106MPD2    N1 1659   1.829   2.711  17.192 -0.2962 -0.6075 -0.1999
  106MPD2    H7 1660   1.749   2.661  17.153 -0.1868  1.1700 -2.7547
  107TMC2    C1 1661   1.865   2.557  11.327  0.2826 -0.0215 -0.4006
  107TMC2    C2 1662   1.864   2.689  11.364  0.0565  0.8320  0.0714
  107TMC2    C3 1663   1.927   2.781  11.282 -0.0623 -0.1876  1.0183
  107TMC2    C4 1664   1.938   2.512  11.221  0.3438  0.0426 -0.4028
  107TMC2    C5 1665   1.995   2.607  11.135  0.2035 -0.0207  0.0237
  107TMC2    C6 1666   1.982   2.739  11.162  0.2054 -0.3932  0.3822
  107TMC2     C 1667   1.776   2.476  11.403 -0.5481  0.3791 -0.0605
  107TMC2     O 1668   1.740   2.520  11.510  0.8591  0.2324 -0.1605
  107TMC2     H 1669   1.809   2.726  11.450  0.8827  0.6996  0.6497
  107TMC2    H1 1670   1.968   2.408  11.213  1.6046  0.3794 -0.1532
  107TMC2    H2 1671   2.014   2.817  11.094 -1.3897 -2.4446 -2.6795
  107TMC2    C7 1672   2.058   2.564  11.011 -0.4102  0.1342  0.8168
  107TMC2    C8 1673   1.899   2.920  11.307 -0.2286  0.2470 -0.2220
  107TMC2    O1 1674   2.122   2.646  10.947 -0.5245 -0.2171 -0.3016
  107TMC2    O2 1675   1.790   2.969  11.334 -0.2581 -0.2005  0.0123
  107TMC2    O5 1676   2.001   2.991  11.247  0.1645  0.1279  0.0913
  107TMC2    H5 1677   2.077   2.929  11.238 -1.1626 -1.6804  1.1155
  108MPD2     C 1678   1.585   2.178  11.320 -0.4103  0.3161  0.5505
  108MPD2    C1 1679   1.649   2.259  11.411 -0.3217  0.4207 -0.4994
  108MPD2    C2 1680   1.619   2.257  11.543  0.2626 -0.1842 -0.4626
  108MPD2    C3 1681   1.518   2.173  11.589  0.1082  0.2169 -0.3456
  108MPD2    C4 1682   1.452   2.098  11.499  0.3787 -0.1651 -0.2055
  108MPD2    C5 1683   1.484   2.103  11.368 -0.6113  0.5637  0.6164
  108MPD2     H 1684   1.666   2.331  11.606  0.7473 -1.4163  0.6233
  108MPD2    H1 1685   1.372   2.030  11.523 -0.3042  0.1173 -1.6553
  108MPD2    H2 1686   1.595   2.186  11.213  1.8489 -1.8979  0.6094
  108MPD2    H3 1687   1.436   2.035  11.297 -1.7986 -0.1684  2.1215
  108MPD2     N 1688   1.460   2.179  11.717 -0.4351 -0.2251  0.4398
  108MPD2    H5 1689   1.362   2.154  11.719 -0.0673 -1.6888  0.6872
  108MPD2    N1 1690   1.738   2.355  11.352  0.2933 -0.0477  0.4017
  108MPD2    H7 1691   1.768   2.338  11.257 -3.0174 -0.0985 -0.6421
  109TMC2    C1 1692   1.082   0.381   1.691 -0.3421  0.5120 -0.7403
  109TMC2    C2 1693   1.027   0.475   1.775 -0.4835 -0.6092  0.1557
  109TMC2    C3 1694   1.113   0.567   1.824 -0.0709  0.3634  0.8516
  109TMC2    C4 1695   1.214   0.385   1.646 -0.4669 -0.5671  0.3482
  109TMC2    C5 1696   1.290   0.476   1.707 -0.2358 -0.2606 -0.4006
  109TMC2    C6 1697   1.245   0.566   1.798 -1.0488  1.1127 -0.3483
  109TMC2     C 1698   0.998   0.269   1.645 -0.1975  0.4820 -0.6284
  109TMC2     O 1699   0.878   0.279   1.656  0.5399  0.0213 -0.6453
  109TMC2     H 1700   0.922   0.463   1.796 -1.0409 -1.7449 -3.2019
  109TMC2    H1 1701   1.260   0.325   1.568 -1.0192 -1.7708  0.9458
  109TMC2    H2 1702   1.312   0.641   1.839 -0.7577  0.8766 -0.3947
  109TMC2    C7 1703   1.423   0.507   1.644  0.1099  0.5217 -0.9434
  109TMC2    C8 1704   1.073   0.657   1.931 -1.0225 -0.1375  0.3882
  109TMC2    O1 1705   1.439   0.460   1.528  0.7173 -0.3352  0.2639
  109TMC2    O2 1706   1.159   0.709   2.005  0.2681 -0.7209 -0.5950
  109TMC2    O5 1707   0.943   0.692   1.913 -0.8454 -0.2149 -0.3436
  109TMC2    H5 1708   0.912   0.676   1.821 -1.0725 -2.4259  0.1147
  110MPD2     C 1709   0.965   4.565   1.388 -0.1439 -0.4777 -0.1668
  110MPD2    C1 1710   1.098   4.614   1.385  0.1893 -1.0657 -0.2951
  110MPD2    C2 1711   1.131   4.716   1.472 -0.2553 -0.1999 -0.6296
  110MPD2    C3 1712   1.029   0.047   1.546 -0.2765  0.3375  0.4592
  110MPD2    C4 1713   0.903   0.006   1.540 -0.6081  0.2232 -0.5647
  110MPD2    C5 1714   0.871   4.624   1.472  0.3983 -0.3684  0.6454
  110MPD2     H 1715   1.234   0.010   1.488 -0.1820 -0.4059 -0.7347
  110MPD2    H1 1716   0.827   0.047   1.606  2.8478  2.6013  1.8812
  110MPD2    H2 1717   0.934   4.476   1.336 -1.1123  0.1713 -0.7086
  110MPD2    H3 1718   0.768   4.594   1.484  0.2619  0.0546  0.5357
  110MPD2     N 1719   1.076   0.165   1.603 -0.4494 -0.1906  0.3550
  110MPD2    H5 1720   1.176   0.186   1.605 -0.4925  0.3188 -2.4930
  110MPD2    N1 1721   1.190   4.547   1.306  0.3659  0.3229 -0.2381
  110MPD2    H7 1722   1.169   4.451   1.282 -0.2705  0.8495 -1.7905
  111TMC2    C1 1723   1.154   4.129  12.300  0.4223  0.5059  0.3008
  111TMC2    C2 1724   1.103   4.185  12.413  0.5514  0.4683 -0.3337
  111TMC2    C3 1725   1.126   4.121  12.525 -0.3750  0.1594 -0.3072
  111TMC2    C4 1726   1.201   3.997  12.287  0.2796 -0.0244  0.5044
  111TMC2    C5 1727   1.215   3.930  12.406 -0.0986 -0.5086 -0.5761
  111TMC2    C6 1728   1.187   3.994  12.527  0.1113 -0.0084 -0.1332
  111TMC2     C 1729   1.168   4.212  12.186  0.5283 -0.1606 -0.4650
  111TMC2     O 1730   1.169   4.156  12.073  0.2309  0.7943 -0.0835
  111TMC2     H 1731   1.047   4.278  12.422  1.3826  0.8554  0.8810
  111TMC2    H1 1732   1.227   3.961  12.188 -0.7154  1.3072 -0.2482
  111TMC2    H2 1733   1.201   3.948  12.624 -1.2686 -1.2544 -0.5294
  111TMC2    C7 1734   1.339   3.847  12.407 -0.6434 -0.7687 -0.4640
  111TMC2    C8 1735   1.095   4.186  12.646  0.4121 -0.5381 -0.1877
  111TMC2    O1 1736   1.396   3.840  12.514  0.1648  0.0901 -0.4898
  111TMC2    O2 1737   1.004   4.264  12.662  0.2823  0.2376 -0.3981
  111TMC2    O5 1738   1.213   4.187  12.710  0.9376  0.3819 -0.6831
  111TMC2    H5 1739   1.290   4.139  12.673  1.4489 -0.3176  1.2554
  112MPD2     C 1740   1.323   4.656  11.968  0.2294  0.4958  0.3907
  112MPD2    C1 1741   1.308   4.528  11.914 -0.0959  0.7160  0.7819
  112MPD2    C2 1742   1.267   4.423  11.988 -0.0171  0.4858 -0.0055
  112MPD2    C3 1743   1.242   4.444  12.122 -0.3815  0.4735  0.0467
  112MPD2    C4 1744   1.263   4.568  12.175  0.1134  0.4193 -0.3181
  112MPD2    C5 1745   1.296   4.674  12.100  1.0157 -0.4198  0.3775
  112MPD2     H 1746   1.238   4.334  11.932  0.5093  0.0625  0.3911
  112MPD2    H1 1747   1.241   4.587  12.279  0.8815  0.4153 -0.1538
  112MPD2    H2 1748   1.352   0.003  11.902 -2.4019 -0.3290 -1.7668
  112MPD2    H3 1749   1.300   0.041  12.140 -1.3341 -0.4780  0.7385
  112MPD2     N 1750   1.202   4.347  12.217 -0.4870  0.3267 -0.1859
  112MPD2    H5 1751   1.193   4.383  12.311 -0.4124 -0.6930  0.2140
  112MPD2    N1 1752   1.333   4.505  11.777  0.1804  0.2857 -0.3914
  112MPD2    H7 1753   1.330   4.407  11.750  0.0046  0.2968 -0.4105
  113TMC2    C1 1754   4.539   1.719  17.592 -0.1315 -0.7679 -0.1730
  113TMC2    C2 1755   4.517   1.804  17.484 -0.0060  0.4836 -0.2788
  113TMC2    C3 1756   4.531   1.742  17.361  0.1940 -0.2655  0.0374
  113TMC2    C4 1757   4.552   1.582  17.584  0.0926 -0.4789  0.1623
  113TMC2    C5 1758   4.532   1.532  17.462  0.0395 -0.5016 -0.3491
  113TMC2    C6 1759   4.528   1.610  17.356 -0.0451 -0.4384 -0.4507
  113TMC2     C 1760   4.561   1.785  17.723 -0.4478 -0.1140 -0.2113
  113TMC2     O 1761   4.522   1.899  17.735  0.1199  0.3494  0.3281
  113TMC2     H 1762   4.517   1.912  17.499 -1.1959  0.3534  0.5986
  113TMC2    H1 1763   4.571   1.516  17.668 -0.4856 -1.4575 -0.4759
  113TMC2    H2 1764   4.517   1.563  17.258 -2.5239  1.6499 -1.1714
  113TMC2    C7 1765   4.467   1.395  17.448 -0.2346 -0.6067 -0.0239
  113TMC2    C8 1766   4.566   1.816  17.241 -0.1435  0.7677  0.5785
  113TMC2    O1 1767   4.428   1.368  17.340 -0.4350  0.4322  0.7117
  113TMC2    O2 1768   4.565   1.937  17.225 -0.8501  0.1647 -0.0723
  113TMC2    O5 1769   4.644   1.732  17.161 -0.1940 -0.1919  0.3099
  113TMC2    H5 1770   4.676   1.646  17.196 -1.0526 -0.3288  0.7688
  114MPD2     C 1771   0.115   1.868   0.412 -0.1224 -0.0067  0.2283
  114MPD2    C1 1772   4.732   1.928   0.367 -0.5292 -0.0759  0.5194
  114MPD2    C2 1773   4.668   1.883   0.253  0.1639 -0.6176  0.7566
  114MPD2    C3 1774   4.728   1.786   0.175  0.0034  0.6475 -0.5220
  114MPD2    C4 1775   0.109   1.724   0.220 -0.4479  0.4161  0.3895
  114MPD2    C5 1776   0.170   1.768   0.335 -0.2409 -0.0630 -0.3031
  114MPD2     H 1777   4.580   1.938   0.222  0.7771 -0.6182 -0.9519
  114MPD2    H1 1778   0.149   1.638   0.168  2.6892  1.2410  1.4637
  114MPD2    H2 1779   0.169   1.893   0.503 -1.5574  0.8172  0.8696
  114MPD2    H3 1780   0.265   1.724   0.364  0.0669 -0.6130 -2.1791
  114MPD2     N 1781   4.669   1.731   0.058 -0.0942  0.4188  0.0920
  114MPD2    H5 1782   4.715   1.651   0.015 -0.1131 -0.1339  1.0909
  114MPD2    N1 1783   4.672   2.041   0.437  0.5015 -0.6889 -0.8304
  114MPD2    H7 1784   4.585   2.074   0.396 -0.8239  0.6607  3.0765
  115TMC2    C1 1785   1.135   4.326   0.028 -0.8800 -0.3411 -0.8182
  115TMC2    C2 1786   1.173   4.304   0.159 -0.8228 -0.2512  0.4711
  115TMC2    C3 1787   1.215   4.410   0.235  0.1006 -0.2980  0.5826
  115TMC2    C4 1788   1.138   4.446  17.700 -0.1481 -0.7124  0.5155
  115TMC2    C5 1789   1.161   4.554   0.056  0.6021  0.1221 -0.6215
  115TMC2    C6 1790   1.205   4.543   0.185 -0.3386 -1.0657  0.2137
  115TMC2     C 1791   1.062   4.220  17.692  0.1990  0.2485 -0.2400
  115TMC2     O 1792   1.058   4.222  17.567 -0.2667 -0.0816  0.2813
  115TMC2     H 1793   1.177   4.201   0.193 -1.7760  0.2173  2.0175
  115TMC2    H1 1794   1.102   4.464  17.600 -0.3524  1.8442  1.0482
  115TMC2    H2 1795   1.225   4.627   0.251  0.5525  1.3905 -3.2016
  115TMC2    C7 1796   1.119   4.684   0.022  0.0317  0.0692  0.1269
  115TMC2    C8 1797   1.278   4.386   0.360  0.0356 -0.3669 -0.1131
  115TMC2    O1 1798   1.084   0.027   0.115  0.4182  0.6094 -0.7882
  115TMC2    O2 1799   1.266   4.275   0.416 -0.4222  0.5263 -0.4903
  115TMC2    O5 1800   1.378   4.471   0.381 -0.0037 -0.0561 -0.0042
  115TMC2    H5 1801   1.393   4.530   0.304  1.4527  0.8930  1.0212
  116MPD2     C 1802   0.713   3.835  17.678  0.2076 -0.3891  0.1668
  116MPD2    C1 1803   0.794   3.883  17.578  0.8058 -0.6815 -0.3452
  116MPD2    C2 1804   0.892   3.982  17.604  0.4347 -0.0811  0.1024
  116MPD2    C3 1805   0.896   4.034   0.001  0.6348  0.1636  0.0302
  116MPD2    C4 1806   0.811   3.982   0.095 -0.1269  0.4198  0.0990
  116MPD2    C5 1807   0.723   3.883   0.067  0.2915  0.7336 -0.0498
  116MPD2     H 1808   0.952   4.028  17.526 -0.7641  1.2177 -0.0398
  116MPD2    H1 1809   0.805   4.028   0.193 -1.0902  1.1174 -0.2861
  116MPD2    H2 1810   0.639   3.757  17.666  0.7387 -0.5823 -1.8472
  116MPD2    H3 1811   0.653   3.837   0.135 -2.2366  1.2430 -2.3083
  116MPD2     N 1812   0.984   4.140   0.045 -0.4095 -0.0952 -0.3060
  116MPD2    H5 1813   0.972   4.170   0.141  1.1291  2.4720 -0.9152
  116MPD2    N1 1814   0.787   3.836  17.439  0.3124  0.2357  0.3807
  116MPD2    H7 1815   0.866   3.855  17.379  1.0573  1.7391  1.8557
  117TMC2    C1 1816   3.961   1.373  14.139 -0.6957  1.0939 -0.0285
  117TMC2    C2 1817   4.021   1.250  14.116 -0.0215 -0.1837 -0.1017
  117TMC2    C3 1818   4.141   1.243  14.049  0.1926 -0.0279 -0.2755
  117TMC2    C4 1819   4.014   1.486  14.085  0.5505  0.4022  0.2131
  117TMC2    C5 1820   4.138   1.479  14.026 -0.1026 -0.5996 -0.5127
  117TMC2    C6 1821   4.199   1.355  14.002  0.5042  0.5328 -0.1441
  117TMC2     C 1822   3.816   1.366  14.160 -0.0259  0.4815 -0.6880
  117TMC2     O 1823   3.771   1.252  14.146  0.5280 -0.0517 -0.1659
  117TMC2     H 1824   3.986   1.161  14.168  3.4840 -1.7278 -0.3469
  117TMC2    H1 1825   3.967   1.582  14.098 -1.4723 -0.8488  2.2768
  117TMC2    H2 1826   4.306   1.351  13.985  0.4938 -1.3891  0.2109
  117TMC2    C7 1827   4.224   1.589  14.008  0.1121  0.3414  0.1601
  117TMC2    C8 1828   4.213   1.121  14.037  0.0928 -0.0662  0.1668
  117TMC2    O1 1829   4.341   1.570  13.985 -0.2408 -0.2749  0.2445
  117TMC2    O2 1830   4.269   1.099  13.933  0.5945  0.0426  0.2967
  117TMC2    O5 1831   4.258   1.105  14.163 -0.4515  0.1305 -1.0544
  117TMC2    H5 1832   4.206   1.162  14.224 -0.9127 -2.1889  0.7078
  118MPD2     C 1833   4.142   1.947  14.016 -0.5209  0.3329  0.2064
  118MPD2    C1 1834   4.231   1.842  14.012  0.0751  0.5683  0.1302
  118MPD2    C2 1835   4.367   1.860  13.997 -0.1616 -0.0100  0.2204
  118MPD2    C3 1836   4.407   1.996  13.992  0.7482 -0.1231 -0.5859
  118MPD2    C4 1837   4.314   2.095  14.008 -0.2158  0.2771 -0.4273
  118MPD2    C5 1838   4.182   2.074  14.020  0.6078  0.7243  0.0257
  118MPD2     H 1839   4.439   1.778  13.996  0.3633  0.4561 -0.5056
  118MPD2    H1 1840   4.338   2.199  13.987  1.9993 -0.1512 -0.0415
  118MPD2    H2 1841   4.033   1.941  14.012 -0.6044  2.5477 -0.3725
  118MPD2    H3 1842   4.124   2.165  14.011  1.5972  1.3574  0.0541
  118MPD2     N 1843   4.544   2.034  13.982 -0.0786  0.1012  0.4790
  118MPD2    H5 1844   4.562   2.134  13.992  1.0468  0.1328 -1.8231
  118MPD2    N1 1845   4.164   1.713  14.034  0.3144 -0.4398  0.1064
  118MPD2    H7 1846   4.066   1.725  14.057  0.3163 -2.3155  1.1308
  119TMC2    C1 1847   2.723   2.741  13.633 -0.0716 -0.0395  0.1363
  119TMC2    C2 1848   2.846   2.680  13.587 -0.3396 -0.3277 -0.1568
  119TMC2    C3 1849   2.845   2.605  13.475 -0.5420  0.6248  0.6028
  119TMC2    C4 1850   2.608   2.720  13.565 -0.1174  0.5423  0.0818
  119TMC2    C5 1851   2.611   2.627  13.463  0.3033 -0.3253  0.1501
  119TMC2    C6 1852   2.729   2.574  13.418  0.2264  0.1019 -0.3700
  119TMC2     C 1853   2.723   2.810  13.764  0.0800  0.2375 -0.7417
  119TMC2     O 1854   2.618   2.846  13.815  0.4509 -0.2553 -0.4260
  119TMC2     H 1855   2.942   2.706  13.630 -0.6960  1.2871 -0.3366
  119TMC2    H1 1856   2.515   2.770  13.589 -0.4741  0.2582 -0.7057
  119TMC2    H2 1857   2.735   2.508  13.332  0.0007  0.0215 -0.3227
  119TMC2    C7 1858   2.486   2.563  13.417  0.1209  0.6856 -0.0093
  119TMC2    C8 1859   2.964   2.537  13.435 -0.7750 -0.0907 -0.4939
  119TMC2    O1 1860   2.494   2.522  13.304 -0.8233 -0.3145 -0.0594
  119TMC2    O2 1861   3.042   2.525  13.531  0.4384  0.2127 -0.7852
  119TMC2    O5 1862   3.000   2.615  13.326  1.0290 -0.1219  0.2666
  119TMC2    H5 1863   2.930   2.673  13.290  0.0331 -0.1380  2.1658
  120MPD2     C 1864   2.959   3.001  14.197  0.3108  0.6575  0.4358
  120MPD2    C1 1865   2.824   3.007  14.151  0.6432 -0.3826 -0.1569
  120MPD2    C2 1866   2.786   2.960  14.024 -0.2563  0.7877  0.0077
  120MPD2    C3 1867   2.883   2.888  13.950 -0.3926  0.5763 -0.2321
  120MPD2    C4 1868   3.009   2.875  14.002 -0.0615 -0.3605 -0.5652
  120MPD2    C5 1869   3.050   2.934  14.119  0.7539  0.6199 -0.0847
  120MPD2     H 1870   2.683   2.970  13.992 -0.0541  3.5666  0.2640
  120MPD2    H1 1871   3.079   2.816  13.943 -1.1016  0.2008 -2.3428
  120MPD2    H2 1872   2.992   3.045  14.291  0.5984  0.0019  0.6415
  120MPD2    H3 1873   3.153   2.920  14.150  1.2357  3.6713 -0.3188
  120MPD2     N 1874   2.850   2.817  13.826 -0.1513 -0.0278 -0.1969
  120MPD2    H5 1875   2.931   2.773  13.784  0.6229 -0.5262  1.7819
  120MPD2    N1 1876   2.727   3.070  14.235 -0.2972  0.4452  0.8290
  120MPD2    H7 1877   2.764   3.112  14.319  1.2238  0.5785  0.0844
  121TMC2    C1 1878   3.919   4.258  13.926  0.6153  0.3984 -0.2249
  121TMC2    C2 1879   3.980   4.181  14.021 -0.0768  0.4017  0.3908
  121TMC2    C3 1880   3.910   4.083  14.090  0.1476  0.0231  0.3532
  121TMC2    C4 1881   3.791   4.244  13.902  0.4598  0.4226  0.6995
  121TMC2    C5 1882   3.717   4.143  13.968  0.6600 -0.5885  0.8212
  121TMC2    C6 1883   3.779   4.063  14.062  0.1896  0.6905 -0.0959
  121TMC2     C 1884   3.963   4.395  13.918  0.6224  0.3882  0.8829
  121TMC2     O 1885   4.025   4.438  14.016 -0.5485 -0.4565  0.2751
  121TMC2     H 1886   4.083   4.212  14.036 -0.0845  1.1531 -1.1167
  121TMC2    H1 1887   3.743   4.298  13.822  2.4429  0.6925 -0.3168
  121TMC2    H2 1888   3.718   3.979  14.094  2.1334 -1.2195 -1.3944
  121TMC2    C7 1889   3.605   4.105  13.895  0.0817  0.3292 -0.8529
  121TMC2    C8 1890   3.989   3.992  14.175  0.5750 -0.1239 -0.0887
  121TMC2    O1 1891   3.590   3.987  13.868  0.0574 -0.0710  0.1307
  121TMC2    O2 1892   4.108   3.966  14.151 -0.1746  0.1038  0.3289
  121TMC2    O5 1893   3.919   3.958  14.285 -0.3124  0.1214  0.3135
  121TMC2    H5 1894   3.829   3.996  14.299  0.4369  2.5154 -1.4509
  122MPD2     C 1895   3.980   4.681  13.843  1.0183 -0.4264 -0.3100
  122MPD2    C1 1896   3.978   4.574  13.752 -0.7055  0.1291 -0.4283
  122MPD2    C2 1897   3.987   4.605  13.617 -0.7625  0.4898 -0.3934
  122MPD2    C3 1898   3.985   4.733  13.566 -0.1606 -0.9038 -0.0645
  122MPD2    C4 1899   3.982   0.106  13.653 -0.2841 -0.7194 -0.5866
  122MPD2    C5 1900   4.001   0.072  13.790 -0.0590 -0.7302 -0.0619
  122MPD2     H 1901   3.990   4.517  13.554  2.8703  0.1612  0.2333
  122MPD2    H1 1902   3.992   0.209  13.623  0.8725 -1.0087 -1.1959
  122MPD2    H2 1903   3.972   4.676  13.950 -2.0294 -0.4675 -0.5536
  122MPD2    H3 1904   4.019   0.153  13.860 -0.9450 -0.0764 -0.5884
  122MPD2     N 1905   3.987   0.034  13.426  0.4054 -0.2407 -0.3171
  122MPD2    H5 1906   4.001   0.134  13.413 -2.1820  0.6184  3.6222
  122MPD2    N1 1907   3.953   4.441  13.790 -0.1531  0.3202 -0.5364
  122MPD2    H7 1908   3.922   4.375  13.719 -3.1097  2.5355 -1.3338
  123TMC2    C1 1909   2.953   2.335  10.122 -0.4210  0.1549 -0.5227
  123TMC2    C2 1910   3.045   2.398  10.041  0.1328 -0.8807  0.1684
  123TMC2    C3 1911   3.154   2.335   9.987  0.2609 -0.3329  0.6065
  123TMC2    C4 1912   2.978   2.204  10.144 -0.1594 -0.0998 -0.1967
  123TMC2    C5 1913   3.088   2.142  10.096  0.7503  0.1909  0.6733
  123TMC2    C6 1914   3.180   2.200  10.006  0.2406 -0.6363  0.7944
  123TMC2     C 1915   2.832   2.404  10.158 -0.1849 -0.2850 -0.3865
  123TMC2     O 1916   2.829   2.523  10.141  0.5363  0.6417  0.3951
  123TMC2     H 1917   3.023   2.499  10.008 -2.5445 -0.6669  2.6573
  123TMC2    H1 1918   2.915   2.154  10.217  2.8221  0.8123  2.9782
  123TMC2    H2 1919   3.263   2.150   9.957 -1.0169 -1.2990 -0.6279
  123TMC2    C7 1920   3.078   1.995  10.099  0.0920  0.5421 -0.2104
  123TMC2    C8 1921   3.252   2.406   9.905  0.1786  0.3247  0.0633
  123TMC2    O1 1922   2.965   1.947  10.096 -0.2370 -0.1779 -0.3647
  123TMC2    O2 1923   3.363   2.360   9.884  0.6028 -0.3284  0.4957
  123TMC2    O5 1924   3.186   2.480   9.816  0.6263 -0.1508 -0.0612
  123TMC2    H5 1925   3.089   2.484   9.827  0.4816 -0.8429 -1.1321
  124MPD2     C 1926   2.335   2.443  10.272  0.0699 -0.2255 -0.1165
  124MPD2    C1 1927   2.379   2.307  10.282 -0.4830 -0.6344  0.0342
  124MPD2    C2 1928   2.505   2.270  10.267 -0.8142  0.2500 -0.0726
  124MPD2    C3 1929   2.598   2.364  10.230 -0.2844 -0.0150 -0.0366
  124MPD2    C4 1930   2.558   2.498  10.216 -0.3822  0.2139  0.3085
  124MPD2    C5 1931   2.430   2.528  10.243 -0.0484 -0.0405  0.4371
  124MPD2     H 1932   2.537   2.168  10.285  2.4386  1.0876 -1.2499
  124MPD2    H1 1933   2.620   2.584  10.195  1.1436 -0.6301  1.3747
  124MPD2    H2 1934   2.229   2.461  10.283 -0.0264 -0.9080  0.0724
  124MPD2    H3 1935   2.397   2.631  10.234 -1.1921 -0.4383  0.0718
  124MPD2     N 1936   2.728   2.319  10.191  0.4502  0.2437 -0.0589
  124MPD2    H5 1937   2.746   2.219  10.197  1.5324  0.4993  0.9247
  124MPD2    N1 1938   2.268   2.217  10.297 -0.4494 -0.6575  0.3238
  124MPD2    H7 1939   2.179   2.261  10.318 -0.2658 -0.5154  0.8128
  125TMC2    C1 1940   2.704   0.100  10.261 -0.1508 -0.0377  0.1103
  125TMC2    C2 1941   2.738   0.209  10.182 -0.4848 -0.2654 -0.3933
  125TMC2    C3 1942   2.763   0.188  10.051 -0.4026  0.9545  0.4202
  125TMC2    C4 1943   2.697   4.710  10.209  0.1973 -0.0628  0.3162
  125TMC2    C5 1944   2.718   4.701  10.077 -1.0335 -0.4368 -0.2698
  125TMC2    C6 1945   2.755   0.066   9.994  0.2407 -0.1068 -0.5497
  125TMC2     C 1946   2.651   0.121  10.395 -0.3669 -1.0644 -0.4543
  125TMC2     O 1947   2.629   0.235  10.430 -0.1849 -0.0924 -0.0445
  125TMC2     H 1948   2.760   0.308  10.221 -1.0086 -0.8289  1.3165
  125TMC2    H1 1949   2.646   4.624  10.250 -1.1557 -0.3392 -1.8906
  125TMC2    H2 1950   2.754   0.064   9.885  0.4997  1.8280 -0.5847
  125TMC2    C7 1951   2.720   4.566  10.018  0.0763  0.9572  0.1446
  125TMC2    C8 1952   2.802   0.299   9.967  0.2651  0.5912 -0.4547
  125TMC2    O1 1953   2.641   4.482  10.062  0.1262 -0.2207 -0.0739
  125TMC2    O2 1954   2.762   0.412   9.992 -0.0533 -0.2580 -0.0142
  125TMC2    O5 1955   2.882   0.260   9.863 -0.4173  0.1104  0.0509
  125TMC2    H5 1956   2.920   0.169   9.865 -1.4434 -0.3205 -0.3631
  126MPD1     C 1957   2.562   4.721  10.887 -0.5560  0.3294  0.2048
  126MPD1    C1 1958   2.611   4.605  10.827 -0.2738 -0.1103  0.3214
  126MPD1    C2 1959   2.635   4.613  10.684  0.7890 -0.6457  0.4308
  126MPD1    C3 1960   2.598   4.729  10.609  0.0431  0.1087  0.2213
  126MPD1    C4 1961   2.532   0.104  10.671 -0.2066 -0.6654  0.2967
  126MPD1    C5 1962   2.513   0.094  10.810  0.5558 -0.1634 -0.0410
  126MPD1     H 1963   2.683   4.526  10.642  0.5443  0.1542 -1.4978
  126MPD1    H1 1964   2.497   0.196  10.626 -1.2765 -1.5866 -0.7473
  126MPD1    H2 1965   2.549   4.725  10.994  1.6432 -2.1438  0.5607
  126MPD1    H3 1966   2.459   0.176  10.854  0.6490  0.4240 -1.0100
  126MPD1     N 1967   2.641   0.006  10.472  0.4601 -0.2900 -0.0451
  126MPD1    H5 1968   2.691   4.659  10.437  0.6345 -0.0693 -0.3057
  126MPD1    N1 1969   2.639   4.489  10.899 -0.2360 -0.2431 -0.1424
  126MPD1    H6 1970   2.627   4.404  10.843 -0.8747 -0.9348  1.0403
  126MPD1    H7 1971   2.590   4.480  10.988 -0.0275 -0.0082 -0.0036
  127TMC2    C1 1972   3.810   3.008   8.901 -0.0692  0.0535  0.2434
  127TMC2    C2 1973   3.897   2.905   8.891  0.9298 -0.1166  0.2492
  127TMC2    C3 1974   3.876   2.801   8.972 -0.5504 -0.2530 -0.6030
  127TMC2    C4 1975   3.713   3.014   9.005  0.6049  0.9948  0.0898
  127TMC2    C5 1976   3.707   2.900   9.087 -0.3508  0.0076 -0.2459
  127TMC2    C6 1977   3.788   2.788   9.075  0.2114  0.3158 -0.8923
  127TMC2     C 1978   3.863   3.134   8.853 -0.3195 -0.0629  0.1980
  127TMC2     O 1979   3.974   3.145   8.812 -0.8227 -0.2285  0.4031
  127TMC2     H 1980   3.974   2.907   8.815 -0.0410 -0.2658 -0.7424
  127TMC2    H1 1981   3.642   3.095   9.019 -0.4627 -0.5291  3.4407
  127TMC2    H2 1982   3.776   2.689   9.119  2.0458 -0.0235 -1.1391
  127TMC2    C7 1983   3.596   2.905   9.177  0.0893 -0.7249  0.1649
  127TMC2    C8 1984   3.952   2.690   8.939  0.5816  0.0112 -0.2185
  127TMC2    O1 1985   3.499   2.964   9.131  0.2131  0.3985 -0.1383
  127TMC2    O2 1986   3.999   2.670   8.826 -0.2485 -0.4845  0.2421
  127TMC2    O5 1987   4.014   2.664   9.052  0.1016 -0.7982 -0.0238
  127TMC2    H5 1988   3.973   2.722   9.120 -0.1550 -1.2786  0.2360
  128MPD2     C 1989   3.649   3.406   8.756 -0.2824 -0.1337 -0.2499
  128MPD2    C1 1990   3.766   3.346   8.796  0.2446  0.6915 -0.2920
  128MPD2    C2 1991   3.877   3.418   8.810  0.0950  0.9645  0.8964
  128MPD2    C3 1992   3.873   3.558   8.792 -0.1970 -0.1259  0.2953
  128MPD2    C4 1993   3.750   3.614   8.764  0.0146  0.2138 -0.1087
  128MPD2    C5 1994   3.643   3.545   8.739  0.3508  0.5297  0.3137
  128MPD2     H 1995   3.972   3.373   8.838  0.3476  0.8236 -0.2013
  128MPD2    H1 1996   3.742   3.722   8.749  0.6140 -0.0514 -2.3560
  128MPD2    H2 1997   3.557   3.349   8.743 -0.7386 -0.2083  3.1615
  128MPD2    H3 1998   3.548   3.589   8.709  0.2315 -0.4629 -0.8043
  128MPD2     N 1999   3.980   3.644   8.816 -0.5020 -0.0360 -0.4550
  128MPD2    H5 2000   3.953   3.742   8.809 -0.7910 -0.0574  0.3250
  128MPD2    N1 2001   3.757   3.219   8.842  0.0479 -0.4236 -0.4167
  128MPD2    H7 2002   3.667   3.174   8.855  0.4267 -1.9176 -2.9281
  129TMC2    C1 2003   1.189   4.219   1.675 -0.5977  0.4096  0.4124
  129TMC2    C2 2004   1.155   4.243   1.547 -0.2393 -0.0082  0.1455
  129TMC2    C3 2005   1.073   4.156   1.476  0.2159 -0.2206  0.4152
  129TMC2    C4 2006   1.131   4.115   1.737 -0.5558  0.2110  0.3647
  129TMC2    C5 2007   1.047   4.035   1.672  0.2146 -0.2428 -0.2491
  129TMC2    C6 2008   1.022   4.046   1.537 -0.2948  0.8919  0.4606
  129TMC2     C 2009   1.224   4.337   1.755  0.9902  0.0814  0.7198
  129TMC2     O 2010   1.150   4.363   1.852 -0.2710 -0.2767 -0.2499
  129TMC2     H 2011   1.209   4.318   1.491 -0.7054 -0.4780 -0.9368
  129TMC2    H1 2012   1.155   4.100   1.841 -0.1438 -0.3078  0.1987
  129TMC2    H2 2013   0.966   3.977   1.475  2.6490  0.3812 -1.5962
  129TMC2    C7 2014   1.035   3.903   1.722  0.2003 -0.3083 -0.0814
  129TMC2    C8 2015   1.033   4.197   1.344 -0.5598  0.2394  0.2171
  129TMC2    O1 2016   1.015   3.820   1.636 -0.5687 -0.2827 -0.3221
  129TMC2    O2 2017   1.099   4.270   1.275 -0.2492  0.0903 -0.1271
  129TMC2    O5 2018   0.910   4.155   1.316  0.4146 -0.4094 -0.1450
  129TMC2    H5 2019   0.861   4.151   1.400  0.2125  0.3604 -0.2211
  130MPD2     C 2020   1.233   4.623   1.808  0.2724 -0.3744 -0.2049
  130MPD2    C1 2021   1.319   4.560   1.726 -0.4232  0.4684  0.4303
  130MPD2    C2 2022   1.432   4.624   1.676  0.0264  0.4721 -0.1511
  130MPD2    C3 2023   1.453   0.019   1.715 -0.2264  0.3939 -0.4000
  130MPD2    C4 2024   1.364   0.086   1.793  0.1470  1.0036 -1.0120
  130MPD2    C5 2025   1.257   0.020   1.836 -0.8169  0.2243 -0.0751
  130MPD2     H 2026   1.516   4.576   1.627  0.4656  0.5867  0.4907
  130MPD2    H1 2027   1.377   0.191   1.817 -2.6694  0.8900  1.0248
  130MPD2    H2 2028   1.145   4.571   1.843 -1.4159  0.5630 -3.0982
  130MPD2    H3 2029   1.184   0.071   1.897 -0.5922  1.3643 -0.7443
  130MPD2     N 2030   1.570   0.083   1.671  0.1256  0.0706  0.1326
  130MPD2    H5 2031   1.637   0.026   1.620  1.2937 -0.5594  2.4115
  130MPD2    N1 2032   1.302   4.426   1.686  0.3190 -0.4766 -0.1273
  130MPD2    H7 2033   1.353   4.381   1.610  0.9964 -1.7411  1.0729
  131TMC2    C1 2034   1.992   2.804   9.945  0.7146  0.0589 -0.0078
  131TMC2    C2 2035   1.947   2.845   9.823  0.0772 -0.3995  0.8602
  131TMC2    C3 2036   2.015   2.954   9.774 -0.7782  0.3342 -0.2091
  131TMC2    C4 2037   2.088   2.866  10.016  0.2134 -0.2669 -0.5178
  131TMC2    C5 2038   2.148   2.974   9.967 -0.9956 -0.2234 -1.3602
  131TMC2    C6 2039   2.112   3.024   9.846 -0.4377  0.3820  0.2688
  131TMC2     C 2040   1.950   2.677   9.998  0.6302  0.3598  0.2468
  131TMC2     O 2041   2.020   2.629  10.088  0.0031  0.1951  0.4528
  131TMC2     H 2042   1.879   2.785   9.763  0.6435 -0.5605  0.3807
  131TMC2    H1 2043   2.123   2.829  10.111  1.7989  3.5355  0.3386
  131TMC2    H2 2044   2.140   3.120   9.806  0.7907 -1.3155 -2.9250
  131TMC2    C7 2045   2.255   3.036  10.044  0.6100 -0.1700  0.1232
  131TMC2    C8 2046   1.958   3.030   9.662  0.1059 -0.2005 -0.2743
  131TMC2    O1 2047   2.264   2.992  10.160  0.7243  0.0183 -0.4591
  131TMC2    O2 2048   2.021   3.109   9.594  0.5557  0.0966  0.7899
  131TMC2    O5 2049   1.829   2.995   9.640  0.0125  0.2528 -0.0338
  131TMC2    H5 2050   1.780   2.961   9.717  2.2925 -3.0693 -0.0623
  132MPD2     C 2051   1.667   2.453   9.895 -0.0468 -0.0436  0.2878
  132MPD2    C1 2052   1.780   2.496   9.969 -0.6296 -0.6851  0.3881
  132MPD2    C2 2053   1.842   2.405  10.056  0.3946  0.3952 -0.1274
  132MPD2    C3 2054   1.773   2.284  10.079 -0.5376  0.4246  0.3107
  132MPD2    C4 2055   1.662   2.249  10.013 -0.4602  0.5964 -0.0945
  132MPD2    C5 2056   1.608   2.335   9.919  0.3965 -0.4409  0.0233
  132MPD2     H 2057   1.939   2.418  10.103 -1.0248  2.3273  2.2666
  132MPD2    H1 2058   1.616   2.151  10.020  1.1639 -0.0571  1.6792
  132MPD2    H2 2059   1.625   2.524   9.825 -3.1613 -1.4196  0.7498
  132MPD2    H3 2060   1.515   2.307   9.871  0.4138 -0.5382  0.0482
  132MPD2     N 2061   1.841   2.201  10.172 -0.2927  0.3761 -0.2061
  132MPD2    H5 2062   1.916   2.245  10.224 -1.2369 -1.8563  3.0711
  132MPD2    N1 2063   1.832   2.625   9.951 -0.3959 -0.3792  0.5401
  132MPD2    H7 2064   1.781   2.694   9.897  3.3486  0.7076 -1.5474
  133TMC2    C1 2065   2.235   4.093  10.000  0.6358 -0.2082 -0.0350
  133TMC2    C2 2066   2.304   3.984  10.051  0.7016 -0.0219 -0.3152
  133TMC2    C3 2067   2.395   3.997  10.151  0.3844  0.3633  0.4138
  133TMC2    C4 2068   2.273   4.220  10.046  0.1614 -0.7569 -0.2789
  133TMC2    C5 2069   2.359   4.223  10.153 -0.3431 -0.5043 -0.2345
  133TMC2    C6 2070   2.433   4.118  10.197  0.5366 -0.3108  0.0846
  133TMC2     C 2071   2.125   4.068   9.913 -0.3989  0.2499  0.5276
  133TMC2     O 2072   2.102   3.952   9.884 -0.1372 -0.2888  0.6244
  133TMC2     H 2073   2.291   3.884  10.012 -1.4187 -0.4279  1.4320
  133TMC2    H1 2074   2.202   4.297  10.023  0.1382 -0.7640 -0.2302
  133TMC2    H2 2075   2.498   4.133  10.283 -0.8732  0.5307  1.0099
  133TMC2    C7 2076   2.379   4.352  10.219  0.4670 -0.1239  0.3093
  133TMC2    C8 2077   2.463   3.876  10.197 -0.2957  0.6762  0.3137
  133TMC2    O1 2078   2.438   4.356  10.328 -0.4511 -0.2021 -0.5053
  133TMC2    O2 2079   2.519   3.882  10.303  0.1456 -0.2594 -0.2323
  133TMC2    O5 2080   2.504   3.795  10.098 -0.0586 -0.1937 -0.3129
  133TMC2    H5 2081   2.470   3.817  10.008 -2.8890 -0.1202  0.7725
  134MPD2     C 2082   1.943   4.321   9.706  0.4026 -0.5113  0.1236
  134MPD2    C1 2083   1.978   4.196   9.761 -0.5655 -0.1232 -0.2109
  134MPD2    C2 2084   1.912   4.080   9.710  0.0460  0.4583 -0.1151
  134MPD2    C3 2085   1.824   4.092   9.600  0.9660 -0.2598  0.1639
  134MPD2    C4 2086   1.809   4.217   9.541  1.3781  0.1852 -0.1693
  134MPD2    C5 2087   1.870   4.324   9.592 -0.7601  0.3793 -0.4861
  134MPD2     H 2088   1.909   3.982   9.755 -1.0790  0.6301  0.1815
  134MPD2    H1 2089   1.760   4.231   9.446 -1.4710  0.3092  1.3025
  134MPD2    H2 2090   1.991   4.412   9.737  1.2263 -0.4985 -1.1563
  134MPD2    H3 2091   1.839   4.422   9.557  0.3030 -0.5358 -3.9510
  134MPD2     N 2092   1.755   3.975   9.546  0.4797  0.0125  0.1505
  134MPD2    H5 2093   1.677   3.998   9.486 -0.4986 -0.5916  1.1770
  134MPD2    N1 2094   2.077   4.184   9.861  0.0340  0.1707  0.4217
  134MPD2    H7 2095   2.120   4.271   9.893  0.7898  0.6034 -1.7652
  135TMC2    C1 2096   3.768   0.662   9.193  0.2682 -0.1723 -0.4258
  135TMC2    C2 2097   3.849   0.721   9.293 -0.2584 -0.1560 -0.5765
  135TMC2    C3 2098   3.829   0.683   9.420  0.6320  0.2919  0.6362
  135TMC2    C4 2099   3.675   0.564   9.215  0.0832  0.1347  0.0977
  135TMC2    C5 2100   3.663   0.531   9.347 -0.3652 -0.1364 -0.1636
  135TMC2    C6 2101   3.734   0.583   9.456 -0.4617 -0.4069 -0.4532
  135TMC2     C 2102   3.815   0.684   9.056 -0.3757  0.2437  0.8488
  135TMC2     O 2103   3.869   0.791   9.042  0.1455  0.7077 -0.1542
  135TMC2     H 2104   3.918   0.800   9.265 -0.5355  0.6915  1.1680
  135TMC2    H1 2105   3.619   0.519   9.134  0.7217 -2.1690  0.9345
  135TMC2    H2 2106   3.717   0.555   9.559  3.1885  1.9897  0.8346
  135TMC2    C7 2107   3.550   0.452   9.384 -0.3678  0.3616  0.2943
  135TMC2    C8 2108   3.881   0.761   9.529 -0.5575  0.4075 -0.0260
  135TMC2    O1 2109   3.448   0.456   9.318  0.1651 -0.0232  0.1805
  135TMC2    O2 2110   3.830   0.752   9.638  0.2302  0.1862  0.2234
  135TMC2    O5 2111   4.010   0.774   9.508 -0.0534 -0.0737 -0.9576
  135TMC2    H5 2112   4.037   0.781   9.414 -2.7624 -0.8824 -1.8087
  136MPD2     C 2113   3.953   0.657   8.796  0.4019 -0.1378 -0.0302
  136MPD2    C1 2114   3.896   0.552   8.861 -0.0212 -0.4810 -0.2779
  136MPD2    C2 2115   3.917   0.428   8.826 -0.1305  0.6339  0.4810
  136MPD2    C3 2116   4.012   0.396   8.724  0.2741  0.1146 -0.4027
  136MPD2    C4 2117   4.071   0.500   8.659 -0.3767 -0.0397 -0.6154
  136MPD2    C5 2118   4.046   0.628   8.694 -0.4373  0.6376 -0.2352
  136MPD2     H 2119   3.872   0.353   8.890  2.5410 -0.6836  0.7758
  136MPD2    H1 2120   4.143   0.479   8.581 -0.2574  1.4386 -0.8997
  136MPD2    H2 2121   3.947   0.762   8.822  0.0365 -0.6446  1.9352
  136MPD2    H3 2122   4.091   0.711   8.641  2.1117  0.3575  1.5331
  136MPD2     N 2123   4.048   0.263   8.694  0.0988 -0.2526  0.5321
  136MPD2    H5 2124   4.129   0.259   8.633 -0.2058  0.1275  0.0986
  136MPD2    N1 2125   3.814   0.570   8.976 -0.2229  0.3965 -0.2754
  136MPD2    H7 2126   3.778   0.483   9.015 -1.6985  1.5870  1.0093
  137TMC2    C1 2127   3.936   3.334   9.203  0.0043  0.0993  0.0518
  137TMC2    C2 2128   3.976   3.233   9.284  0.4272  0.3384 -0.9293
  137TMC2    C3 2129   3.877   3.152   9.341  0.0652 -0.1131 -0.5938
  137TMC2    C4 2130   3.807   3.359   9.167  0.3291  0.1051 -0.2577
  137TMC2    C5 2131   3.715   3.282   9.233  0.0068  0.1460  0.0537
  137TMC2    C6 2132   3.745   3.179   9.314  0.6416  0.4212  0.4134
  137TMC2     C 2133   4.030   3.437   9.208 -0.4376 -0.4684  0.1510
  137TMC2     O 2134   4.000   3.533   9.276  0.9122  0.1760 -0.4281
  137TMC2     H 2135   4.080   3.219   9.309 -0.2993 -0.4676  1.6213
  137TMC2    H1 2136   3.770   3.454   9.128 -0.4007 -0.3187 -0.6041
  137TMC2    H2 2137   3.664   3.123   9.359  1.0508 -0.1278  0.4681
  137TMC2    C7 2138   3.579   3.296   9.182 -0.4225  0.2850  0.1174
  137TMC2    C8 2139   3.921   3.074   9.455  0.7833 -0.2882  0.3518
  137TMC2    O1 2140   3.567   3.345   9.069  0.0001  0.1085  0.2991
  137TMC2    O2 2141   4.046   3.071   9.463  0.2261 -0.1427  0.3531
  137TMC2    O5 2142   3.846   3.131   9.551  0.1297  0.2274 -0.5227
  137TMC2    H5 2143   3.757   3.169   9.537 -0.2061 -1.2169 -2.3346
  138MPD2     C 2144   4.368   3.441   9.073 -0.2801  0.3435  0.5196
  138MPD2    C1 2145   4.259   3.487   9.140 -0.8326 -0.6650 -0.9074
  138MPD2    C2 2146   4.264   3.617   9.192  0.8612  0.4832  0.6489
  138MPD2    C3 2147   4.376   3.695   9.175  0.8032  0.1898  0.1866
  138MPD2    C4 2148   4.483   3.653   9.095 -0.7555 -0.5505  0.1083
  138MPD2    C5 2149   4.479   3.524   9.045  0.3129  0.2524  0.1555
  138MPD2     H 2150   4.182   3.662   9.246  1.2406  0.7694  0.9738
  138MPD2    H1 2151   4.572   3.714   9.081 -0.6604 -1.0005 -1.2317
  138MPD2    H2 2152   4.358   3.341   9.032 -0.1053  0.3866  0.3720
  138MPD2    H3 2153   4.560   3.479   8.990 -0.0588 -1.1559  0.7398
  138MPD2     N 2154   4.372   3.820   9.246  0.2602  0.3103  0.3003
  138MPD2    H5 2155   4.303   3.835   9.319  0.4661 -2.4532  1.0367
  138MPD2    N1 2156   4.146   3.402   9.148 -0.2266  0.8035 -0.4574
  138MPD2    H7 2157   4.146   3.308   9.109 -0.2061  0.3473  0.6537
  139TMC2    C1 2158   3.549   3.034  13.552  0.0592 -0.0517 -0.3878
  139TMC2    C2 2159   3.559   3.060  13.422  0.2274  0.2048  0.0569
  139TMC2    C3 2160   3.540   3.185  13.393  0.6799 -0.2751  0.4063
  139TMC2    C4 2161   3.493   3.119  13.650 -0.9407 -1.1637 -0.1340
  139TMC2    C5 2162   3.472   3.249  13.606  0.2381  0.5895 -0.3210
  139TMC2    C6 2163   3.494   3.284  13.479  0.0749  0.1488 -0.1281
  139TMC2     C 2164   3.596   2.903  13.598  0.8148  0.1837 -0.1219
  139TMC2     O 2165   3.606   2.821  13.506 -0.0383 -0.3677 -0.7508
  139TMC2     H 2166   3.616   2.990  13.360  1.5351  0.1867  1.2896
  139TMC2    H1 2167   3.484   3.090  13.754  1.2357 -0.0736  0.3472
  139TMC2    H2 2168   3.474   3.385  13.446 -1.8386  0.4642  1.9879
  139TMC2    C7 2169   3.372   3.326  13.667  0.3720  0.5456 -0.4536
  139TMC2    C8 2170   3.567   3.219  13.253 -0.1009 -0.0106  0.1952
  139TMC2    O1 2171   3.397   3.447  13.651  0.9904 -0.1534 -0.3659
  139TMC2    O2 2172   3.591   3.335  13.214 -0.2019 -0.0754 -1.0496
  139TMC2    O5 2173   3.508   3.124  13.176 -0.4872 -0.0117 -0.1663
  139TMC2    H5 2174   3.461   3.061  13.235  0.6691 -0.4890  0.2604
  140MPD2     C 2175   3.722   2.784  13.916 -0.2447 -0.7540  0.2544
  140MPD2    C1 2176   3.678   2.764  13.792  0.3578 -0.2739 -0.5096
  140MPD2    C2 2177   3.716   2.653  13.718 -0.3685 -0.4997  0.6996
  140MPD2    C3 2178   3.786   2.550  13.778 -0.0278  0.6757 -0.2299
  140MPD2    C4 2179   3.814   2.567  13.914 -0.2957 -1.1183 -0.3925
  140MPD2    C5 2180   3.788   2.684  13.980 -0.3608 -0.4440 -0.0485
  140MPD2     H 2181   3.704   2.654  13.610 -1.6484  0.0461  0.8504
  140MPD2    H1 2182   3.858   2.491  13.976 -0.3456  0.4907  1.6259
  140MPD2    H2 2183   3.697   2.877  13.965 -0.4732  0.3413 -1.9526
  140MPD2    H3 2184   3.818   2.699  14.083 -1.0419 -1.2322  0.2718
  140MPD2     N 2185   3.810   2.425  13.709  0.1013 -0.1792  0.0200
  140MPD2    H5 2186   3.771   2.421  13.616 -0.3618  3.0978  0.0580
  140MPD2    N1 2187   3.635   2.890  13.731  0.0631 -1.1854 -0.4917
  140MPD2    H7 2188   3.627   2.970  13.793  0.1604 -0.6455 -1.1751
  141TMC2    C1 2189   4.700   3.600  14.007 -0.0410 -0.7600 -0.0777
  141TMC2    C2 2190   0.014   3.494  14.084  0.4491 -0.2605  0.0744
  141TMC2    C3 2191   0.103   3.536  14.182 -0.5992 -0.2010 -0.3334
  141TMC2    C4 2192   4.723   3.734  14.032 -0.7199 -0.5155 -0.2763
  141TMC2    C5 2193   0.088   3.764  14.122  0.1013  0.2412  0.2066
  141TMC2    C6 2194   0.147   3.663  14.205 -0.2823 -0.1194  0.8265
  141TMC2     C 2195   4.650   3.579  13.872 -0.4856 -0.1386 -0.1196
  141TMC2     O 2196   4.588   3.671  13.817 -0.1056  0.1187 -0.6212
  141TMC2     H 2197   4.719   3.391  14.067  1.3299 -0.6986  1.2220
  141TMC2    H1 2198   4.696   3.814  13.965  0.5500 -0.2572 -0.4781
  141TMC2    H2 2199   0.225   3.688  14.276 -0.4009  0.6069  0.7093
  141TMC2    C7 2200   0.137   3.906  14.110 -0.0912 -0.0662  0.1082
  141TMC2    C8 2201   0.163   3.443  14.279  0.0133  0.3459  0.5150
  141TMC2    O1 2202   0.058   3.991  14.075  0.8125  0.6704 -0.0111
  141TMC2    O2 2203   0.210   3.485  14.383 -0.6617  0.1097  0.0616
  141TMC2    O5 2204   0.218   3.340  14.208 -0.5025  0.5816 -0.6568
  141TMC2    H5 2205   0.185   3.308  14.121 -0.7963 -1.4016  0.1948
  142TMC2    C1 2206   2.617   1.275  10.057 -0.1060 -0.0719  0.2515
  142TMC2    C2 2207   2.675   1.152  10.040  0.2100 -0.7157  0.2302
  142TMC2    C3 2208   2.807   1.139  10.036  0.5674  0.1250  0.1967
  142TMC2    C4 2209   2.699   1.385  10.069 -0.2226  0.0011  0.1152
  142TMC2    C5 2210   2.831   1.370  10.078 -0.6668  0.7688  0.0499
  142TMC2    C6 2211   2.894   1.248  10.060 -0.2257  0.7221  0.0389
  142TMC2     C 2212   2.473   1.286  10.074  0.4354 -0.4353 -0.1299
  142TMC2     O 2213   2.414   1.182  10.077  0.2134 -0.4568 -0.6489
  142TMC2     H 2214   2.624   1.057  10.031 -1.1428  0.2331 -2.1214
  142TMC2    H1 2215   2.653   1.481  10.091 -0.3030  0.3808 -1.7001
  142TMC2    H2 2216   2.999   1.237  10.085 -0.2891 -0.3368 -0.1510
  142TMC2    C7 2217   2.908   1.487  10.083 -0.0032 -0.8294 -0.3492
  142TMC2    C8 2218   2.858   1.011   9.992 -0.4506  0.2752 -0.4393
  142TMC2    O1 2219   2.849   1.594  10.087  0.5503  0.1059  0.0650
  142TMC2    O2 2220   2.790   0.906   9.997 -0.0746 -0.3781 -0.0534
  142TMC2    O5 2221   2.975   1.027   9.930  0.4399 -0.4058  0.1108
  142TMC2    H5 2222   3.003   1.121   9.942 -1.0306  0.0426 -0.0360
  143MPD2     C 2223   2.027   1.539  10.100 -0.1545 -0.5508 -0.0194
  143MPD2    C1 2224   2.062   1.408  10.134 -0.2604  0.2561 -0.4795
  143MPD2    C2 2225   2.189   1.363  10.122  0.4310 -0.2513 -0.2512
  143MPD2    C3 2226   2.294   1.446  10.082 -0.1941 -0.5901 -0.1944
  143MPD2    C4 2227   2.251   1.574  10.060 -0.1452  0.1175 -0.0218
  143MPD2    C5 2228   2.129   1.621  10.061  0.5032  0.4719 -0.6798
  143MPD2     H 2229   2.208   1.256  10.127  2.8475  0.1633 -0.4298
  143MPD2    H1 2230   2.327   1.649  10.044 -0.4562  0.3306 -0.5145
  143MPD2    H2 2231   1.926   1.577  10.104  0.2022  0.1039  2.9562
  143MPD2    H3 2232   2.107   1.727  10.049 -3.2961 -0.2756 -0.4749
  143MPD2     N 2233   2.425   1.408  10.064 -0.6972  0.8452 -0.0306
  143MPD2    H5 2234   2.492   1.481  10.040 -0.9544  1.2004  0.3351
  143MPD2    N1 2235   1.951   1.334  10.179 -0.1854 -0.5135  0.1844
  143MPD2    H7 2236   1.862   1.381  10.166 -0.7972 -1.3803  1.2117
  144TMC2    C1 2237   0.666   1.230   0.729 -0.5135  0.1802 -0.1429
  144TMC2    C2 2238   0.765   1.136   0.724  0.3602 -0.2172  0.3194
  144TMC2    C3 2239   0.903   1.160   0.730 -0.7439 -0.0493  0.0800
  144TMC2    C4 2240   0.707   1.357   0.723 -0.1626 -0.2434 -0.4958
  144TMC2    C5 2241   0.847   1.375   0.727 -0.4780  0.0156  0.3458
  144TMC2    C6 2242   0.947   1.287   0.731  0.1564 -0.4215 -0.1479
  144TMC2     C 2243   0.549   1.195   0.661  0.0181  0.3865  0.6084
  144TMC2     O 2244   0.534   1.070   0.636 -0.1604  0.1393  0.2311
  144TMC2     H 2245   0.739   1.035   0.753 -0.8234 -0.5187 -1.7307
  144TMC2    H1 2246   0.644   1.444   0.708 -0.1566 -0.2317 -0.4539
  144TMC2    H2 2247   1.049   1.321   0.734 -0.2131  0.8772 -2.0149
  144TMC2    C7 2248   0.892   1.506   0.680 -0.1695 -0.5507 -0.6498
  144TMC2    C8 2249   0.984   1.054   0.797  0.1472 -0.4522  0.4556
  144TMC2    O1 2250   0.995   1.517   0.612 -0.2573 -0.1206  0.0263
  144TMC2    O2 2251   0.938   0.995   0.893  0.2520 -0.2652  0.5462
  144TMC2    O5 2252   1.109   1.105   0.791 -0.5213 -0.2236 -0.0417
  144TMC2    H5 2253   1.112   1.144   0.701  0.4070 -2.0965 -0.8346
  145MPD2     C 2254   0.135   1.296   0.364  0.4929 -0.0178 -0.4338
  145MPD2    C1 2255   0.200   1.176   0.392  0.0021 -0.4307  0.2465
  145MPD2    C2 2256   0.303   1.175   0.478 -0.4606 -0.0348  0.7610
  145MPD2    C3 2257   0.365   1.292   0.520  0.1870 -0.9686 -0.9768
  145MPD2    C4 2258   0.309   1.412   0.484 -0.1239 -0.3291  0.3663
  145MPD2    C5 2259   0.190   1.408   0.416 -0.1355 -0.3928  0.7067
  145MPD2     H 2260   0.330   1.074   0.510  1.0604 -0.0277 -0.5361
  145MPD2    H1 2261   0.358   1.503   0.515 -0.3792 -0.0294 -0.1146
  145MPD2    H2 2262   0.053   1.306   0.293  0.5399  2.7358 -0.0792
  145MPD2    H3 2263   0.132   1.498   0.400  0.2945 -0.3237 -0.4574
  145MPD2     N 2264   0.475   1.300   0.614  0.3914  0.2385 -0.1562
  145MPD2    H5 2265   0.502   1.391   0.648 -0.5819 -0.1744  1.6910
  145MPD2    N1 2266   0.148   1.051   0.349  0.4712  0.1031  0.3383
  145MPD2    H7 2267   0.166   0.968   0.404 -0.1441  0.0531  0.4716
  146TMC2    C1 2268   1.384   4.584  12.893 -0.9095 -0.4399 -0.1402
  146TMC2    C2 2269   1.287   4.602  12.796  0.3605 -0.0449  0.1661
  146TMC2    C3 2270   1.296   4.518  12.692  0.0998  0.5119 -0.5697
  146TMC2    C4 2271   1.493   4.506  12.876 -0.4568 -0.3222 -0.0602
  146TMC2    C5 2272   1.492   4.420  12.767  0.2756 -0.0493  0.0014
  146TMC2    C6 2273   1.393   4.420  12.672  0.1891 -0.1011  0.2672
  146TMC2     C 2274   1.368   4.669  13.015  0.7869 -0.5249 -0.0118
  146TMC2     O 2275   1.313   0.042  13.000  0.2566 -0.2823  0.3918
  146TMC2     H 2276   1.206   4.674  12.804  0.5626  0.4017 -1.7803
  146TMC2    H1 2277   1.573   4.504  12.950 -0.3817  0.2249 -0.1263
  146TMC2    H2 2278   1.404   4.363  12.580  1.3602  1.7647 -0.7605
  146TMC2    C7 2279   1.614   4.359  12.716  0.6716  0.4480 -0.6277
  146TMC2    C8 2280   1.197   4.539  12.582 -0.2744  0.7182  1.1353
  146TMC2    O1 2281   1.624   4.326  12.596  0.7633 -0.6070  0.0181
  146TMC2    O2 2282   1.196   4.480  12.478 -0.2745 -0.1751  0.0981
  146TMC2    O5 2283   1.149   4.661  12.592 -0.4036 -0.3093 -0.3742
  146TMC2    H5 2284   1.216   4.714  12.640 -0.9779 -0.9976  1.2054
  147MPD2     C 2285   2.112   4.265  12.756  0.0755 -0.0012 -0.0226
  147MPD2    C1 2286   2.060   4.291  12.883  0.3583 -0.1992 -0.5682
  147MPD2    C2 2287   1.927   4.320  12.895  0.0331  0.0566  0.3816
  147MPD2    C3 2288   1.853   4.326  12.785  0.0944  0.1586 -0.3030
  147MPD2    C4 2289   1.904   4.302  12.658 -0.2500 -0.2573 -0.0401
  147MPD2    C5 2290   2.026   4.259  12.648  0.7880  0.8209 -0.0375
  147MPD2     H 2291   1.880   4.326  12.993 -0.1058  0.7959  0.2733
  147MPD2    H1 2292   1.843   4.293  12.569  0.0227 -0.1745 -0.2313
  147MPD2    H2 2293   2.214   4.233  12.743  0.1544  0.2107  0.0734
  147MPD2    H3 2294   2.058   4.240  12.547  1.2753  0.0188  0.2658
  147MPD2     N 2295   1.713   4.361  12.810 -0.0367 -0.2849  0.1260
  147MPD2    H5 2296   1.687   4.398  12.900  0.4960 -0.0745  0.1936
  147MPD2    N1 2297   2.146   4.280  12.992  0.1957 -0.0132 -0.3472
  147MPD2    H7 2298   2.244   4.255  12.982  0.5643  0.8067  1.2279
  148TMC2    C1 2299   1.591   3.437  10.713  0.0444  0.7815 -0.2330
  148TMC2    C2 2300   1.687   3.499  10.782  0.1975  0.8364  0.2583
  148TMC2    C3 2301   1.787   3.422  10.843 -0.1728  0.0821  0.2209
  148TMC2    C4 2302   1.586   3.295  10.704  0.2870 -0.4324  0.4914
  148TMC2    C5 2303   1.682   3.225  10.775 -0.3707  0.2651 -0.9011
  148TMC2    C6 2304   1.786   3.284  10.838 -0.3769 -1.1467  0.8690
  148TMC2     C 2305   1.500   3.519  10.643  0.7701  0.4992  0.0595
  148TMC2     O 2306   1.492   3.639  10.661  0.7611 -0.1918 -0.3684
  148TMC2     H 2307   1.701   3.606  10.787  2.0418  0.6050 -0.0415
  148TMC2    H1 2308   1.497   3.244  10.668 -1.1698  2.2982  0.1933
  148TMC2    H2 2309   1.872   3.233  10.879  0.7094  0.4574  0.6020
  148TMC2    C7 2310   1.664   3.081  10.781  0.1891  0.0412 -0.4396
  148TMC2    C8 2311   1.910   3.494  10.874  0.2044 -0.1958  0.1713
  148TMC2    O1 2312   1.597   3.033  10.690 -0.5462 -0.3591  0.1818
  148TMC2    O2 2313   1.915   3.613  10.905  0.1300  0.6246 -0.0369
  148TMC2    O5 2314   2.015   3.417  10.824  0.7486  0.0379  0.0487
  148TMC2    H5 2315   1.982   3.350  10.760  1.6378  0.4341 -0.8238
  149MPD2     C 2316   1.251   3.627  10.524  0.2377 -0.3086  0.1325
  149MPD2    C1 2317   1.303   3.500  10.498 -0.3714  0.4494 -0.9202
  149MPD2    C2 2318   1.233   3.417  10.404  0.3269 -0.1394  1.0808
  149MPD2    C3 2319   1.145   3.477  10.316 -0.3698  0.6177  0.2598
  149MPD2    C4 2320   1.115   3.610  10.329 -0.3158 -0.4699  0.2911
  149MPD2    C5 2321   1.159   3.681  10.435  0.5232  0.1258 -0.0535
  149MPD2     H 2322   1.267   3.315  10.390  0.3724 -0.2251  1.8186
  149MPD2    H1 2323   1.037   3.643  10.262  1.1036 -1.1630 -1.7176
  149MPD2    H2 2324   1.288   3.677  10.613 -0.9909  1.0690 -0.1358
  149MPD2    H3 2325   1.113   3.780  10.439 -0.9956 -0.6182  1.0236
  149MPD2     N 2326   1.079   3.414  10.216  0.2872  0.1114 -0.7230
  149MPD2    H5 2327   1.008   3.470  10.170  1.0574  0.9298 -0.9195
  149MPD2    N1 2328   1.413   3.446  10.565 -0.2738  0.1737 -0.8509
  149MPD2    H7 2329   1.426   3.346  10.557 -0.2300  0.2518 -1.8156
  150TMC2    C1 2330   3.443   2.570  12.286  1.1363  0.3946 -0.3086
  150TMC2    C2 2331   3.380   2.693  12.277  0.0464  0.3844 -0.3142
  150TMC2    C3 2332   3.456   2.808  12.263 -0.7802  0.1618  0.5114
  150TMC2    C4 2333   3.575   2.558  12.287  0.6330 -0.0349  0.2571
  150TMC2    C5 2334   3.649   2.668  12.260  0.0127 -0.2032 -0.2052
  150TMC2    C6 2335   3.585   2.791  12.243 -0.2097  0.5010 -0.3000
  150TMC2     C 2336   3.365   2.444  12.278  0.7188  0.3296  0.7808
  150TMC2     O 2337   3.404   2.330  12.296  0.1886  0.0873  0.3522
  150TMC2     H 2338   3.273   2.708  12.288  0.1157  1.2038 -0.7239
  150TMC2    H1 2339   3.620   2.460  12.289  2.6427  0.8394 -1.6868
  150TMC2    H2 2340   3.637   2.877  12.203  0.3941  0.1620 -0.2417
  150TMC2    C7 2341   3.786   2.662  12.205 -0.1383 -0.9080 -0.5908
  150TMC2    C8 2342   3.413   2.936  12.203 -0.3222  0.3617 -0.0118
  150TMC2    O1 2343   3.823   2.766  12.154 -0.0063  0.3491  0.5561
  150TMC2    O2 2344   3.481   3.001  12.126  0.2459  0.6942  0.2219
  150TMC2    O5 2345   3.317   2.981  12.279  0.2634 -0.7759  0.0977
  150TMC2    H5 2346   3.266   2.919  12.335  0.8415 -2.0151 -0.7636
  151MPD2     C 2347   2.964   2.199  12.061  0.6549  0.6542 -0.0324
  151MPD2    C1 2348   2.997   2.306  11.976 -0.1983 -0.5469  0.3955
  151MPD2    C2 2349   3.103   2.396  12.015 -0.0726 -0.0954  0.6527
  151MPD2    C3 2350   3.168   2.374  12.139  0.0250 -0.1630 -0.1867
  151MPD2    C4 2351   3.142   2.253  12.206 -0.6050  0.2499  0.7920
  151MPD2    C5 2352   3.048   2.164  12.165 -0.9194 -0.3443  0.2072
  151MPD2     H 2353   3.141   2.475  11.953 -0.8458 -0.8690 -0.7990
  151MPD2    H1 2354   3.199   2.222  12.292  0.2136  1.0607  0.5437
  151MPD2    H2 2355   2.875   2.142  12.038  0.1526  1.4437 -0.0421
  151MPD2    H3 2356   3.023   2.080  12.227 -0.9132 -0.2165  0.3819
  151MPD2     N 2357   3.261   2.472  12.189  0.2615 -0.5017 -0.1955
  151MPD2    H5 2358   3.257   2.563  12.145  0.5741 -0.5366 -0.2953
  151MPD2    N1 2359   2.916   2.322  11.861  0.1935  0.3884 -0.2279
  151MPD2    H7 2360   2.841   2.255  11.844  0.2852 -0.0584  1.1311
  152TMC2    C1 2361   3.883   2.405  12.635 -0.1015 -1.3416  0.9405
  152TMC2    C2 2362   3.961   2.292  12.649  0.0723  0.2216 -0.5035
  152TMC2    C3 2363   4.094   2.312  12.642  0.3924  0.2263  0.0213
  152TMC2    C4 2364   3.938   2.526  12.591 -0.3361  0.3360  0.7307
  152TMC2    C5 2365   4.075   2.536  12.590 -0.2730 -0.0328 -0.0779
  152TMC2    C6 2366   4.155   2.427  12.610 -0.2150 -0.2586  0.7219
  152TMC2     C 2367   3.741   2.392  12.608 -0.4482 -0.0874  0.6414
  152TMC2     O 2368   3.680   2.498  12.583  0.1162  0.0667  0.2477
  152TMC2     H 2369   3.919   2.202  12.695 -0.3238  2.2180  3.0381
  152TMC2    H1 2370   3.872   2.609  12.569  1.1280  1.0915 -0.8369
  152TMC2    H2 2371   4.260   2.427  12.582 -0.4060 -0.5542  0.0215
  152TMC2    C7 2372   4.131   2.666  12.572  0.1764 -0.0629 -0.4616
  152TMC2    C8 2373   4.185   2.196  12.629 -0.4032  0.5828  0.6341
  152TMC2    O1 2374   4.052   2.759  12.558 -0.0033  0.8296  0.5689
  152TMC2    O2 2375   4.294   2.186  12.680 -0.3792 -0.4483  0.9331
  152TMC2    O5 2376   4.116   2.091  12.576  0.1595  0.3861  0.0690
  152TMC2    H5 2377   4.030   2.107  12.531 -0.5366 -1.8485  0.5902
  153MPD2     C 2378   3.526   2.103  12.567 -0.5588 -0.0615 -0.5658
  153MPD2    C1 2379   3.562   2.233  12.603  0.4647 -0.2810 -0.3119
  153MPD2    C2 2380   3.458   2.324  12.605  0.0846  0.5048  0.9186
  153MPD2    C3 2381   3.325   2.293  12.573 -0.0641 -0.2037 -0.2037
  153MPD2    C4 2382   3.297   2.167  12.532  0.3857  0.0822 -0.0521
  153MPD2    C5 2383   3.398   2.073  12.532 -0.5433  0.2004  0.5871
  153MPD2     H 2384   3.490   2.419  12.645 -1.7244  2.5200 -2.5186
  153MPD2    H1 2385   3.196   2.144  12.498  0.3423 -0.3924  0.3919
  153MPD2    H2 2386   3.599   2.023  12.555  0.9874  1.3645 -0.6984
  153MPD2    H3 2387   3.390   1.970  12.502  1.1997 -0.3200  1.8790
  153MPD2     N 2388   3.236   2.404  12.574 -0.0840  0.1316  0.3021
  153MPD2    H5 2389   3.271   2.495  12.601 -2.0436  1.1500 -0.6683
  153MPD2    N1 2390   3.695   2.264  12.615  0.6604  0.3777  0.0064
  153MPD2    H7 2391   3.760   2.187  12.627 -1.0147 -0.9681  0.4039
  154TMC2    C1 2392   0.249   2.162   0.262  0.4463  0.2983 -0.5082
  154TMC2    C2 2393   0.237   2.265   0.349  0.0879  0.3790 -0.1578
  154TMC2    C3 2394   0.340   2.280   0.443  0.0858  0.2546  0.2722
  154TMC2    C4 2395   0.364   2.088   0.260 -0.0155 -0.2681 -0.3984
  154TMC2    C5 2396   0.466   2.108   0.353  0.8650 -0.1972  0.3114
  154TMC2    C6 2397   0.450   2.206   0.438  0.6027  0.2946  0.0136
  154TMC2     C 2398   0.162   2.172   0.149  0.1581  0.5129 -0.2083
  154TMC2     O 2399   0.047   2.221   0.160  0.5582 -0.3428  0.1547
  154TMC2     H 2400   0.148   2.327   0.350 -1.8655 -2.5012  1.4741
  154TMC2    H1 2401   0.374   2.032   0.169  2.4543  3.2366 -2.2884
  154TMC2    H2 2402   0.525   2.218   0.515  0.8131  2.0381 -0.4614
  154TMC2    C7 2403   0.605   2.070   0.323  0.8533  0.6037 -0.0692
  154TMC2    C8 2404   0.318   2.369   0.558 -0.3925 -0.3645  0.3976
  154TMC2    O1 2405   0.608   1.979   0.243 -1.0135 -0.2850 -0.5453
  154TMC2    O2 2406   0.248   2.468   0.559  0.0069 -0.1184 -0.4975
  154TMC2    O5 2407   0.331   2.289   0.668 -0.2557  0.2526  0.5988
  154TMC2    H5 2408   0.365   2.202   0.640  0.2188  0.4533  0.5444
  155MPD2     C 2409   0.298   2.191  17.543 -0.2333  0.2265 -0.3494
  155MPD2    C1 2410   0.199   2.182  17.639  0.1191  0.1185  0.2093
  155MPD2    C2 2411   0.065   2.193  17.601 -0.3322  0.0087 -0.3695
  155MPD2    C3 2412   0.037   2.221  17.466  0.2549  0.9576 -0.4830
  155MPD2    C4 2413   0.139   2.215  17.373 -0.5046 -0.4499  0.4781
  155MPD2    C5 2414   0.267   2.200  17.409  0.8367 -0.1202  0.2677
  155MPD2     H 2415   4.721   2.176  17.674 -0.7790  0.7194 -0.6884
  155MPD2    H1 2416   0.115   2.216  17.267 -1.2536 -3.4498  0.6275
  155MPD2    H2 2417   0.402   2.178  17.570 -0.6995 -1.9290  0.3670
  155MPD2    H3 2418   0.341   2.189  17.330  0.0619 -0.3054 -0.4244
  155MPD2     N 2419   4.633   2.241  17.431  0.3650 -0.5034  0.0955
  155MPD2    H5 2420   4.572   2.254  17.512  1.6575  1.5219  0.7449
  155MPD2    N1 2421   0.240   2.165   0.034 -0.4394  0.2382 -0.6726
  155MPD2    H7 2422   0.339   2.154   0.050 -0.7006  0.3427  1.1119
  156TMC2    C1 2423   3.589   4.601  11.465 -0.8333  0.1139  0.0597
  156TMC2    C2 2424   3.668   4.508  11.407 -0.2272 -0.5687 -0.0525
  156TMC2    C3 2425   3.666   4.498  11.271 -1.0190  0.2467  0.4662
  156TMC2    C4 2426   3.510   4.685  11.387 -0.5495 -0.3441  0.2634
  156TMC2    C5 2427   3.506   4.667  11.251 -0.4596  0.1608 -0.3120
  156TMC2    C6 2428   3.592   4.572  11.189 -0.4918 -0.4164  0.4989
  156TMC2     C 2429   3.596   4.633  11.608  0.5015 -0.0344 -0.0492
  156TMC2     O 2430   3.520   4.714  11.661 -0.1389  0.1744 -0.1650
  156TMC2     H 2431   3.739   4.453  11.468  1.6011 -0.0112 -1.6745
  156TMC2    H1 2432   3.449   0.025  11.439  1.4804  2.0768 -0.7925
  156TMC2    H2 2433   3.592   4.558  11.082 -0.1658 -1.2117  0.6045
  156TMC2    C7 2434   3.434   0.036  11.175 -0.1162  0.0807 -0.8368
  156TMC2    C8 2435   3.745   4.392  11.204  0.3644  0.4515  0.1197
  156TMC2    O1 2436   3.403   0.138  11.237  0.2526  0.5231 -0.5193
  156TMC2    O2 2437   3.776   4.394  11.088  0.0934 -0.4388  0.1599
  156TMC2    O5 2438   3.738   4.283  11.286 -0.4074 -0.5324 -0.4450
  156TMC2    H5 2439   3.697   4.300  11.373 -0.6874 -1.3793 -0.4128
  157MPD2     C 2440   3.842   4.529  11.869  0.2755  0.4700 -0.0201
  157MPD2    C1 2441   3.724   4.560  11.813 -0.1282  0.1780 -0.3532
  157MPD2    C2 2442   3.619   4.597  11.899  0.3082  0.8462 -0.0994
  157MPD2    C3 2443   3.633   4.598  12.038  0.0998 -0.0027 -0.0401
  157MPD2    C4 2444   3.761   4.568  12.088  0.5271  1.0048  0.5366
  157MPD2    C5 2445   3.858   4.535  12.001 -0.2220 -0.0758  0.0662
  157MPD2     H 2446   3.519   4.618  11.865 -0.1129 -0.0373  0.5856
  157MPD2    H1 2447   3.785   4.550  12.192 -0.5418  0.5512  0.7113
  157MPD2    H2 2448   3.926   4.498  11.807 -0.6762  0.9092 -1.5347
  157MPD2    H3 2449   3.952   4.493  12.036 -0.4057 -1.0254 -0.5815
  157MPD2     N 2450   3.523   4.622  12.118 -0.5849 -0.6873  0.4307
  157MPD2    H5 2451   3.427   4.637  12.091 -0.8774 -3.3137 -0.0156
  157MPD2    N1 2452   3.704   4.566  11.670 -0.0480  0.3775  0.8639
  157MPD2    H7 2453   3.775   4.529  11.607  0.4402  1.3697  0.8294
  158TMC2    C1 2454   3.976   3.233  12.971  0.1840  0.4006  1.0171
  158TMC2    C2 2455   3.998   3.229  12.837  0.3203  0.5743 -0.3552
  158TMC2    C3 2456   3.974   3.335  12.761 -0.0130  0.0112  0.6380
  158TMC2    C4 2457   3.937   3.347  13.032  0.2065  0.6815 -0.8070
  158TMC2    C5 2458   3.908   3.460  12.946  0.1874 -0.0730 -0.1467
  158TMC2    C6 2459   3.918   3.447  12.811 -0.3573 -0.1057  0.4672
  158TMC2     C 2460   4.075   3.149  13.048  0.6831 -0.3333 -0.3332
  158TMC2     O 2461   4.108   3.042  12.998 -0.4105  0.1725 -0.0946
  158TMC2     H 2462   4.046   3.141  12.795 -2.5077 -0.5648 -1.2560
  158TMC2    H1 2463   3.913   3.362  13.137 -0.5927 -1.0555 -0.7535
  158TMC2    H2 2464   3.889   3.528  12.746  1.1796  0.3776  0.3806
  158TMC2    C7 2465   3.831   3.578  12.989  0.1592  0.1274 -0.2546
  158TMC2    C8 2466   3.964   3.291  12.624 -0.4478  0.0044  0.3029
  158TMC2    O1 2467   3.809   3.659  12.904  0.3331 -0.4140 -0.7770
  158TMC2    O2 2468   4.052   3.262  12.543 -0.8951 -0.1218  0.0429
  158TMC2    O5 2469   3.845   3.353  12.593 -0.5329  0.1233 -0.3616
  158TMC2    H5 2470   3.788   3.376  12.670  1.0124  2.3588  0.1157
  159MPD2     C 2471   4.357   3.061  13.470  0.1094 -1.0426  0.2225
  159MPD2    C1 2472   4.303   3.184  13.485 -0.3243 -0.4020  1.2853
  159MPD2    C2 2473   4.222   3.230  13.379 -0.2297 -0.4399 -1.0556
  159MPD2    C3 2474   4.195   3.147  13.266 -0.4790 -0.0731  0.1068
  159MPD2    C4 2475   4.241   3.018  13.255  0.0728 -1.0611  0.0996
  159MPD2    C5 2476   4.326   2.981  13.358 -0.6796 -0.2307 -0.6804
  159MPD2     H 2477   4.186   3.332  13.386 -0.5385 -0.8937  3.6074
  159MPD2    H1 2478   4.225   2.952  13.170  1.5104 -1.7911  0.4020
  159MPD2    H2 2479   4.431   3.040  13.545  0.5836  0.8307  0.2741
  159MPD2    H3 2480   4.369   2.882  13.355  1.0418  0.5215 -0.7782
  159MPD2     N 2481   4.108   3.208  13.170  0.1084  0.2711 -0.2616
  159MPD2    H5 2482   4.079   3.304  13.189 -1.9325 -0.2345 -0.8105
  159MPD2    N1 2483   4.330   3.260  13.599  0.1504 -0.0836 -0.5586
  159MPD2    H7 2484   4.381   3.205  13.668 -0.0330  0.2543 -0.1561
  160TMC2    C1 2485   3.274   1.439   1.323  0.5043  0.0440  0.4613
  160TMC2    C2 2486   3.240   1.362   1.426  0.4416  0.1580  0.8963
  160TMC2    C3 2487   3.328   1.266   1.467  0.6162  0.4744  0.3498
  160TMC2    C4 2488   3.394   1.423   1.251  0.0942  0.1115 -0.3465
  160TMC2    C5 2489   3.482   1.336   1.305  0.2183  0.0236 -0.1248
  160TMC2    C6 2490   3.451   1.256   1.406  0.6631  0.0204  0.0232
  160TMC2     C 2491   3.165   1.518   1.267  0.8175  0.7780  0.6634
  160TMC2     O 2492   3.046   1.493   1.291  0.5305  0.0834  0.2668
  160TMC2     H 2493   3.145   1.380   1.475  0.8240 -1.1894  2.1160
  160TMC2    H1 2494   3.412   1.467   1.154 -0.7914 -0.2090 -0.6623
  160TMC2    H2 2495   3.511   1.172   1.439 -0.2619 -0.1719  1.2101
  160TMC2    C7 2496   3.610   1.321   1.238 -0.6103 -0.7957  0.4503
  160TMC2    C8 2497   3.321   1.201   1.600  0.0885 -0.6126 -0.2988
  160TMC2    O1 2498   3.667   1.217   1.268 -0.1880  0.5635 -0.2372
  160TMC2    O2 2499   3.418   1.157   1.663 -0.2211 -0.6927  0.1438
  160TMC2    O5 2500   3.187   1.170   1.620 -0.1802 -0.0893  0.2914
  160TMC2    H5 2501   3.131   1.204   1.546 -0.0645 -0.3668  0.0789
  161MPD2     C 2502   3.020   1.703   1.064  0.4455  0.4792  0.0384
  161MPD2    C1 2503   3.156   1.705   1.096 -0.1612  0.5539  0.8525
  161MPD2    C2 2504   3.241   1.804   1.040 -0.5952  0.2021  0.1856
  161MPD2    C3 2505   3.183   1.887   0.947  0.1334 -0.5778 -0.2699
  161MPD2    C4 2506   3.046   1.889   0.921  0.2034 -0.2798 -0.0503
  161MPD2    C5 2507   2.966   1.796   0.983 -0.6608 -0.5731 -0.1519
  161MPD2     H 2508   3.346   1.811   1.065 -0.4754  1.8141 -0.8386
  161MPD2    H1 2509   2.992   1.961   0.861 -1.2793 -0.2173  1.3404
  161MPD2    H2 2510   2.963   1.633   1.123  1.9987 -1.8709 -1.2205
  161MPD2    H3 2511   2.858   1.788   0.976 -0.6134 -2.2695  0.9491
  161MPD2     N 2512   3.260   1.987   0.881 -0.1879 -0.5978 -0.5145
  161MPD2    H5 2513   3.205   2.045   0.818  0.2036  1.6702  1.2578
  161MPD2    N1 2514   3.222   1.614   1.187  0.4040 -0.5435  0.2918
  161MPD2    H7 2515   3.323   1.624   1.189  0.3132  0.2933  0.4866
  162TMC2    C1 2516   1.667   3.894   1.011  0.0616  0.6209  0.5161
  162TMC2    C2 2517   1.603   3.964   1.112 -0.2359  0.3618  0.1253
  162TMC2    C3 2518   1.490   3.918   1.173 -0.4365 -0.0068  0.2809
  162TMC2    C4 2519   1.616   3.774   0.975 -0.3048  0.0175 -0.1564
  162TMC2    C5 2520   1.517   3.721   1.057 -0.1594 -0.3501  0.5898
  162TMC2    C6 2521   1.444   3.789   1.149 -0.1242 -0.0034 -0.6930
  162TMC2     C 2522   1.750   3.972   0.931  0.2289  0.1004 -0.2793
  162TMC2     O 2523   1.751   4.091   0.964 -0.3790 -0.1232 -0.3499
  162TMC2     H 2524   1.636   4.061   1.148 -2.9708  1.7293 -1.1484
  162TMC2    H1 2525   1.660   3.718   0.894  1.3058 -0.0524  0.7644
  162TMC2    H2 2526   1.347   3.761   1.188 -0.1001  1.9441  0.7570
  162TMC2    C7 2527   1.475   3.585   1.034 -0.4633  0.1608 -0.1392
  162TMC2    C8 2528   1.447   3.990   1.291 -0.5542  0.2541 -0.6529
  162TMC2    O1 2529   1.508   3.542   0.922 -0.3853 -0.1523 -0.4057
  162TMC2    O2 2530   1.526   4.059   1.353 -0.2504  0.7282  0.1277
  162TMC2    O5 2531   1.342   3.939   1.354 -0.0275 -1.0381  0.1015
  162TMC2    H5 2532   1.273   3.919   1.287 -1.0356 -1.1072  1.1581
  163MPD2     C 2533   2.018   4.086   0.521  0.5304 -0.2602 -0.0950
  163MPD2    C1 2534   2.019   3.945   0.526  0.6230 -0.8302 -0.6082
  163MPD2    C2 2535   1.946   3.886   0.629  0.6001 -0.0913  0.4947
  163MPD2    C3 2536   1.889   3.962   0.733  0.4104  0.7027 -0.3899
  163MPD2    C4 2537   1.904   4.097   0.727 -0.2535 -0.3223 -0.0484
  163MPD2    C5 2538   1.958   4.159   0.620  0.4941  0.2129 -0.0259
  163MPD2     H 2539   1.924   3.780   0.621 -2.0103  0.6171 -1.8976
  163MPD2    H1 2540   1.881   4.167   0.807 -0.6155 -1.3003  0.7063
  163MPD2    H2 2541   2.078   4.140   0.449  0.6203 -0.2458 -0.0088
  163MPD2    H3 2542   1.966   4.267   0.631 -1.3386  0.5060 -1.5266
  163MPD2     N 2543   1.810   3.898   0.833  0.2665  0.5075 -0.3522
  163MPD2    H5 2544   1.808   3.797   0.838 -0.1466  0.4690 -1.3245
  163MPD2    N1 2545   2.080   3.879   0.419  0.2923 -0.3111  0.2678
  163MPD2    H7 2546   2.115   3.935   0.342 -0.1959  0.7240  0.8011
  164TMC2    C1 2547   2.329   3.136  10.993 -0.2744  0.4715  0.4695
  164TMC2    C2 2548   2.453   3.153  11.046  0.3614 -0.6033  0.3582
  164TMC2    C3 2549   2.460   3.241  11.148 -0.1975 -0.1474  0.7009
  164TMC2    C4 2550   2.215   3.185  11.050  0.3189  0.0334 -0.2624
  164TMC2    C5 2551   2.228   3.282  11.142 -0.2323 -0.7622  0.0625
  164TMC2    C6 2552   2.350   3.312  11.193  0.1287 -0.1853  0.0008
  164TMC2     C 2553   2.318   3.061  10.870 -0.1700  0.2432  0.0773
  164TMC2     O 2554   2.207   3.024  10.837 -0.1132 -0.2468 -0.2224
  164TMC2     H 2555   2.534   3.098  11.000 -0.3445  0.4257 -2.0622
  164TMC2    H1 2556   2.115   3.154  11.020  0.4507  0.3790 -1.0490
  164TMC2    H2 2557   2.378   3.394  11.258  2.4131 -0.6811 -0.3377
  164TMC2    C7 2558   2.100   3.337  11.190 -0.4559  0.8744 -0.5808
  164TMC2    C8 2559   2.584   3.258  11.212 -0.7643 -0.2341 -0.1988
  164TMC2    O1 2560   1.996   3.290  11.144 -0.1505  0.3077  0.2316
  164TMC2    O2 2561   2.616   3.362  11.256  0.0905 -0.4594 -0.1170
  164TMC2    O5 2562   2.637   3.136  11.237  0.3728 -0.2382  0.7823
  164TMC2    H5 2563   2.588   3.060  11.199  2.1922 -1.6321  1.1928
  165TMC2    C1 2564   3.090   0.407   0.495  0.4121 -0.0851 -0.2640
  165TMC2    C2 2565   3.024   0.388   0.377 -0.3103  0.1407 -0.2864
  165TMC2    C3 2566   3.100   0.391   0.267  0.0533  0.1147  0.5510
  165TMC2    C4 2567   3.221   0.429   0.507  0.2543  0.4605 -1.0428
  165TMC2    C5 2568   3.284   0.412   0.388  0.7219 -0.4426  0.5095
  165TMC2    C6 2569   3.234   0.391   0.268  0.1177 -0.6995 -0.4529
  165TMC2     C 2570   3.020   0.361   0.613 -0.2593 -0.3604  0.0762
  165TMC2     O 2571   3.067   0.382   0.722  0.0375 -0.0407  0.1598
  165TMC2     H 2572   2.917   0.370   0.372 -0.4261  0.4463  1.1421
  165TMC2    H1 2573   3.270   0.436   0.603 -1.2594  0.2274 -0.2533
  165TMC2    H2 2574   3.293   0.369   0.180 -0.5853  0.2601 -1.1635
  165TMC2    C7 2575   3.426   0.399   0.404 -0.3730  0.2156 -0.7284
  165TMC2    C8 2576   3.042   0.390   0.141 -0.3185 -0.1825  0.8462
  165TMC2    O1 2577   3.482   0.458   0.495 -0.4497 -0.3340  0.0484
  165TMC2    O2 2578   2.938   0.337   0.132  0.4076 -0.5729 -0.7527
  165TMC2    O5 2579   3.083   0.502   0.086 -0.2234  0.0822 -0.4760
  165TMC2    H5 2580   3.166   0.541   0.121 -0.3666 -0.7874  0.8019
  166MPD2     C 2581   2.763   4.701   0.826  0.0963  0.1131 -0.6153
  166MPD2    C1 2582   2.827   0.068   0.891  1.1323  0.1666  0.3125
  166MPD2    C2 2583   2.862   0.177   0.804  0.4518 -0.0484  0.1013
  166MPD2    C3 2584   2.866   0.159   0.665  0.0287 -0.2219  0.1590
  166MPD2    C4 2585   2.822   0.045   0.603 -0.5270 -0.7020 -0.3398
  166MPD2    C5 2586   2.758   4.694   0.690 -0.6525 -0.0447 -0.3075
  166MPD2     H 2587   2.899   0.270   0.844  1.8897  0.0236 -1.3865
  166MPD2    H1 2588   2.818   0.033   0.495  1.5405 -0.0186 -0.4928
  166MPD2    H2 2589   2.716   4.617   0.876  1.5618 -0.5623 -0.3698
  166MPD2    H3 2590   2.714   4.603   0.651  1.7173 -2.4302  2.5312
  166MPD2     N 2591   2.943   0.249   0.577  0.2462  0.1675 -0.0583
  166MPD2    H5 2592   2.944   0.221   0.479 -0.7914 -0.6847  0.1695
  166MPD2    N1 2593   2.837   0.073   1.034  0.0412  0.1204  0.0974
  166MPD2    H7 2594   2.795   0.001   1.093 -0.6633 -0.0649 -0.6424
  167TMC2    C1 2595   2.449   2.213  12.777  0.1380 -0.4415  0.0718
  167TMC2    C2 2596   2.474   2.090  12.830 -0.1663  0.0010  0.1367
  167TMC2    C3 2597   2.573   2.019  12.762 -0.1558  0.0087  0.4517
  167TMC2    C4 2598   2.499   2.259  12.657  0.2894  0.7126  0.0997
  167TMC2    C5 2599   2.579   2.177  12.583 -0.3521  0.0773  0.1528
  167TMC2    C6 2600   2.623   2.055  12.635 -0.0647  0.1322  0.2311
  167TMC2     C 2601   2.376   2.306  12.855 -0.2418  0.0003 -0.1075
  167TMC2     O 2602   2.282   2.263  12.915  0.6628  0.8411  0.1345
  167TMC2     H 2603   2.441   2.051  12.926 -2.7367 -1.1686 -1.2071
  167TMC2    H1 2604   2.463   2.356  12.624  0.4418 -0.1268 -2.5128
  167TMC2    H2 2605   2.682   1.986  12.576 -0.5502 -0.8705  0.9152
  167TMC2    C7 2606   2.631   2.220  12.456  0.0925 -0.1667  0.3792
  167TMC2    C8 2607   2.567   1.876  12.783 -0.2297 -0.2679 -0.0424
  167TMC2    O1 2608   2.725   2.165  12.411 -0.5905  0.5652 -0.1677
  167TMC2    O2 2609   2.460   1.822  12.813 -0.4695  0.6413  0.0522
  167TMC2    O5 2610   2.694   1.828  12.806  0.5048 -0.0056  0.0864
  167TMC2    H5 2611   2.754   1.905  12.797  0.1308  0.3369  0.5448
  168MPD2     C 2612   2.242   2.539  12.981  0.0275 -0.8226  0.8972
  168MPD2    C1 2613   2.355   2.549  12.902  0.2745 -0.1347 -0.3633
  168MPD2    C2 2614   2.402   2.670  12.858 -0.1440  0.7018  0.5022
  168MPD2    C3 2615   2.338   2.789  12.898  0.0027 -0.2897 -0.6444
  168MPD2    C4 2616   2.224   2.776  12.980  0.5128  0.1864  0.2931
  168MPD2    C5 2617   2.177   2.652  13.018 -0.3519  0.0490 -1.3995
  168MPD2     H 2618   2.490   2.672  12.796  0.0310  0.6145  0.7494
  168MPD2    H1 2619   2.174   2.866  13.014 -0.2126 -0.1133  0.0365
  168MPD2    H2 2620   2.208   2.443  13.020 -1.0606 -0.1196  1.6672
  168MPD2    H3 2621   2.086   2.650  13.077 -0.0776  2.1614 -0.8900
  168MPD2     N 2622   2.389   2.918  12.861  0.2533 -0.3086  0.2650
  168MPD2    H5 2623   2.337   3.002  12.882  1.4824  0.6381 -0.4621
  168MPD2    N1 2624   2.428   2.433  12.844  0.0243 -0.3879  0.4520
  168MPD2    H7 2625   2.511   2.453  12.789 -1.7005  1.0014 -1.6383
  169MPD1     C 2626   2.764   3.145   9.367  0.4887 -0.4003 -0.4550
  169MPD1    C1 2627   2.821   3.091   9.250 -0.1147 -0.1075 -0.2611
  169MPD1    C2 2628   2.871   2.966   9.246  0.3237 -0.1213 -0.8085
  169MPD1    C3 2629   2.870   2.885   9.362 -0.1099 -0.6363 -0.2550
  169MPD1    C4 2630   2.820   2.941   9.481 -0.0295  0.5441  0.0593
  169MPD1    C5 2631   2.765   3.070   9.480  1.1445 -0.6558  0.0032
  169MPD1     H 2632   2.900   2.941   9.144  3.5358  0.0384  0.0593
  169MPD1    H1 2633   2.830   2.887   9.575 -0.3035  1.7306  0.7647
  169MPD1    H2 2634   2.711   3.239   9.374  0.5602 -0.3038 -1.1845
  169MPD1    H3 2635   2.706   3.100   9.566  0.3613  0.1279 -0.8020
  169MPD1     N 2636   2.919   2.751   9.355 -0.0617  0.0284 -0.2589
  169MPD1    H5 2637   2.957   2.727   9.264  0.8262  3.0177 -0.7062
  169MPD1    N1 2638   2.786   3.150   9.121  0.7518  0.3222 -0.1232
  169MPD1    H6 2639   2.778   3.251   9.127  1.8006  0.3982 -0.0112
  169MPD1    H7 2640   2.860   3.145   9.051  3.0493 -1.0843  2.3958
  170MPD1     C 2641   2.399   0.576  12.740 -0.7556  0.0952 -0.0987
  170MPD1    C1 2642   2.324   0.642  12.833  0.2159  0.4896  0.0302
  170MPD1    C2 2643   2.386   0.704  12.944  0.1636  0.7467 -0.2057
  170MPD1    C3 2644   2.522   0.711  12.939 -0.0072  0.0169  0.7505
  170MPD1    C4 2645   2.599   0.662  12.838 -1.3928 -0.0341  0.1527
  170MPD1    C5 2646   2.538   0.586  12.743  0.0169  0.0508 -0.1348
  170MPD1     H 2647   2.332   0.754  13.024  0.1640  0.1625  0.1607
  170MPD1    H1 2648   2.706   0.680  12.834 -0.5766 -4.9305 -0.8109
  170MPD1    H2 2649   2.353   0.518  12.660 -1.6757  0.6444  0.0360
  170MPD1    H3 2650   2.607   0.537  12.676  0.7115 -0.9368  1.3225
  170MPD1     N 2651   2.578   0.780  13.045  0.2054  0.4541 -0.0754
  170MPD1    H5 2652   2.505   0.806  13.111  1.9595  2.0680  1.2328
  170MPD1    N1 2653   2.184   0.648  12.824  0.5086 -0.0815  0.3914
  170MPD1    H6 2654   2.154   0.742  12.851 -0.5088 -0.2653 -0.1432
  170MPD1    H7 2655   2.155   0.631  12.728  3.4061 -0.9117 -0.3481
  171MPD1     C 2656   1.205   1.462  15.711  0.7195 -0.7196 -0.1371
  171MPD1    C1 2657   1.238   1.369  15.613  0.4985  0.2274  0.2782
  171MPD1    C2 2658   1.315   1.260  15.653 -0.3453  0.0960  1.0922
  171MPD1    C3 2659   1.352   1.250  15.789 -0.0804  1.1689  0.4430
  171MPD1    C4 2660   1.314   1.348  15.878 -0.4946 -0.5763 -0.3785
  171MPD1    C5 2661   1.240   1.452  15.844  0.0341 -0.1897  0.2104
  171MPD1     H 2662   1.330   1.180  15.581 -1.8526  0.9543 -0.1907
  171MPD1    H1 2663   1.338   1.347  15.984 -2.1820 -0.6417  0.0022
  171MPD1    H2 2664   1.160   1.554  15.677  1.5033 -0.3472 -0.1649
  171MPD1    H3 2665   1.217   1.536  15.908 -1.4182  1.0624 -1.9344
  171MPD1     N 2666   1.421   1.139  15.852  0.4116  0.4144 -0.9925
  171MPD1    H5 2667   1.447   1.147  15.950  0.7598  1.4580 -1.1749
  171MPD1    N1 2668   1.204   1.380  15.481  0.0666  0.0650  0.0292
  171MPD1    H6 2669   1.264   1.337  15.411 -4.3164 -2.8873 -1.8687
  171MPD1    H7 2670   1.190   1.475  15.447  1.0237  0.6195  1.1731
  172MPD1     C 2671   0.175   0.579   0.529  0.1592  0.5643  0.1125
  172MPD1    C1 2672   0.271   0.535   0.440 -0.1735 -0.7681 -0.9467
  172MPD1    C2 2673   0.383   0.615   0.429 -0.0096  0.0295  0.2053
  172MPD1    C3 2674   0.389   0.742   0.489 -0.4464 -0.1151 -0.8262
  172MPD1    C4 2675   0.293   0.780   0.584 -0.2918 -0.2117 -0.2366
  172MPD1    C5 2676   0.182   0.693   0.600  0.0655  0.1597  0.2792
  172MPD1     H 2677   0.458   0.583   0.358  0.0174  0.7239 -0.0815
  172MPD1    H1 2678   0.294   0.875   0.634 -1.4615 -0.3766  0.0921
  172MPD1    H2 2679   0.089   0.513   0.538  0.6273  0.0616  0.8978
  172MPD1    H3 2680   0.120   0.730   0.681 -0.4157 -1.9744  0.8852
  172MPD1     N 2681   0.492   0.840   0.463 -0.2238  0.1555  0.1072
  172MPD1    H5 2682   0.481   0.925   0.516  1.3978  1.9897 -2.5004
  172MPD1    N1 2683   0.262   0.405   0.391  0.3000 -1.1921 -0.2832
  172MPD1    H6 2684   0.295   0.401   0.294  1.4932  1.5198  0.0097
  172MPD1    H7 2685   0.164   0.377   0.382 -0.1139  0.7394 -1.8929
  173MPD1     C 2686   1.462   0.662  13.942 -0.0003  0.3220 -1.2196
  173MPD1    C1 2687   1.515   0.602  14.050  0.2364  0.7155 -0.5922
  173MPD1    C2 2688   1.586   0.680  14.143 -0.0862  0.2123 -0.2595
  173MPD1    C3 2689   1.618   0.807  14.117  0.4210  0.6579  0.0379
  173MPD1    C4 2690   1.560   0.866  14.003  0.0152 -0.6591  0.1770
  173MPD1    C5 2691   1.473   0.802  13.922  0.2921  0.5570 -0.0989
  173MPD1     H 2692   1.629   0.636  14.232 -2.6008 -0.7808  0.4685
  173MPD1    H1 2693   1.584   0.970  13.984 -0.3347 -0.6235 -0.0806
  173MPD1    H2 2694   1.414   0.611  13.859  1.0026  0.8049 -2.0866
  173MPD1    H3 2695   1.450   0.847  13.826  0.8898 -0.5651 -0.7739
  173MPD1     N 2696   1.703   0.871  14.209 -0.3914  0.0863  0.3923
  173MPD1    H5 2697   1.712   0.821  14.297  1.0839 -0.2132  0.0850
  173MPD1    N1 2698   1.530   0.458  14.056  0.0231 -0.3777 -0.1666
  173MPD1    H6 2699   1.549   0.420  14.148 -1.2736 -0.3827  0.0997
  173MPD1    H7 2700   1.450   0.407  14.018  0.4587 -1.4278  0.3409
  174MPD1     C 2701   2.550   1.318  14.033  0.0241  0.7624  0.3362
  174MPD1    C1 2702   2.526   1.360  14.154  0.7466  0.0229 -0.1228
  174MPD1    C2 2703   2.415   1.306  14.222 -0.8278  0.0517 -0.5730
  174MPD1    C3 2704   2.325   1.213  14.168  0.3169 -0.9621  0.2249
  174MPD1    C4 2705   2.355   1.172  14.043  0.5522  0.1351  0.3050
  174MPD1    C5 2706   2.470   1.222  13.977 -0.2342 -0.2147 -0.6139
  174MPD1     H 2707   2.392   1.320  14.327  0.2433  3.5447 -0.8215
  174MPD1    H1 2708   2.297   1.096  13.991  0.9873  0.8692 -1.2792
  174MPD1    H2 2709   2.622   1.362  13.965 -1.9409 -2.2448 -3.6991
  174MPD1    H3 2710   2.491   1.199  13.874  2.2848 -2.4574  0.4065
  174MPD1     N 2711   2.208   1.169  14.229  0.2037 -0.1187  0.4267
  174MPD1    H5 2712   2.155   1.100  14.178  0.7153 -1.4399  1.6818
  174MPD1    N1 2713   2.616   1.426  14.233 -1.0901 -0.2716 -0.2324
  174MPD1    H6 2714   2.693   1.475  14.189  0.3515 -1.3605  1.0593
  174MPD1    H7 2715   2.585   1.479  14.315 -0.7212 -2.0218  1.0432
  175MPD1     C 2716   0.646   1.931  15.350 -0.4526  0.3055  0.3835
  175MPD1    C1 2717   0.671   1.803  15.397  0.3695 -0.2083  0.5990
  175MPD1    C2 2718   0.616   1.758  15.515 -0.2518 -0.1202  0.2039
  175MPD1    C3 2719   0.525   1.836  15.583  0.2762  0.4562  0.5200
  175MPD1    C4 2720   0.495   1.966  15.536 -0.0873  0.1188  0.1319
  175MPD1    C5 2721   0.553   2.004  15.424 -0.3010 -0.2592  1.2098
  175MPD1     H 2722   0.633   1.655  15.546  1.7106  0.3613  0.6720
  175MPD1    H1 2723   0.427   2.037  15.581 -0.5556  0.9774 -1.9274
  175MPD1    H2 2724   0.698   1.977  15.267 -1.3080 -1.9648 -1.4197
  175MPD1    H3 2725   0.528   2.100  15.381 -0.0210  0.3002  2.2963
  175MPD1     N 2726   0.461   1.800  15.707  0.0488  0.1715 -0.9180
  175MPD1    H5 2727   0.380   1.856  15.731 -0.3642 -1.2630  0.9578
  175MPD1    N1 2728   0.761   1.720  15.333 -0.2550  0.2287 -0.3963
  175MPD1    H6 2729   0.743   1.621  15.342 -2.6238  0.6376 -0.5867
  175MPD1    H7 2730   0.752   1.744  15.234 -0.6877 -1.6435 -0.8057
  176MPD1     C 2731   2.179   3.179  17.371  0.4290 -0.1879  0.5495
  176MPD1    C1 2732   2.123   3.100  17.281  0.9571 -0.8740  0.5113
  176MPD1    C2 2733   2.004   3.149  17.214 -0.3844  0.1301  0.3345
  176MPD1    C3 2734   1.963   3.281  17.235  0.2556 -0.1481  0.2883
  176MPD1    C4 2735   2.008   3.348  17.349 -0.7554  0.3832 -0.4894
  176MPD1    C5 2736   2.121   3.301  17.409  0.0807 -1.0047 -0.1805
  176MPD1     H 2737   1.964   3.095  17.129 -0.0661 -2.4080  1.8077
  176MPD1    H1 2738   1.994   3.455  17.358 -0.3628  0.4728 -0.8919
  176MPD1    H2 2739   2.277   3.155  17.413  1.4807  0.4104 -1.5467
  176MPD1    H3 2740   2.184   3.361  17.475 -1.0039  0.6045 -0.6286
  176MPD1     N 2741   1.885   3.343  17.137  0.7313  0.1618 -0.4288
  176MPD1    H5 2742   1.882   3.298  17.045  1.4102 -1.4401  0.3360
  176MPD1    N1 2743   2.199   2.996  17.221 -0.3294  0.0228  0.0788
  176MPD1    H6 2744   2.257   2.942  17.285  0.2274 -1.3458 -1.5884
  176MPD1    H7 2745   2.134   2.927  17.184 -0.2729 -1.9274  3.5916
  177MPD1     C 2746   0.324   3.930   8.836 -0.1371  0.2231 -0.4005
  177MPD1    C1 2747   0.250   3.952   8.955 -0.0629  0.1825 -0.1129
  177MPD1    C2 2748   0.113   3.946   8.946  0.2307 -0.1155 -0.4645
  177MPD1    C3 2749   0.051   3.880   8.840  0.6424 -0.3992  0.1318
  177MPD1    C4 2750   0.119   3.850   8.724 -0.2628 -0.1718  0.5263
  177MPD1    C5 2751   0.256   3.874   8.728  0.1069  0.4867  0.0397
  177MPD1     H 2752   0.048   3.994   9.017 -0.7712 -0.6130 -1.0446
  177MPD1    H1 2753   0.078   3.799   8.637 -0.9384  0.1546  0.6549
  177MPD1    H2 2754   0.431   3.940   8.823 -0.4092  1.3456 -1.7651
  177MPD1    H3 2755   0.314   3.858   8.638 -3.2322  0.1354 -2.0410
  177MPD1     N 2756   4.643   3.862   8.852 -0.2669  0.0649 -0.2117
  177MPD1    H5 2757   4.598   3.900   8.934  2.4076  1.5628  0.5806
  177MPD1    N1 2758   0.313   4.019   9.064  0.5217 -0.5215  0.3586
  177MPD1    H6 2759   0.278   4.006   9.158  0.5585 -0.1475  0.4226
  177MPD1    H7 2760   0.414   4.002   9.066  0.9163  1.7043 -0.1387
  178MPD1     C 2761   3.462   0.579  17.663 -1.0210 -0.1233 -0.5942
  178MPD1    C1 2762   3.351   0.596  17.585 -0.1672 -0.2751 -0.8582
  178MPD1    C2 2763   3.290   0.484  17.530 -0.0708 -0.5607  0.3586
  178MPD1    C3 2764   3.336   0.357  17.558 -0.4304  0.5133  0.3394
  178MPD1    C4 2765   3.448   0.347  17.635 -0.9413 -0.3247 -0.0623
  178MPD1    C5 2766   3.513   0.455  17.688  0.2879  0.0988  0.5548
  178MPD1     H 2767   3.196   0.495  17.478 -0.3208 -0.7941  0.7630
  178MPD1    H1 2768   3.497   0.251  17.650  0.0515 -0.0880 -1.6829
  178MPD1    H2 2769   3.529   0.659  17.692 -2.0181  0.3153  0.4942
  178MPD1    H3 2770   3.609   0.454   0.004  1.3803  1.7497 -1.4760
  178MPD1     N 2771   3.277   0.234  17.510 -0.2015  0.1333  0.3320
  178MPD1    H5 2772   3.320   0.144  17.533 -0.5909 -0.3760 -0.9656
  178MPD1    N1 2773   3.294   0.718  17.571 -0.6051 -0.0323  0.3497
  178MPD1    H6 2774   3.358   0.798  17.567  0.0673 -0.6062 -0.4649
  178MPD1    H7 2775   3.219   0.714  17.502 -1.5016  1.9851  1.2143
  179MPD1     C 2776   1.314   2.714  15.869  1.0402 -0.3194 -0.0661
  179MPD1    C1 2777   1.372   2.757  15.755  0.5576  0.2541  0.6659
  179MPD1    C2 2778   1.469   2.678  15.702 -0.3410  0.1962 -0.5271
  179MPD1    C3 2779   1.486   2.547  15.751 -0.7638 -0.0341  0.5576
  179MPD1    C4 2780   1.406   2.502  15.854 -0.0009  0.0901  0.2678
  179MPD1    C5 2781   1.316   2.585  15.908  0.4199  0.2622  0.0550
  179MPD1     H 2782   1.510   2.714  15.608 -0.8190 -1.0903 -1.2197
  179MPD1    H1 2783   1.409   2.402  15.895  1.7747  0.2383  0.5176
  179MPD1    H2 2784   1.234   2.769  15.918  0.9319 -0.1561 -0.4308
  179MPD1    H3 2785   1.257   2.548  15.991  0.2743  0.3133 -0.0264
  179MPD1     N 2786   1.580   2.457  15.688  0.0400 -0.2697  0.2221
  179MPD1    H5 2787   1.582   2.363  15.726 -0.9903 -0.6765 -0.7338
  179MPD1    N1 2788   1.350   2.889  15.720  0.4157  0.8952  0.0072
  179MPD1    H6 2789   1.261   2.928  15.748  0.3342  1.9171 -1.6660
  179MPD1    H7 2790   1.359   2.896  15.619 -0.5582  0.0423 -0.1272
  180MPD1     C 2791   2.070   2.750  15.380 -0.2881  0.4383  0.8918
  180MPD1    C1 2792   2.173   2.822  15.320  0.1666  0.2134  0.5253
  180MPD1    C2 2793   2.140   2.895  15.205 -0.0474  0.2600 -0.5693
  180MPD1    C3 2794   2.017   2.894  15.148 -0.8786  0.4212  0.2293
  180MPD1    C4 2795   1.921   2.817  15.210  0.0474 -0.0596 -0.6350
  180MPD1    C5 2796   1.951   2.738  15.319  0.0805 -0.1716  0.5589
  180MPD1     H 2797   2.221   2.955  15.164  0.2614 -1.2992 -2.2105
  180MPD1    H1 2798   1.819   2.803  15.178 -0.8338  2.2974  1.1133
  180MPD1    H2 2799   2.080   2.695  15.472  1.6670  0.5134  0.7419
  180MPD1    H3 2800   1.880   2.665  15.356  0.2360 -1.0666 -0.8847
  180MPD1     N 2801   1.994   2.967  15.030 -0.1695 -0.1728 -0.2249
  180MPD1    H5 2802   2.072   3.016  14.988  0.3795 -0.7338  0.1477
  180MPD1    N1 2803   2.291   2.855  15.394 -0.3454  0.0784  0.7408
  180MPD1    H6 2804   2.376   2.848  15.339 -0.9535 -0.4211 -0.1402
  180MPD1    H7 2805   2.312   2.780  15.460  2.3970 -0.0941 -0.3238
  181MPD1     C 2806   3.470   0.476  10.019 -0.0520  0.7359  0.4795
  181MPD1    C1 2807   3.504   0.569  10.109  0.4826 -0.6177 -0.4238
  181MPD1    C2 2808   3.576   0.674  10.067 -0.0514  0.1294  0.4970
  181MPD1    C3 2809   3.637   0.679   9.944 -0.1469 -0.3218  0.1670
  181MPD1    C4 2810   3.611   0.579   9.852 -0.0769 -0.6195  0.1913
  181MPD1    C5 2811   3.521   0.483   9.894 -0.3935 -0.6970  0.3240
  181MPD1     H 2812   3.591   0.754  10.139 -0.6515  1.5972 -1.0159
  181MPD1    H1 2813   3.649   0.590   9.752  0.8148 -1.1891  0.4649
  181MPD1    H2 2814   3.403   0.394  10.043 -0.8089  2.3674  3.8787
  181MPD1    H3 2815   3.489   0.408   9.822  0.2055 -0.6352 -0.0043
  181MPD1     N 2816   3.720   0.786   9.905 -0.2501  0.7755 -0.6668
  181MPD1    H5 2817   3.767   0.761   9.818 -0.2248  1.0011 -0.7171
  181MPD1    N1 2818   3.452   0.578  10.235 -0.2812  0.2213  0.0708
  181MPD1    H6 2819   3.517   0.630  10.293 -1.3770  1.9982 -0.3018
  181MPD1    H7 2820   3.445   0.483  10.272 -0.2104 -0.0174 -0.5217
  182MPD1     C 2821   4.565   0.880   1.446  0.1676  0.2143  0.0181
  182MPD1    C1 2822   4.427   0.905   1.466  0.4433 -0.4203 -0.1781
  182MPD1    C2 2823   4.328   0.848   1.389 -0.0066  0.6260  0.5405
  182MPD1    C3 2824   4.369   0.752   1.297  0.2824  0.1075  0.7570
  182MPD1    C4 2825   4.496   0.723   1.289  0.4464  0.0811  0.1033
  182MPD1    C5 2826   4.593   0.785   1.355 -0.4516 -0.3342 -0.4014
  182MPD1     H 2827   4.225   0.880   1.393 -0.3907 -0.1634 -3.1071
  182MPD1    H1 2828   4.534   0.651   1.217  0.6582 -0.4429  0.7376
  182MPD1    H2 2829   4.639   0.929   1.509  1.9713 -0.7500 -1.3810
  182MPD1    H3 2830   4.693   0.748   1.335  0.7654  3.9083 -2.1556
  182MPD1     N 2831   4.288   0.683   1.204  0.4210  0.4026 -0.0161
  182MPD1    H5 2832   4.328   0.613   1.143  0.9171 -0.4612  1.2850
  182MPD1    N1 2833   4.399   1.010   1.547 -0.1584 -0.7534  0.3693
  182MPD1    H6 2834   4.475   1.028   1.612  1.8378 -0.1723 -2.1352
  182MPD1    H7 2835   4.316   0.994   1.604  0.0658  0.5079  1.0511
  183MPD1     C 2836   0.528   2.034   9.067 -0.1422  0.7808 -0.4715
  183MPD1    C1 2837   0.422   2.026   9.165  0.2062 -0.9512  0.1061
  183MPD1    C2 2838   0.361   1.904   9.178 -0.0887  0.3377 -0.9134
  183MPD1    C3 2839   0.408   1.790   9.110  0.5190 -0.1168 -0.6314
  183MPD1    C4 2840   0.517   1.798   9.025  0.3976 -0.3075 -0.3108
  183MPD1    C5 2841   0.578   1.927   9.001  0.2808  0.0646  0.3280
  183MPD1     H 2842   0.282   1.891   9.251 -0.0713 -0.5711 -1.0558
  183MPD1    H1 2843   0.551   1.716   8.964 -1.4708 -0.8206 -0.6545
  183MPD1    H2 2844   0.584   2.126   9.052  1.1744  0.0759  0.1203
  183MPD1    H3 2845   0.664   1.943   8.937 -1.1050 -1.2739 -1.8652
  183MPD1     N 2846   0.340   1.671   9.131  0.1906 -0.3447 -0.5669
  183MPD1    H5 2847   0.255   1.674   9.186 -0.4392 -1.1235 -1.4927
  183MPD1    N1 2848   0.383   2.143   9.236  0.1826  0.0677  0.3647
  183MPD1    H6 2849   0.456   2.214   9.234 -0.5664  0.8816  1.3829
  183MPD1    H7 2850   0.351   2.118   9.329 -0.8401  0.8470  0.2308
  184MPD1     C 2851   4.359   2.662   9.611  0.0929 -0.2343 -0.0526
  184MPD1    C1 2852   4.453   2.745   9.655 -0.5055 -0.0129 -0.0007
  184MPD1    C2 2853   4.418   2.875   9.686  0.8104 -1.1173 -0.3260
  184MPD1    C3 2854   4.293   2.923   9.645  0.3128 -0.1763 -0.3281
  184MPD1    C4 2855   4.199   2.835   9.588  0.1365  0.4998  0.3324
  184MPD1    C5 2856   4.237   2.708   9.575 -0.4495 -0.3616  0.3691
  184MPD1     H 2857   4.495   2.940   9.725  1.5494 -1.9572 -0.3851
  184MPD1    H1 2858   4.104   2.870   9.549 -0.8410 -1.1368  1.2192
  184MPD1    H2 2859   4.394   2.563   9.586  1.3348  0.2776 -0.3700
  184MPD1    H3 2860   4.172   2.634   9.528  0.9074 -0.6946 -0.9978
  184MPD1     N 2861   4.252   3.060   9.657 -0.2531  0.0968  0.1783
  184MPD1    H5 2862   4.166   3.090   9.611 -0.3043 -0.3690 -0.0389
  184MPD1    N1 2863   4.582   2.694   9.687  0.4667  0.3063  0.5232
  184MPD1    H6 2864   4.651   2.769   9.677  0.3693  0.3419  0.1096
  184MPD1    H7 2865   4.602   2.609   9.634  0.1326  0.6803 -0.2120
  185MPD1     C 2866   3.465   3.599   9.501 -0.2030  0.4649  0.3061
  185MPD1    C1 2867   3.522   3.558   9.619  0.2077  0.6191 -0.6424
  185MPD1    C2 2868   3.657   3.526   9.628  0.1669 -0.1211  0.1400
  185MPD1    C3 2869   3.735   3.520   9.514  0.6417 -0.2438 -0.2750
  185MPD1    C4 2870   3.678   3.579   9.402 -0.8671 -0.4325 -0.4189
  185MPD1    C5 2871   3.553   3.619   9.396  0.4321 -0.7774  0.1383
  185MPD1     H 2872   3.693   3.507   9.729 -2.0549 -1.7784  0.6122
  185MPD1    H1 2873   3.735   3.602   9.313  1.1400  0.8639  1.2046
  185MPD1    H2 2874   3.366   3.638   9.481 -0.2399 -0.0407 -0.5150
  185MPD1    H3 2875   3.522   3.665   9.303 -0.0744 -3.2926 -0.9301
  185MPD1     N 2876   3.869   3.479   9.520 -0.0604  0.0580 -0.2295
  185MPD1    H5 2877   3.925   3.496   9.437 -1.5966 -0.6483 -1.4263
  185MPD1    N1 2878   3.447   3.556   9.738  0.3810  0.3361 -0.2479
  185MPD1    H6 2879   3.491   3.490   9.802 -0.0580 -1.0525 -1.3877
  185MPD1    H7 2880   3.353   3.522   9.721  1.5422 -2.0390 -1.9216
  186MPD1     C 2881   2.791   2.608  15.633  0.2161  0.2363 -0.1676
  186MPD1    C1 2882   2.704   2.599  15.741 -0.4849  0.1537  0.1317
  186MPD1    C2 2883   2.687   2.703  15.826  0.3518  0.1308 -0.0538
  186MPD1    C3 2884   2.762   2.818  15.815  0.6644 -0.1514 -1.2273
  186MPD1    C4 2885   2.856   2.818  15.711  0.9851 -0.0007  0.2943
  186MPD1    C5 2886   2.876   2.710  15.632 -0.0224  0.3600  0.4857
  186MPD1     H 2887   2.606   2.697  15.898 -1.2552 -1.3516 -1.9744
  186MPD1    H1 2888   2.918   2.907  15.705 -1.0690  1.3800 -0.4780
  186MPD1    H2 2889   2.800   2.529  15.559 -1.0880  0.5675 -0.6861
  186MPD1    H3 2890   2.959   2.716  15.563 -2.5902  0.8106 -2.5645
  186MPD1     N 2891   2.749   2.927  15.903 -0.3167  0.2541  0.2368
  186MPD1    H5 2892   2.818   3.002  15.894 -1.3988  0.9491 -2.4446
  186MPD1    N1 2893   2.610   2.486  15.744 -0.1516  0.2756 -0.0704
  186MPD1    H6 2894   2.605   2.459  15.842  0.6307 -0.3193 -0.1904
  186MPD1    H7 2895   2.654   2.408  15.695 -1.1658 -1.7751  2.2697
  187MPD1     C 2896   1.827   3.778  17.509 -0.1010 -0.4454  0.3705
  187MPD1    C1 2897   1.810   3.872  17.610  0.0276 -0.4040 -0.0990
  187MPD1    C2 2898   1.802   4.009  17.576  0.5443 -0.4627 -0.1651
  187MPD1    C3 2899   1.827   4.043  17.444  0.2123 -0.2244  0.0013
  187MPD1    C4 2900   1.852   3.945  17.350 -0.0889  0.3535 -0.6069
  187MPD1    C5 2901   1.858   3.807  17.380  0.2016  0.5117  0.3084
  187MPD1     H 2902   1.783   4.081  17.655  0.1641 -0.3932 -0.3231
  187MPD1    H1 2903   1.867   3.980  17.249  2.6346  0.0452 -0.3064
  187MPD1    H2 2904   1.828   3.674  17.540 -0.9986 -0.4909  0.2379
  187MPD1    H3 2905   1.874   3.726  17.310 -0.0633  1.5223 -0.9239
  187MPD1     N 2906   1.816   4.181  17.411  0.0044 -0.4335  0.0931
  187MPD1    H5 2907   1.836   4.204  17.314 -0.3993 -0.1879  0.0713
  187MPD1    N1 2908   1.777   3.827   0.006 -0.1460  0.0904 -0.2337
  187MPD1    H6 2909   1.789   3.898   0.077 -5.8123 -0.0926  0.9041
  187MPD1    H7 2910   1.821   3.737   0.023  2.5642  1.6653  1.0270
  188MPD1     C 2911   1.673   0.363  10.739 -0.1531 -0.1786 -0.4358
  188MPD1    C1 2912   1.740   0.263  10.815  0.4005 -0.7759  0.0338
  188MPD1    C2 2913   1.733   0.127  10.773 -0.2252 -0.0048  0.0924
  188MPD1    C3 2914   1.681   0.090  10.651 -0.3041 -0.4692 -0.7455
  188MPD1    C4 2915   1.638   0.189  10.565  0.1805 -0.4000  0.3945
  188MPD1    C5 2916   1.640   0.323  10.611 -0.1925 -0.8662  0.8034
  188MPD1     H 2917   1.786   0.055  10.835  0.3487 -1.5413 -2.1902
  188MPD1    H1 2918   1.612   0.172  10.461  0.4681  0.3789  0.1897
  188MPD1    H2 2919   1.675   0.470  10.754 -2.5336 -0.3184  0.8092
  188MPD1    H3 2920   1.603   0.387  10.532 -1.6321  0.1352  2.2771
  188MPD1     N 2921   1.670   4.691  10.603  0.2125 -0.6131 -0.5109
  188MPD1    H5 2922   1.642   4.679  10.506 -0.0504 -2.3178 -0.2348
  188MPD1    N1 2923   1.786   0.288  10.946 -0.2171 -0.3898 -0.0774
  188MPD1    H6 2924   1.868   0.239  10.982  0.7018  0.3053 -1.2486
  188MPD1    H7 2925   1.817   0.384  10.963  4.0254 -1.5191 -1.5097
  189MPD1     C 2926   3.263   0.922   0.696  0.7812  0.4643 -0.1099
  189MPD1    C1 2927   3.247   0.861   0.578  0.0277  0.3824  0.0882
  189MPD1    C2 2928   3.192   0.933   0.474 -0.9443  0.1484  0.1761
  189MPD1    C3 2929   3.168   1.071   0.491  0.2256 -0.3701 -0.2667
  189MPD1    C4 2930   3.200   1.138   0.611 -0.1957  0.8444 -0.8590
  189MPD1    C5 2931   3.243   1.054   0.710 -0.5045  0.3365  0.2984
  189MPD1     H 2932   3.165   0.887   0.380 -1.4444 -0.0267  0.4097
  189MPD1    H1 2933   3.173   1.237   0.644 -1.5876  0.3324 -0.4729
  189MPD1    H2 2934   3.289   0.857   0.779 -0.1231  0.6854  0.3433
  189MPD1    H3 2935   3.248   1.096   0.810  0.0976  1.6207 -0.2850
  189MPD1     N 2936   3.104   1.144   0.390  0.1644  0.1811  0.4640
  189MPD1    H5 2937   3.059   1.087   0.318  2.5911 -0.2866 -0.6734
  189MPD1    N1 2938   3.246   0.718   0.579  0.4107 -0.0147  0.5460
  189MPD1    H6 2939   3.318   0.682   0.642  0.8013 -1.1641 -0.5533
  189MPD1    H7 2940   3.245   0.668   0.491 -1.5623  1.4381 -0.2455
  190MPD1     C 2941   2.720   0.341  15.026 -0.1477 -0.1964  0.4298
  190MPD1    C1 2942   2.826   0.265  14.965 -0.5876 -0.6171  0.1036
  190MPD1    C2 2943   2.855   0.145  15.023  0.1866  0.7306  0.7274
  190MPD1    C3 2944   2.809   0.103  15.146 -0.3959 -0.1704 -1.1092
  190MPD1    C4 2945   2.719   0.183  15.212 -0.1335 -0.3922  0.0022
  190MPD1    C5 2946   2.667   0.299  15.148 -0.1330  0.0086  0.0268
  190MPD1     H 2947   2.923   0.072  14.981  0.4901  0.3433  1.8668
  190MPD1    H1 2948   2.685   0.164  15.313  1.0258 -0.8903  0.2973
  190MPD1    H2 2949   2.679   0.437  14.999  1.2490  0.0309 -0.9147
  190MPD1    H3 2950   2.590   0.357  15.197  0.8246  2.3045 -1.1830
  190MPD1     N 2951   2.864   4.711  15.192  0.0324 -0.6993 -0.1479
  190MPD1    H5 2952   2.952   4.682  15.149  1.6846 -0.9116  3.3401
  190MPD1    N1 2953   2.869   0.307  14.838 -0.4138  0.0912 -0.3031
  190MPD1    H6 2954   2.960   0.275  14.804  0.5447  2.0786  0.4371
  190MPD1    H7 2955   2.873   0.408  14.836 -0.6423  0.1214  0.8541
  191MPD1     C 2956   1.330   1.306  13.097 -0.8992 -0.4153  0.3533
  191MPD1    C1 2957   1.422   1.309  12.987  0.0961  0.9839 -0.5010
  191MPD1    C2 2958   1.394   1.365  12.867  0.0271 -0.1999  0.0838
  191MPD1    C3 2959   1.266   1.427  12.857 -0.4274 -0.8431 -0.3974
  191MPD1    C4 2960   1.177   1.418  12.955  0.7582  0.2259  0.4770
  191MPD1    C5 2961   1.199   1.351  13.075 -0.2372  0.0990 -0.5626
  191MPD1     H 2962   1.461   1.362  12.781 -0.4979  0.5216 -0.3550
  191MPD1    H1 2963   1.083   1.471  12.958  0.0487 -1.0913  1.0867
  191MPD1    H2 2964   1.350   1.264  13.195 -2.5839  0.4579  1.0611
  191MPD1    H3 2965   1.134   1.361  13.162 -0.2587  0.4906 -0.6249
  191MPD1     N 2966   1.253   1.511  12.742 -0.2306  0.1218 -0.5541
  191MPD1    H5 2967   1.333   1.515  12.680 -0.8694  0.2994 -1.3627
  191MPD1    N1 2968   1.538   1.244  13.013  0.2080  0.3271 -0.1250
  191MPD1    H6 2969   1.576   1.284  13.099 -0.3121  0.8907 -0.1573
  191MPD1    H7 2970   1.611   1.277  12.951  0.6189 -0.9132 -0.2949
  192MPD1     C 2971   1.376   2.431  12.843 -0.0242 -0.4175  0.6965
  192MPD1    C1 2972   1.250   2.393  12.879  0.0747  0.1333 -0.5219
  192MPD1    C2 2973   1.186   2.305  12.796  0.5595 -0.1640  0.0036
  192MPD1    C3 2974   1.253   2.243  12.687 -0.3442 -0.0099 -0.4468
  192MPD1    C4 2975   1.380   2.281  12.664 -0.4720  0.3457  0.6344
  192MPD1    C5 2976   1.439   2.380  12.733  0.0621  0.3998 -1.1645
  192MPD1     H 2977   1.080   2.283  12.808 -0.0338  1.7623 -1.5501
  192MPD1    H1 2978   1.432   2.226  12.586 -2.1118 -0.0117 -0.2081
  192MPD1    H2 2979   1.431   2.502  12.904 -1.6144  0.8282  0.6865
  192MPD1    H3 2980   1.539   2.418  12.716  0.3125  0.8639  1.2447
  192MPD1     N 2981   1.207   2.140  12.610  0.7863 -0.3352  0.3388
  192MPD1    H5 2982   1.276   2.112  12.541  0.2474  0.8089 -0.6764
  192MPD1    N1 2983   1.183   2.448  12.984 -0.6946 -0.0039 -0.1798
  192MPD1    H6 2984   1.231   2.454  13.073  0.8566 -1.6424 -0.8992
  192MPD1    H7 2985   1.085   2.419  12.982 -1.0986  1.3124 -0.1205
  193MPD1     C 2986   1.538   0.869  17.019 -0.3900 -0.1599  0.3985
  193MPD1    C1 2987   1.673   0.849  17.008  0.1111  0.1493  0.2997
  193MPD1    C2 2988   1.755   0.960  16.988 -0.3202  0.0278 -0.6263
  193MPD1    C3 2989   1.706   1.087  16.996  0.7474 -0.0919  0.2650
  193MPD1    C4 2990   1.571   1.100  17.018 -0.1300  0.4653 -0.1937
  193MPD1    C5 2991   1.486   0.995  17.025 -0.5291  0.9798 -0.0527
  193MPD1     H 2992   1.859   0.940  16.966 -0.6377 -2.7178  0.3605
  193MPD1    H1 2993   1.518   1.194  17.029 -0.6880  0.0446  0.7403
  193MPD1    H2 2994   1.470   0.785  17.028  1.7716 -1.9309  0.4639
  193MPD1    H3 2995   1.381   1.018  17.038 -0.9543 -1.5483  1.0376
  193MPD1     N 2996   1.778   1.208  16.981 -0.3768  0.0634 -0.1702
  193MPD1    H5 2997   1.727   1.294  17.000  0.5069  0.3587  0.8397
  193MPD1    N1 2998   1.727   0.719  16.982 -0.1013 -0.6630 -0.5782
  193MPD1    H6 2999   1.681   0.646  17.037 -0.1438 -0.0204  0.2337
  193MPD1    H7 3000   1.824   0.718  17.013 -0.9225  1.5416  2.0669
  194MPD1     C 3001   4.037   3.568  17.070 -0.5235 -0.6141 -0.8345
  194MPD1    C1 3002   3.912   3.565  17.126 -0.5444  0.0989 -0.0630
  194MPD1    C2 3003   3.863   3.439  17.162 -0.2148 -0.0744  0.6605
  194MPD1    C3 3004   3.928   3.322  17.120 -0.2365 -0.0439  0.4438
  194MPD1    C4 3005   4.038   3.331  17.046 -0.2226 -0.4019 -0.4322
  194MPD1    C5 3006   4.089   3.450  17.022 -0.1062  0.0312  0.3193
  194MPD1     H 3007   3.770   3.429  17.216 -0.2498  1.7306  0.9602
  194MPD1    H1 3008   4.087   3.247  16.998  0.8565  0.9081 -1.6490
  194MPD1    H2 3009   4.088   3.659  17.041 -1.1517  0.0337  0.0937
  194MPD1    H3 3010   4.177   3.465  16.959  0.9476 -2.7445  1.1243
  194MPD1     N 3011   3.875   3.193  17.137  0.6870  0.6138 -0.4433
  194MPD1    H5 3012   3.919   3.115  17.089  0.4289 -1.1592  2.1628
  194MPD1    N1 3013   3.856   3.682  17.178 -0.7645  0.1172  0.1239
  194MPD1    H6 3014   3.891   3.755  17.116  0.4048  0.5876  1.3481
  194MPD1    H7 3015   3.754   3.687  17.187 -0.5480  1.4414  1.7858
  195MPD1     C 3016   2.084   4.541   0.287  0.7633  0.0233  0.4387
  195MPD1    C1 3017   2.061   4.513   0.154  0.9151 -1.1232  0.4346
  195MPD1    C2 3018   1.961   4.421   0.125 -0.2106 -0.0993 -0.4652
  195MPD1    C3 3019   1.875   4.367   0.223 -0.0119 -0.5634  0.0721
  195MPD1    C4 3020   1.903   4.392   0.354  0.4557  0.2084 -0.0378
  195MPD1    C5 3021   2.008   4.479   0.379 -0.4680 -0.1439 -0.1366
  195MPD1     H 3022   1.952   4.399   0.019 -1.4442  0.0947 -0.4036
  195MPD1    H1 3023   1.851   4.351   0.440  1.6938  0.5575  0.8713
  195MPD1    H2 3024   2.181   4.584   0.310  0.6432  0.7064 -0.3349
  195MPD1    H3 3025   2.044   4.492   0.480 -2.1654  0.1416  0.4251
  195MPD1     N 3026   1.754   4.293   0.186 -0.0200  0.2517 -0.0465
  195MPD1    H5 3027   1.730   4.281   0.088 -2.4635  0.6423  0.5009
  195MPD1    N1 3028   2.155   4.543   0.057  0.6635 -0.0899 -0.6628
  195MPD1    H6 3029   2.114   4.570  17.703  0.6710  0.4911 -0.4865
  195MPD1    H7 3030   2.205   4.628   0.082 -2.4434  1.0520  1.6468
  196MPD1     C 3031   1.291   4.458   0.680  0.0987  0.6293  0.5759
  196MPD1    C1 3032   1.336   4.584   0.704 -0.5186  0.1757  0.9651
  196MPD1    C2 3033   1.258   4.667   0.779  0.0017  0.5637  0.2734
  196MPD1    C3 3034   1.142   4.615   0.841  0.6633  0.0206  0.1748
  196MPD1    C4 3035   1.103   4.487   0.818 -0.2752  0.3163  0.0532
  196MPD1    C5 3036   1.179   4.408   0.741  0.0236 -0.1564  0.4427
  196MPD1     H 3037   1.285   0.037   0.796  0.2960  0.3887  0.8889
  196MPD1    H1 3038   1.012   4.448   0.861 -0.1334 -0.5523 -0.4521
  196MPD1    H2 3039   1.357   4.389   0.628  2.7234  1.5548  2.6850
  196MPD1    H3 3040   1.150   4.304   0.732  1.2099 -0.4337 -0.1659
  196MPD1     N 3041   1.064   4.679   0.932  0.1265 -0.2399  0.4291
  196MPD1    H5 3042   0.986   4.630   0.974  0.8269 -0.7834  1.1012
  196MPD1    N1 3043   1.446   4.640   0.638  0.0443  0.4227 -0.4804
  196MPD1    H6 3044   1.495   4.713   0.689 -2.0416  1.5306 -0.0578
  196MPD1    H7 3045   1.517   4.576   0.603 -0.0814 -1.9468  3.6613
  197MPD1     C 3046   0.337   0.927  17.540 -0.2216 -0.0807 -0.7444
  197MPD1    C1 3047   0.403   1.028  17.610 -0.2827  0.5747 -0.1023
  197MPD1    C2 3048   0.436   1.148  17.548 -0.1446  0.0704  0.0274
  197MPD1    C3 3049   0.406   1.174  17.418 -0.6537  0.3252  0.1110
  197MPD1    C4 3050   0.350   1.076  17.346 -0.1470  0.3833 -0.3224
  197MPD1    C5 3051   0.313   0.958  17.408 -0.6389  0.6265 -0.4991
  197MPD1     H 3052   0.484   1.227  17.603 -0.2469  0.6438 -0.7055
  197MPD1    H1 3053   0.334   1.098  17.240 -1.0473 -0.5603 -0.3826
  197MPD1    H2 3054   0.308   0.831  17.580 -1.2107  0.9638  1.0305
  197MPD1    H3 3055   0.262   0.893  17.338 -3.1658 -0.4313  2.3135
  197MPD1     N 3056   0.439   1.289  17.344 -0.0935 -0.1870  0.0690
  197MPD1    H5 3057   0.435   1.283  17.243 -0.4275  0.5542  0.0378
  197MPD1    N1 3058   0.414   1.024   0.017  0.2081  0.3334  0.3624
  197MPD1    H6 3059   0.422   0.927   0.050 -1.0099 -0.4785 -1.7622
  197MPD1    H7 3060   0.497   1.075   0.047  0.0141  0.6840  0.2898
  198MPD1     C 3061   2.349   0.153  15.318 -0.1073  1.1674 -0.4305
  198MPD1    C1 3062   2.350   0.289  15.295  0.1155  0.3247  0.6534
  198MPD1    C2 3063   2.336   0.372  15.404  0.4777  0.2694 -0.6466
  198MPD1    C3 3064   2.336   0.328  15.534 -0.2963  0.3108  0.1178
  198MPD1    C4 3065   2.347   0.192  15.555 -0.1260 -0.2764 -0.0181
  198MPD1    C5 3066   2.366   0.113  15.446  0.4759 -0.1353  1.0120
  198MPD1     H 3067   2.327   0.478  15.387  0.2927  0.4959  0.8158
  198MPD1    H1 3068   2.352   0.147  15.653 -0.6350  0.0111  0.1436
  198MPD1    H2 3069   2.371   0.080  15.240 -1.3115 -0.8166  1.0769
  198MPD1    H3 3070   2.392   0.008  15.450 -2.1715 -0.8618 -0.4148
  198MPD1     N 3071   2.343   0.424  15.638 -0.5041 -0.6763 -0.0651
  198MPD1    H5 3072   2.362   0.520  15.610 -0.4263 -0.4680  0.6846
  198MPD1    N1 3073   2.335   0.340  15.163  0.1397  0.0716 -0.1142
  198MPD1    H6 3074   2.376   0.282  15.090  0.5610  0.3046 -0.0598
  198MPD1    H7 3075   2.362   0.437  15.150  0.2457  0.3287  2.0994
  199MPD1     C 3076   4.562   1.714   9.637  0.3727  0.1673 -0.4072
  199MPD1    C1 3077   4.489   1.829   9.661  0.0995 -0.2927 -0.8815
  199MPD1    C2 3078   4.349   1.821   9.656 -0.1193  0.1289  0.3418
  199MPD1    C3 3079   4.292   1.708   9.599 -0.5779  0.7226  0.2195
  199MPD1    C4 3080   4.369   1.600   9.561 -0.1964  0.0370 -0.2336
  199MPD1    C5 3081   4.505   1.597   9.588 -0.2461 -0.1136 -0.4573
  199MPD1     H 3082   4.299   1.913   9.684 -0.4219  0.2285 -0.5204
  199MPD1    H1 3083   4.330   1.520   9.499 -0.1435 -0.6918  0.6663
  199MPD1    H2 3084   4.669   1.715   9.657  0.1027  1.4196  0.9778
  199MPD1    H3 3085   4.573   1.516   9.566 -0.3621 -0.5751  0.9297
  199MPD1     N 3086   4.152   1.698   9.563  0.3437 -0.4087  0.4743
  199MPD1    H5 3087   4.128   1.605   9.531 -1.4323 -0.6700  2.5419
  199MPD1    N1 3088   4.553   1.937   9.722  0.1435  0.0481  0.9044
  199MPD1    H6 3089   4.642   1.959   9.678  1.2443 -2.2278  2.0168
  199MPD1    H7 3090   4.489   2.015   9.733  0.4040  0.5880 -1.4946
  200MPD1     C 3091   3.782   1.850  15.688  0.2818 -0.1466 -0.0676
  200MPD1    C1 3092   3.853   1.968  15.683 -0.5580 -0.0407 -0.0391
  200MPD1    C2 3093   3.851   2.045  15.571  0.3377 -0.4889 -0.1897
  200MPD1    C3 3094   3.773   2.010  15.461  0.4916  0.7892 -0.5066
  200MPD1    C4 3095   3.684   1.907  15.474  0.2215  0.0360 -0.8350
  200MPD1    C5 3096   3.704   1.823  15.581 -0.8186 -0.2122 -0.1113
  200MPD1     H 3097   3.909   2.137  15.574 -0.3561  0.0559 -2.8612
  200MPD1    H1 3098   3.604   1.890  15.402 -0.6498  1.4481 -0.2049
  200MPD1    H2 3099   3.796   1.782  15.772  0.0762 -4.0613 -3.2142
  200MPD1    H3 3100   3.647   1.731  15.580 -1.2966  0.0881 -1.0736
  200MPD1     N 3101   3.788   2.090  15.346 -0.0568 -0.0395 -0.8606
  200MPD1    H5 3102   3.821   2.185  15.360  1.5678 -0.3196 -2.8002
  200MPD1    N1 3103   3.947   1.991  15.787  0.2194 -0.4729 -0.2021
  200MPD1    H6 3104   3.912   1.955  15.876  1.4217  1.4246  1.0217
  200MPD1    H7 3105   3.967   2.090  15.796 -2.5971  0.0444  0.3879
  201MPD1     C 3106   0.613   1.004  13.418 -0.3675  0.3073 -0.2949
  201MPD1    C1 3107   0.543   0.887  13.441  0.4613  0.3241 -0.2280
  201MPD1    C2 3108   0.617   0.767  13.464 -0.9708 -0.3955 -0.0937
  201MPD1    C3 3109   0.756   0.762  13.459 -0.4936 -0.0934 -0.5056
  201MPD1    C4 3110   0.820   0.883  13.428  0.2995  0.4615  0.1366
  201MPD1    C5 3111   0.752   0.997  13.407  0.3291  0.0747  0.7768
  201MPD1     H 3112   0.563   0.678  13.494 -0.9737 -0.3846 -0.0665
  201MPD1    H1 3113   0.928   0.889  13.416  0.1407 -0.2478 -1.6881
  201MPD1    H2 3114   0.570   1.104  13.418 -0.1162  0.4154  0.8132
  201MPD1    H3 3115   0.805   1.091  13.392 -1.9471  1.3368  0.7403
  201MPD1     N 3116   0.816   0.644  13.492  0.0294  0.3038  0.6345
  201MPD1    H5 3117   0.757   0.563  13.511  0.8373 -0.0792  1.4971
  201MPD1    N1 3118   0.407   0.900  13.479 -0.1422  0.2821  0.4479
  201MPD1    H6 3119   0.358   0.977  13.433 -0.3300 -0.2174 -0.1838
  201MPD1    H7 3120   0.353   0.814  13.469 -0.9829  0.5911  2.2782
  202MPD1     C 3121   0.576   0.304   8.666  0.1918  0.5451 -0.2505
  202MPD1    C1 3122   0.614   0.195   8.737  0.4657  0.6656 -0.2635
  202MPD1    C2 3123   0.664   0.215   8.863  0.1910  0.1004  0.3231
  202MPD1    C3 3124   0.678   0.337   8.919  0.1506 -0.5213 -0.5170
  202MPD1    C4 3125   0.642   0.446   8.843 -0.1174 -0.2686 -0.1095
  202MPD1    C5 3126   0.601   0.431   8.716 -0.0050  0.9632  0.0347
  202MPD1     H 3127   0.691   0.120   8.908  1.2451  0.1682 -0.1651
  202MPD1    H1 3128   0.650   0.548   8.878 -1.9629 -0.5987  1.2874
  202MPD1    H2 3129   0.513   0.298   8.578  0.8537  0.4683 -0.7200
  202MPD1    H3 3130   0.554   0.509   8.657 -2.1412  0.8046  1.5071
  202MPD1     N 3131   0.724   0.361   9.051  0.6386  0.1484 -0.4275
  202MPD1    H5 3132   0.723   0.457   9.083 -0.8713 -0.6757  1.9845
  202MPD1    N1 3133   0.544   0.074   8.716  0.7082 -0.9240  0.2697
  202MPD1    H6 3134   0.601   4.731   8.751  3.1819  0.6280 -0.3434
  202MPD1    H7 3135   0.517   0.064   8.618 -2.6665  1.1354  1.0026
  203MPD1     C 3136   3.942   1.148  11.824 -0.3640 -0.8561  0.0904
  203MPD1    C1 3137   4.007   1.045  11.772 -0.0156 -0.0870 -0.3089
  203MPD1    C2 3138   4.070   0.959  11.858 -0.1945  0.2824 -0.1947
  203MPD1    C3 3139   4.086   0.987  11.987 -0.4404  0.1487 -0.2624
  203MPD1    C4 3140   4.052   1.115  12.026 -0.2922 -0.0746 -0.2255
  203MPD1    C5 3141   3.970   1.197  11.949 -0.3811  0.0067  0.0120
  203MPD1     H 3142   4.119   0.870  11.820  0.3704  0.8131 -0.7068
  203MPD1    H1 3143   4.079   1.145  12.126 -2.7392  0.4701  0.2599
  203MPD1    H2 3144   3.875   1.212  11.767  0.1457 -0.0207  0.4271
  203MPD1    H3 3145   3.936   1.290  11.992 -1.2090 -0.4139  0.2784
  203MPD1     N 3146   4.155   0.893  12.074  0.4979  0.5100 -0.6400
  203MPD1    H5 3147   4.163   0.797  12.044  1.5086 -0.1174  1.6342
  203MPD1    N1 3148   3.974   1.007  11.642  0.5390 -0.5310  0.0097
  203MPD1    H6 3149   4.041   0.944  11.600  1.8470 -0.7390  2.3991
  203MPD1    H7 3150   3.973   1.094  11.589 -0.0519 -0.3582  0.2954
  204MPD1     C 3151   3.592   2.197  17.394  0.0444 -0.0958 -0.0815
  204MPD1    C1 3152   3.691   2.170  17.301 -0.3411 -0.1545 -0.4553
  204MPD1    C2 3153   3.740   2.042  17.299  0.2096 -0.3634 -0.0379
  204MPD1    C3 3154   3.681   1.936  17.366  0.3911  0.6338 -0.2511
  204MPD1    C4 3155   3.570   1.957  17.445 -1.2383 -0.0769 -0.4645
  204MPD1    C5 3156   3.531   2.089  17.454  0.0567  0.1639  0.1539
  204MPD1     H 3157   3.823   2.023  17.232 -0.1930 -1.0244 -0.3432
  204MPD1    H1 3158   3.524   1.881  17.507  0.3101 -0.4701  0.2060
  204MPD1    H2 3159   3.554   2.297  17.412 -1.2323 -0.4016 -1.0033
  204MPD1    H3 3160   3.448   2.112  17.519  0.4367  0.4528  0.5333
  204MPD1     N 3161   3.738   1.806  17.344 -0.4796 -0.0525  0.2034
  204MPD1    H5 3162   3.799   1.800  17.263  0.2669 -0.0516  0.7630
  204MPD1    N1 3163   3.778   2.264  17.248 -0.1936  0.1987  0.2969
  204MPD1    H6 3164   3.828   2.239  17.163  1.0183  1.3626  0.6745
  204MPD1    H7 3165   3.720   2.344  17.225 -1.7059 -1.2042 -0.8128
  205MPD1     C 3166   3.019   0.029  16.772 -0.0515  0.2518  0.3788
  205MPD1    C1 3167   2.992   0.159  16.806 -0.5145 -0.5851 -0.3704
  205MPD1    C2 3168   3.089   0.232  16.870  0.0061  0.0554  0.1357
  205MPD1    C3 3169   3.214   0.176  16.901 -0.3448  0.2573  1.1110
  205MPD1    C4 3170   3.246   0.051  16.848  0.9009 -0.0590  0.0225
  205MPD1    C5 3171   3.147   4.709  16.793  0.0067  0.1179 -0.8034
  205MPD1     H 3172   3.067   0.336  16.894 -0.0316  0.2667 -0.8124
  205MPD1    H1 3173   3.349   0.018  16.854  0.4710 -1.0357  2.0244
  205MPD1    H2 3174   2.948   4.708  16.711 -0.3502  0.0384  0.9250
  205MPD1    H3 3175   3.165   4.609  16.755 -3.2412 -0.6782 -0.1952
  205MPD1     N 3176   3.309   0.245  16.977  0.1526  0.3102  0.0706
  205MPD1    H5 3177   3.401   0.203  16.991 -0.6243 -1.6998 -0.8617
  205MPD1    N1 3178   2.881   0.223  16.749 -0.2322  0.5728  0.4408
  205MPD1    H6 3179   2.816   0.158  16.707  0.4502  0.6616 -0.7314
  205MPD1    H7 3180   2.835   0.291  16.809  1.4511 -0.4247  2.8889
  206MPD1     C 3181   4.694   3.173  16.004  0.0998 -0.0285  0.4925
  206MPD1    C1 3182   4.690   3.238  16.133 -0.6292  0.2646 -0.0461
  206MPD1    C2 3183   4.579   3.313  16.151  0.0319  0.1930  0.0580
  206MPD1    C3 3184   4.490   3.339  16.045  0.1395  0.5905  0.2887
  206MPD1    C4 3185   4.516   3.294  15.912  0.3536  0.2761 -0.4023
  206MPD1    C5 3186   4.610   3.203  15.896  0.0016  0.7078  0.2040
  206MPD1     H 3187   4.563   3.345  16.253 -0.2193  1.3170 -0.3272
  206MPD1    H1 3188   4.448   3.305  15.827  1.5111  0.6348 -1.2842
  206MPD1    H2 3189   0.034   3.095  15.985  1.7599  1.6231  0.1292
  206MPD1    H3 3190   4.605   3.147  15.804  1.1744  0.3836  0.3422
  206MPD1     N 3191   4.374   3.418  16.063  0.5557  0.0577  0.3451
  206MPD1    H5 3192   4.311   3.430  15.984  1.7189 -2.2109 -0.9120
  206MPD1    N1 3193   0.048   3.196  16.235  0.0191 -1.0213 -0.4164
  206MPD1    H6 3194   0.065   3.276  16.295  1.2386 -1.2094 -0.5015
  206MPD1    H7 3195   0.136   3.171  16.189  0.7754 -0.2466  0.6256
  207MPD1     C 3196   1.125   0.898   9.827 -0.1159  0.2468 -0.6237
  207MPD1    C1 3197   1.210   0.999   9.804  0.4911  0.2841  0.0404
  207MPD1    C2 3198   1.318   1.016   9.890  0.0484 -0.3914 -0.2605
  207MPD1    C3 3199   1.330   0.951  10.012 -0.0060  0.5854 -0.9358
  207MPD1    C4 3200   1.239   0.853  10.041  0.1680 -0.2156  0.3653
  207MPD1    C5 3201   1.136   0.830   9.950  0.0771 -0.4337  0.6093
  207MPD1     H 3202   1.379   1.099   9.855  0.8855 -1.1115 -0.5074
  207MPD1    H1 3203   1.242   0.799  10.135  0.2180 -0.9801 -0.0718
  207MPD1    H2 3204   1.035   0.872   9.773  0.8019 -0.2597 -1.9047
  207MPD1    H3 3205   1.067   0.751   9.977  0.5336 -0.0116  3.0103
  207MPD1     N 3206   1.413   0.995  10.111  0.2982 -0.0297 -0.3987
  207MPD1    H5 3207   1.401   0.953  10.203  2.8421 -0.0376 -0.0578
  207MPD1    N1 3208   1.213   1.050   9.677 -0.8129  0.8884 -0.2500
  207MPD1    H6 3209   1.119   1.047   9.637 -1.5283  0.5284  1.4228
  207MPD1    H7 3210   1.234   1.150   9.675 -0.8644  0.8167 -3.4493
  208MPD1     C 3211   0.363   4.558  17.585  0.3678 -0.8002 -0.3512
  208MPD1    C1 3212   0.262   4.464  17.602 -0.2361  0.2831  0.0903
  208MPD1    C2 3213   0.139   4.515  17.649 -0.1832  0.8601  0.5981
  208MPD1    C3 3214   0.122   4.650  17.667 -0.5050  0.3487  0.0132
  208MPD1    C4 3215   0.224   0.005  17.634  0.1289  0.0255 -0.3490
  208MPD1    C5 3216   0.349   4.694  17.610  0.2151  0.2821 -0.2132
  208MPD1     H 3217   0.061   4.449  17.686  1.2437 -1.0255  0.2604
  208MPD1    H1 3218   0.214   0.110  17.657 -0.3433  0.0440 -0.6488
  208MPD1    H2 3219   0.462   4.522  17.559  0.6573  1.0602 -1.8533
  208MPD1    H3 3220   0.434   0.027  17.612  0.1454  0.3358  0.7839
  208MPD1     N 3221   0.000   4.691  17.725  0.2979  0.8132  0.6305
  208MPD1    H5 3222   4.670   4.614   0.005 -0.0116  1.0347  0.4447
  208MPD1    N1 3223   0.285   4.326  17.608 -0.1377 -0.1960 -0.2396
  208MPD1    H6 3224   0.210   4.259  17.591  0.9918 -1.2599 -1.0544
  208MPD1    H7 3225   0.365   4.294  17.554  1.0881 -0.5349  1.7805
  209MPD1     C 3226   1.446   0.310  11.710 -0.3045  0.1043  0.0018
  209MPD1    C1 3227   1.417   0.298  11.574  0.0980 -0.0776  0.4398
  209MPD1    C2 3228   1.438   0.413  11.496 -0.4451  0.6109  0.1351
  209MPD1    C3 3229   1.459   0.537  11.552 -0.4401 -0.9056  0.0146
  209MPD1    C4 3230   1.478   0.544  11.688 -0.3433  0.3393 -0.4514
  209MPD1    C5 3231   1.478   0.432  11.763 -0.2991 -0.5439 -0.3321
  209MPD1     H 3232   1.448   0.408  11.388 -1.7803 -0.2585  0.0468
  209MPD1    H1 3233   1.510   0.637  11.735  2.2999 -0.4894 -0.6083
  209MPD1    H2 3234   1.475   0.220  11.763  0.4233  0.9180  0.9769
  209MPD1    H3 3235   1.506   0.433  11.867  0.2778 -0.2411 -0.4855
  209MPD1     N 3236   1.472   0.648  11.465  0.4980 -0.5436  0.3374
  209MPD1    H5 3237   1.463   0.627  11.366 -1.4478  0.6930  0.2465
  209MPD1    N1 3238   1.404   0.169  11.519  0.2861  0.1222  0.2819
  209MPD1    H6 3239   1.344   0.165  11.437  0.7047 -1.7499  0.0611
  209MPD1    H7 3240   1.367   0.106  11.591 -0.5015 -0.9975 -1.0943
  210MPD1     C 3241   1.595   1.730  11.348  0.1036  0.0134 -0.6233
  210MPD1    C1 3242   1.668   1.653  11.437  0.3851  0.4891 -0.1647
  210MPD1    C2 3243   1.669   1.519  11.415  0.2756 -0.0091 -0.6377
  210MPD1    C3 3244   1.585   1.460  11.324 -0.1101 -0.2020 -0.1604
  210MPD1    C4 3245   1.507   1.537  11.240 -0.6948  0.9575 -0.1590
  210MPD1    C5 3246   1.504   1.673  11.263 -0.0666  0.0363 -0.2250
  210MPD1     H 3247   1.745   1.455  11.459 -1.2525 -0.8252  0.8236
  210MPD1    H1 3248   1.435   1.496  11.170  0.3233  2.3022 -1.9742
  210MPD1    H2 3249   1.611   1.837  11.356  0.5875 -0.2969  2.4329
  210MPD1    H3 3250   1.430   1.726  11.204  0.1188  0.9329  0.3413
  210MPD1     N 3251   1.570   1.320  11.304 -0.2521 -0.0566  0.6740
  210MPD1    H5 3252   1.514   1.284  11.227  0.5721 -0.1622  0.1209
  210MPD1    N1 3253   1.763   1.717  11.527  0.7422 -0.2961  0.5326
  210MPD1    H6 3254   1.788   1.661  11.608 -3.0297 -1.6577  0.7255
  210MPD1    H7 3255   1.747   1.814  11.555 -1.8009 -0.5853  0.0338
  211MPD1     C 3256   4.698   0.520  17.138  0.5185 -0.7132 -0.9693
  211MPD1    C1 3257   4.607   0.429  17.088  0.5826  0.1007 -0.7710
  211MPD1    C2 3258   4.483   0.483  17.043 -0.0338 -0.7649 -0.3420
  211MPD1    C3 3259   4.464   0.620  17.023 -0.1420 -0.6777  0.5706
  211MPD1    C4 3260   4.578   0.697  17.039  0.4297  0.1376  0.6245
  211MPD1    C5 3261   4.691   0.651  17.107 -0.0286 -0.0777 -0.0973
  211MPD1     H 3262   4.399   0.417  17.024 -3.1891  2.9236  0.8031
  211MPD1    H1 3263   4.568   0.805  17.032  1.4317  0.2522  0.9027
  211MPD1    H2 3264   0.049   0.485  17.196  0.0295 -1.4660 -0.6986
  211MPD1    H3 3265   0.037   0.715  17.140  0.3986 -0.3398 -0.6144
  211MPD1     N 3266   4.343   0.671  16.967 -0.0398 -0.2416 -0.0221
  211MPD1    H5 3267   4.280   0.603  16.926  2.5925 -1.2300 -2.4618
  211MPD1    N1 3268   4.615   0.298  17.131  0.6693 -0.4985  0.1970
  211MPD1    H6 3269   4.703   0.259  17.099  1.6051  2.2775 -0.6016
  211MPD1    H7 3270   4.546   0.247  17.076  0.5027  0.7970 -0.7968
  212MPD1     C 3271   3.605   3.889  16.139  0.1741  0.1822  0.0567
  212MPD1    C1 3272   3.578   3.756  16.119  0.1270  0.5894  0.1488
  212MPD1    C2 3273   3.505   3.688  16.221 -0.3425 -0.0753  0.0087
  212MPD1    C3 3274   3.486   3.757  16.346 -0.6810  0.2007  0.2142
  212MPD1    C4 3275   3.515   3.889  16.362  1.0621 -0.4022  0.5557
  212MPD1    C5 3276   3.574   3.957  16.258 -0.0561 -0.8345  0.5977
  212MPD1     H 3277   3.467   3.588  16.205  1.0223 -0.4168 -1.0957
  212MPD1    H1 3278   3.492   3.946  16.451  0.1632  1.1681 -0.6807
  212MPD1    H2 3279   3.656   3.948  16.064 -0.3438 -1.3828 -1.5580
  212MPD1    H3 3280   3.594   4.063  16.267 -0.8556 -0.3960 -2.6259
  212MPD1     N 3281   3.447   3.693  16.472 -0.0259 -0.2294  0.2619
  212MPD1    H5 3282   3.428   3.755  16.550 -0.9321  0.7488 -0.7322
  212MPD1    N1 3283   3.605   3.695  15.990 -0.1474  0.4004  0.0581
  212MPD1    H6 3284   3.620   3.595  16.006 -0.2752  0.2432 -0.7911
  212MPD1    H7 3285   3.694   3.731  15.958  0.1532  0.8289  1.3789
  213MPD1     C 3286   1.562   3.761  15.605  0.4419 -0.5837  0.0518
  213MPD1    C1 3287   1.465   3.716  15.519 -0.1280 -0.0812 -0.5731
  213MPD1    C2 3288   1.462   3.792  15.404  0.2943  1.0024  0.1489
  213MPD1    C3 3289   1.508   3.925  15.400 -0.0661 -0.3567  0.1402
  213MPD1    C4 3290   1.571   3.973  15.515  0.0977 -0.1717  0.2664
  213MPD1    C5 3291   1.595   3.890  15.618 -0.3078  0.0497 -0.0558
  213MPD1     H 3292   1.400   3.765  15.319 -0.1013 -1.6143  1.2393
  213MPD1    H1 3293   1.620   4.070  15.503 -1.1804  0.3547 -0.6710
  213MPD1    H2 3294   1.587   3.707  15.695 -1.6458 -1.6836 -0.0264
  213MPD1    H3 3295   1.658   3.921  15.701  1.2891  0.3730 -1.3755
  213MPD1     N 3296   1.490   4.002  15.275 -0.5035 -0.4471 -0.8960
  213MPD1    H5 3297   1.434   3.952  15.206 -0.7172  1.4742 -2.1099
  213MPD1    N1 3298   1.440   3.581  15.518  0.0758  0.0479  0.0068
  213MPD1    H6 3299   1.351   3.552  15.477  0.1563 -1.9572  1.2570
  213MPD1    H7 3300   1.429   3.559  15.617 -1.6692  0.1591 -0.1518
  214MPD1     C 3301   1.071   3.719  14.578  0.3817 -0.1264  0.6206
  214MPD1    C1 3302   1.160   3.807  14.519 -0.4046  0.1349 -0.2899
  214MPD1    C2 3303   1.223   3.896  14.604  0.0965  0.5271 -0.3230
  214MPD1    C3 3304   1.201   3.904  14.741 -0.3480 -0.4344  0.3578
  214MPD1    C4 3305   1.109   3.815  14.803 -0.6057 -0.2837 -0.2740
  214MPD1    C5 3306   1.051   3.726  14.714  0.7412 -0.3164 -0.0644
  214MPD1     H 3307   1.300   3.961  14.565 -1.0535  1.1294 -1.5972
  214MPD1    H1 3308   1.082   3.815  14.908 -1.1692  0.7039 -0.4161
  214MPD1    H2 3309   1.016   3.647  14.520  2.1096 -3.1192  2.6871
  214MPD1    H3 3310   0.978   3.662  14.763  0.0310  0.4827 -0.0806
  214MPD1     N 3311   1.263   3.989  14.831  0.2645 -0.4136 -0.1514
  214MPD1    H5 3312   1.237   3.979  14.929  0.3038 -1.7666 -0.2788
  214MPD1    N1 3313   1.192   3.818  14.382  0.2541  0.1047  0.0785
  214MPD1    H6 3314   1.180   3.728  14.335  1.9701 -0.5475  0.8831
  214MPD1    H7 3315   1.273   3.872  14.353  1.1166 -1.1409  0.1446
  215MPD1     C 3316   0.872   0.205  10.963  0.2143  0.1980  0.2804
  215MPD1    C1 3317   0.885   0.275  11.082 -0.6566  0.2712 -0.3010
  215MPD1    C2 3318   0.975   0.382  11.077 -0.6307  0.2879  0.4820
  215MPD1    C3 3319   1.005   0.443  10.961  0.1895 -0.3233 -0.7635
  215MPD1    C4 3320   0.948   0.397  10.840  0.2716 -0.5683 -0.6634
  215MPD1    C5 3321   0.900   0.268  10.840 -0.5974  0.7342 -0.2496
  215MPD1     H 3322   1.009   0.435  11.165 -2.1705 -1.5917  2.2042
  215MPD1    H1 3323   0.958   0.446  10.744  0.1146 -2.2598 -1.5409
  215MPD1    H2 3324   0.820   0.112  10.948 -2.0936  1.5584 -0.1659
  215MPD1    H3 3325   0.872   0.217  10.748 -0.7767  0.7746 -0.2166
  215MPD1     N 3326   1.070   0.565  10.969  0.5408  0.0034 -0.2365
  215MPD1    H5 3327   1.111   0.593  11.057  0.3092  1.7332 -0.6860
  215MPD1    N1 3328   0.846   0.212  11.209  0.0504  0.1342  0.3086
  215MPD1    H6 3329   0.823   0.276  11.285  1.3509 -0.6294  1.3568
  215MPD1    H7 3330   0.773   0.141  11.208  1.0109 -0.8524  0.0212
  216MPD1     C 3331   3.756   4.189  17.379  0.5010  0.1273 -0.7262
  216MPD1    C1 3332   3.816   4.108  17.475  0.0730 -0.7422  0.1503
  216MPD1    C2 3333   3.766   3.983  17.498 -0.7316  0.4532  0.1497
  216MPD1    C3 3334   3.664   3.929  17.412 -0.2709  0.0986 -0.6017
  216MPD1    C4 3335   3.615   4.005  17.307 -0.5583 -0.3438  0.4968
  216MPD1    C5 3336   3.660   4.134  17.299  0.5498 -0.1137 -0.4786
  216MPD1     H 3337   3.806   3.911  17.570 -1.6038 -1.2001 -1.0222
  216MPD1    H1 3338   3.548   3.971  17.229  0.6499 -4.8453  1.4432
  216MPD1    H2 3339   3.779   4.294  17.371  1.2366 -0.0361 -0.7425
  216MPD1    H3 3340   3.607   4.201  17.233  3.4707  2.3221 -0.3311
  216MPD1     N 3341   3.615   3.790  17.430 -0.3312  0.5587 -0.3430
  216MPD1    H5 3342   3.633   3.745  17.519 -1.0595  1.3277  0.1912
  216MPD1    N1 3343   3.913   4.158  17.564  0.0269 -0.5094  0.4064
  216MPD1    H6 3344   3.970   4.235  17.533 -1.3397  0.7879  1.0834
  216MPD1    H7 3345   3.980   4.086  17.591  0.5642  1.3749  4.1024
  217MPD1     C 3346   4.111   3.911   8.556  0.4647 -0.5021  0.4712
  217MPD1    C1 3347   4.011   3.970   8.626 -0.3981 -0.2234  0.0030
  217MPD1    C2 3348   4.029   4.103   8.675 -0.2661  0.0140 -0.0365
  217MPD1    C3 3349   4.142   4.175   8.644 -0.3609  0.2363 -0.6509
  217MPD1    C4 3350   4.240   4.100   8.574  0.0255  0.6705 -0.9468
  217MPD1    C5 3351   4.224   3.973   8.528 -0.1340  0.2479  0.1627
  217MPD1     H 3352   3.961   4.162   8.735 -0.9240 -0.0176 -0.7512
  217MPD1    H1 3353   4.337   4.144   8.552  0.7405 -0.2056  0.4356
  217MPD1    H2 3354   4.109   3.805   8.530 -1.9869 -0.8079  1.9136
  217MPD1    H3 3355   4.291   3.914   8.466 -0.7674 -2.7097  2.2889
  217MPD1     N 3356   4.172   4.307   8.677  0.0033  0.0403  0.6179
  217MPD1    H5 3357   4.259   4.337   8.636 -0.1405 -1.6583 -0.9417
  217MPD1    N1 3358   3.898   3.892   8.652  0.6458  0.1840 -0.8484
  217MPD1    H6 3359   3.850   3.851   8.572 -2.0584  0.0766  0.8261
  217MPD1    H7 3360   3.818   3.937   8.695  2.2148  0.1804  2.1063
  218MPD1     C 3361   0.576   1.387  13.087 -0.2853  0.8263  1.0820
  218MPD1    C1 3362   0.645   1.424  12.982  1.0551 -0.1255 -0.3530
  218MPD1    C2 3363   0.744   1.345  12.938 -0.1288  0.2445  0.0467
  218MPD1    C3 3364   0.795   1.241  13.014  0.0741  0.1481 -0.2927
  218MPD1    C4 3365   0.726   1.199  13.123  0.5173  0.1900  0.0204
  218MPD1    C5 3366   0.608   1.271  13.156  0.1000  0.0625 -0.2791
  218MPD1     H 3367   0.796   1.378  12.848 -1.4700 -2.7574 -1.7936
  218MPD1    H1 3368   0.744   1.105  13.174  0.5467 -0.5003 -1.2529
  218MPD1    H2 3369   0.487   1.437  13.124 -1.3529 -0.4338  0.2745
  218MPD1    H3 3370   0.542   1.239  13.236  0.5136  0.2145  0.1192
  218MPD1     N 3371   0.923   1.182  12.981  0.6304 -0.5075 -0.2319
  218MPD1    H5 3372   0.968   1.229  12.904  0.6010 -0.6478 -0.3354
  218MPD1    N1 3373   0.595   1.531  12.908  0.1430 -0.0111 -0.4520
  218MPD1    H6 3374   0.673   1.564  12.852 -0.9764  1.3466 -1.2115
  218MPD1    H7 3375   0.564   1.610  12.964 -0.5735  0.8150 -2.0478
  219MPD1     C 3376   1.435   1.365  12.311  0.1703  0.1098  0.2718
  219MPD1    C1 3377   1.520   1.326  12.415  0.4536 -0.0730  0.1274
  219MPD1    C2 3378   1.472   1.253  12.522  0.9589  0.3307 -0.4233
  219MPD1    C3 3379   1.333   1.216  12.524  0.8417  0.3420 -0.1980
  219MPD1    C4 3380   1.255   1.248  12.418  0.0022  0.3167 -0.1926
  219MPD1    C5 3381   1.305   1.322  12.314 -0.2227  0.7771 -0.0200
  219MPD1     H 3382   1.541   1.234  12.602  0.4572  1.8758  0.3847
  219MPD1    H1 3383   1.151   1.217  12.417  0.5588 -1.5732 -0.3603
  219MPD1    H2 3384   1.472   1.430  12.233  0.5745  1.6301  1.7373
  219MPD1    H3 3385   1.242   1.345  12.229 -0.1685 -1.1011 -0.5693
  219MPD1     N 3386   1.274   1.144  12.633  0.1342  0.1249 -0.0887
  219MPD1    H5 3387   1.173   1.143  12.643  0.1997 -1.3011  0.5214
  219MPD1    N1 3388   1.650   1.388  12.425 -0.1687  0.3015 -0.4333
  219MPD1    H6 3389   1.716   1.322  12.466 -0.5943  0.5810  0.7126
  219MPD1    H7 3390   1.685   1.432  12.341  0.6394 -1.9005 -1.2547
  220MPD1     C 3391   0.714   1.329   9.187 -0.3612  0.2914  0.0895
  220MPD1    C1 3392   0.698   1.430   9.283 -0.3327  0.6251  0.0660
  220MPD1    C2 3393   0.729   1.396   9.416 -0.3415 -0.4936  0.1950
  220MPD1    C3 3394   0.744   1.262   9.453  0.9761 -0.1102 -0.5564
  220MPD1    C4 3395   0.739   1.166   9.352 -0.3487  0.5404 -0.2942
  220MPD1    C5 3396   0.730   1.200   9.222 -0.1189  0.6419  0.3341
  220MPD1     H 3397   0.727   1.478   9.487 -2.6778 -0.1036 -0.3088
  220MPD1    H1 3398   0.743   1.060   9.376  2.1283  1.0060  1.3330
  220MPD1    H2 3399   0.709   1.343   9.079 -2.5537 -1.1495  0.0155
  220MPD1    H3 3400   0.734   1.136   9.134  1.7428 -0.8370  1.4929
  220MPD1     N 3401   0.772   1.220   9.585  0.0512  0.2601 -0.2241
  220MPD1    H5 3402   0.789   1.120   9.594  0.6851  0.2866 -1.0838
  220MPD1    N1 3403   0.690   1.563   9.235  0.5659  0.1114  0.4853
  220MPD1    H6 3404   0.632   1.571   9.151  0.4050  0.5224  0.6332
  220MPD1    H7 3405   0.652   1.624   9.308  0.1324  1.2760 -0.7188
  221MPD1     C 3406   3.473   4.516  16.649  0.0214  0.3030  0.5922
  221MPD1    C1 3407   3.512   4.532  16.520 -0.1004  0.8587 -0.0475
  221MPD1    C2 3408   3.638   4.579  16.496 -0.4806  0.5234  0.1468
  221MPD1    C3 3409   3.734   4.604  16.596 -0.2638  0.0909 -0.0803
  221MPD1    C4 3410   3.685   4.601  16.721 -0.1786 -0.9879 -0.5523
  221MPD1    C5 3411   3.556   4.558  16.747 -0.3856 -0.3973  0.2199
  221MPD1     H 3412   3.677   4.570  16.396  1.3341 -0.2138  0.9292
  221MPD1    H1 3413   3.747   4.620  16.809 -1.5295  2.0433 -0.2494
  221MPD1    H2 3414   3.370   4.501  16.679 -0.4753  1.0240 -0.7412
  221MPD1    H3 3415   3.515   4.547  16.846 -1.2721 -1.0071 -0.2077
  221MPD1     N 3416   3.869   4.639  16.562 -0.1582  0.0579 -0.2571
  221MPD1    H5 3417   3.897   4.650  16.465  0.7157 -1.3131 -0.1702
  221MPD1    N1 3418   3.432   4.479  16.416  0.1676  0.4757 -0.4298
  221MPD1    H6 3419   3.441   4.537  16.333  0.1930 -0.1366 -0.8513
  221MPD1    H7 3420   3.333   4.472  16.439  0.9472 -0.1918  2.7169
  222MPD1     C 3421   3.086   3.548  17.252  0.2466 -0.1240 -0.1364
  222MPD1    C1 3422   3.106   3.681  17.295 -0.3407  0.5687 -0.8669
  222MPD1    C2 3423   3.055   3.712  17.423 -0.4355 -0.4442  0.4089
  222MPD1    C3 3424   2.978   3.620  17.499  0.3549  0.1804 -0.9107
  222MPD1    C4 3425   2.937   3.504  17.444 -0.2697  0.0709 -0.3125
  222MPD1    C5 3426   2.995   3.471  17.324 -0.2085  0.4900 -0.1135
  222MPD1     H 3427   3.084   3.807  17.469 -1.3384  0.4054 -0.7941
  222MPD1    H1 3428   2.878   3.436  17.504 -0.2158 -0.8922 -1.3715
  222MPD1    H2 3429   3.136   3.511  17.164  1.1211  1.4132 -0.2767
  222MPD1    H3 3430   2.976   3.370  17.290  0.7272  0.0909  0.5591
  222MPD1     N 3431   2.938   3.645  17.631 -0.1780  0.6006  0.0081
  222MPD1    H5 3432   2.898   3.567  17.682  1.2314 -0.3438 -0.3329
  222MPD1    N1 3433   3.213   3.754  17.245  0.5176 -0.2805  0.0874
  222MPD1    H6 3434   3.221   3.745  17.144 -0.5404 -0.5952  0.0322
  222MPD1    H7 3435   3.214   3.854  17.266  1.0990  0.2994 -2.7909
  223MPD1     C 3436   2.774   3.170   0.704  0.1262  0.2178 -0.6093
  223MPD1    C1 3437   2.743   3.296   0.749 -0.4617  0.0087  0.7783
  223MPD1    C2 3438   2.778   3.411   0.679  0.0608 -0.4183  0.1297
  223MPD1    C3 3439   2.836   3.398   0.555  0.3344  0.3128  0.2313
  223MPD1    C4 3440   2.864   3.270   0.510  0.2542  0.0027 -0.2133
  223MPD1    C5 3441   2.834   3.158   0.582 -0.4572 -0.0170 -0.4845
  223MPD1     H 3442   2.761   3.509   0.722  0.5460  1.0801 -3.1388
  223MPD1    H1 3443   2.917   3.260   0.415  2.4372  1.9593  0.7944
  223MPD1    H2 3444   2.757   3.086   0.769 -1.4487  0.7289 -0.3661
  223MPD1    H3 3445   2.858   3.061   0.541 -0.7687  0.2519 -1.3013
  223MPD1     N 3446   2.866   3.523   0.490 -0.0037  0.5293 -0.1086
  223MPD1    H5 3447   2.829   3.603   0.541 -0.6491 -1.0464  1.9027
  223MPD1    N1 3448   2.676   3.301   0.872 -0.7894 -0.3437  0.2295
  223MPD1    H6 3449   2.627   3.390   0.872  1.8476  1.1210 -1.0912
  223MPD1    H7 3450   2.620   3.220   0.898  0.1634 -0.3981  2.1244
  224MPD1     C 3451   4.449   1.411   8.595  0.1263 -0.0821 -0.4713
  224MPD1    C1 3452   4.549   1.319   8.559  0.2041 -0.2737 -0.5555
  224MPD1    C2 3453   4.580   1.231   8.665 -0.8673 -0.1652  0.0042
  224MPD1    C3 3454   4.544   1.251   8.803  0.5965 -0.2147 -0.4372
  224MPD1    C4 3455   4.464   1.358   8.825 -0.3687 -0.5633  0.6861
  224MPD1    C5 3456   4.415   1.436   8.727 -0.4172  0.0340  0.0802
  224MPD1     H 3457   4.623   1.137   8.631 -2.6419 -1.3857  1.0925
  224MPD1    H1 3458   4.435   1.389   8.925  1.6313  2.9270  0.1987
  224MPD1    H2 3459   4.401   1.465   8.514  1.0535  0.1181 -0.8838
  224MPD1    H3 3460   4.340   1.510   8.751  0.5097  0.9330  0.1717
  224MPD1     N 3461   4.572   1.169   8.910 -0.1122  0.6530  0.4297
  224MPD1    H5 3462   4.546   1.209   8.999  0.7462  0.9942  0.5339
  224MPD1    N1 3463   4.569   1.289   8.424 -0.1751 -1.5377  0.2840
  224MPD1    H6 3464   4.657   1.239   8.410  0.1596 -0.8800  0.0119
  224MPD1    H7 3465   4.583   1.378   8.376  4.2579 -0.4773  3.5018
  225MPD1     C 3466   1.434   1.845  11.784 -0.5271 -1.1518  0.5055
  225MPD1    C1 3467   1.358   1.770  11.704 -0.0495 -1.0073 -0.1956
  225MPD1    C2 3468   1.220   1.759  11.736  0.1312 -0.7441  0.4810
  225MPD1    C3 3469   1.165   1.822  11.848  0.4167 -0.3166  0.7403
  225MPD1    C4 3470   1.250   1.901  11.920  0.1847 -0.0311  0.3270
  225MPD1    C5 3471   1.380   1.908  11.892  1.0628 -0.2160 -0.9453
  225MPD1     H 3472   1.160   1.683  11.687  1.1080 -0.3113 -1.4022
  225MPD1    H1 3473   1.215   1.952  12.009 -0.5879  0.2954 -0.1722
  225MPD1    H2 3474   1.541   1.843  11.767 -0.8684 -1.9929 -1.6155
  225MPD1    H3 3475   1.447   1.951  11.966  1.5346 -0.2880 -1.3298
  225MPD1     N 3476   1.034   1.795  11.892  0.1624 -0.3955 -0.5872
  225MPD1    H5 3477   1.008   1.818  11.988  0.4591 -2.1751 -0.0849
  225MPD1    N1 3478   1.404   1.687  11.606  0.2924  0.9633  0.1678
  225MPD1    H6 3479   1.340   1.679  11.528 -0.8901 -0.4747  1.2875
  225MPD1    H7 3480   1.495   1.716  11.570  1.2729 -0.8216  1.2535
  226MPD1     C 3481   3.215   1.749   9.338  0.1234 -0.2082 -0.5953
  226MPD1    C1 3482   3.316   1.831   9.298 -0.0605  0.7169 -0.9875
  226MPD1    C2 3483   3.433   1.779   9.246 -0.7944  0.0981 -0.1865
  226MPD1    C3 3484   3.444   1.637   9.239 -0.1447 -0.5314  0.5476
  226MPD1    C4 3485   3.344   1.558   9.299 -0.6831  0.0664 -0.2051
  226MPD1    C5 3486   3.233   1.615   9.349  0.1800 -0.8034  0.2880
  226MPD1     H 3487   3.514   1.844   9.214 -0.1668 -0.9304 -0.6789
  226MPD1    H1 3488   3.348   1.449   9.303 -0.0384  0.1398  1.0239
  226MPD1    H2 3489   3.125   1.801   9.367 -1.4026 -2.4455 -1.3076
  226MPD1    H3 3490   3.165   1.550   9.403 -1.9520 -0.1898 -1.6620
  226MPD1     N 3491   3.555   1.591   9.164  0.4602  0.0013  0.7176
  226MPD1    H5 3492   3.613   1.668   9.130  0.8470 -0.4411  0.3835
  226MPD1    N1 3493   3.289   1.965   9.273 -0.4425 -0.1312 -0.2796
  226MPD1    H6 3494   3.218   1.999   9.337 -0.9577  0.4904 -1.1770
  226MPD1    H7 3495   3.366   2.030   9.282 -1.1545  0.3135  2.6000
  227MPD1     C 3496   4.111   1.006   8.455  0.2524 -0.7374 -0.4597
  227MPD1    C1 3497   4.163   1.135   8.471 -0.1112  0.1553 -0.3640
  227MPD1    C2 3498   4.108   1.222   8.564  0.2661 -0.0144  0.5366
  227MPD1    C3 3499   4.014   1.172   8.656 -0.5102 -0.2507  0.4058
  227MPD1    C4 3500   3.944   1.059   8.619  0.4021 -0.6492 -0.4617
  227MPD1    C5 3501   4.001   0.980   8.525  0.5023 -0.3180  0.1930
  227MPD1     H 3502   4.158   1.317   8.582 -0.4587  0.3090  0.8154
  227MPD1    H1 3503   3.858   1.017   8.670 -0.2985  0.6704 -0.5703
  227MPD1    H2 3504   4.153   0.936   8.384 -1.5920 -0.2593 -2.0217
  227MPD1    H3 3505   3.951   0.885   8.507  2.1680 -1.1598  0.0711
  227MPD1     N 3506   3.982   1.250   8.771 -0.2165 -0.1655  0.3364
  227MPD1    H5 3507   4.017   1.345   8.780 -0.0906 -0.2056  0.2648
  227MPD1    N1 3508   4.264   1.176   8.382 -0.2422  0.0397  0.1756
  227MPD1    H6 3509   4.307   1.095   8.338  0.0631 -0.3774  1.2576
  227MPD1    H7 3510   4.338   1.221   8.435 -0.6526  2.1311 -1.0142
  228MPD1     C 3511   2.791   3.870  12.751  0.4676  0.1034  0.1278
  228MPD1    C1 3512   2.658   3.899  12.708 -0.0502 -0.2370 -0.3231
  228MPD1    C2 3513   2.556   3.910  12.806 -0.2012 -0.2247  0.3648
  228MPD1    C3 3514   2.586   3.921  12.941 -0.6991 -0.8593  0.0625
  228MPD1    C4 3515   2.721   3.918  12.974 -0.5954  0.2838 -0.4426
  228MPD1    C5 3516   2.823   3.895  12.883  0.0173  0.2797  0.5221
  228MPD1     H 3517   2.454   3.929  12.778 -0.0590  0.8782  0.6175
  228MPD1    H1 3518   2.753   3.950  13.073 -1.5571  0.7248 -0.2767
  228MPD1    H2 3519   2.866   3.839  12.679 -0.8370  0.5950 -1.4510
  228MPD1    H3 3520   2.919   3.867  12.923  0.4358 -0.1317 -0.7652
  228MPD1     N 3521   2.485   3.960  13.027 -0.0105  0.3054  0.0561
  228MPD1    H5 3522   2.391   3.975  12.992  0.6591  2.6273 -0.7563
  228MPD1    N1 3523   2.632   3.886  12.572  0.2551  0.4279  0.1847
  228MPD1    H6 3524   2.547   3.926  12.533 -1.1428 -2.2183  0.4966
  228MPD1    H7 3525   2.709   3.907  12.509  0.0618 -1.0884 -0.5521
  229MPD1     C 3526   2.101   2.979  14.562  0.2532  0.1041  0.8644
  229MPD1    C1 3527   2.041   2.855  14.595 -0.4661 -0.8910 -0.0431
  229MPD1    C2 3528   2.095   2.778  14.699 -0.0500 -0.5310  0.6751
  229MPD1    C3 3529   2.200   2.829  14.776 -0.4303  0.0991 -0.5185
  229MPD1    C4 3530   2.250   2.953  14.748  0.4523 -1.0748 -0.5341
  229MPD1    C5 3531   2.199   3.021  14.645  0.8392 -0.0701  0.7177
  229MPD1     H 3532   2.054   2.678  14.708 -0.3546 -0.3610  1.2149
  229MPD1    H1 3533   2.339   2.986  14.801  0.1706 -0.2005 -0.6038
  229MPD1    H2 3534   2.075   3.044  14.479 -0.1184  0.0172  0.9127
  229MPD1    H3 3535   2.242   3.117  14.618  0.9542 -0.2495  0.2608
  229MPD1     N 3536   2.268   2.755  14.873 -0.1018  0.3081 -0.3258
  229MPD1    H5 3537   2.337   2.810  14.923 -0.7928  2.3827 -1.6518
  229MPD1    N1 3538   1.943   2.806  14.505 -0.1174 -0.3150  0.4498
  229MPD1    H6 3539   1.887   2.731  14.547 -3.1611  2.5516  1.4789
  229MPD1    H7 3540   1.878   2.877  14.473 -0.8998 -1.1102  0.2858
  230MPD1     C 3541   3.095   2.762  15.325 -0.1597 -0.3084  0.5424
  230MPD1    C1 3542   3.081   2.627  15.305  0.9492  0.3602  0.0560
  230MPD1    C2 3543   2.955   2.570  15.288  0.2160 -0.5527  0.2309
  230MPD1    C3 3544   2.845   2.653  15.277 -0.3382  0.3790 -0.0503
  230MPD1    C4 3545   2.867   2.787  15.283  0.6755 -0.3120 -0.3772
  230MPD1    C5 3546   2.984   2.839  15.313  0.3452 -0.4308 -0.7392
  230MPD1     H 3547   2.942   2.462  15.284  2.0141 -0.7614 -0.1880
  230MPD1    H1 3548   2.789   2.859  15.261  0.1511 -0.5424  0.7331
  230MPD1    H2 3549   3.189   2.806  15.356 -0.7392  1.1620  0.2165
  230MPD1    H3 3550   2.992   2.947  15.322  1.4167 -0.5375 -0.3885
  230MPD1     N 3551   2.719   2.594  15.248  0.2432 -0.5003 -0.4991
  230MPD1    H5 3552   2.721   2.494  15.232 -2.7392 -0.0782 -3.3243
  230MPD1    N1 3553   3.194   2.542  15.322 -0.3492 -0.7573  0.1725
  230MPD1    H6 3554   3.272   2.593  15.282 -1.7924  1.1190 -0.2498
  230MPD1    H7 3555   3.191   2.451  15.277  0.4195 -1.2097  1.0308
  231MPD1     C 3556   0.705   0.005  15.386 -0.2467  0.7518 -0.0188
  231MPD1    C1 3557   0.734   4.693  15.255 -0.2076 -0.6725  0.6368
  231MPD1    C2 3558   0.812   0.041  15.178  0.5400  0.0052 -0.5382
  231MPD1    C3 3559   0.879   0.150  15.229 -0.5335 -0.1280 -0.4285
  231MPD1    C4 3560   0.849   0.193  15.352 -0.3182  0.2044 -0.1017
  231MPD1    C5 3561   0.760   0.117  15.427 -0.2178 -0.0992  0.6008
  231MPD1     H 3562   0.836   0.008  15.078  0.1498 -1.4397 -0.1572
  231MPD1    H1 3563   0.890   0.279  15.404  0.4263  0.9396 -1.9270
  231MPD1    H2 3564   0.639   4.683  15.452  1.9966  0.3779  1.9033
  231MPD1    H3 3565   0.737   0.158  15.524  0.9430 -0.0172  0.8487
  231MPD1     N 3566   0.974   0.217  15.150  0.0323  0.2272 -0.2577
  231MPD1    H5 3567   0.991   0.177  15.059  0.1522 -1.4796  0.5170
  231MPD1    N1 3568   0.674   4.578  15.203  0.0553 -0.2085  0.1127
  231MPD1    H6 3569   0.728   4.551  15.120  0.3914  1.1365 -0.1020
  231MPD1    H7 3570   0.658   4.508  15.276  1.4850  0.9344  1.5134
  232MPD1     C 3571   3.240   2.577  17.667  0.0631 -0.1308 -0.0443
  232MPD1    C1 3572   3.135   2.660  17.669  0.1724  0.1580 -0.2155
  232MPD1    C2 3573   3.018   2.614  17.612  0.0646 -0.0548  0.1706
  232MPD1    C3 3574   3.000   2.476  17.575  0.5011  0.3411  0.0585
  232MPD1    C4 3575   3.108   2.392  17.604 -0.2404 -0.4360  0.0206
  232MPD1    C5 3576   3.228   2.443  17.643 -0.2015 -0.5615  0.7096
  232MPD1     H 3577   2.928   2.674  17.601 -0.2808 -0.7398 -0.6975
  232MPD1    H1 3578   3.116   2.287  17.580  0.9740 -0.5363  0.8455
  232MPD1    H2 3579   3.335   2.618  17.699 -0.9577  1.3906  1.0237
  232MPD1    H3 3580   3.320   2.386  17.639  0.3200  0.4650 -1.8092
  232MPD1     N 3581   2.879   2.434  17.520 -0.0668  0.6419  0.4680
  232MPD1    H5 3582   2.800   2.498  17.519  2.4770  3.7413  0.3862
  232MPD1    N1 3583   3.156   2.797  17.687 -0.4409  0.3759  0.0532
  232MPD1    H6 3584   3.232   2.812   0.018  0.1752 -0.1705 -0.5304
  232MPD1    H7 3585   3.070   2.842  17.717  0.2127  0.7165  1.3849
  233MPD1     C 3586   2.935   4.331   1.292 -0.6463  0.0268 -0.0330
  233MPD1    C1 3587   2.890   4.321   1.170  0.4337  0.0691  1.1316
  233MPD1    C2 3588   2.943   4.391   1.064  0.4056 -0.4383  0.5755
  233MPD1    C3 3589   3.049   4.484   1.087 -0.0429 -0.0645 -0.2947
  233MPD1    C4 3590   3.080   4.504   1.217  0.6773  0.5644 -0.0633
  233MPD1    C5 3591   3.026   4.429   1.319  0.2131  0.0970  0.0940
  233MPD1     H 3592   2.900   4.383   0.965  0.1838 -1.6884  0.7742
  233MPD1    H1 3593   3.164   4.571   1.234  0.0936  0.9156  1.4605
  233MPD1    H2 3594   2.881   4.292   1.378  0.0590 -0.5125  0.1614
  233MPD1    H3 3595   3.060   4.448   1.420 -1.8448 -1.4664  1.0661
  233MPD1     N 3596   3.114   4.555   0.981 -0.4242 -0.2597  1.0424
  233MPD1    H5 3597   3.187   4.620   1.008  0.7937 -0.2834 -2.1688
  233MPD1    N1 3598   2.786   4.231   1.151  0.1913 -0.3005 -0.2424
  233MPD1    H6 3599   2.727   4.219   1.234 -1.1861 -1.6082 -1.3981
  233MPD1    H7 3600   2.729   4.274   1.079 -0.3878  0.2074  0.5185
  234MPD1     C 3601   0.801   4.137   9.421  1.3129  0.2352 -0.0671
  234MPD1    C1 3602   0.700   4.205   9.489  0.2225  0.1741 -0.8197
  234MPD1    C2 3603   0.639   4.310   9.428  0.1057  0.4882 -0.2472
  234MPD1    C3 3604   0.651   4.337   9.294  0.6990 -0.1216 -0.4871
  234MPD1    C4 3605   0.740   4.258   9.222  0.1909  0.8036  0.5475
  234MPD1    C5 3606   0.821   4.168   9.288  0.7217  0.8439  0.2690
  234MPD1     H 3607   0.572   4.376   9.483 -0.3926 -0.6553  0.4977
  234MPD1    H1 3608   0.767   4.279   9.119  1.6066  2.9032  1.3440
  234MPD1    H2 3609   0.857   4.058   9.470 -0.6153 -1.1244 -0.0748
  234MPD1    H3 3610   0.913   4.131   9.246  1.2003  2.2724  0.0535
  234MPD1     N 3611   0.585   4.453   9.241  0.6763  0.1373  0.0136
  234MPD1    H5 3612   0.548   4.523   9.305 -0.2939 -0.2250 -0.1584
  234MPD1    N1 3613   0.682   4.171   9.625 -1.1436 -0.4108  0.2263
  234MPD1    H6 3614   0.672   4.070   9.631 -0.3597 -0.4665  0.6775
  234MPD1    H7 3615   0.598   4.216   9.662  0.3338 -0.7079  3.9736
  235MPD1     C 3616   1.741   1.313  10.639  0.5109  0.4604  0.6589
  235MPD1    C1 3617   1.659   1.424  10.626 -0.2906 -0.0906  0.5490
  235MPD1    C2 3618   1.705   1.541  10.564 -0.0570 -0.1861 -0.1984
  235MPD1    C3 3619   1.828   1.551  10.519  0.4202  0.3249  0.3602
  235MPD1    C4 3620   1.904   1.439  10.522  0.5870  0.2192  0.2025
  235MPD1    C5 3621   1.858   1.318  10.570 -0.3864 -0.3825  0.4283
  235MPD1     H 3622   1.653   1.636  10.573 -0.7737 -0.8661  2.6033
  235MPD1    H1 3623   2.003   1.439  10.478  0.3658 -1.6044 -0.2726
  235MPD1    H2 3624   1.712   1.227  10.697  0.2025 -1.0018 -1.6800
  235MPD1    H3 3625   1.928   1.236  10.577  1.2890  0.8024 -2.6686
  235MPD1     N 3626   1.873   1.672  10.472 -0.0130 -0.4101 -0.2383
  235MPD1    H5 3627   1.801   1.743  10.465  0.3731 -0.1640 -1.8033
  235MPD1    N1 3628   1.545   1.428  10.708 -0.8717 -0.0029  0.3030
  235MPD1    H6 3629   1.470   1.482  10.665 -1.0962  0.0785  0.7980
  235MPD1    H7 3630   1.511   1.334  10.725 -0.1488 -0.2823  0.2249
  236MPD1     C 3631   0.684   3.648   9.367 -0.1377 -0.3416  0.5772
  236MPD1    C1 3632   0.691   3.692   9.496 -0.7557 -0.0084 -0.3864
  236MPD1    C2 3633   0.748   3.603   9.595  0.4018 -0.0617 -0.8816
  236MPD1    C3 3634   0.783   3.472   9.566  0.3654  0.2090  0.0539
  236MPD1    C4 3635   0.754   3.425   9.441 -1.1494 -0.6749 -0.3657
  236MPD1    C5 3636   0.715   3.512   9.341 -0.3371 -0.1941  0.3929
  236MPD1     H 3637   0.775   3.636   9.694  0.1087  0.6933 -1.0550
  236MPD1    H1 3638   0.773   3.322   9.411  1.0894 -0.2233 -0.5369
  236MPD1    H2 3639   0.659   3.721   9.291 -0.7254  1.1450  2.1966
  236MPD1    H3 3640   0.699   3.476   9.240 -0.2307 -3.5682  1.5963
  236MPD1     N 3641   0.840   3.388   9.659  0.4421 -0.6922 -0.5820
  236MPD1    H5 3642   0.856   3.290   9.635 -0.6641 -0.8815 -0.5515
  236MPD1    N1 3643   0.667   3.832   9.523  0.2801  0.1490  0.0424
  236MPD1    H6 3644   0.636   3.842   9.619 -0.0842  0.2412 -0.0883
  236MPD1    H7 3645   0.593   3.865   9.463 -1.4150  0.6368  2.4141
  237MPD1     C 3646   1.006   1.051  15.326  0.0639  0.0974 -0.7068
  237MPD1    C1 3647   0.955   1.028  15.455  1.0851  0.2278  0.1138
  237MPD1    C2 3648   0.811   1.012  15.470 -0.0739 -0.5303 -0.5383
  237MPD1    C3 3649   0.739   1.004  15.359 -0.0890  0.4584 -0.3855
  237MPD1    C4 3650   0.794   1.005  15.230 -0.0885 -0.5389 -0.1649
  237MPD1    C5 3651   0.930   1.033  15.211  0.6153 -0.4963 -0.1323
  237MPD1     H 3652   0.769   1.022  15.570  0.5743 -0.3865 -0.2774
  237MPD1    H1 3653   0.732   0.997  15.142  0.2820 -1.3647 -0.3496
  237MPD1    H2 3654   1.109   1.080  15.310  0.4431 -1.3034 -0.7826
  237MPD1    H3 3655   0.980   1.055  15.117  0.3091  0.4504 -0.0725
  237MPD1     N 3656   0.597   1.004  15.365  0.4281  0.2840 -0.6043
  237MPD1    H5 3657   0.544   1.002  15.278 -0.1409  0.2365 -0.2577
  237MPD1    N1 3658   1.032   1.063  15.568 -0.0658  0.1324 -0.6782
  237MPD1    H6 3659   0.991   1.024  15.653  2.2591 -0.1854  0.2890
  237MPD1    H7 3660   1.118   1.011  15.550 -0.4906 -1.0384  0.6966
  238MPD1     C 3661   2.368   3.871  15.627 -0.0279 -0.3416 -0.7270
  238MPD1    C1 3662   2.338   3.748  15.570  0.6457  0.3127  0.0813
  238MPD1    C2 3663   2.262   3.743  15.460 -0.4095 -0.0269  0.5073
  238MPD1    C3 3664   2.209   3.859  15.404 -0.0105 -0.1300 -0.2920
  238MPD1    C4 3665   2.223   3.978  15.475  0.2916 -0.4962 -0.2281
  238MPD1    C5 3666   2.305   3.983  15.582  0.2354  0.0147  0.9298
  238MPD1     H 3667   2.236   3.647  15.415 -1.1194 -0.2009  1.2915
  238MPD1    H1 3668   2.190   4.071  15.429  0.7333  0.4365  1.3562
  238MPD1    H2 3669   2.419   3.887  15.721 -0.0675 -2.9765 -0.2725
  238MPD1    H3 3670   2.333   4.080  15.621 -0.4800  0.1301  1.1422
  238MPD1     N 3671   2.160   3.871  15.272 -0.3984 -0.3600 -0.0105
  238MPD1    H5 3672   2.157   3.962  15.226 -0.2778 -0.9197 -1.1244
  238MPD1    N1 3673   2.401   3.628  15.611 -0.5784  0.3998  0.4068
  238MPD1    H6 3674   2.337   3.549  15.610 -0.7067  0.5334 -1.4660
  238MPD1    H7 3675   2.429   3.634  15.709 -0.2921  1.1621  0.2750
  239MPD1     C 3676   3.303   0.943  14.996  0.3850  0.0539 -0.4274
  239MPD1    C1 3677   3.173   0.973  15.026  0.6202  0.3160  0.5792
  239MPD1    C2 3678   3.085   0.962  14.922 -0.2886  0.6471  0.2656
  239MPD1    C3 3679   3.120   0.948  14.787 -0.4701  0.6026  0.9121
  239MPD1    C4 3680   3.249   0.915  14.759  0.1663 -0.1493  0.3174
  239MPD1    C5 3681   3.338   0.907  14.868 -0.2046 -0.1276 -0.2836
  239MPD1     H 3682   2.980   0.980  14.941 -0.3197  0.9133 -0.1674
  239MPD1    H1 3683   3.287   0.880  14.663  0.2111  0.0487  0.2635
  239MPD1    H2 3684   3.379   0.940  15.073  1.6132 -0.6118 -1.6645
  239MPD1    H3 3685   3.441   0.874  14.855 -0.0452  0.6765 -1.1407
  239MPD1     N 3686   3.026   0.938  14.681 -0.2598  0.6382 -0.0192
  239MPD1    H5 3687   3.055   0.929  14.585  0.3312  4.7970 -0.2568
  239MPD1    N1 3688   3.133   1.000  15.164 -0.0248  0.4891 -0.2211
  239MPD1    H6 3689   3.051   1.060  15.175  0.5096  1.1303  0.2279
  239MPD1    H7 3690   3.200   1.046  15.224  1.5166  0.3564 -1.8479
  240MPD1     C 3691   2.190   0.454  14.651 -0.2167 -0.3518 -0.2250
  240MPD1    C1 3692   2.155   0.375  14.759 -0.2358 -0.2480  0.1134
  240MPD1    C2 3693   2.085   0.254  14.728  0.2833  0.1624  0.6745
  240MPD1    C3 3694   2.048   0.217  14.601 -0.3930 -0.4868  0.4830
  240MPD1    C4 3695   2.076   0.308  14.497 -0.1473 -0.5596 -0.2810
  240MPD1    C5 3696   2.158   0.417  14.523  0.5313 -0.3604 -0.1516
  240MPD1     H 3697   2.070   0.197  14.819  0.3424 -0.9872 -0.0450
  240MPD1    H1 3698   2.038   0.287  14.398  1.0596  0.0021 -0.8552
  240MPD1    H2 3699   2.223   0.557  14.656 -0.1202 -0.5708  3.3383
  240MPD1    H3 3700   2.184   0.485  14.443 -0.9897 -0.1357 -0.4646
  240MPD1     N 3701   1.979   0.098  14.587  0.3596 -0.1351 -0.3173
  240MPD1    H5 3702   1.973   0.033  14.665 -0.3626  1.5019  0.9865
  240MPD1    N1 3703   2.175   0.414  14.891  0.9798 -0.0165 -0.4249
  240MPD1    H6 3704   2.142   0.360  14.970  0.3014  2.1931  0.7895
  240MPD1    H7 3705   2.251   0.477  14.915  0.1867  0.2031  1.4748
  241MPD1     C 3706   1.799   3.935  14.993  0.2998  0.2563 -0.6856
  241MPD1    C1 3707   1.838   4.064  15.025 -0.2049  0.2271  0.3355
  241MPD1    C2 3708   1.852   4.163  14.928  1.0466  0.6866  0.4078
  241MPD1    C3 3709   1.803   4.136  14.793 -0.9674  0.0402  0.6636
  241MPD1    C4 3710   1.759   4.006  14.768  0.3450 -0.2129  0.2181
  241MPD1    C5 3711   1.748   3.913  14.867  0.2504 -0.3921  0.6523
  241MPD1     H 3712   1.892   4.261  14.951  1.3213  1.0559 -1.5869
  241MPD1    H1 3713   1.735   3.971  14.669 -1.2499  2.2730 -0.2707
  241MPD1    H2 3714   1.810   3.856  15.066  0.2615 -0.0998 -1.0715
  241MPD1    H3 3715   1.718   3.810  14.848  0.1338 -0.2006 -0.2087
  241MPD1     N 3716   1.799   4.232  14.685  0.8629  0.3676  0.0624
  241MPD1    H5 3717   1.772   4.195  14.595  0.2964  1.2791 -0.1411
  241MPD1    N1 3718   1.895   4.082  15.154  0.3514  0.3590 -0.6317
  241MPD1    H6 3719   1.867   4.013  15.223  0.9796 -0.4789 -1.2201
  241MPD1    H7 3720   1.888   4.176  15.193 -4.0047  0.6097 -2.0509
  242MPD1     C 3721   1.890   2.505  16.115 -1.3997 -0.7008  0.5759
  242MPD1    C1 3722   2.012   2.521  16.057 -0.5365 -0.2199 -0.2254
  242MPD1    C2 3723   2.019   2.614  15.956 -0.2748 -0.1275 -1.0008
  242MPD1    C3 3724   1.914   2.681  15.902  0.4063 -0.1893  0.2633
  242MPD1    C4 3725   1.790   2.646  15.953 -0.6899 -0.2668 -0.2408
  242MPD1    C5 3726   1.778   2.562  16.061 -0.3816  0.2093  0.3575
  242MPD1     H 3727   2.117   2.652  15.927 -0.5691  1.2633 -0.1692
  242MPD1    H1 3728   1.697   2.671  15.903 -1.0178 -2.8372 -0.9429
  242MPD1    H2 3729   1.875   2.428  16.190  0.3635 -1.1059  0.5106
  242MPD1    H3 3730   1.681   2.534  16.102  0.0257  1.2156  2.0130
  242MPD1     N 3731   1.917   2.780  15.800  0.6349 -0.0529 -0.1035
  242MPD1    H5 3732   1.832   2.833  15.784 -0.6448 -1.4831  2.0369
  242MPD1    N1 3733   2.130   2.481  16.125 -0.7658  0.3789 -0.2067
  242MPD1    H6 3734   2.205   2.451  16.063 -1.5826  0.9127 -1.4427
  242MPD1    H7 3735   2.110   2.408  16.193  0.6765  0.2475  0.0787
  243MPD1     C 3736   3.658   1.204  16.994 -0.3018 -0.3068  0.0520
  243MPD1    C1 3737   3.782   1.147  16.989  0.3149  0.4678 -0.6469
  243MPD1    C2 3738   3.880   1.213  16.919 -0.3496  0.2346 -0.7530
  243MPD1    C3 3739   3.864   1.353  16.882  0.1809  0.0432  0.2935
  243MPD1    C4 3740   3.739   1.407  16.903 -0.1515 -0.4363  0.2234
  243MPD1    C5 3741   3.641   1.329  16.956 -0.0436 -0.4557 -0.3680
  243MPD1     H 3742   3.977   1.166  16.924 -2.0874 -3.4905 -1.6343
  243MPD1    H1 3743   3.723   1.507  16.864 -1.3953 -1.5395 -2.1317
  243MPD1    H2 3744   3.576   1.146  17.035  0.0168 -1.8832 -1.5324
  243MPD1    H3 3745   3.539   1.363  16.966 -0.1361 -0.2245 -2.0593
  243MPD1     N 3746   3.959   1.414  16.799  0.2807  0.5364  0.6878
  243MPD1    H5 3747   4.036   1.355  16.769  2.0193  3.1836 -0.0794
  243MPD1    N1 3748   3.790   1.013  17.016  0.4322  0.0129  0.0701
  243MPD1    H6 3749   3.744   1.001  17.106  1.1262 -2.7922  0.0618
  243MPD1    H7 3750   3.887   0.993  17.037  0.2629 -0.7926  0.0973
  244MPD1     C 3751   4.667   1.020  16.613  0.0613 -0.3194  0.1192
  244MPD1    C1 3752   4.591   1.040  16.723  0.1009  0.2627 -0.5376
  244MPD1    C2 3753   4.506   1.152  16.726  0.3116  0.5283 -0.3353
  244MPD1    C3 3754   4.497   1.247  16.618  0.3934  0.1822  0.6677
  244MPD1    C4 3755   4.576   1.225  16.513 -0.2747 -0.4795  0.5162
  244MPD1    C5 3756   4.659   1.111  16.511  0.0530 -0.3282 -0.1851
  244MPD1     H 3757   4.451   1.173  16.817 -0.3334 -2.5186 -0.0361
  244MPD1    H1 3758   4.574   1.288  16.424 -2.4839 -1.9142 -0.4286
  244MPD1    H2 3759   0.019   0.955  16.607 -1.5003 -2.1375 -2.4795
  244MPD1    H3 3760   4.732   1.105  16.431 -0.2406 -1.3607 -0.3763
  244MPD1     N 3761   4.404   1.352  16.637  0.1250 -0.3348  0.2082
  244MPD1    H5 3762   4.355   1.351  16.726  1.4241  0.8656  0.9482
  244MPD1    N1 3763   4.611   0.967  16.842  0.0366 -0.1177  0.0174
  244MPD1    H6 3764   4.539   0.995  16.908 -1.4435  0.0790 -1.6876
  244MPD1    H7 3765   4.596   0.867  16.828 -1.0791 -0.0452  0.7745
  245MPD1     C 3766   0.912   2.243  13.137  0.0716 -0.3188 -0.3879
  245MPD1    C1 3767   0.968   2.305  13.248 -0.4506  0.1523  0.2709
  245MPD1    C2 3768   0.967   2.441  13.259  0.3950 -0.3841 -0.0393
  245MPD1    C3 3769   0.925   2.524  13.156  0.0484  0.4162 -0.4562
  245MPD1    C4 3770   0.880   2.457  13.039  0.4797 -0.1482 -0.4473
  245MPD1    C5 3771   0.872   2.319  13.034  0.1994 -0.1744 -0.0856
  245MPD1     H 3772   1.001   2.495  13.347 -1.4506 -1.9034  1.6233
  245MPD1    H1 3773   0.850   2.511  12.950 -3.0907  1.6785  1.8471
  245MPD1    H2 3774   0.890   2.137  13.138 -0.2051 -0.2701 -1.3103
  245MPD1    H3 3775   0.839   2.271  12.943 -0.3224 -0.8657  0.4635
  245MPD1     N 3776   0.935   2.662  13.168  0.0578 -0.0630 -0.6381
  245MPD1    H5 3777   0.971   2.699  13.255  0.3566  2.9546 -2.0138
  245MPD1    N1 3778   1.009   2.235  13.359 -0.1227  0.5116  0.5950
  245MPD1    H6 3779   1.060   2.295  13.424 -1.2720  0.8471  1.1940
  245MPD1    H7 3780   1.060   2.151  13.333 -0.3897  0.1864  1.1325
  246MPD1     C 3781   2.324   0.128  10.244  0.1056 -0.1968  0.6571
  246MPD1    C1 3782   2.333   0.089  10.110  0.2666 -0.8518  0.2926
  246MPD1    C2 3783   2.333   4.686  10.088 -0.0134 -0.4046 -0.3414
  246MPD1    C3 3784   2.338   4.588  10.184  0.1298 -0.0108 -0.1442
  246MPD1    C4 3785   2.326   4.629  10.311  0.2764 -0.3499  0.1552
  246MPD1    C5 3786   2.323   0.030  10.342 -0.4700  0.5424 -0.6266
  246MPD1     H 3787   2.338   4.658   9.983  0.2589  2.0151 -0.9729
  246MPD1    H1 3788   2.331   4.563  10.397  0.0367  1.7779  1.8234
  246MPD1    H2 3789   2.326   0.231  10.277 -0.5259 -0.3788  1.2540
  246MPD1    H3 3790   2.335   0.057  10.446 -2.7055 -2.4208  0.3771
  246MPD1     N 3791   2.331   4.448  10.145 -0.2739  0.8140 -0.6350
  246MPD1    H5 3792   2.336   4.441  10.044  2.3694 -0.3653 -0.4264
  246MPD1    N1 3793   2.325   0.178  10.000  0.7833  0.1809  0.1257
  246MPD1    H6 3794   2.387   0.255  10.025 -0.1378  1.2709 -0.9331
  246MPD1    H7 3795   2.371   0.139   9.919  3.1272  1.5769  0.8077
  247MPD1     C 3796   4.089   2.679  16.023  0.5949 -0.7171 -0.5282
  247MPD1    C1 3797   4.189   2.673  15.927  0.4969 -0.6393 -0.0534
  247MPD1    C2 3798   4.291   2.589  15.952 -0.9589  0.3405  0.3872
  247MPD1    C3 3799   4.323   2.531  16.076  0.8790 -0.2812 -0.4767
  247MPD1    C4 3800   4.229   2.548  16.171 -0.0831 -0.1158  0.3021
  247MPD1    C5 3801   4.118   2.617  16.145  0.4104  0.5332  0.4232
  247MPD1     H 3802   4.363   2.592  15.870 -0.8703 -1.1386  0.4075
  247MPD1    H1 3803   4.240   2.488  16.260 -1.2792  0.2187  0.6820
  247MPD1    H2 3804   3.993   2.720  15.995  0.2703  0.0084  1.6406
  247MPD1    H3 3805   4.034   2.615  16.213  1.3948  2.9472  1.7064
  247MPD1     N 3806   4.446   2.464  16.107  0.2926  0.4191 -0.3889
  247MPD1    H5 3807   4.446   2.414  16.196 -1.6562  0.7542 -0.2211
  247MPD1    N1 3808   4.171   2.731  15.798  0.5510 -0.0557 -0.2940
  247MPD1    H6 3809   4.257   2.745  15.745  0.0608  0.7069 -0.8947
  247MPD1    H7 3810   4.117   2.817  15.806 -0.2005 -0.5944  0.5032
  248MPD1     C 3811   1.107   2.194   0.236 -0.5804  0.2696 -0.4128
  248MPD1    C1 3812   1.033   2.299   0.283  0.2640 -0.0484 -1.0830
  248MPD1    C2 3813   0.911   2.272   0.335 -0.3701  0.1335  0.6861
  248MPD1    C3 3814   0.840   2.160   0.305  0.8511 -0.2525 -0.2923
  248MPD1    C4 3815   0.900   2.054   0.244  0.6401  0.1613  0.2028
  248MPD1    C5 3816   1.032   2.076   0.216 -0.0285 -0.0684 -0.1392
  248MPD1     H 3817   0.861   2.352   0.389 -1.3216  0.2998 -0.4268
  248MPD1    H1 3818   0.850   1.962   0.216  1.9136 -0.7118  0.7588
  248MPD1    H2 3819   1.212   2.183   0.215 -0.5368  0.0325 -0.0743
  248MPD1    H3 3820   1.078   1.985   0.178  1.2876  0.7500 -0.5055
  248MPD1     N 3821   0.704   2.170   0.341 -0.4944 -0.5674 -0.2730
  248MPD1    H5 3822   0.679   2.257   0.387 -1.5186 -1.8609  1.6448
  248MPD1    N1 3823   1.102   2.419   0.300  0.5493  0.2045 -0.0008
  248MPD1    H6 3824   1.173   2.435   0.229 -0.1548  0.2657 -0.6791
  248MPD1    H7 3825   1.040   2.500   0.298  1.9259  1.2523 -0.5074
  249MPD1     C 3826   1.815   0.669  11.436  0.7932  0.0721  0.4557
  249MPD1    C1 3827   1.855   0.799  11.400  0.7032 -0.7311  0.0919
  249MPD1    C2 3828   1.896   0.823  11.268  0.4750  0.0837 -0.6156
  249MPD1    C3 3829   1.904   0.724  11.170  0.4019 -0.3870  0.3239
  249MPD1    C4 3830   1.856   0.598  11.207  0.3498 -0.6681 -0.6614
  249MPD1    C5 3831   1.818   0.574  11.341 -1.0389 -0.3458  0.3585
  249MPD1     H 3832   1.919   0.925  11.238  3.5911 -0.6633 -0.6853
  249MPD1    H1 3833   1.846   0.515  11.138 -2.0117 -1.0358  0.1289
  249MPD1    H2 3834   1.797   0.639  11.538 -2.0926  1.1315  0.2616
  249MPD1    H3 3835   1.764   0.483  11.363  0.1219 -0.9135  0.8510
  249MPD1     N 3836   1.942   0.762  11.040  0.0047 -0.1165  0.5648
  249MPD1    H5 3837   1.969   0.858  11.023  0.5004 -0.0713  1.6300
  249MPD1    N1 3838   1.863   0.898  11.497 -0.0928  0.4670 -0.3884
  249MPD1    H6 3839   1.871   0.993  11.462  1.7019  0.0438 -1.1378
  249MPD1    H7 3840   1.803   0.887  11.579  2.6481  2.1756  1.8472
  250MPD2     C 3841   3.219   1.412  13.012 -0.1457 -0.0345 -0.4410
  250MPD2    C1 3842   3.244   1.477  12.888 -0.4809 -0.2752  0.6270
  250MPD2    C2 3843   3.257   1.393  12.780 -0.1017 -0.6640 -0.4119
  250MPD2    C3 3844   3.269   1.252  12.793  0.0725 -0.3952  0.2264
  250MPD2    C4 3845   3.237   1.195  12.915 -0.5540  0.2119 -0.3608
  250MPD2    C5 3846   3.223   1.279  13.017 -0.2442  0.1726  0.1341
  250MPD2     H 3847   3.290   1.441  12.689  0.0843  1.4198  0.7424
  250MPD2    H1 3848   3.239   1.090  12.942  0.0437  0.0822 -0.9080
  250MPD2    H2 3849   3.203   1.466  13.105 -0.3322 -0.7191 -0.0770
  250MPD2    H3 3850   3.203   1.239  13.116  0.8295 -0.8507 -0.0603
  250MPD2     N 3851   3.304   1.162  12.692 -0.1419  0.6180  0.5574
  250MPD2    H5 3852   3.301   1.065  12.725 -1.9895  1.3758  2.6709
  250MPD2    N1 3853   3.236   1.618  12.878  0.0821  0.3816 -0.1145
  250MPD2    H7 3854   3.229   1.664  12.968 -1.2352 -0.3967  0.1906
  251TMC3    C1 3855   3.223   1.827  12.788 -0.0684 -0.4943 -0.5465
  251TMC3    C2 3856   3.115   1.904  12.777  0.0471  0.2672 -1.1620
  251TMC3    C3 3857   3.123   2.025  12.840  0.1200 -0.2836  0.0179
  251TMC3    C4 3858   3.345   1.876  12.829 -0.2767  0.0545 -0.4747
  251TMC3    C5 3859   3.349   2.009  12.868  0.5439  0.5139 -0.2258
  251TMC3    C6 3860   3.233   2.080  12.890  0.0493 -0.3615 -1.0016
  251TMC3     C 3861   3.208   1.684  12.762 -0.6974 -0.2384 -0.6140
  251TMC3     O 3862   3.176   1.636  12.653 -0.4857 -0.0152  0.0648
  251TMC3     H 3863   3.017   1.874  12.741  0.1694  0.1167 -1.3724
  251TMC3    H1 3864   3.431   1.810  12.825  0.1104  0.5934 -1.0316
  251TMC3    H2 3865   3.248   2.164  12.957  2.4288  0.1394 -2.1710
  251TMC3    C7 3866   3.479   2.052  12.907  0.4802 -0.6954 -0.1859
  251TMC3    C8 3867   2.995   2.093  12.857  0.1376 -1.0316  0.4947
  251TMC3    O1 3868   3.560   1.964  12.936 -0.2112 -0.3494 -0.1141
  251TMC3    O2 3869   2.894   2.022  12.853  0.1067  0.0531 -0.1952
  252TMC3    C1 3870   2.999   2.541   9.430  0.5748 -0.0236  0.2193
  252TMC3    C2 3871   3.107   2.562   9.359  0.3428 -0.0098  0.2678
  252TMC3    C3 3872   3.207   2.472   9.368  0.4263  0.3196  0.0911
  252TMC3    C4 3873   2.980   2.428   9.506  0.5266  0.0254  0.0556
  252TMC3    C5 3874   3.084   2.347   9.523  0.0100  0.0301  1.5280
  252TMC3    C6 3875   3.204   2.368   9.451  0.5604  0.0117 -0.2681
  252TMC3     C 3876   2.909   2.652   9.456 -0.5929 -0.2160  0.0577
  252TMC3     O 3877   2.855   2.656   9.562 -0.3805  0.8137  0.6307
  252TMC3     H 3878   3.129   2.649   9.298  0.7319  1.0953  1.9955
  252TMC3    H1 3879   2.885   2.414   9.556  0.9180 -0.9740  0.5177
  252TMC3    H2 3880   3.279   2.290   9.443  2.4725  2.1174 -2.7861
  252TMC3    C7 3881   3.054   2.218   9.585  0.5885 -0.4490  0.1037
  252TMC3    C8 3882   3.330   2.489   9.301  0.5620  0.0415  0.5675
  252TMC3    O1 3883   2.940   2.183   9.603  0.2916 -0.2494 -0.0622
  252TMC3    O2 3884   3.318   2.541   9.192 -0.3527 -0.7624 -0.5632
  253MPD2     C 3885   0.679   1.430  15.098  0.0434 -0.1238 -0.5592
  253MPD2    C1 3886   0.558   1.428  15.164  0.1924  0.1918 -0.3352
  253MPD2    C2 3887   0.539   1.392  15.297  0.0633  0.0753  0.0113
  253MPD2    C3 3888   0.652   1.366  15.376  0.5792 -0.1631 -0.6443
  253MPD2    C4 3889   0.774   1.361  15.309  0.3947  0.2587 -0.0230
  253MPD2    C5 3890   0.786   1.395  15.175 -0.5582  0.0336  0.2470
  253MPD2     H 3891   0.443   1.401  15.345  1.2307 -0.4664  2.4473
  253MPD2    H1 3892   0.865   1.332  15.359  0.5809  1.6537  0.4631
  253MPD2    H2 3893   0.680   1.461  14.994  1.0192  0.0942 -0.4810
  253MPD2    H3 3894   0.884   1.401  15.131 -0.0436  1.4497  1.5703
  253MPD2     N 3895   0.643   1.324  15.510  0.1025  0.1505 -0.2601
  253MPD2    H5 3896   0.736   1.298  15.543  0.8382 -0.4061 -2.7644
  253MPD2    N1 3897   0.437   1.464  15.096 -0.2058  0.1406 -0.6687
  253MPD2    H7 3898   0.357   1.450  15.156  0.2861 -1.7247 -0.4606
  254TMC3    C1 3899   0.548   1.279  15.729  0.4533 -0.2651 -0.1120
  254TMC3    C2 3900   0.434   1.276  15.797 -0.7911  0.0514  0.8098
  254TMC3    C3 3901   0.435   1.210  15.918 -0.5439 -0.4215  0.2326
  254TMC3    C4 3902   0.663   1.223  15.777 -0.6217 -0.2349 -0.1144
  254TMC3    C5 3903   0.653   1.135  15.888 -0.2641 -0.4247 -0.3303
  254TMC3    C6 3904   0.537   1.130  15.959  0.3135 -0.1004 -0.0345
  254TMC3     C 3905   0.537   1.344  15.602  0.2897  0.3444 -0.0117
  254TMC3     O 3906   0.422   1.373  15.572  0.2018  0.3777 -0.1627
  254TMC3     H 3907   0.335   1.309  15.766 -1.2295 -2.8980 -0.9718
  254TMC3    H1 3908   0.751   1.228  15.715 -0.5908  1.6476  0.0910
  254TMC3    H2 3909   0.532   1.097  16.062 -0.8452 -0.4209 -0.1956
  254TMC3    C7 3910   0.764   1.123  15.985 -0.0433  0.5034 -1.0355
  254TMC3    C8 3911   0.349   1.268  16.018 -0.2385  0.3874 -0.5315
  254TMC3    O1 3912   0.757   1.031  16.064  0.0083 -0.7490  0.3434
  254TMC3    O2 3913   0.375   1.244  16.137  0.5515  0.3247 -0.2792
  255MPD2     C 3914   3.696   3.994   9.684  0.1643 -0.8298 -0.2157
  255MPD2    C1 3915   3.727   4.127   9.691  0.4400  0.4095  0.0023
  255MPD2    C2 3916   3.830   4.176   9.612  0.1635 -0.6816  0.1800
  255MPD2    C3 3917   3.901   4.094   9.526 -0.7495 -0.2656 -0.3457
  255MPD2    C4 3918   3.860   3.963   9.511 -0.7346  0.3020 -0.4201
  255MPD2    C5 3919   3.760   3.913   9.594  0.1148  0.0282  0.0469
  255MPD2     H 3920   3.862   4.279   9.619 -0.0921 -0.5395 -0.7488
  255MPD2    H1 3921   3.893   3.901   9.429  1.4879  3.0087 -1.5699
  255MPD2    H2 3922   3.626   3.955   9.757 -2.3842  1.4600 -1.4688
  255MPD2    H3 3923   3.733   3.809   9.586 -1.4153  0.6166 -2.4348
  255MPD2     N 3924   4.033   4.148   9.485 -0.5418  0.1932 -0.0829
  255MPD2    H5 3925   4.068   4.238   9.517 -1.2137 -0.8980  3.6864
  255MPD2    N1 3926   3.659   4.204   9.786  0.0286  0.1391  0.7123
  255MPD2    H7 3927   3.605   4.147   9.850 -0.3830 -1.4930 -1.1031
  256TMC3    C1 3928   3.583   4.403   9.901  0.5815 -0.3015  0.1181
  256TMC3    C2 3929   3.541   4.535   9.871 -0.0447  0.8514  0.1230
  256TMC3    C3 3930   3.411   4.568   9.911 -1.3599  0.1841 -0.9699
  256TMC3    C4 3931   3.505   4.317   9.975  0.3126  0.0766 -0.1773
  256TMC3    C5 3932   3.374   4.353  10.008  0.0795 -0.0118 -0.2410
  256TMC3    C6 3933   3.328   4.477   9.971 -0.0440 -0.2761 -0.0194
  256TMC3     C 3934   3.666   4.340   9.802  0.1972 -0.1330 -0.5044
  256TMC3     O 3935   3.728   4.417   9.731  0.3642 -0.1342 -0.3226
  256TMC3     H 3936   3.605   4.599   9.811  3.4732 -1.0279  1.8851
  256TMC3    H1 3937   3.539   4.221  10.011  1.1063 -0.1125 -1.4581
  256TMC3    H2 3938   3.227   4.511   9.992  0.9570  2.9787 -0.5595
  256TMC3    C7 3939   3.274   4.251  10.021 -0.1488  0.1681  0.4771
  256TMC3    C8 3940   3.348   4.693   9.886 -1.0102 -0.1166  1.1976
  256TMC3    O1 3941   3.320   4.143   9.984 -0.0946 -0.4136  0.2822
  256TMC3    O2 3942   3.232   4.713   9.915 -0.0283  0.3696 -0.1698
  257MPD2     C 3943   2.481   1.622  13.074  0.0580  0.5529  0.4825
  257MPD2    C1 3944   2.430   1.521  12.995 -0.9157  0.1449  0.1717
  257MPD2    C2 3945   2.427   1.392  13.040  0.2378 -0.5587  0.4460
  257MPD2    C3 3946   2.486   1.372  13.170  0.7581 -0.5531  0.1091
  257MPD2    C4 3947   2.537   1.474  13.248 -0.4475  0.4873  0.8807
  257MPD2    C5 3948   2.539   1.602  13.195  0.3623  0.3214 -0.7619
  257MPD2     H 3949   2.399   1.300  12.990  1.4572 -0.3524 -0.6378
  257MPD2    H1 3950   2.596   1.474  13.339  0.5844  0.3175  0.2035
  257MPD2    H2 3951   2.488   1.722  13.032 -0.2429  0.2795 -0.2330
  257MPD2    H3 3952   2.594   1.684  13.241  0.2454  0.1029 -0.2346
  257MPD2     N 3953   2.508   1.236  13.203 -0.1065  0.1899 -0.1767
  257MPD2    H5 3954   2.471   1.172  13.134  1.0481 -1.2285  0.5226
  257MPD2    N1 3955   2.357   1.561  12.884 -0.2354  0.5498  0.0341
  257MPD2    H7 3956   2.374   1.656  12.852 -0.2418 -0.4854 -3.0493
  258TMC3    C1 3957   2.586   1.052  13.317  0.1271  0.0411 -0.7966
  258TMC3    C2 3958   2.595   0.990  13.197 -0.0893 -0.6338 -0.3269
  258TMC3    C3 3959   2.698   0.903  13.184  1.0393 -0.1210  0.4840
  258TMC3    C4 3960   2.664   1.024  13.428  0.0105  0.4058  0.1882
  258TMC3    C5 3961   2.766   0.933  13.409 -0.7857 -0.2915  0.6865
  258TMC3    C6 3962   2.796   0.892  13.282  0.0020  0.1605  0.4152
  258TMC3     C 3963   2.562   1.190  13.320  0.2053  0.1843 -0.1305
  258TMC3     O 3964   2.595   1.255  13.418 -0.2369  0.4067  0.3666
  258TMC3     H 3965   2.518   1.005  13.122 -0.5957 -0.1289  0.2911
  258TMC3    H1 3966   2.644   1.069  13.524 -1.3356 -1.3555  0.7226
  258TMC3    H2 3967   2.879   0.827  13.259 -1.7280 -2.6257  2.0986
  258TMC3    C7 3968   2.853   0.905  13.522  0.5656 -0.2751  0.3297
  258TMC3    C8 3969   2.710   0.813  13.075  0.8162  0.1722 -0.5820
  258TMC3    O1 3970   2.963   0.850  13.506  0.4760 -0.0980  0.0180
  258TMC3    O2 3971   2.814   0.784  13.015  0.5615  0.2906 -0.1096
  259MPD2     C 3972   1.077   2.871   0.498  0.5137 -0.0724 -0.4046
  259MPD2    C1 3973   1.119   2.750   0.547 -0.9024  0.2648  0.7251
  259MPD2    C2 3974   1.234   2.689   0.494  0.0567 -0.2100  0.5061
  259MPD2    C3 3975   1.315   2.756   0.404  0.5404  0.8191  0.6859
  259MPD2    C4 3976   1.269   2.880   0.359 -0.8392 -0.0507  0.6330
  259MPD2    C5 3977   1.161   2.938   0.414 -0.1423  0.2445  0.3631
  259MPD2     H 3978   1.263   2.593   0.535  3.1676  0.8318  0.7271
  259MPD2    H1 3979   1.322   2.936   0.283  1.5209 -1.2445  1.3807
  259MPD2    H2 3980   0.976   2.904   0.522 -0.0462 -0.5311 -2.0796
  259MPD2    H3 3981   1.130   3.030   0.366  0.9433 -0.6438 -2.0419
  259MPD2     N 3982   1.432   2.696   0.347  0.3490  0.2797 -0.5023
  259MPD2    H5 3983   1.441   2.599   0.372  0.0201  0.4600  0.3035
  259MPD2    N1 3984   1.027   2.695   0.644 -0.3753 -0.4876 -0.3458
  259MPD2    H7 3985   0.943   2.746   0.667 -1.2632 -1.6738 -0.9304
  260TMC3    C1 3986   1.635   2.676   0.224  0.2469  0.6001  0.4960
  260TMC3    C2 3987   1.754   2.741   0.190  0.2410  0.3038  0.4911
  260TMC3    C3 3988   1.845   2.672   0.112  0.5344 -0.6294 -0.3061
  260TMC3    C4 3989   1.609   2.548   0.185  0.5127 -0.6330  0.0323
  260TMC3    C5 3990   1.700   2.482   0.110 -0.3098 -0.2257  0.3512
  260TMC3    C6 3991   1.821   2.542   0.071 -0.0498 -0.6338 -0.0690
  260TMC3     C 3992   1.521   2.761   0.260 -0.3697  0.4226  0.1474
  260TMC3     O 3993   1.531   2.877   0.228 -0.2591 -0.2769  0.5301
  260TMC3     H 3994   1.771   2.838   0.236  0.9259 -0.0461  0.9837
  260TMC3    H1 3995   1.508   2.510   0.190 -0.1392  0.8780 -1.8661
  260TMC3    H2 3996   1.892   2.492   0.007  0.1026 -2.2281  1.3282
  260TMC3    C7 3997   1.685   2.345   0.076 -0.6936 -1.1611 -0.5959
  260TMC3    C8 3998   1.969   2.745   0.076 -0.8574  0.1978 -0.5733
  260TMC3    O1 3999   1.785   2.288   0.036 -0.4124  0.6352  0.2703
  260TMC3    O2 4000   1.969   2.860   0.110 -1.2289 -0.3417  0.1392
  261MPD2     C 4001   3.556   1.087  11.872 -0.5277  0.0890  0.4015
  261MPD2    C1 4002   3.441   1.139  11.940 -0.5841  0.0895 -0.2558
  261MPD2    C2 4003   3.360   1.236  11.881  0.2304  1.0888  0.5907
  261MPD2    C3 4004   3.383   1.272  11.747 -0.0873  0.2509 -0.1141
  261MPD2    C4 4005   3.482   1.211  11.680  0.7512  0.3324  0.3353
  261MPD2    C5 4006   3.566   1.123  11.742 -0.1045  0.5625 -0.1244
  261MPD2     H 4007   3.284   1.287  11.938 -1.1715 -0.1425 -0.1809
  261MPD2    H1 4008   3.494   1.234  11.575 -0.6100 -0.9234 -0.0939
  261MPD2    H2 4009   3.623   1.017  11.922 -1.5736 -1.6010 -0.5584
  261MPD2    H3 4010   3.647   1.081  11.684 -0.5803 -1.0416  0.3951
  261MPD2     N 4011   3.304   1.361  11.663  0.4113  0.8679  0.0797
  261MPD2    H5 4012   3.338   1.365  11.567 -0.2055 -0.3739 -0.1958
  261MPD2    N1 4013   3.413   1.104  12.074  0.0464 -0.9876 -0.5869
  261MPD2    H7 4014   3.327   1.144  12.109  1.3906  0.8662  0.5801
  262TMC3    C1 4015   3.097   1.458  11.584  0.2668 -0.5094  0.2947
  262TMC3    C2 4016   2.988   1.524  11.632  0.1481  0.1509 -0.8400
  262TMC3    C3 4017   2.891   1.535  11.544  0.2745  0.1161 -0.2881
  262TMC3    C4 4018   3.117   1.419  11.455  0.0626 -0.0593  0.1247
  262TMC3    C5 4019   3.019   1.448  11.366  0.0726 -0.1878 -0.7241
  262TMC3    C6 4020   2.907   1.509  11.410 -0.4308 -0.6842 -0.0116
  262TMC3     C 4021   3.186   1.416  11.699 -0.0900 -0.4939 -0.5921
  262TMC3     O 4022   3.129   1.415  11.807 -0.5220 -0.3943  0.5310
  262TMC3     H 4023   2.971   1.549  11.736  2.8768 -0.1296 -0.3147
  262TMC3    H1 4024   3.199   1.351  11.434  0.3856 -0.0173  1.2545
  262TMC3    H2 4025   2.820   1.512  11.346 -0.6208 -0.0817  0.2770
  262TMC3    C7 4026   3.041   1.443  11.217  0.2795  0.2000 -0.3406
  262TMC3    C8 4027   2.797   1.640  11.571 -0.3242  0.1377  0.7104
  262TMC3    O1 4028   2.939   1.474  11.155 -0.1985 -0.3517  0.2922
  262TMC3    O2 4029   2.819   1.699  11.676  0.2652 -0.7239  0.5585
  263MPD2     C 4030   3.969   0.075  11.296  0.2305  0.0320  0.4448
  263MPD2    C1 4031   4.070   0.141  11.246 -0.4312 -1.1103 -0.4807
  263MPD2    C2 4032   4.057   0.219  11.138 -0.4736  0.0825  0.3940
  263MPD2    C3 4033   3.933   0.241  11.079  0.1380 -0.0005 -0.3399
  263MPD2    C4 4034   3.833   0.160  11.130 -0.3571 -0.3108 -0.2954
  263MPD2    C5 4035   3.844   0.091  11.241  0.2645  0.0088 -0.0905
  263MPD2     H 4036   4.143   0.267  11.091 -0.3576 -0.3317  0.1763
  263MPD2    H1 4037   3.733   0.155  11.088 -1.1708 -2.7343  1.9566
  263MPD2    H2 4038   3.973   0.011  11.383 -0.7717 -1.1451 -0.3737
  263MPD2    H3 4039   3.759   0.032  11.271  0.3244 -0.0035  0.0558
  263MPD2     N 4040   3.925   0.319  10.965 -0.5355 -0.1476  0.7213
  263MPD2    H5 4041   4.012   0.368  10.948 -0.5428 -0.9831 -1.7729
  263MPD2    N1 4042   4.194   0.126  11.306  0.3644  0.2003 -0.0695
  263MPD2    H7 4043   4.185   0.077  11.394 -0.5470 -1.0367 -0.8527
  264TMC3    C1 4044   3.859   0.470  10.811 -0.1569  0.3951 -0.1841
  264TMC3    C2 4045   3.883   0.588  10.876  0.4957  0.2949  0.3944
  264TMC3    C3 4046   3.953   0.681  10.805  0.1786  0.5058  1.0147
  264TMC3    C4 4047   3.933   0.433  10.702  0.6474  0.7467 -0.0167
  264TMC3    C5 4048   4.009   0.530  10.641  0.0066  0.0377  0.0009
  264TMC3    C6 4049   4.029   0.651  10.695 -0.3290 -0.0963 -0.1419
  264TMC3     C 4050   3.818   0.364  10.894 -0.0288  0.2160  0.6390
  264TMC3     O 4051   3.699   0.340  10.902  0.3958 -0.0293  0.0930
  264TMC3     H 4052   3.816   0.609  10.958  1.2497  2.4420  0.4705
  264TMC3    H1 4053   3.926   0.328  10.677  2.0888  0.2985  1.4085
  264TMC3    H2 4054   4.084   0.727  10.640  1.7997 -0.2769  1.7489
  264TMC3    C7 4055   4.078   0.510  10.514 -0.1921  0.8303 -0.3242
  264TMC3    C8 4056   3.969   0.820  10.846 -0.3832 -0.1487 -1.2912
  264TMC3    O1 4057   4.175   0.587  10.489  0.1163  0.5694  0.2480
  264TMC3    O2 4058   3.984   0.896  10.750 -0.2711 -0.9909  0.0554
  265MPD2     C 4059   1.937   0.501  15.683  0.2848 -0.1505  0.3356
  265MPD2    C1 4060   1.835   0.571  15.621 -0.0153  0.2164  0.5544
  265MPD2    C2 4061   1.840   0.585  15.480  0.1465 -0.1416  0.2900
  265MPD2    C3 4062   1.918   0.501  15.399  0.2188  0.5337  0.5236
  265MPD2    C4 4063   1.998   0.412  15.469 -0.2652  0.7078 -0.3252
  265MPD2    C5 4064   2.017   0.421  15.609 -0.0930  0.7756 -0.6404
  265MPD2     H 4065   1.772   0.660  15.441  0.2950 -1.3102 -2.2531
  265MPD2    H1 4066   2.058   0.343  15.411  1.1344  2.5773 -1.1118
  265MPD2    H2 4067   1.954   0.510  15.790  4.3662  0.3279 -0.3489
  265MPD2    H3 4068   2.087   0.358  15.663 -1.1667 -0.3961 -0.6109
  265MPD2     N 4069   1.929   0.508  15.263  0.2700 -0.1764 -0.6426
  265MPD2    H5 4070   1.968   0.430  15.211  0.7038 -0.1896 -0.2987
  265MPD2    N1 4071   1.747   0.651  15.695 -0.0988 -0.4293 -0.7547
  265MPD2    H7 4072   1.691   0.716  15.640 -0.0829  0.9625  0.8603
  266TMC3    C1 4073   1.618   0.716  15.883  0.3034 -0.9490 -0.3413
  266TMC3    C2 4074   1.608   0.722  16.019  0.7043  0.4415 -0.0632
  266TMC3    C3 4075   1.569   0.838  16.080 -0.7124  0.7800  0.1843
  266TMC3    C4 4076   1.576   0.822  15.811 -0.2522  0.6212 -0.1911
  266TMC3    C5 4077   1.527   0.931  15.874  0.2259  0.0705 -1.1649
  266TMC3    C6 4078   1.527   0.946  16.009 -1.0665  0.2481  0.1467
  266TMC3     C 4079   1.719   0.633  15.829 -0.2299  0.0917  0.6795
  266TMC3     O 4080   1.788   0.572  15.911 -0.3320 -0.2696  0.1453
  266TMC3     H 4081   1.638   0.634  16.075 -2.3974 -0.7051 -0.1794
  266TMC3    H1 4082   1.575   0.816  15.702 -2.3116 -1.7251 -0.0489
  266TMC3    H2 4083   1.489   1.026  16.071 -0.9786  1.4587 -1.3568
  266TMC3    C7 4084   1.457   1.025  15.783  0.5035  0.9946  0.5613
  266TMC3    C8 4085   1.576   0.832  16.225  0.2440 -0.0371 -0.3622
  266TMC3    O1 4086   1.453   1.002  15.663 -0.3853  0.2915  0.2751
  266TMC3    O2 4087   1.576   0.723  16.280 -0.1580  0.2909 -0.6682
  267MPD2     C 4088   3.503   3.499   0.452 -0.3163  0.3084 -0.0331
  267MPD2    C1 4089   3.541   3.394   0.377 -0.5235 -1.0503 -0.0423
  267MPD2    C2 4090   3.511   3.381   0.239 -0.3145  0.8746  0.1379
  267MPD2    C3 4091   3.461   3.488   0.175  0.0617 -0.7058 -0.3725
  267MPD2    C4 4092   3.441   3.602   0.246 -0.1735  0.9596  0.4720
  267MPD2    C5 4093   3.456   3.600   0.379 -0.6381  0.2452 -0.5100
  267MPD2     H 4094   3.549   3.300   0.177  0.8881  1.2152  0.4351
  267MPD2    H1 4095   3.403   3.692   0.199 -0.6279 -0.5898 -2.1457
  267MPD2    H2 4096   3.514   3.511   0.559 -3.8206  1.3090  0.2345
  267MPD2    H3 4097   3.429   3.688   0.435  1.2166 -1.0932  2.4924
  267MPD2     N 4098   3.442   3.490   0.035  0.4418  0.2593 -0.0553
  267MPD2    H5 4099   3.394   3.570  17.730  2.4055  1.7606  0.5607
  267MPD2    N1 4100   3.599   3.282   0.456 -0.5953 -0.1050  0.5535
  267MPD2    H7 4101   3.611   3.297   0.555 -0.3693 -0.4263  0.5771
  268TMC3    C1 4102   3.704   3.099   0.503  0.7102  0.4730  0.2512
  268TMC3    C2 4103   3.825   3.161   0.511  0.2131 -0.0768  0.0779
  268TMC3    C3 4104   3.934   3.086   0.541 -0.2982  0.0183  0.4573
  268TMC3    C4 4105   3.678   2.963   0.534 -0.0657 -0.5402  0.5094
  268TMC3    C5 4106   3.792   2.907   0.591 -0.0512  0.4509  0.3916
  268TMC3    C6 4107   3.907   2.972   0.612 -0.6214 -0.5240 -0.4481
  268TMC3     C 4108   3.618   3.156   0.412 -0.7556 -0.2584  0.6274
  268TMC3     O 4109   3.557   3.087   0.331  0.1896  0.2386  0.1127
  268TMC3     H 4110   3.831   3.266   0.484 -1.3196 -0.6136 -2.3415
  268TMC3    H1 4111   3.582   2.913   0.524  0.1996 -0.8330 -0.5400
  268TMC3    H2 4112   3.986   2.922   0.667 -1.5079  0.2880  1.5493
  268TMC3    C7 4113   3.790   2.767   0.631  0.1588  0.5589  0.1554
  268TMC3    C8 4114   4.023   3.046   0.439 -0.8361  0.2451 -0.5285
  268TMC3    O1 4115   3.874   2.727   0.712  0.8668  0.3407 -0.9077
  268TMC3    O2 4116   4.126   3.001   0.482 -0.0214  0.3340  0.1298
  269MPD2     C 4117   4.386   1.584  15.827 -0.1398 -0.4768 -0.0751
  269MPD2    C1 4118   4.254   1.622  15.826 -0.0013  0.4927  0.3271
  269MPD2    C2 4119   4.222   1.753  15.785 -0.7945  0.3515  0.2470
  269MPD2    C3 4120   4.318   1.842  15.732  0.2005  0.5835  0.2817
  269MPD2    C4 4121   4.445   1.794  15.716 -0.4092  0.8727 -1.0355
  269MPD2    C5 4122   4.480   1.667  15.768 -0.5232  0.9264 -0.0620
  269MPD2     H 4123   4.125   1.798  15.801 -0.4559  1.0565  0.2897
  269MPD2    H1 4124   4.528   1.845  15.669  0.5322 -0.6001 -0.9534
  269MPD2    H2 4125   4.411   1.490  15.873  1.2575  0.0803  0.3131
  269MPD2    H3 4126   4.579   1.628  15.753 -1.4012 -0.7355 -1.4637
  269MPD2     N 4127   4.277   1.974  15.695  0.0685  0.0971  0.2905
  269MPD2    H5 4128   4.182   2.003  15.712  0.4744  0.7063  1.5212
  269MPD2    N1 4129   4.159   1.535  15.881 -0.1042 -0.0211  0.1079
  269MPD2    H7 4130   4.191   1.442  15.904 -0.2122  0.0533  0.5574
  270TMC3    C1 4131   3.957   1.426  15.918 -0.0655  0.3061  0.0092
  270TMC3    C2 4132   3.858   1.403  15.830 -0.3885 -0.2301 -0.1761
  270TMC3    C3 4133   3.808   1.278  15.819 -0.0352  0.0297  0.5363
  270TMC3    C4 4134   4.016   1.329  15.994 -0.3846  0.6568  0.3630
  270TMC3    C5 4135   3.951   1.210  15.986 -0.3907  1.0389  0.1594
  270TMC3    C6 4136   3.848   1.177  15.906  0.1956  0.7465 -0.4418
  270TMC3     C 4137   4.021   1.549  15.889 -0.1314  0.1471 -0.4849
  270TMC3     O 4138   3.954   1.648  15.881  0.1533 -0.0616 -0.0693
  270TMC3     H 4139   3.818   1.488  15.776  1.0895  0.0935 -0.7342
  270TMC3    H1 4140   4.079   1.361  16.077  0.2344  0.0671  0.1188
  270TMC3    H2 4141   3.828   1.071  15.897 -1.4019  0.8354  2.1186
  270TMC3    C7 4142   3.996   1.099  16.068 -0.0299 -0.3046 -0.1210
  270TMC3    C8 4143   3.750   1.240  15.694 -0.2513  0.3625  0.1446
  270TMC3    O1 4144   4.116   1.102  16.093 -0.4301 -0.1704  0.4269
  270TMC3    O2 4145   3.757   1.314  15.597 -0.8733  0.2683  0.1530
  271MPD2     C 4146   3.075   1.773  14.411 -0.2763  0.5832 -0.1484
  271MPD2    C1 4147   3.049   1.642  14.357 -0.3055 -0.2674  0.0842
  271MPD2    C2 4148   2.966   1.628  14.247 -0.0338 -0.4321 -0.0202
  271MPD2    C3 4149   2.897   1.745  14.199 -0.2102  0.9939  0.6323
  271MPD2    C4 4150   2.920   1.870  14.254 -0.8006  0.5070 -0.6459
  271MPD2    C5 4151   3.009   1.879  14.363 -0.2320  1.1687 -0.7560
  271MPD2     H 4152   2.939   1.535  14.200 -2.8518  0.6278 -0.4959
  271MPD2    H1 4153   2.870   1.960  14.220 -1.8340 -0.2971 -1.2354
  271MPD2    H2 4154   3.137   1.773  14.500 -1.2705 -1.5703  0.5473
  271MPD2    H3 4155   3.033   1.979  14.395 -1.1217  1.6737 -1.6634
  271MPD2     N 4156   2.795   1.749  14.101  0.3596  0.7671 -0.0520
  271MPD2    H5 4157   2.750   1.840  14.094 -1.7693 -0.1246  2.1264
  271MPD2    N1 4158   3.091   1.525  14.427 -0.2200 -0.0710 -0.8630
  271MPD2    H7 4159   3.096   1.435  14.379  2.5066 -0.7968  0.7624
  272TMC3    C1 4160   3.162   1.397  14.614 -0.1655 -0.7340  0.4214
  272TMC3    C2 4161   3.258   1.331  14.545 -0.6690 -0.2008  0.1012
  272TMC3    C3 4162   3.335   1.244  14.620  0.4999  0.3036 -0.4588
  272TMC3    C4 4163   3.154   1.390  14.754 -0.6481  0.3831  0.4974
  272TMC3    C5 4164   3.238   1.303  14.822 -0.1501 -0.0392 -0.0160
  272TMC3    C6 4165   3.326   1.225  14.755 -1.1685  0.0251  0.4587
  272TMC3     C 4166   3.109   1.521  14.560 -0.4372  0.0128 -0.4792
  272TMC3     O 4167   3.073   1.606  14.643  0.1139  0.2429 -0.5543
  272TMC3     H 4168   3.273   1.356  14.440 -1.7309  0.6038  0.1522
  272TMC3    H1 4169   3.076   1.439  14.812 -0.9410 -1.7562  1.9002
  272TMC3    H2 4170   3.382   1.154  14.815  0.2972  1.5968  0.9550
  272TMC3    C7 4171   3.246   1.317  14.970 -0.6453  0.1342 -0.4502
  272TMC3    C8 4172   3.406   1.145  14.543  0.2065 -1.2967  0.1912
  272TMC3    O1 4173   3.141   1.345  15.026  0.5101  0.2850 -0.2916
  272TMC3    O2 4174   3.393   1.151  14.423 -0.2767 -0.0422  0.8443
  273MPD2     C 4175   4.570   4.057  11.654 -0.1842 -0.2634  0.2336
  273MPD2    C1 4176   4.696   4.060  11.609 -0.1736  0.3211 -0.0465
  273MPD2    C2 4177   4.723   4.012  11.481  0.1220 -0.2574  0.1327
  273MPD2    C3 4178   4.627   3.965  11.392 -0.2921 -0.5918  0.6523
  273MPD2    C4 4179   4.495   3.967  11.442  0.2837 -0.1336 -0.3208
  273MPD2    C5 4180   4.477   3.993  11.574  0.8995  0.2017 -0.1294
  273MPD2     H 4181   0.087   4.034  11.440 -0.5795  0.8634 -0.9309
  273MPD2    H1 4182   4.406   3.943  11.384  0.9626 -0.3981 -1.2502
  273MPD2    H2 4183   4.539   4.072  11.757  0.4347  2.4163  0.0447
  273MPD2    H3 4184   4.378   3.981  11.617  0.5591  1.6252 -0.5130
  273MPD2     N 4185   4.647   3.948  11.252 -0.1870  0.1008  0.3272
  273MPD2    H5 4186   4.567   3.953  11.190 -1.0376  0.2785  1.4235
  273MPD2    N1 4187   0.049   4.124  11.696 -0.3607  0.3105  0.3274
  273MPD2    H7 4188   0.010   4.150  11.786 -0.6934  0.8959  0.0111
  274TMC3    C1 4189   0.034   3.950  11.060  0.1122  0.3297 -0.1028
  274TMC3    C2 4190   4.663   3.915  10.977  0.1539 -0.2882  0.3613
  274TMC3    C3 4191   4.659   3.970  10.854  0.0230 -1.2411  0.1554
  274TMC3    C4 4192   0.125   4.047  11.028  0.0583  0.2641  0.4300
  274TMC3    C5 4193   0.108   4.103  10.901 -0.1334  0.2323 -0.8166
  274TMC3    C6 4194   0.023   4.054  10.806 -0.6771  1.0883 -1.0591
  274TMC3     C 4195   0.034   3.935  11.201  0.3412  0.5427 -0.1709
  274TMC3     O 4196   0.138   3.895  11.250  0.4103  0.0250  0.1174
  274TMC3     H 4197   4.591   3.838  11.005 -0.2193 -0.2962 -0.6034
  274TMC3    H1 4198   0.192   4.092  11.101  0.8958 -1.2790  0.6237
  274TMC3    H2 4199   4.729   4.109  10.717 -0.8059  1.3164 -0.8789
  274TMC3    C7 4200   0.164   4.234  10.881 -0.3869  0.1940  0.3540
  274TMC3    C8 4201   4.535   3.955  10.776  0.6141  0.7778  0.1951
  274TMC3    O1 4202   0.190   4.268  10.767  0.3676  0.3616 -0.4224
  274TMC3    O2 4203   4.432   3.958  10.843 -0.0994  0.1032  0.1682
  275MPD2     C 4204   0.224   1.946  14.337  0.0381  0.6138  0.1428
  275MPD2    C1 4205   0.147   2.063  14.364  0.2749 -0.0212  0.0339
  275MPD2    C2 4206   0.010   2.055  14.381 -0.3753 -0.8280  0.4127
  275MPD2    C3 4207   4.681   1.935  14.369 -0.3498 -1.0849 -0.5876
  275MPD2    C4 4208   0.022   1.822  14.339 -0.3700 -0.4812 -0.1738
  275MPD2    C5 4209   0.157   1.831  14.330  0.5634 -0.0823 -0.4358
  275MPD2     H 4210   4.691   2.145  14.412 -2.1473 -0.6185 -3.2172
  275MPD2    H1 4211   4.714   1.723  14.336 -1.2143 -0.1141 -0.3511
  275MPD2    H2 4212   0.331   1.945  14.320  0.7432 -1.4902  4.8085
  275MPD2    H3 4213   0.211   1.741  14.303 -1.0786 -0.8824 -1.0224
  275MPD2     N 4214   4.539   1.926  14.388  0.5388 -0.5743  0.5589
  275MPD2    H5 4215   4.486   2.009  14.414  0.3338  0.1142 -2.0908
  275MPD2    N1 4216   0.198   2.189  14.372 -0.1432 -0.0320  0.1651
  275MPD2    H7 4217   0.138   2.270  14.382  1.3456  1.1408 -0.3689
  276TMC3    C1 4218   0.348   2.365  14.416  0.4199  0.2393  0.1175
  276TMC3    C2 4219   0.226   2.430  14.422 -0.4488  0.1351 -0.8418
  276TMC3    C3 4220   0.224   2.515  14.524  0.5016 -0.3127 -0.0004
  276TMC3    C4 4221   0.461   2.383  14.491 -0.0017  0.0634  0.5127
  276TMC3    C5 4222   0.442   2.469  14.601  0.5335 -0.4279  0.5020
  276TMC3    C6 4223   0.322   2.533  14.618  0.1493  0.4369 -0.0137
  276TMC3     C 4224   0.333   2.225  14.373  0.2950 -0.0425  0.4934
  276TMC3     O 4225   0.433   2.157  14.363  0.1868 -0.7224  0.3251
  276TMC3     H 4226   0.154   2.430  14.342  0.9788 -2.3456 -2.1121
  276TMC3    H1 4227   0.542   2.311  14.487 -0.3492 -0.5214  3.7985
  276TMC3    H2 4228   0.305   2.609  14.694 -2.2263 -1.2514  1.1569
  276TMC3    C7 4229   0.542   2.483  14.695  0.2131  0.2217  0.6141
  276TMC3    C8 4230   0.109   2.492  14.600 -0.0561  0.1930 -0.4354
  276TMC3    O1 4231   0.511   2.558  14.788 -0.1373  0.2988 -0.0190
  276TMC3    O2 4232   0.003   2.552  14.581  0.2231 -0.5681  0.0023
  277MPD2     C 4233   2.009   1.522  13.097 -0.2300  0.0133  0.1063
  277MPD2    C1 4234   1.880   1.493  13.139  0.5821  0.8230  0.7260
  277MPD2    C2 4235   1.866   1.415  13.252  0.4085 -0.1435  0.7750
  277MPD2    C3 4236   1.971   1.365  13.324 -0.3666  0.4656 -0.4292
  277MPD2    C4 4237   2.098   1.381  13.272  0.1435 -0.2620  0.0482
  277MPD2    C5 4238   2.114   1.465  13.160  0.7188  0.1470  0.0378
  277MPD2     H 4239   1.769   1.403  13.299  0.5845 -1.2919  0.8349
  277MPD2    H1 4240   2.189   1.362  13.328 -1.7434 -3.2644  2.0746
  277MPD2    H2 4241   2.038   1.581  13.011 -0.2404 -0.3709 -0.1616
  277MPD2    H3 4242   2.212   1.497  13.126  0.6441 -0.7620 -1.0296
  277MPD2     N 4243   1.941   1.306  13.450  0.0207  0.3111  0.1782
  277MPD2    H5 4244   1.844   1.303  13.480  0.2860  2.0950  1.2256
  277MPD2    N1 4245   1.775   1.561  13.072  0.1767  0.0811  0.6338
  277MPD2    H7 4246   1.806   1.624  12.998 -1.2077  0.3726  0.3049
  278TMC3    C1 4247   1.943   1.181  13.637 -0.2128 -0.7803  0.0951
  278TMC3    C2 4248   1.943   1.048  13.655  0.2921  0.6335  0.9574
  278TMC3    C3 4249   1.827   0.978  13.661  0.1008 -0.0798  0.9413
  278TMC3    C4 4250   1.824   1.246  13.650 -0.3489 -0.1421  0.4220
  278TMC3    C5 4251   1.709   1.173  13.659 -0.5027  0.4411 -0.3067
  278TMC3    C6 4252   1.706   1.039  13.660 -0.0788  0.2258  0.0167
  278TMC3     C 4253   2.026   1.234  13.530  0.2431 -0.3340  0.9470
  278TMC3     O 4254   2.146   1.198  13.523 -0.6460 -0.0040 -0.3010
  278TMC3     H 4255   2.033   0.988  13.644 -1.7569 -2.3168  0.1422
  278TMC3    H1 4256   1.824   1.354  13.663 -0.2167 -0.2338  1.1404
  278TMC3    H2 4257   1.610   0.989  13.663 -0.6734  1.2513 -1.8569
  278TMC3    C7 4258   1.603   1.235  13.577 -0.9878 -0.5216 -0.2035
  278TMC3    C8 4259   1.834   0.828  13.663 -0.3257 -0.2578 -0.3967
  278TMC3    O1 4260   1.643   1.330  13.511  0.2077  0.2693  0.0633
  278TMC3    O2 4261   1.934   0.765  13.695 -0.4909 -0.7350 -0.1776
  279MPD2     C 4262   1.286   0.707   0.440 -0.4899  0.6261 -0.0656
  279MPD2    C1 4263   1.228   0.802   0.358 -0.4563 -0.0413 -0.4304
  279MPD2    C2 4264   1.278   0.818   0.223 -0.0366 -0.3816 -0.3916
  279MPD2    C3 4265   1.375   0.726   0.181  0.3300 -0.3811 -0.1019
  279MPD2    C4 4266   1.439   0.645   0.276 -0.2211 -0.1393  0.0076
  279MPD2    C5 4267   1.391   0.629   0.399 -0.7754 -0.2640  0.6125
  279MPD2     H 4268   1.231   0.878   0.147  0.0326  0.9251  0.6052
  279MPD2    H1 4269   1.528   0.588   0.255  0.1781  0.4355  0.1381
  279MPD2    H2 4270   1.261   0.694   0.544 -0.1299 -2.5246 -0.3934
  279MPD2    H3 4271   1.439   0.567   0.473 -2.1594 -1.7081  0.3074
  279MPD2     N 4272   1.420   0.745   0.049 -0.0095 -0.1818  0.1101
  279MPD2    H5 4273   1.391   0.833   0.007 -2.0316 -1.4107 -1.0963
  279MPD2    N1 4274   1.112   0.868   0.411  0.7040  0.3989 -0.2014
  279MPD2    H7 4275   1.075   0.831   0.498  0.4882 -0.7297 -0.7655
  280TMC3    C1 4276   0.925   1.006   0.405  0.0883 -0.3063  0.0071
  280TMC3    C2 4277   0.836   0.904   0.414  0.1681  0.3452 -0.3622
  280TMC3    C3 4278   0.704   0.931   0.383  0.6616  0.6120  0.4071
  280TMC3    C4 4279   0.887   1.131   0.377  0.0135  0.1785  0.1301
  280TMC3    C5 4280   0.753   1.162   0.344 -0.7160  0.1247 -1.1057
  280TMC3    C6 4281   0.659   1.056   0.341  1.0039 -0.0494 -0.3535
  280TMC3     C 4282   1.054   0.970   0.345  0.2658 -0.2483  0.2606
  280TMC3     O 4283   1.099   1.045   0.260 -0.4009  0.2520 -0.0455
  280TMC3     H 4284   0.868   0.803   0.438 -0.2887  0.0682 -0.9244
  280TMC3    H1 4285   0.955   1.215   0.367  0.0489 -0.1312 -2.1073
  280TMC3    H2 4286   0.561   1.074   0.299  2.5691  2.6341 -2.8828
  280TMC3    C7 4287   0.711   1.290   0.359  0.3142 -0.1379 -0.8027
  280TMC3    C8 4288   0.609   0.818   0.391 -0.3310  0.1256  0.1617
  280TMC3    O1 4289   0.784   1.367   0.417 -0.4631 -0.0014  0.6628
  280TMC3    O2 4290   0.647   0.710   0.350  0.5931 -0.6104  0.5154
  281TMC3    C1 4291   3.907   2.208  13.668 -0.5679 -0.1425  0.0046
  281TMC3    C2 4292   3.879   2.227  13.537 -0.3762  0.0062 -0.0462
  281TMC3    C3 4293   3.905   2.118  13.454 -0.4053  0.3747 -0.0217
  281TMC3    C4 4294   3.948   2.081  13.715 -0.2285 -0.4956  0.8172
  281TMC3    C5 4295   3.958   1.973  13.636  0.1871 -0.7556  0.6358
  281TMC3    C6 4296   3.932   1.986  13.500 -0.0898 -0.2260 -0.6651
  281TMC3     C 4297   3.873   2.316  13.765 -0.1171  0.4163  0.3158
  281TMC3     O 4298   3.926   2.299  13.877 -0.0251 -0.0502 -0.0853
  281TMC3     H 4299   3.853   2.325  13.497  1.9737  2.2004  3.8801
  281TMC3    H1 4300   3.959   2.065  13.822  2.6179  0.3192  0.6674
  281TMC3    H2 4301   3.923   1.898  13.436  1.4332  0.1329 -1.3563
  281TMC3    C7 4302   3.906   1.861  13.705  0.1548 -0.7449  0.7218
  281TMC3    C8 4303   3.849   2.123  13.326  0.2309 -0.0095 -1.0077
  281TMC3    O1 4304   3.854   1.884  13.815  0.2398 -0.1282 -0.1024
  281TMC3    O2 4305   3.774   2.029  13.299  0.1838 -0.4491 -0.0848
  282MPD2     C 4306   1.380   2.438  15.085  0.4957  0.1633  0.2696
  282MPD2    C1 4307   1.265   2.509  15.078 -0.2861  0.2914 -0.5865
  282MPD2    C2 4308   1.222   2.532  14.951  0.0348 -0.6676  0.1330
  282MPD2    C3 4309   1.279   2.472  14.842 -0.0759 -0.4662 -1.4006
  282MPD2    C4 4310   1.391   2.393  14.855 -0.3444 -0.2901 -1.0203
  282MPD2    C5 4311   1.442   2.383  14.983 -0.0972  0.5198 -0.2791
  282MPD2     H 4312   1.131   2.591  14.946  0.6694  0.2238 -0.9250
  282MPD2    H1 4313   1.444   2.339  14.779 -2.2753 -0.7427 -2.0341
  282MPD2    H2 4314   1.439   2.431  15.176  1.2010  2.1236 -0.0466
  282MPD2    H3 4315   1.541   2.338  14.992 -0.3236  0.1535  0.3820
  282MPD2     N 4316   1.206   2.481  14.720  0.3248 -0.0232  0.1593
  282MPD2    H5 4317   1.112   2.517  14.729  0.7230  1.1479 -0.4078
  282MPD2    N1 4318   1.215   2.586  15.184  0.4207  0.6395 -0.9043
  282MPD2    H7 4319   1.140   2.651  15.165  0.7450  1.4681  0.6559
  283TMC3    C1 4320   1.162   2.635  15.401 -0.6881 -0.3106 -0.4998
  283TMC3    C2 4321   1.141   2.772  15.382  0.4846  0.2769  0.3453
  283TMC3    C3 4322   1.087   2.842  15.484  0.3822  0.1914 -0.4551
  283TMC3    C4 4323   1.118   2.567  15.512  0.6361 -0.3635 -0.1871
  283TMC3    C5 4324   1.059   2.640  15.609  0.2976 -0.0575 -0.1877
  283TMC3    C6 4325   1.041   2.776  15.596  0.6472 -0.3134  0.3071
  283TMC3     C 4326   1.242   2.554  15.318  0.0235  0.5531  0.3030
  283TMC3     O 4327   1.286   2.449  15.369 -0.8482 -0.0606  0.7365
  283TMC3     H 4328   1.195   2.825  15.304  0.2880 -1.5879 -1.0548
  283TMC3    H1 4329   1.135   2.460  15.522  0.9148 -0.2998 -0.0055
  283TMC3    H2 4330   0.982   2.835  15.665  0.3044  1.1899 -1.2824
  283TMC3    C7 4331   1.009   2.577  15.733 -0.3528  0.2023  0.6156
  283TMC3    C8 4332   1.096   2.983  15.488  0.0175  0.3324  0.1466
  283TMC3    O1 4333   0.906   2.636  15.778 -0.6025 -0.0035  0.1863
  283TMC3    O2 4334   1.081   3.035  15.599 -0.5971 -0.3716 -0.2109
  284MPD2     C 4335   4.005   1.798  11.839 -0.1721  0.2857 -0.2735
  284MPD2    C1 4336   4.048   1.787  11.706 -0.6592 -0.3479  0.4598
  284MPD2    C2 4337   4.082   1.665  11.643 -0.2251  0.3245  0.7244
  284MPD2    C3 4338   4.100   1.556  11.727 -1.0089 -0.0898 -0.2359
  284MPD2    C4 4339   4.073   1.561  11.862 -0.8547  0.1191 -0.4085
  284MPD2    C5 4340   4.022   1.680  11.913  0.0063  0.2684 -0.4103
  284MPD2     H 4341   4.104   1.663  11.537 -2.0375 -0.0492  0.3486
  284MPD2    H1 4342   4.095   1.486  11.937  2.0928  1.1234 -0.2525
  284MPD2    H2 4343   3.980   1.890  11.890  0.3171  1.4987 -2.2529
  284MPD2    H3 4344   3.990   1.675  12.017 -2.8807 -2.0891 -1.4286
  284MPD2     N 4345   4.159   1.437  11.684 -0.4370 -0.6134  0.0023
  284MPD2    H5 4346   4.169   1.370  11.759 -0.1842 -0.1320  0.4007
  284MPD2    N1 4347   4.068   1.895  11.619  0.1347 -0.2710  0.1928
  284MPD2    H7 4348   4.095   1.882  11.522  0.7237  1.2628  0.1537
  285TMC3    C1 4349   4.150   2.101  11.572 -0.4681 -0.1218 -0.0248
  285TMC3    C2 4350   4.258   2.041  11.505 -0.2948  0.8517  0.7465
  285TMC3    C3 4351   4.329   2.115  11.420  0.2505 -0.0357 -0.5797
  285TMC3    C4 4352   4.133   2.233  11.566 -0.4639 -0.5805  0.1763
  285TMC3    C5 4353   4.217   2.305  11.485 -0.1633  0.1184 -0.7419
  285TMC3    C6 4354   4.307   2.247  11.405  0.4687 -0.1040 -0.2543
  285TMC3     C 4355   4.061   2.023  11.659  0.1006 -0.1791  0.0119
  285TMC3     O 4356   4.004   2.073  11.752 -0.1098  0.1333  0.0775
  285TMC3     H 4357   4.294   1.942  11.529 -0.9442  0.3941 -0.1639
  285TMC3    H1 4358   4.051   2.276  11.622 -0.5247 -2.2655  1.3612
  285TMC3    H2 4359   4.347   2.310  11.326  0.8879 -2.1693 -1.6861
  285TMC3    C7 4360   4.209   2.447  11.482  0.1928 -0.1444  0.5120
  285TMC3    C8 4361   4.377   2.035  11.309 -0.0132  0.6791  0.2871
  285TMC3    O1 4362   4.307   2.514  11.463 -0.4119 -0.3830 -0.2242
  285TMC3    O2 4363   4.342   1.921  11.304  0.3760 -0.7991 -0.0648
  286MPD2     C 4364   4.109   0.951   0.888 -0.5690  0.0746 -0.0896
  286MPD2    C1 4365   4.220   0.927   0.806  0.3174  0.1887  0.6642
  286MPD2    C2 4366   4.344   0.950   0.861  0.0861  0.9350 -0.1199
  286MPD2    C3 4367   4.367   0.978   0.990  0.7873  0.2450 -0.3813
  286MPD2    C4 4368   4.254   1.003   1.066 -0.0763  0.0149  0.1470
  286MPD2    C5 4369   4.130   0.992   1.017  0.0250 -0.0406 -0.1968
  286MPD2     H 4370   4.425   0.952   0.788 -0.1718 -2.4096 -0.5428
  286MPD2    H1 4371   4.272   1.043   1.165  0.6325  1.0093 -0.3784
  286MPD2    H2 4372   4.009   0.946   0.845 -1.4232  3.7996  1.4348
  286MPD2    H3 4373   4.053   1.007   1.092  0.7011  0.2822  0.4213
  286MPD2     N 4374   4.493   0.992   1.043  0.4349  0.1495 -0.0307
  286MPD2    H5 4375   4.504   1.016   1.141  0.8452  1.7445 -0.4794
  286MPD2    N1 4376   4.216   0.893   0.667  0.1262  0.0712  0.8124
  286MPD2    H7 4377   4.301   0.891   0.611  1.0666  0.8936  2.2045
  287TMC3    C1 4378   4.720   0.935   1.060 -0.6443  0.4539 -0.0322
  287TMC3    C2 4379   0.047   0.812   1.029  1.1587 -0.0826  0.0870
  287TMC3    C3 4380   0.165   0.783   1.087 -0.7153 -0.5206 -0.4526
  287TMC3    C4 4381   0.048   1.022   1.143  0.0698  0.5008 -0.8310
  287TMC3    C5 4382   0.160   0.984   1.206  0.4715 -0.1151  0.2749
  287TMC3    C6 4383   0.226   0.866   1.170 -0.1441  0.1019  0.3580
  287TMC3     C 4384   4.609   0.969   0.975  0.3811 -0.2341 -0.0790
  287TMC3     O 4385   4.622   0.913   0.865 -0.2651 -0.1034 -0.3460
  287TMC3     H 4386   0.004   0.743   0.958  0.0345 -1.3845  2.0456
  287TMC3    H1 4387   0.001   1.118   1.163 -0.7051 -0.2842  1.1592
  287TMC3    H2 4388   0.328   0.847   1.199 -0.7153 -0.6273  1.8691
  287TMC3    C7 4389   0.230   1.077   1.292  0.7524  0.0288  0.3724
  287TMC3    C8 4390   0.250   0.681   1.011  0.3561  0.4473 -0.3490
  287TMC3    O1 4391   0.207   1.193   1.280  0.0309 -0.5801 -0.0086
  287TMC3    O2 4392   0.202   0.570   0.998  0.9893  0.4813  0.4463
  288TMC3    C1 4393   2.030   1.138  14.381  0.1669 -0.3605 -0.4602
  288TMC3    C2 4394   1.978   1.136  14.507  0.5585 -0.0159  0.4357
  288TMC3    C3 4395   1.865   1.062  14.530  0.7454 -0.1510  0.2862
  288TMC3    C4 4396   1.961   1.082  14.278  0.1751 -0.7589  0.4593
  288TMC3    C5 4397   1.845   1.020  14.307  0.3767  0.2861 -0.4614
  288TMC3    C6 4398   1.786   1.014  14.429  0.2927 -1.0290  0.2174
  288TMC3     C 4399   2.158   1.199  14.353 -1.0424 -0.6667 -1.3753
  288TMC3     O 4400   2.208   1.260  14.448  0.5339  0.2882 -0.1488
  288TMC3     H 4401   2.025   1.198  14.583  1.1214 -0.4326  0.4316
  288TMC3    H1 4402   1.985   1.094  14.173 -2.7009  0.3888 -0.0607
  288TMC3    H2 4403   1.686   0.973  14.434 -0.1808 -0.2099 -2.6047
  288TMC3    C7 4404   1.769   0.989  14.191 -0.9358  0.0487 -0.1702
  288TMC3    C8 4405   1.825   1.049  14.668  0.6106 -0.3055  0.6700
  288TMC3    O1 4406   1.780   1.062  14.093 -0.1666 -0.6909  0.2167
  288TMC3    O2 4407   1.889   1.109  14.750  0.0603  0.0806 -0.1258
  289MPD2     C 4408   1.323   4.241  14.266  0.3940 -0.0704 -0.5796
  289MPD2    C1 4409   1.378   4.367  14.253 -0.4463 -0.2270 -0.1278
  289MPD2    C2 4410   1.316   4.456  14.167 -0.0216 -0.0640  0.1432
  289MPD2    C3 4411   1.202   4.422  14.101 -0.6064 -0.8015 -0.0313
  289MPD2    C4 4412   1.144   4.296  14.112  0.1758 -0.1333 -0.5609
  289MPD2    C5 4413   1.208   4.204  14.197  0.1655 -0.2182  0.8041
  289MPD2     H 4414   1.365   4.550  14.144  1.5788 -0.9745 -0.2033
  289MPD2    H1 4415   1.052   4.269  14.061 -0.9139  0.4739  1.0830
  289MPD2    H2 4416   1.375   4.175  14.335 -2.9069 -1.0933  0.9343
  289MPD2    H3 4417   1.164   4.105  14.198  0.5929 -0.4098  0.9629
  289MPD2     N 4418   1.133   4.502  14.009 -0.7203 -0.0440  0.1387
  289MPD2    H5 4419   1.055   4.457  13.962 -0.6818  1.6498 -1.5422
  289MPD2    N1 4420   1.503   4.386  14.322 -1.0433  0.0014  0.2920
  289MPD2    H7 4421   1.546   4.312  14.376  1.0694 -0.8820 -2.5847
  290TMC3    C1 4422   1.082   4.680  13.878 -0.2014 -1.0538  0.7407
  290TMC3    C2 4423   1.070   0.079  13.884  0.2747 -0.1348  0.0536
  290TMC3    C3 4424   0.977   0.132  13.799  0.0049 -0.1119  0.2384
  290TMC3    C4 4425   1.007   4.600  13.798 -0.1663  0.2862  0.6068
  290TMC3    C5 4426   0.927   4.658  13.705 -0.1993 -0.1076  0.4153
  290TMC3    C6 4427   0.913   0.058  13.700  0.8442  0.6695 -0.0623
  290TMC3     C 4428   1.170   4.624  13.967  0.2869  0.5242  0.6701
  290TMC3     O 4429   1.256   4.703  14.010 -0.5545  0.1323 -0.5601
  290TMC3     H 4430   1.126   0.138  13.956 -3.5083  1.9355  1.3349
  290TMC3    H1 4431   1.035   4.495  13.794  0.7531  0.6065 -1.3980
  290TMC3    H2 4432   0.864   0.108  13.617  1.8443  1.0416 -0.4306
  290TMC3    C7 4433   0.803   4.597  13.658  0.5389  0.0817  0.7493
  290TMC3    C8 4434   0.933   0.275  13.813  0.3600  0.2434 -0.3046
  290TMC3    O1 4435   0.744   4.649  13.568 -0.0828 -0.8058  0.0661
  290TMC3    O2 4436   0.831   0.303  13.763  0.1111 -0.1572 -0.1964
  291MPD2     C 4437   0.938   3.831   0.574  0.5294  0.4221  0.1081
  291MPD2    C1 4438   0.973   3.758   0.461  0.2083  0.4136  0.3797
  291MPD2    C2 4439   1.086   3.794   0.394  0.4150  0.2251 -0.5671
  291MPD2    C3 4440   1.165   3.906   0.430 -0.1682 -0.4940 -0.4853
  291MPD2    C4 4441   1.125   3.967   0.542 -0.5267  0.5511 -0.8691
  291MPD2    C5 4442   1.015   3.931   0.613  0.5214  0.6244 -0.5769
  291MPD2     H 4443   1.111   3.728   0.312 -0.8867 -0.7591 -0.1793
  291MPD2    H1 4444   1.188   4.047   0.579  1.5470 -2.6126  2.4708
  291MPD2    H2 4445   0.859   3.809   0.646 -0.6954  0.3578 -1.2656
  291MPD2    H3 4446   0.989   3.973   0.709  0.0668  2.0525 -1.3217
  291MPD2     N 4447   1.270   3.956   0.358  0.1202  0.5527 -0.4744
  291MPD2    H5 4448   1.309   4.041   0.397 -1.3295  1.3444 -0.7500
  291MPD2    N1 4449   0.903   3.650   0.404  0.0770  0.2159 -0.3441
  291MPD2    H7 4450   0.943   3.596   0.328 -0.8486 -1.5341  0.4149
  292TMC3    C1 4451   0.700   3.535   0.338 -0.2760 -0.2088  0.2471
  292TMC3    C2 4452   0.568   3.499   0.374 -0.4242 -0.0229  0.9208
  292TMC3    C3 4453   0.481   3.454   0.278  0.2985 -0.7976 -0.1778
  292TMC3    C4 4454   0.743   3.521   0.209 -0.0063 -0.7701  0.0935
  292TMC3    C5 4455   0.648   3.473   0.118 -0.0618  0.2423  0.5464
  292TMC3    C6 4456   0.522   3.440   0.153  0.6167  0.4925 -0.5015
  292TMC3     C 4457   0.768   3.630   0.425  0.1676  0.3634 -0.0328
  292TMC3     O 4458   0.705   3.682   0.517  0.1096 -0.1851 -0.2669
  292TMC3     H 4459   0.535   3.516   0.476 -0.5690 -0.4435  0.9420
  292TMC3    H1 4460   0.835   3.566   0.172 -0.6638 -0.8832 -1.6648
  292TMC3    H2 4461   0.453   3.410   0.076 -0.2814  1.6398 -0.1511
  292TMC3    C7 4462   0.695   3.454  17.716  0.4114 -0.0907  0.5281
  292TMC3    C8 4463   0.341   3.438   0.306 -0.6842 -0.2321 -0.2074
  292TMC3    O1 4464   0.813   3.430  17.710 -0.5487  0.2062  0.4174
  292TMC3    O2 4465   0.275   3.389   0.219 -0.2072  0.4470  0.2319
  293MPD2     C 4466   2.728   1.440  12.668 -0.0434  0.1108  0.4768
  293MPD2    C1 4467   2.670   1.351  12.756 -0.4357 -0.3659  0.0618
  293MPD2    C2 4468   2.717   1.343  12.880  0.1836 -0.6206  0.3150
  293MPD2    C3 4469   2.819   1.428  12.923 -0.2902 -0.2216 -0.5962
  293MPD2    C4 4470   2.877   1.515  12.833 -0.2487 -0.4057 -0.2490
  293MPD2    C5 4471   2.826   1.518  12.709  0.1274 -0.0461 -0.1550
  293MPD2     H 4472   2.690   1.268  12.954 -0.1037 -0.6819  0.1477
  293MPD2    H1 4473   2.951   1.587  12.868 -0.7189  0.4402 -0.9732
  293MPD2    H2 4474   2.699   1.458  12.565  0.7583 -2.3171 -0.1542
  293MPD2    H3 4475   2.874   1.583  12.637 -1.2944  1.0633 -0.0903
  293MPD2     N 4476   2.858   1.420  13.057  0.6326 -0.4782 -0.7840
  293MPD2    H5 4477   2.834   1.336  13.109  1.0215 -0.7726 -1.0862
  293MPD2    N1 4478   2.557   1.281  12.707 -0.0828  0.1607  0.7822
  293MPD2    H7 4479   2.529   1.297  12.610  0.4147  0.8053  0.7402
  294TMC3    C1 4480   2.385   1.108  12.688  0.9484 -0.1684  0.0034
  294TMC3    C2 4481   2.297   1.040  12.762 -0.7097 -0.4688 -0.4557
  294TMC3    C3 4482   2.166   1.045  12.721 -1.1017  0.2842 -0.0729
  294TMC3    C4 4483   2.351   1.174  12.571 -0.3940  0.4177  0.0927
  294TMC3    C5 4484   2.224   1.162  12.534 -0.7092 -0.4457 -0.1021
  294TMC3    C6 4485   2.126   1.097  12.608  0.1151 -0.9081 -0.2391
  294TMC3     C 4486   2.495   1.170  12.767  0.8240  1.2529 -0.2109
  294TMC3     O 4487   2.507   1.122  12.879 -0.0038 -0.1660  0.1690
  294TMC3     H 4488   2.333   0.999  12.856 -1.3590  2.1949  0.9617
  294TMC3    H1 4489   2.429   1.214  12.507 -1.3165 -0.8088 -1.7839
  294TMC3    H2 4490   2.023   1.103  12.576 -0.7687 -2.1894  2.3752
  294TMC3    C7 4491   2.185   1.242  12.419 -0.6862  0.0709 -0.0117
  294TMC3    C8 4492   2.071   0.959  12.794 -0.1637  0.0339 -0.2668
  294TMC3    O1 4493   2.264   1.323  12.378  0.3686  0.5348 -0.1422
  294TMC3    O2 4494   2.099   0.931  12.911 -0.5431 -0.0836 -0.3762
  295MPD2     C 4495   1.840   4.643   0.876 -0.2824 -0.2875 -0.0276
  295MPD2    C1 4496   1.956   4.691   0.931  0.3926 -0.5145 -0.7445
  295MPD2    C2 4497   1.944   0.025   1.049 -0.0011  0.1485  0.3021
  295MPD2    C3 4498   1.818   0.050   1.114 -0.4034 -0.5131  0.6744
  295MPD2    C4 4499   1.703   0.006   1.047 -0.0981 -0.4516 -0.9379
  295MPD2    C5 4500   1.715   4.676   0.924 -0.5967 -0.7549 -0.2475
  295MPD2     H 4501   2.034   0.045   1.105  1.5798  0.0814 -2.2211
  295MPD2    H1 4502   1.605   0.022   1.091  0.5805  1.9568 -0.2763
  295MPD2    H2 4503   1.836   4.600   0.776  0.2672 -1.0639  0.2789
  295MPD2    H3 4504   1.625   4.638   0.877 -1.2802  0.7897 -0.1930
  295MPD2     N 4505   1.802   0.124   1.235  0.5493  0.0665 -0.1491
  295MPD2    H5 4506   1.705   0.139   1.262  0.7859  0.1907  0.6432
  295MPD2    N1 4507   2.087   4.668   0.876  0.1323 -0.5086 -0.4227
  295MPD2    H7 4508   2.163   4.722   0.915 -1.0308  1.1049 -0.3894
  296TMC3    C1 4509   1.859   0.240   1.436  0.0195  0.0518 -0.7596
  296TMC3    C2 4510   1.956   0.314   1.490  0.2126  0.7357  0.1356
  296TMC3    C3 4511   1.942   0.347   1.625 -0.1515  0.4726 -0.3098
  296TMC3    C4 4512   1.745   0.211   1.506  0.5186  0.0388  0.1296
  296TMC3    C5 4513   1.734   0.245   1.634  0.2573  0.1374  0.0546
  296TMC3    C6 4514   1.823   0.330   1.695  0.1560  0.0254 -0.4545
  296TMC3     C 4515   1.903   0.166   1.319 -0.6811  0.6977 -0.3185
  296TMC3     O 4516   2.022   0.156   1.308  0.4949 -0.1131 -0.0312
  296TMC3     H 4517   2.051   0.330   1.440  0.3535 -1.8449 -0.4523
  296TMC3    H1 4518   1.679   0.135   1.467  1.2093  0.3470 -1.6460
  296TMC3    H2 4519   1.813   0.352   1.801 -0.0789 -1.8640 -0.0852
  296TMC3    C7 4520   1.619   0.204   1.711  0.1907 -0.5136 -0.3374
  296TMC3    C8 4521   2.053   0.405   1.704  0.1849 -0.1643  0.2955
  296TMC3    O1 4522   1.592   0.260   1.818 -0.5374 -0.2349  0.3906
  296TMC3    O2 4523   2.034   0.455   1.814  0.0919  0.2055  0.1489
  297MPD2     C 4524   0.671   1.492  16.476 -0.1246 -0.0118  0.6165
  297MPD2    C1 4525   0.734   1.545  16.359  0.3003  0.3901  0.6317
  297MPD2    C2 4526   0.866   1.590  16.365  0.5509 -0.0800  0.0336
  297MPD2    C3 4527   0.924   1.611  16.490  0.0507 -0.0516  0.2009
  297MPD2    C4 4528   0.853   1.570  16.607 -0.5113  0.8497 -0.5482
  297MPD2    C5 4529   0.736   1.496  16.587 -0.2297  0.0762 -0.1241
  297MPD2     H 4530   0.920   1.619  16.275  0.0334  0.0279 -0.2463
  297MPD2    H1 4531   0.895   1.563  16.707 -0.4278  2.1133 -0.4998
  297MPD2    H2 4532   0.578   1.437  16.481 -1.0382  1.5896  1.2686
  297MPD2    H3 4533   0.689   1.453  16.675  1.1328 -1.1001  0.0232
  297MPD2     N 4534   1.054   1.654  16.501  0.2798  0.1247  0.1428
  297MPD2    H5 4535   1.093   1.688  16.414 -0.6488 -0.0583 -0.3439
  297MPD2    N1 4536   0.658   1.558  16.243 -0.1922 -0.3138  0.0654
  297MPD2    H7 4537   0.705   1.612  16.171 -2.4634  0.5296 -0.8102
  298TMC3    C1 4538   0.457   1.607  16.127  0.4204 -0.2294 -0.6466
  298TMC3    C2 4539   0.503   1.607  16.000  0.8086 -0.9880  0.8017
  298TMC3    C3 4540   0.432   1.668  15.899  0.6361  0.3447  0.0111
  298TMC3    C4 4541   0.332   1.662  16.157  0.2532 -0.3762 -0.1096
  298TMC3    C5 4542   0.269   1.732  16.061  0.3131  0.3646  0.6234
  298TMC3    C6 4543   0.314   1.734  15.935 -0.2896 -0.3644 -0.5902
  298TMC3     C 4544   0.524   1.525  16.225  0.3302 -0.5230  1.6067
  298TMC3     O 4545   0.448   1.469  16.302  0.9423  0.4434 -0.2310
  298TMC3     H 4546   0.591   1.550  15.971  1.5988  0.7771 -0.2266
  298TMC3    H1 4547   0.297   1.647  16.258 -0.5750 -0.3147 -0.3851
  298TMC3    H2 4548   0.261   1.798  15.865 -0.1839 -0.7506 -1.0292
  298TMC3    C7 4549   0.147   1.796  16.108  0.0540  0.0085  0.2094
  298TMC3    C8 4550   0.510   1.694  15.783 -0.5384 -0.3688  0.5731
  298TMC3    O1 4551   0.144   1.809  16.230 -0.1963  0.1845 -0.2387
  298TMC3    O2 4552   0.618   1.637  15.770  0.2787 -0.1350  0.0985
  299MPD2     C 4553   0.622   1.292  10.716 -0.6068 -0.3886  0.1758
  299MPD2    C1 4554   0.699   1.297  10.595  0.0039  0.2038 -0.4207
  299MPD2    C2 4555   0.647   1.308  10.475 -0.1040 -0.8943 -0.0012
  299MPD2    C3 4556   0.504   1.308  10.467  0.4162 -0.1164  0.2600
  299MPD2    C4 4557   0.420   1.307  10.577  0.2673 -0.1196  0.2045
  299MPD2    C5 4558   0.483   1.306  10.702  0.3314  0.1113  0.1308
  299MPD2     H 4559   0.708   1.306  10.385  0.8759 -1.6534  0.6781
  299MPD2    H1 4560   0.313   1.314  10.556  0.5846 -0.4117 -1.5437
  299MPD2    H2 4561   0.658   1.282  10.818 -0.4330  1.0026  0.2484
  299MPD2    H3 4562   0.417   1.297  10.787  1.7021  1.5404  1.3497
  299MPD2     N 4563   0.437   1.322  10.347 -0.2464  0.0626  0.1120
  299MPD2    H5 4564   0.338   1.341  10.360 -0.3643 -0.9671  0.7662
  299MPD2    N1 4565   0.837   1.294  10.609 -0.4449 -0.5325  0.7045
  299MPD2    H7 4566   0.858   1.277  10.707  1.2145 -0.7974  0.3060
  300TMC3    C1 4567   0.401   1.287  10.108 -0.6644  0.2986 -0.4507
  300TMC3    C2 4568   0.455   1.283   9.982  0.3853 -0.9610 -0.1022
  300TMC3    C3 4569   0.376   1.245   9.874  0.5839 -1.4140  0.5000
  300TMC3    C4 4570   0.278   1.249  10.131  0.9560 -0.0020 -1.0896
  300TMC3    C5 4571   0.200   1.214  10.021 -0.4364  0.0281 -0.6387
  300TMC3    C6 4572   0.247   1.196   9.899  0.3959  0.1097 -0.1628
  300TMC3     C 4573   0.490   1.309  10.220  0.2104  0.5759 -0.1868
  300TMC3     O 4574   0.607   1.305  10.189 -0.2123 -0.2938  0.1094
  300TMC3     H 4575   0.561   1.294   9.962  0.0328 -1.0547 -1.9984
  300TMC3    H1 4576   0.238   1.251  10.232 -1.2359 -1.7798 -1.9172
  300TMC3    H2 4577   0.179   1.188   9.815 -0.1321  0.2442  0.2484
  300TMC3    C7 4578   0.067   1.174  10.042 -0.2785  0.2564 -0.1647
  300TMC3    C8 4579   0.378   1.331   9.756 -0.1838 -0.0859 -0.5455
  300TMC3    O1 4580   0.033   1.071   9.989 -0.0764 -0.2379 -0.7960
  300TMC3    O2 4581   0.296   1.321   9.663 -0.8571 -0.2255 -0.0284
  301MPD2     C 4582   3.582   2.874   0.971  0.0869  0.0209  0.5395
  301MPD2    C1 4583   3.500   2.850   0.860  0.4573  0.0497  0.3751
  301MPD2    C2 4584   3.475   2.718   0.823 -0.4111  0.3653 -0.0350
  301MPD2    C3 4585   3.547   2.614   0.872  0.7785 -0.7782 -0.1015
  301MPD2    C4 4586   3.618   2.637   0.987 -0.0570 -0.8766  0.0847
  301MPD2    C5 4587   3.629   2.761   1.037  0.1675  0.1117 -0.5493
  301MPD2     H 4588   3.411   2.713   0.735  0.4019 -1.6020 -0.5023
  301MPD2    H1 4589   3.660   2.549   1.034  0.8009 -1.2279 -1.3052
  301MPD2    H2 4590   3.598   2.972   1.015  1.2756 -0.9910  2.3873
  301MPD2    H3 4591   3.680   2.780   1.131  2.8878 -1.3218 -1.7444
  301MPD2     N 4592   3.532   2.482   0.822 -0.2347  0.3485  0.2958
  301MPD2    H5 4593   3.580   2.410   0.876 -2.0986  0.0711  1.5897
  301MPD2    N1 4594   3.430   2.953   0.788  0.0326  0.1003 -0.3897
  301MPD2    H7 4595   3.367   2.920   0.715 -0.3914 -1.9280  0.8945
  302TMC3    C1 4596   3.456   2.295   0.686 -0.4919 -0.5104  0.0733
  302TMC3    C2 4597   3.470   2.211   0.793 -0.3275  0.0656  0.0145
  302TMC3    C3 4598   3.437   2.085   0.770 -0.0513  0.7079  0.5060
  302TMC3    C4 4599   3.400   2.260   0.560 -0.0599  0.5528 -1.3144
  302TMC3    C5 4600   3.375   2.126   0.547  0.5920 -0.8527 -0.0486
  302TMC3    C6 4601   3.387   2.041   0.652 -0.0507 -0.1591  0.0006
  302TMC3     C 4602   3.463   2.440   0.711 -0.1196  0.1962 -0.1953
  302TMC3     O 4603   3.424   2.515   0.623  0.0667 -0.1740 -0.4844
  302TMC3     H 4604   3.486   2.242   0.896 -2.7627  1.3328  0.0119
  302TMC3    H1 4605   3.405   2.330   0.478 -0.5394 -0.5504 -2.2802
  302TMC3    H2 4606   3.350   1.940   0.644  1.4732 -0.5670 -2.0683
  302TMC3    C7 4607   3.277   2.089   0.451 -0.7036 -0.2757  0.1960
  302TMC3    C8 4608   3.395   2.007   0.883 -0.3620  0.1384  0.1508
  302TMC3    O1 4609   3.272   1.970   0.426 -0.2510  0.0373 -0.5788
  302TMC3    O2 4610   3.485   1.948   0.939 -0.2080 -0.0237 -0.4130
  303MPD2     C 4611   3.571   1.132  10.582 -0.4118 -0.1509  0.2624
  303MPD2    C1 4612   3.442   1.097  10.585  0.0949  0.5138  0.0069
  303MPD2    C2 4613   3.390   1.036  10.471 -0.1398  0.5820 -0.1797
  303MPD2    C3 4614   3.468   1.023  10.355  0.5298 -0.2228  0.0414
  303MPD2    C4 4615   3.597   1.056  10.367 -0.3250  0.3448 -0.1093
  303MPD2    C5 4616   3.648   1.111  10.479  0.4985  0.2876 -0.1561
  303MPD2     H 4617   3.284   1.011  10.473 -0.5386  2.3147  0.3296
  303MPD2    H1 4618   3.664   1.045  10.281 -0.2850 -0.2098 -0.0074
  303MPD2    H2 4619   3.611   1.177  10.672  0.1979 -0.2379  0.0348
  303MPD2    H3 4620   3.748   1.151  10.473  0.4901  0.1410 -1.3137
  303MPD2     N 4621   3.431   0.975  10.229 -0.2033 -0.2619 -0.2263
  303MPD2    H5 4622   3.503   0.969  10.157 -0.1543 -1.8235 -0.0511
  303MPD2    N1 4623   3.362   1.109  10.701  0.8206  0.4109 -0.1542
  303MPD2    H7 4624   3.411   1.150  10.780  0.1470 -0.2677  0.6216
  304TMC3    C1 4625   3.172   1.101  10.847  0.5325 -0.3456  0.4504
  304TMC3    C2 4626   3.032   1.108  10.852  0.5695  0.2501  0.3197
  304TMC3    C3 4627   2.962   1.084  10.970  0.2886  0.0556 -0.0394
  304TMC3    C4 4628   3.241   1.073  10.956 -0.2117 -0.1525  0.5835
  304TMC3    C5 4629   3.176   1.061  11.072 -0.4470  0.2401  0.6209
  304TMC3    C6 4630   3.040   1.066  11.080  0.3029  0.4637  0.1991
  304TMC3     C 4631   3.227   1.069  10.719  0.5994  0.7187 -0.0185
  304TMC3     O 4632   3.146   1.029  10.637 -0.3186 -0.1114  0.8801
  304TMC3     H 4633   2.977   1.129  10.761  0.2851  2.2990  0.9601
  304TMC3    H1 4634   3.344   1.039  10.954  0.4179  1.7888 -0.1093
  304TMC3    H2 4635   2.992   1.035  11.172  0.4526  0.8758  0.4165
  304TMC3    C7 4636   3.228   0.956  11.152 -0.2150  0.0206  0.4326
  304TMC3    C8 4637   2.844   1.004  10.959 -0.0632  0.0191  0.4345
  304TMC3    O1 4638   3.335   0.958  11.212 -0.1296  0.1180  0.0085
  304TMC3    O2 4639   2.822   0.911  11.038  0.4752 -0.0102  0.2899
  305MPD2     C 4640   1.044   2.953  14.288 -0.6244 -0.2485 -0.5592
  305MPD2    C1 4641   1.169   2.896  14.288  0.2066  0.2958 -0.3001
  305MPD2    C2 4642   1.223   2.854  14.165 -0.2502 -0.2768 -0.2028
  305MPD2    C3 4643   1.166   2.877  14.040  0.4489 -0.6001 -0.2149
  305MPD2    C4 4644   1.040   2.936  14.047  0.2110 -0.2252  0.3089
  305MPD2    C5 4645   0.981   2.975  14.167  0.2610 -0.6963  0.0530
  305MPD2     H 4646   1.326   2.820  14.172  0.1853  0.6979 -1.8117
  305MPD2    H1 4647   0.980   2.961  13.960  1.2962 -1.0644 -0.6884
  305MPD2    H2 4648   1.006   2.994  14.381 -1.4044 -0.9957 -0.5502
  305MPD2    H3 4649   0.882   3.018  14.163  0.7986  0.8087  3.0152
  305MPD2     N 4650   1.216   2.850  13.907 -0.5352 -0.2426 -0.1602
  305MPD2    H5 4651   1.155   2.853  13.826 -2.7237  2.0678  1.5698
  305MPD2    N1 4652   1.239   2.887  14.406 -0.6111  0.3887 -0.2733
  305MPD2    H7 4653   1.183   2.914  14.486 -0.3865  1.7776 -0.5866
  306TMC3    C1 4654   1.399   2.816  14.571  0.4621 -0.0430  0.4937
  306TMC3    C2 4655   1.511   2.732  14.589 -0.6482 -0.2856 -1.1165
  306TMC3    C3 4656   1.567   2.740  14.714  0.0127  0.5726  0.0619
  306TMC3    C4 4657   1.347   2.899  14.665  0.2723 -0.5227 -0.1884
  306TMC3    C5 4658   1.414   2.899  14.785  0.5808 -0.0959 -0.1414
  306TMC3    C6 4659   1.520   2.815  14.815  0.4443  0.4617 -0.1788
  306TMC3     C 4660   1.357   2.813  14.432 -0.9001 -0.0194  0.4722
  306TMC3     O 4661   1.428   2.750  14.354 -0.3106  0.0740  0.1551
  306TMC3     H 4662   1.557   2.670  14.513  0.7213 -1.5307  0.7145
  306TMC3    H1 4663   1.259   2.962  14.654  0.1450 -0.6500  0.1023
  306TMC3    H2 4664   1.587   2.824  14.900 -0.1668 -2.4536  0.6071
  306TMC3    C7 4665   1.401   3.022  14.867  0.1230 -0.0422 -0.8377
  306TMC3    C8 4666   1.692   2.656  14.742 -0.1935 -0.2478  0.2604
  306TMC3    O1 4667   1.315   3.103  14.833 -0.9496 -0.1680 -0.2088
  306TMC3    O2 4668   1.763   2.613  14.645  0.4271 -0.0260  0.3008
  307MPD2     C 4669   3.783   0.794   0.158  0.1330  0.1795  0.0162
  307MPD2    C1 4670   3.863   0.903   0.172  0.3427 -0.2369  0.6171
  307MPD2    C2 4671   3.861   0.968   0.294  0.1948  0.0193  0.1653
  307MPD2    C3 4672   3.780   0.930   0.398  0.5896 -0.2888 -0.1896
  307MPD2    C4 4673   3.700   0.819   0.378  0.3364  0.1059 -0.1162
  307MPD2    C5 4674   3.698   0.755   0.260 -0.3497 -0.1428  0.2278
  307MPD2     H 4675   3.918   1.060   0.296 -1.7967  1.2188  1.7292
  307MPD2    H1 4676   3.625   0.788   0.450 -0.9551  1.3322 -0.9416
  307MPD2    H2 4677   3.780   0.745   0.061 -0.0346  0.2467 -0.0126
  307MPD2    H3 4678   3.622   0.678   0.247 -0.8086  0.3061  0.2527
  307MPD2     N 4679   3.784   0.992   0.524  0.5008  0.9365  0.4570
  307MPD2    H5 4680   3.858   1.060   0.540  1.1220  0.3150  0.2152
  307MPD2    N1 4681   3.945   0.952   0.070 -0.3055  0.0008 -0.6043
  307MPD2    H7 4682   3.980   1.047   0.077 -3.3196  1.2767 -2.5429
  308TMC3    C1 4683   3.599   1.189   0.854 -0.3679  0.2205  0.7285
  308TMC3    C2 4684   3.688   1.288   0.837  0.2209  0.1948 -0.5475
  308TMC3    C3 4685   3.807   1.249   0.794 -0.2799  0.2455  0.5255
  308TMC3    C4 4686   3.613   1.065   0.811 -0.0587 -0.5389  0.0200
  308TMC3    C5 4687   3.732   1.032   0.754 -0.2699 -0.0876  0.4060
  308TMC3    C6 4688   3.834   1.121   0.748  0.2427  0.3453 -0.0834
  308TMC3     C 4689   3.470   1.215   0.915  0.1961  0.6282 -0.4019
  308TMC3     O 4690   3.424   1.146   1.003  0.5453 -0.1993  0.3108
  308TMC3     H 4691   3.674   1.387   0.879 -1.9149  0.2280 -1.3371
  308TMC3    H1 4692   3.538   0.988   0.827  0.4671 -1.2631 -1.0047
  308TMC3    H2 4693   3.926   1.095   0.698 -0.1843  0.3958 -0.9013
  308TMC3    C7 4694   3.715   0.950   0.634 -0.7111 -0.3383  0.1707
  308TMC3    C8 4695   3.913   1.345   0.780  0.1387  0.0148  0.6484
  308TMC3    O1 4696   3.626   0.868   0.651  0.2336 -0.3348  0.5422
  308TMC3    O2 4697   4.026   1.301   0.791 -0.0902 -0.2470 -0.3210
  309MPD2     C 4698   3.294   1.825  17.121  0.4946  0.2678  0.4740
  309MPD2    C1 4699   3.204   1.801  17.018 -0.5089 -0.0009 -0.7090
  309MPD2    C2 4700   3.068   1.779  17.031  0.7621 -0.0814  0.0400
  309MPD2    C3 4701   3.015   1.793  17.160 -0.0061 -0.2381 -0.5966
  309MPD2    C4 4702   3.102   1.825  17.263  0.0027 -0.3823 -0.3018
  309MPD2    C5 4703   3.237   1.839  17.247  0.2789  0.7311 -1.2339
  309MPD2     H 4704   3.004   1.765  16.945 -1.7578 -1.5847  2.1391
  309MPD2    H1 4705   3.062   1.845  17.362  2.0569  0.8383  0.2970
  309MPD2    H2 4706   3.402   1.838  17.117  0.5043  0.4457  1.4223
  309MPD2    H3 4707   3.293   1.858  17.338  1.1487  2.0576 -2.0402
  309MPD2     N 4708   2.872   1.787  17.179  0.2486  0.3271 -0.1070
  309MPD2    H5 4709   2.841   1.791  17.275 -2.7511 -3.1156 -0.9626
  309MPD2    N1 4710   3.246   1.785  16.885 -0.0908  0.5943  0.4827
  309MPD2    H7 4711   3.175   1.795  16.813 -0.7502 -0.2359  1.0076
  310TMC3    C1 4712   3.377   1.702  16.716  0.1364 -0.5593  0.0423
  310TMC3    C2 4713   3.323   1.774  16.614 -0.4910 -0.1989  0.7129
  310TMC3    C3 4714   3.361   1.743  16.485 -0.2973  0.5773 -0.4820
  310TMC3    C4 4715   3.447   1.588  16.688 -0.1035  0.5109  0.3106
  310TMC3    C5 4716   3.466   1.552  16.555  0.8605 -0.0573 -0.4081
  310TMC3    C6 4717   3.442   1.636  16.454 -0.4148 -0.0351  0.2303
  310TMC3     C 4718   3.371   1.747  16.853 -0.1328 -0.1614  0.7603
  310TMC3     O 4719   3.471   1.718  16.919 -0.3719  0.4942  0.2624
  310TMC3     H 4720   3.275   1.871  16.623 -2.7811 -1.1330 -1.3833
  310TMC3    H1 4721   3.488   1.529  16.769 -1.5392 -0.6047  0.2201
  310TMC3    H2 4722   3.460   1.604  16.352 -0.3014  0.1670  0.1853
  310TMC3    C7 4723   3.545   1.436  16.534 -0.9674 -0.0208 -0.5409
  310TMC3    C8 4724   3.317   1.826  16.377 -0.5881 -0.4863 -0.5679
  310TMC3    O1 4725   3.524   1.340  16.608  0.0907 -0.0746 -0.5875
  310TMC3    O2 4726   3.214   1.888  16.393  0.7272  0.1166 -0.1148
  311MPD2     C 4727   0.959   2.880  12.238 -0.1609  0.1973  0.8233
  311MPD2    C1 4728   0.949   2.918  12.373  0.5148  0.5918  0.4532
  311MPD2    C2 4729   0.839   2.896  12.450  0.7615  0.1507 -0.0322
  311MPD2    C3 4730   0.729   2.837  12.395  0.5394 -0.3894  0.1640
  311MPD2    C4 4731   0.727   2.825  12.257 -0.3832  0.4127 -0.2564
  311MPD2    C5 4732   0.839   2.832  12.178  0.1651  1.1703 -0.0314
  311MPD2     H 4733   0.840   2.923  12.555 -0.7356 -0.4966  0.1521
  311MPD2    H1 4734   0.639   2.783  12.210 -0.0172  1.4909 -1.9150
  311MPD2    H2 4735   1.049   2.903  12.181  0.2621 -0.3473  1.2609
  311MPD2    H3 4736   0.831   2.797  12.076  0.1904 -0.9745  0.6916
  311MPD2     N 4737   0.623   2.820  12.483  0.1446 -0.1046  0.0489
  311MPD2    H5 4738   0.637   2.830  12.583  0.5668 -0.2142  0.0017
  311MPD2    N1 4739   1.057   2.978  12.439 -0.0246  0.1488  0.6841
  311MPD2    H7 4740   1.032   2.998  12.536  0.4698  1.6617  0.4919
  312TMC3    C1 4741   0.397   2.824  12.542 -0.5446  0.2529 -0.3153
  312TMC3    C2 4742   0.267   2.789  12.521  0.3118  0.0146  0.1134
  312TMC3    C3 4743   0.171   2.842  12.606  0.1845 -0.1001  0.0897
  312TMC3    C4 4744   0.431   2.914  12.641  0.0834 -0.4567  0.3485
  312TMC3    C5 4745   0.334   2.962  12.721 -0.4684 -0.1719 -0.0577
  312TMC3    C6 4746   0.201   2.931  12.701  0.6238  0.1061 -0.3465
  312TMC3     C 4747   0.494   2.785  12.446  0.2174  0.0062 -0.2739
  312TMC3     O 4748   0.453   2.770  12.328 -0.6620  0.5192  0.4201
  312TMC3     H 4749   0.240   2.723  12.440  1.2199 -0.7375  0.4359
  312TMC3    H1 4750   0.535   2.942  12.658  0.2987 -0.7626 -0.4698
  312TMC3    H2 4751   0.125   2.962  12.772  1.8521  1.3401  0.4478
  312TMC3    C7 4752   0.367   2.976  12.859  0.2457  0.1294  0.0637
  312TMC3    C8 4753   0.034   2.820  12.573  0.6728 -0.1940  0.1984
  312TMC3    O1 4754   0.286   3.038  12.929 -0.1217  0.2880 -0.0438
  312TMC3    O2 4755   0.002   2.719  12.510 -0.0286  0.3626 -0.1013
  313MPD2     C 4756   4.205   2.182  10.857 -0.4009  0.6889 -0.1268
  313MPD2    C1 4757   4.220   2.279  10.764  0.3398 -0.6956  0.2685
  313MPD2    C2 4758   4.237   2.227  10.632 -0.1986 -0.1515  0.1113
  313MPD2    C3 4759   4.248   2.087  10.604 -0.6648 -0.1787  0.1573
  313MPD2    C4 4760   4.234   2.000  10.710  0.6483  0.0430  0.0078
  313MPD2    C5 4761   4.207   2.050  10.829  0.2441  0.5712 -0.2397
  313MPD2     H 4762   4.241   2.292  10.546 -0.7140 -0.6406 -0.2832
  313MPD2    H1 4763   4.242   1.892  10.702 -0.6080 -0.0092 -0.6082
  313MPD2    H2 4764   4.185   2.219  10.958 -0.4244  2.8098 -0.8944
  313MPD2    H3 4765   4.185   1.976  10.904 -0.5348  2.7127  1.6275
  313MPD2     N 4766   4.272   2.041  10.470 -0.5044  0.7080 -0.1135
  313MPD2    H5 4767   4.278   2.110  10.396 -0.1793 -0.0751 -0.8145
  313MPD2    N1 4768   4.221   2.415  10.787  0.3656  0.7099  0.2355
  313MPD2    H7 4769   4.223   2.469  10.700  1.0834 -0.3008 -0.3673
  314TMC3    C1 4770   4.201   2.623  10.879 -0.0285 -0.3791  0.0757
  314TMC3    C2 4771   4.295   2.711  10.923  0.0596  0.3310 -0.0279
  314TMC3    C3 4772   4.297   2.840  10.865 -0.3874  0.3598  0.4377
  314TMC3    C4 4773   4.110   2.653  10.786  0.0750  0.3386 -0.7401
  314TMC3    C5 4774   4.119   2.772  10.737  0.9350 -0.3609  0.0343
  314TMC3    C6 4775   4.206   2.873  10.774  0.4040  0.0625  0.0292
  314TMC3     C 4776   4.216   2.486  10.910 -0.1366 -0.0852 -0.4946
  314TMC3     O 4777   4.245   2.453  11.020 -0.0313  0.6349 -0.1168
  314TMC3     H 4778   4.378   2.682  10.986 -0.9329 -0.7285  0.7826
  314TMC3    H1 4779   4.024   2.591  10.763  0.6407 -0.7853  0.1978
  314TMC3    H2 4780   4.197   2.975  10.740  1.7540 -0.2131 -1.1571
  314TMC3    C7 4781   4.027   2.802  10.626 -0.1312 -0.0862  0.1177
  314TMC3    C8 4782   4.384   2.946  10.912  0.1196  0.4104  0.7223
  314TMC3    O1 4783   3.978   2.912  10.627 -0.0407  0.1763 -0.2359
  314TMC3    O2 4784   4.392   3.058  10.857  0.4145 -0.0625  0.1311
  315MPD2     C 4785   4.723   1.011  17.357  0.6413  0.5586  0.2277
  315MPD2    C1 4786   0.019   1.056  17.487 -0.3001 -0.4383  0.5347
  315MPD2    C2 4787   0.042   1.191  17.502 -0.5604  0.1964 -0.7181
  315MPD2    C3 4788   0.053   1.277  17.397 -0.8838 -0.6870  0.1250
  315MPD2    C4 4789   0.030   1.228  17.268  0.2874  0.4837  0.0520
  315MPD2    C5 4790   4.733   1.098  17.249  0.0091 -0.2963  0.0994
  315MPD2     H 4791   0.061   1.218  17.605  2.1122  2.6134 -1.8661
  315MPD2    H1 4792   0.045   1.290  17.180 -1.9558  1.9255  0.6947
  315MPD2    H2 4793   4.682   0.912  17.342 -2.0318  1.4550  1.6295
  315MPD2    H3 4794   4.719   1.063  17.147 -0.4212  2.0372 -0.6482
  315MPD2     N 4795   0.105   1.401  17.423 -0.3981  0.3317  0.2588
  315MPD2    H5 4796   0.130   1.428  17.518 -0.2411  3.4172 -0.6799
  315MPD2    N1 4797   0.012   0.973  17.604 -0.3081  0.6781  0.2698
  315MPD2    H7 4798   0.023   1.009  17.698  1.1394 -0.1646  0.4235
  316TMC3    C1 4799   0.174   1.623  17.375 -0.6470  0.0533 -0.6363
  316TMC3    C2 4800   0.234   1.628  17.498 -0.0019  0.0745 -0.2652
  316TMC3    C3 4801   0.292   1.747  17.527 -0.1321 -0.2135 -0.1251
  316TMC3    C4 4802   0.177   1.722  17.277  0.3173 -0.2704 -0.1078
  316TMC3    C5 4803   0.230   1.838  17.318  0.6333 -0.2748  0.0607
  316TMC3    C6 4804   0.299   1.851  17.434  0.3027  0.2245 -0.7021
  316TMC3     C 4805   0.115   1.502  17.329  0.2371 -1.1955  0.4264
  316TMC3     O 4806   0.053   1.510  17.222 -0.2691 -0.2102  0.0436
  316TMC3     H 4807   0.223   1.549  17.572  2.6344 -1.3313 -1.4009
  316TMC3    H1 4808   0.168   1.705  17.170  0.4477  0.1027 -0.1780
  316TMC3    H2 4809   0.349   1.944  17.456 -1.9765  0.7136  2.5635
  316TMC3    C7 4810   0.265   1.929  17.220  0.6535  0.4972 -0.0857
  316TMC3    C8 4811   0.362   1.763  17.660  0.2099 -0.1756 -0.0280
  316TMC3    O1 4812   0.383   1.958  17.218  0.7409 -0.5325  0.0875
  316TMC3    O2 4813   0.360   1.875  17.710  0.0166  0.7514 -0.3178
  317MPD2     C 4814   1.456   0.093  13.255  0.0212  0.2998 -0.0005
  317MPD2    C1 4815   1.485   4.697  13.233  0.6036 -0.3483  0.8481
  317MPD2    C2 4816   1.565   4.624  13.322  0.5226  0.4408 -0.4070
  317MPD2    C3 4817   1.619   4.686  13.429 -0.2712  0.1626  0.5262
  317MPD2    C4 4818   1.602   0.090  13.453 -0.4902 -0.0024  0.5478
  317MPD2    C5 4819   1.526   0.160  13.358  0.3658 -0.2664 -0.3438
  317MPD2     H 4820   1.585   4.519  13.304  0.6246  0.4548 -0.3779
  317MPD2    H1 4821   1.636   0.143  13.541  1.9729 -0.3182 -0.2167
  317MPD2    H2 4822   1.404   0.148  13.178 -1.5847  1.7474  2.1265
  317MPD2    H3 4823   1.511   0.268  13.367 -2.1726 -0.8089  2.2783
  317MPD2     N 4824   1.696   4.592  13.509  0.0363 -0.3101 -0.1020
  317MPD2    H5 4825   1.727   4.505  13.468 -0.0947 -1.6050  2.5365
  317MPD2    N1 4826   1.447   4.623  13.115  0.9558 -0.2617  0.5081
  317MPD2    H7 4827   1.485   4.529  13.112  1.4541 -0.0908  1.3211
  318TMC3    C1 4828   1.827   4.515  13.688 -0.5865 -0.0893 -0.0805
  318TMC3    C2 4829   1.779   4.387  13.658  0.7157 -0.6055 -0.0481
  318TMC3    C3 4830   1.845   4.279  13.717 -0.5048 -0.2741  0.2835
  318TMC3    C4 4831   1.938   4.533  13.763  0.3799 -0.0104  0.2531
  318TMC3    C5 4832   2.012   4.425  13.796 -0.8564 -0.5633 -0.1198
  318TMC3    C6 4833   1.965   4.298  13.776  0.1169 -0.0476 -0.0455
  318TMC3     C 4834   1.765   4.631  13.622  0.5034  0.6785 -0.3154
  318TMC3     O 4835   1.770   0.005  13.677 -0.8078 -0.2800  1.0239
  318TMC3     H 4836   1.684   4.375  13.609 -0.3188 -0.9166  2.0244
  318TMC3    H1 4837   1.986   4.630  13.774  2.7805 -0.8895 -2.3003
  318TMC3    H2 4838   2.029   4.214  13.800 -0.1513 -0.6197 -1.3396
  318TMC3    C7 4839   2.140   4.446  13.850 -0.0256  0.0162  0.2637
  318TMC3    C8 4840   1.810   4.139  13.687 -0.3573  1.1325 -0.4004
  318TMC3    O1 4841   2.135   4.541  13.928 -0.7623  0.3263 -0.8152
  318TMC3    O2 4842   1.840   4.048  13.764  0.1758  0.0296  0.1234
  319MPD2     C 4843   2.673   1.233  16.567  0.5617 -1.1167 -0.3027
  319MPD2    C1 4844   2.589   1.181  16.659 -0.3336  0.3452 -0.2767
  319MPD2    C2 4845   2.462   1.130  16.625  0.6190  0.1827  0.7752
  319MPD2    C3 4846   2.430   1.117  16.494  0.3564 -0.4886  0.2835
  319MPD2    C4 4847   2.513   1.164  16.400  0.1037 -0.1110  0.2764
  319MPD2    C5 4848   2.637   1.213  16.433  0.2583 -0.4058 -0.0814
  319MPD2     H 4849   2.410   1.096  16.714  2.6787  0.6300  2.1480
  319MPD2    H1 4850   2.485   1.148  16.297 -1.1979  3.2896  0.0925
  319MPD2    H2 4851   2.767   1.283  16.586  1.0768 -2.6628  1.1757
  319MPD2    H3 4852   2.704   1.246  16.355  1.1311  1.9398  1.6548
  319MPD2     N 4853   2.305   1.072  16.445 -0.5109 -0.0095  0.1272
  319MPD2    H5 4854   2.299   1.057  16.345  3.5251  0.5245 -0.1860
  319MPD2    N1 4855   2.614   1.203  16.800  0.7782 -0.0018  0.3011
  319MPD2    H7 4856   2.534   1.194  16.863 -0.8095 -0.1214 -1.7289
  320TMC3    C1 4857   2.088   0.981  16.447 -0.3253  0.3983  0.0403
  320TMC3    C2 4858   2.070   1.012  16.322  0.0016 -0.1239  0.2592
  320TMC3    C3 4859   2.002   0.934  16.238  0.3343  0.3576  0.3878
  320TMC3    C4 4860   2.023   0.873  16.504 -0.2287 -0.1083  0.5237
  320TMC3    C5 4861   1.966   0.782  16.413 -0.2063 -1.2922  1.1846
  320TMC3    C6 4862   1.949   0.814  16.281  0.1231  0.3142  0.1147
  320TMC3     C 4863   2.201   1.035  16.525 -0.4563  0.5289  0.0480
  320TMC3     O 4864   2.186   1.041  16.644  0.4655  0.0596  0.7500
  320TMC3     H 4865   2.122   1.102  16.289  0.2465 -1.1409 -2.0722
  320TMC3    H1 4866   2.038   0.845  16.608  0.2294 -0.8671  0.2503
  320TMC3    H2 4867   1.885   0.755  16.217 -0.8816  0.3597  1.0783
  320TMC3    C7 4868   1.929   0.649  16.455 -0.4132 -0.5477  0.3659
  320TMC3    C8 4869   1.973   0.989  16.113 -0.3184 -0.4666 -0.1867
  320TMC3    O1 4870   1.887   0.641  16.571 -0.2206 -0.7384 -0.2941
  320TMC3    O2 4871   1.980   1.111  16.104 -0.2743 -0.6950  0.4993
  321TMC3    C1 4872   2.739   1.261  16.995  0.1924  0.4340 -0.9943
  321TMC3    C2 4873   2.634   1.203  17.059  0.0964 -0.8667 -0.8888
  321TMC3    C3 4874   2.602   1.240  17.191  0.2896  0.3438  0.0686
  321TMC3    C4 4875   2.817   1.356  17.056 -0.2642  0.0716  0.4348
  321TMC3    C5 4876   2.781   1.390  17.181  0.6452 -0.5432 -0.2729
  321TMC3    C6 4877   2.674   1.338  17.247 -0.9410 -0.1583  0.7790
  321TMC3     C 4878   2.734   1.256  16.853 -0.4672  0.2904 -0.1645
  321TMC3     O 4879   2.841   1.276  16.799  0.5260  0.3375  0.0540
  321TMC3     H 4880   2.593   1.113  17.014 -0.2340 -1.4771  0.6328
  321TMC3    H1 4881   2.902   1.403  17.007  2.0895 -3.6089  1.0080
  321TMC3    H2 4882   2.671   1.353  17.355 -1.5814  0.1368  0.7191
  321TMC3    C7 4883   2.893   1.390  17.267  0.1412  0.0298 -0.1550
  321TMC3    C8 4884   2.590   1.134  17.288 -0.9731  0.2387 -0.2048
  321TMC3    O1 4885   2.969   1.488  17.273  0.0713  0.2155 -0.2021
  321TMC3    O2 4886   2.665   1.142  17.381 -0.6641 -0.0084 -0.3116
  322MPD2     C 4887   1.285   2.348  13.696 -0.9203 -0.0465 -0.3392
  322MPD2    C1 4888   1.346   2.259  13.784  0.3168 -0.3943 -0.4281
  322MPD2    C2 4889   1.363   2.134  13.734  0.0921 -0.6303 -0.4206
  322MPD2    C3 4890   1.343   2.104  13.601 -0.5202 -0.4624  0.0901
  322MPD2    C4 4891   1.285   2.193  13.515  0.2083  0.5731  0.2581
  322MPD2    C5 4892   1.250   2.315  13.565 -0.1347  0.1847 -0.0390
  322MPD2     H 4893   1.426   2.065  13.790  1.4946  1.1963  0.2632
  322MPD2    H1 4894   1.268   2.183  13.409 -2.8972 -1.6369  0.9605
  322MPD2    H2 4895   1.258   2.448  13.730  1.0122 -0.8677  3.5592
  322MPD2    H3 4896   1.210   2.403  13.516 -0.2585 -0.5090 -1.1628
  322MPD2     N 4897   1.383   1.973  13.551  0.1691  0.2667 -0.1856
  322MPD2    H5 4898   1.392   1.895  13.616  0.2812 -0.8457 -1.5590
  322MPD2    N1 4899   1.380   2.292  13.914  0.0959 -0.8772 -0.3868
  322MPD2    H7 4900   1.394   2.213  13.975 -1.6111 -0.1930  0.8871
  323TMC3    C1 4901   1.444   2.432  14.099  0.0768  0.1198 -0.1508
  323TMC3    C2 4902   1.515   2.541  14.133  0.5018  0.3892 -0.1982
  323TMC3    C3 4903   1.588   2.537  14.255  0.2463  0.0493  0.5750
  323TMC3    C4 4904   1.445   2.322  14.182  0.2681 -0.2327  0.0505
  323TMC3    C5 4905   1.514   2.326  14.299 -0.0663  0.0105  0.3073
  323TMC3    C6 4906   1.587   2.430  14.339 -0.4050 -0.2824  0.2118
  323TMC3     C 4907   1.407   2.424  13.955 -0.3066  0.7867 -0.1472
  323TMC3     O 4908   1.411   2.519  13.882  0.4155 -0.1805  0.1505
  323TMC3     H 4909   1.522   2.621  14.060  0.9209  1.2032  0.7221
  323TMC3    H1 4910   1.393   2.232  14.152  0.7873 -0.8418  0.9731
  323TMC3    H2 4911   1.651   2.433  14.427 -0.0824  3.6966 -0.1591
  323TMC3    C7 4912   1.537   2.195  14.368  0.5386 -0.4200 -0.6594
  323TMC3    C8 4913   1.708   2.612  14.249  0.1084  0.2954  0.2169
  323TMC3    O1 4914   1.551   2.094  14.302 -0.4405  0.2056  0.6140
  323TMC3    O2 4915   1.815   2.566  14.286 -0.2563 -0.0797  0.4281
  324MPD2     C 4916   3.412   4.051  14.201  0.4217 -0.4781 -0.4988
  324MPD2    C1 4917   3.366   4.076  14.329  0.6539  0.5920 -0.2681
  324MPD2    C2 4918   3.229   4.072  14.353 -0.6683 -0.2118  0.4748
  324MPD2    C3 4919   3.136   4.039  14.247  0.4620 -0.0765 -0.4009
  324MPD2    C4 4920   3.183   4.039  14.118  0.0774  0.2027 -0.4073
  324MPD2    C5 4921   3.317   4.037  14.099 -0.3744 -0.7724  0.3861
  324MPD2     H 4922   3.189   4.087  14.453 -0.5096  0.4766  0.4362
  324MPD2    H1 4923   3.124   4.004  14.035  0.0778  0.6701 -0.6087
  324MPD2    H2 4924   3.517   4.054  14.170  0.5580 -0.2832 -0.0145
  324MPD2    H3 4925   3.344   4.013  13.997 -1.4388  0.9306 -0.3128
  324MPD2     N 4926   2.998   4.017  14.263 -0.0647 -0.3530  0.7171
  324MPD2    H5 4927   2.955   4.015  14.171  1.5514  0.3753 -0.0597
  324MPD2    N1 4928   3.457   4.087  14.439 -0.5260 -0.4199  0.1306
  324MPD2    H7 4929   3.424   4.104  14.533 -0.1846 -0.3902  0.2446
  325TMC3    C1 4930   2.805   3.932  14.372  0.4923  0.1727 -0.5826
  325TMC3    C2 4931   2.794   3.844  14.267  0.0332  0.5018  0.2439
  325TMC3    C3 4932   2.704   3.749  14.279  0.1475  0.1741 -0.1446
  325TMC3    C4 4933   2.732   3.916  14.486 -0.2920 -0.1641  0.0888
  325TMC3    C5 4934   2.651   3.803  14.499  0.0109  0.1109  0.2441
  325TMC3    C6 4935   2.625   3.720  14.391 -0.3415  0.0685 -1.2414
  325TMC3     C 4936   2.931   3.999  14.380 -0.6842 -0.3467 -0.1483
  325TMC3     O 4937   2.970   4.014  14.493 -0.6087 -0.0165  0.0707
  325TMC3     H 4938   2.861   3.835  14.182  0.6522  1.4436  0.6224
  325TMC3    H1 4939   2.756   3.986  14.565  1.7697 -0.6309 -0.1272
  325TMC3    H2 4940   2.573   3.627  14.413  0.6347  0.5628  3.2137
  325TMC3    C7 4941   2.583   3.785  14.633  0.6615  0.4146 -0.8223
  325TMC3    C8 4942   2.693   3.659  14.172 -0.4109  1.3334  0.2229
  325TMC3    O1 4943   2.632   3.853  14.719  0.4466 -0.1332 -0.1029
  325TMC3    O2 4944   2.778   3.650  14.082 -0.3645  0.1061  0.0383
  326MPD2     C 4945   3.930   4.545  10.839  0.9123 -0.1198  0.2462
  326MPD2    C1 4946   3.986   4.474  10.739 -0.7634 -0.0545  0.1876
  326MPD2    C2 4947   4.092   4.522  10.666 -0.4960 -0.0852 -0.4416
  326MPD2    C3 4948   4.131   4.657  10.692  0.1118  0.5152  0.4396
  326MPD2    C4 4949   4.063   4.733  10.789  0.7312 -0.4164 -0.4359
  326MPD2    C5 4950   3.971   4.670  10.863  0.0263  0.6158 -0.1907
  326MPD2     H 4951   4.139   4.461  10.590 -1.2997 -0.1442 -0.8930
  326MPD2    H1 4952   4.077   0.104  10.814  3.8610 -0.3830 -2.3231
  326MPD2    H2 4953   3.849   4.511  10.903  1.0997 -0.3824  0.3448
  326MPD2    H3 4954   3.926   4.717  10.950  1.7450  2.5543 -0.3578
  326MPD2     N 4955   4.230   4.723  10.628 -0.1094 -0.3962 -0.0513
  326MPD2    H5 4956   4.238   0.088  10.651 -0.3112 -1.1796  3.3126
  326MPD2    N1 4957   3.934   4.357  10.685  0.4820  0.2546  0.5038
  326MPD2    H7 4958   3.994   4.321  10.611 -0.8021  1.9312 -1.3748
  327TMC3    C1 4959   3.775   4.231  10.575  0.2501 -0.9791  0.0589
  327TMC3    C2 4960   3.696   4.290  10.481 -0.2250 -0.1686 -0.4892
  327TMC3    C3 4961   3.729   4.277  10.346  0.9634 -0.2197  0.1187
  327TMC3    C4 4962   3.872   4.145  10.544  0.2803 -0.6412 -0.6548
  327TMC3    C5 4963   3.903   4.130  10.414 -0.0023 -0.3186  0.3330
  327TMC3    C6 4964   3.827   4.192  10.310 -0.3584 -0.1385  0.6508
  327TMC3     C 4965   3.802   4.314  10.695 -0.0378  0.0207  0.1774
  327TMC3     O 4966   3.709   4.382  10.740 -0.5509 -0.0784 -0.0671
  327TMC3     H 4967   3.616   4.359  10.508 -1.0258 -1.3247  0.0544
  327TMC3    H1 4968   3.922   4.096  10.627  1.5971 -0.0759 -1.1213
  327TMC3    H2 4969   3.853   4.171  10.207 -1.2588 -0.9639  0.5957
  327TMC3    C7 4970   4.012   4.038  10.377  1.0108  0.8222  0.4000
  327TMC3    C8 4971   3.713   4.397  10.264  0.5594 -0.6126  0.2083
  327TMC3    O1 4972   4.013   3.987  10.267  0.2696 -0.1972 -0.2672
  327TMC3    O2 4973   3.781   4.412  10.165 -0.0887 -0.3953  0.1704
  328MPD2     C 4974   2.095   3.826  16.614  0.4664 -0.3086 -0.2856
  328MPD2    C1 4975   1.956   3.845  16.616 -0.1126 -0.0538  0.5174
  328MPD2    C2 4976   1.916   3.968  16.569 -0.3302 -0.0527  0.2979
  328MPD2    C3 4977   2.007   4.070  16.533  0.1246 -0.0885 -0.0661
  328MPD2    C4 4978   2.146   4.043  16.538 -0.0044 -1.2451 -0.4307
  328MPD2    C5 4979   2.185   3.918  16.577 -0.5863  0.0043 -0.4415
  328MPD2     H 4980   1.809   3.986  16.558  0.0293  0.9464 -1.5726
  328MPD2    H1 4981   2.225   4.109  16.506  1.4334 -1.8594  1.8632
  328MPD2    H2 4982   2.140   3.733  16.648 -0.3175 -1.1096 -1.4631
  328MPD2    H3 4983   2.292   3.905  16.593 -0.9713 -1.8165  0.5879
  328MPD2     N 4984   1.969   4.203  16.504  0.5612  0.1534  0.6302
  328MPD2    H5 4985   2.043   4.274  16.502 -2.0896  2.8328 -2.9366
  328MPD2    N1 4986   1.856   3.760  16.674  0.2205  0.6509 -0.3023
  328MPD2    H7 4987   1.764   3.800  16.684 -0.3426 -0.7103 -0.0078
  329TMC3    C1 4988   1.773   3.582  16.816  0.3830  0.0160 -0.1643
  329TMC3    C2 4989   1.669   3.668  16.834  0.1165  0.2874  1.0029
  329TMC3    C3 4990   1.605   3.675  16.953 -0.2190 -0.0195  0.1030
  329TMC3    C4 4991   1.824   3.509  16.920 -0.0547 -0.8286 -0.1743
  329TMC3    C5 4992   1.750   3.517  17.040 -0.1557  0.6960  0.9699
  329TMC3    C6 4993   1.641   3.603  17.062 -0.3896  0.9781 -0.1546
  329TMC3     C 4994   1.877   3.631  16.720 -0.0785  0.1779  0.2128
  329TMC3     O 4995   1.981   3.568  16.711  0.2761 -0.6283 -0.3933
  329TMC3     H 4996   1.632   3.730  16.752 -0.7510  0.1422  1.2800
  329TMC3    H1 4997   1.912   3.447  16.918  0.9166  0.5150  1.8001
  329TMC3    H2 4998   1.589   3.588  17.156 -1.9514 -0.8899 -1.3114
  329TMC3    C7 4999   1.810   3.460  17.160 -0.0202  0.0803  0.6044
  329TMC3    C8 5000   1.547   3.809  16.981  0.1165 -0.7641  0.6179
  329TMC3    O1 5001   1.776   3.506  17.269  0.5066  0.4319  0.3060
  329TMC3    O2 5002   1.556   3.885  16.885 -0.3050 -0.3438 -0.1871
  330TMC3    C1 5003   4.261   3.924   8.929  0.0617  0.2896 -0.5450
  330TMC3    C2 5004   4.166   3.816   8.912 -0.4869 -0.0077  0.2622
  330TMC3    C3 5005   4.207   3.711   8.839  0.2777  0.4862  0.2374
  330TMC3    C4 5006   4.378   3.921   8.860  0.5833  0.1480  0.6749
  330TMC3    C5 5007   4.418   3.808   8.795 -0.0689  0.1278  0.2613
  330TMC3    C6 5008   4.328   3.705   8.775 -0.2786 -0.3222  0.3638
  330TMC3     C 5009   4.215   4.055   8.976 -0.2109  0.4215  0.8605
  330TMC3     O 5010   4.288   4.150   8.953 -0.2750 -0.2688 -0.7239
  330TMC3     H 5011   4.064   3.825   8.946 -0.3783 -0.8888  0.8108
  330TMC3    H1 5012   4.448   4.001   8.879 -2.0413  2.3808  0.9199
  330TMC3    H2 5013   4.356   3.623   8.709  0.4226  0.9138 -0.8946
  330TMC3    C7 5014   4.562   3.792   8.766  0.3069  0.0826 -0.0249
  330TMC3    C8 5015   4.110   3.603   8.816 -0.1651 -0.3233  0.2965
  330TMC3    O1 5016   4.589   3.698   8.692 -0.4329 -0.4210 -0.1819
  330TMC3    O2 5017   4.158   3.501   8.764 -0.7914 -0.0233 -0.0833
  331MPD2     C 5018   3.137   3.389  12.644 -0.9028 -0.0648  0.0914
  331MPD2    C1 5019   3.011   3.346  12.676 -0.5163 -0.2407  0.2680
  331MPD2    C2 5020   2.977   3.212  12.666  0.3477 -0.0909  1.4172
  331MPD2    C3 5021   3.067   3.117  12.618 -0.4900 -0.6809 -0.2243
  331MPD2    C4 5022   3.195   3.163  12.580 -0.2607  0.0445 -0.0875
  331MPD2    C5 5023   3.223   3.299  12.595 -0.0393 -0.4460  0.3443
  331MPD2     H 5024   2.877   3.180  12.694  0.1440  0.6778  1.5700
  331MPD2    H1 5025   3.272   3.101  12.535  0.3386  0.7639 -0.0453
  331MPD2    H2 5026   3.170   3.491  12.665 -0.9922  0.4750 -2.4361
  331MPD2    H3 5027   3.326   3.331  12.584 -0.2571 -0.0927 -0.6968
  331MPD2     N 5028   3.032   2.979  12.624  0.1757 -0.0616 -0.3478
  331MPD2    H5 5029   2.951   2.962  12.684  1.5767 -1.1809  1.2248
  331MPD2    N1 5030   2.921   3.447  12.720  0.4250 -1.1288  0.0769
  331MPD2    H7 5031   2.952   3.543  12.714  0.6985 -1.2371 -0.2948
  332TMC3    C1 5032   3.031   2.745  12.585 -0.0241  0.1218 -0.0636
  332TMC3    C2 5033   2.894   2.751  12.581  0.3024 -0.1672 -0.7769
  332TMC3    C3 5034   2.833   2.627  12.601 -0.2597 -0.8093 -0.0118
  332TMC3    C4 5035   3.110   2.635  12.590 -0.0342 -0.2396  0.1334
  332TMC3    C5 5036   3.036   2.514  12.588  0.4667  0.1738  0.3194
  332TMC3    C6 5037   2.899   2.507  12.592 -0.0368  0.3011 -0.4112
  332TMC3     C 5038   3.101   2.876  12.574 -0.7097 -1.3856  0.1462
  332TMC3     O 5039   3.211   2.875  12.518 -0.4740  0.6745  0.0515
  332TMC3     H 5040   2.834   2.840  12.586 -0.3604 -0.5388 -2.2558
  332TMC3    H1 5041   3.218   2.645  12.593 -0.3142  2.7823 -0.4056
  332TMC3    H2 5042   2.834   2.420  12.598 -1.7040  1.4486 -1.6349
  332TMC3    C7 5043   3.106   2.388  12.573 -0.1724 -0.5534  0.6155
  332TMC3    C8 5044   2.689   2.623  12.608 -0.1083 -0.3802  1.1436
  332TMC3    O1 5045   3.045   2.285  12.570 -0.5592 -0.5494 -0.2857
  332TMC3    O2 5046   2.631   2.535  12.673  0.3877 -0.0522 -0.2447
  333MPD2     C 5047   2.851   3.073  10.783 -0.0836 -0.3124  0.1594
  333MPD2    C1 5048   2.902   3.005  10.680  0.1817  0.1851  1.0617
  333MPD2    C2 5049   2.879   2.871  10.665 -0.4041  0.6177  0.7041
  333MPD2    C3 5050   2.798   2.802  10.757 -0.8287  0.0786 -0.4778
  333MPD2    C4 5051   2.749   2.871  10.866 -0.5786 -0.1341 -0.2839
  333MPD2    C5 5052   2.776   3.006  10.876 -0.2169 -0.6348  0.2674
  333MPD2     H 5053   2.913   2.812  10.580 -2.9820 -0.3856  0.3643
  333MPD2    H1 5054   2.689   2.828  10.945 -0.0672 -3.8107 -1.9032
  333MPD2    H2 5055   2.863   3.178  10.805  1.4327 -0.3449 -0.4740
  333MPD2    H3 5056   2.735   3.051  10.966  1.8316  2.3331 -0.3145
  333MPD2     N 5057   2.759   2.668  10.726  0.1558 -0.1358 -0.3885
  333MPD2    H5 5058   2.784   2.631  10.635 -2.1487 -1.8130 -0.3170
  333MPD2    N1 5059   2.986   3.077  10.591 -0.1846  0.1689 -0.0303
  333MPD2    H7 5060   2.996   3.176  10.612 -0.1718 -0.1510  1.4479
  334TMC3    C1 5061   3.149   3.118  10.424 -0.3771 -0.1033 -0.4731
  334TMC3    C2 5062   3.234   3.060  10.334 -0.6949 -0.6836 -0.0787
  334TMC3    C3 5063   3.332   3.141  10.280 -0.3668 -0.2246  0.4696
  334TMC3    C4 5064   3.166   3.249  10.460 -0.4274  0.3468 -0.3177
  334TMC3    C5 5065   3.255   3.329  10.393 -0.1595  0.2395 -0.2782
  334TMC3    C6 5066   3.338   3.271  10.300 -0.6940 -0.0142  0.5149
  334TMC3     C 5067   3.064   3.026  10.491  0.4096  0.6461 -0.1700
  334TMC3     O 5068   3.067   2.909  10.452  0.6020 -0.2810 -0.6758
  334TMC3     H 5069   3.222   2.960  10.292 -1.6510 -1.9634  3.2954
  334TMC3    H1 5070   3.102   3.291  10.536 -2.5177 -0.0513 -1.8270
  334TMC3    H2 5071   3.419   3.328  10.255 -0.8885 -0.9436 -1.0453
  334TMC3    C7 5072   3.277   3.466  10.430 -0.0929 -0.6880 -0.9861
  334TMC3    C8 5073   3.400   3.095  10.158 -0.1851  0.6063  0.5746
  334TMC3    O1 5074   3.249   3.492  10.545  0.9759  0.0061  0.2670
  334TMC3    O2 5075   3.344   3.020  10.075  0.4531 -0.0302 -0.5585
  335TMC3    C1 5076   3.131   0.093  17.377 -0.8869  0.1422  0.4443
  335TMC3    C2 5077   3.017   0.091  17.301 -0.2387  0.3789  0.1067
  335TMC3    C3 5078   2.993   4.712  17.227  0.6482  0.6310  0.2277
  335TMC3    C4 5079   3.239   0.008  17.355  0.1100  0.1813 -0.2632
  335TMC3    C5 5080   3.215   4.639  17.268 -0.4750  0.1879  0.0532
  335TMC3    C6 5081   3.096   4.624  17.204 -0.5784  0.2523  0.3780
  335TMC3     C 5082   3.164   0.227  17.432  0.7318  0.5484 -0.4779
  335TMC3     O 5083   3.089   0.321  17.395 -0.3049 -0.6823 -0.5399
  335TMC3     H 5084   2.934   0.160  17.310 -0.7177 -0.3460  1.1801
  335TMC3    H1 5085   3.334   0.023  17.404  1.2652  1.4731 -2.8786
  335TMC3    H2 5086   3.078   4.534  17.145 -1.5077  0.7694 -0.1143
  335TMC3    C7 5087   3.321   4.564  17.207 -0.0598  0.9415 -0.5675
  335TMC3    C8 5088   2.896   4.721  17.119  0.2319  0.4619 -0.8373
  335TMC3    O1 5089   3.288   4.464  17.143 -0.1059 -0.1454  0.2013
  335TMC3    O2 5090   2.842   0.097  17.102 -0.4896 -0.0570 -0.1520
  336MPD2     C 5091   2.358   2.353  15.926 -0.0586  0.1780 -0.0079
  336MPD2    C1 5092   2.312   2.242  15.851 -0.1542  0.1179  0.5039
  336MPD2    C2 5093   2.365   2.117  15.881 -0.5103  0.0101 -0.6641
  336MPD2    C3 5094   2.465   2.100  15.972  0.3469  0.2604 -0.0394
  336MPD2    C4 5095   2.508   2.212  16.043 -0.6609  1.3543 -0.0463
  336MPD2    C5 5096   2.458   2.342  16.018 -0.4676 -0.4200 -0.6053
  336MPD2     H 5097   2.321   2.037  15.822 -1.7290 -1.5493  2.3933
  336MPD2    H1 5098   2.569   2.201  16.132 -1.2012  1.2796  0.3155
  336MPD2    H2 5099   2.327   2.455  15.909  1.2101  0.7319  0.9559
  336MPD2    H3 5100   2.477   2.429  16.081 -0.9425  0.1359 -1.2328
  336MPD2     N 5101   2.509   1.971  16.008 -0.2233  0.0292  0.3224
  336MPD2    H5 5102   2.570   1.963  16.088  1.3211  0.1090 -0.8531
  336MPD2    N1 5103   2.193   2.241  15.768  0.4699 -0.6485  0.1528
  336MPD2    H7 5104   2.148   2.154  15.741 -1.2219  0.6381 -1.1621
  337TMC3    C1 5105   1.999   2.328  15.675  0.2374 -0.3095 -0.1031
  337TMC3    C2 5106   1.957   2.198  15.659  0.0790  0.2556  0.7106
  337TMC3    C3 5107   1.833   2.174  15.618  0.3112 -0.1604 -0.5978
  337TMC3    C4 5108   1.914   2.430  15.646 -0.4520  0.4012  0.5011
  337TMC3    C5 5109   1.786   2.397  15.612  0.5522 -0.4632 -0.3935
  337TMC3    C6 5110   1.738   2.273  15.608  0.1767  0.6372  0.1107
  337TMC3     C 5111   2.132   2.355  15.721 -0.0906  0.4887  1.0952
  337TMC3     O 5112   2.166   2.469  15.726 -0.0500 -0.3517  0.3976
  337TMC3     H 5113   2.025   2.114  15.652  0.1358  0.1996  2.0891
  337TMC3    H1 5114   1.945   2.534  15.650 -2.5192  1.0480  0.0078
  337TMC3    H2 5115   1.636   2.256  15.576  0.4521  0.5784 -0.7320
  337TMC3    C7 5116   1.688   2.507  15.625 -0.4813 -0.3335 -0.5464
  337TMC3    C8 5117   1.800   2.033  15.595  0.1236  0.2015  0.3211
  337TMC3    O1 5118   1.719   2.616  15.580 -0.1442 -0.2745  0.2457
  337TMC3    O2 5119   1.861   1.953  15.664  0.1835 -0.0369  0.4643
  338MPD2     C 5120   2.777   2.368   0.590  0.0997  0.2749 -0.2353
  338MPD2    C1 5121   2.693   2.263   0.557  0.1803  0.7432 -0.1568
  338MPD2    C2 5122   2.563   2.288   0.530  0.1869  0.1204 -0.6169
  338MPD2    C3 5123   2.512   2.414   0.501 -0.0581  0.2224 -0.4613
  338MPD2    C4 5124   2.598   2.517   0.518  0.2650  0.2343 -0.1885
  338MPD2    C5 5125   2.727   2.496   0.566 -0.9173  0.7693 -0.6549
  338MPD2     H 5126   2.500   2.204   0.503  1.6473 -1.4210  0.7717
  338MPD2    H1 5127   2.575   2.616   0.479 -0.2170 -0.5442 -1.8519
  338MPD2    H2 5128   2.881   2.355   0.619 -0.4020 -2.1990  0.4769
  338MPD2    H3 5129   2.794   2.581   0.576 -1.7395  1.4380 -0.8737
  338MPD2     N 5130   2.378   2.436   0.467 -0.0346 -0.0171 -0.0537
  338MPD2    H5 5131   2.347   2.525   0.430 -0.4802  0.0532  0.4727
  338MPD2    N1 5132   2.731   2.129   0.560 -0.0317  0.4749 -0.3760
  338MPD2    H7 5133   2.675   2.054   0.521  1.0585 -1.1863  1.2410
  339TMC3    C1 5134   2.152   2.384   0.448  0.1433  0.5359 -0.2684
  339TMC3    C2 5135   2.050   2.334   0.520 -0.0389  0.6692  0.1750
  339TMC3    C3 5136   1.947   2.278   0.455 -0.1151 -0.2653 -0.4871
  339TMC3    C4 5137   2.146   2.392   0.312 -0.7315 -0.6235 -0.3336
  339TMC3    C5 5138   2.043   2.329   0.252 -0.2134 -0.1321 -0.1809
  339TMC3    C6 5139   1.944   2.263   0.321  0.5029  0.7754 -0.2974
  339TMC3     C 5140   2.283   2.347   0.499 -0.0570  0.3455 -0.1435
  339TMC3     O 5141   2.294   2.248   0.574 -0.7413  0.2242  0.3797
  339TMC3     H 5142   2.074   2.327   0.626 -0.3682  3.6323  0.4341
  339TMC3    H1 5143   2.232   2.415   0.251 -0.8343  2.0659  0.5312
  339TMC3    H2 5144   1.866   2.208   0.270  1.6060 -1.8926  0.8557
  339TMC3    C7 5145   2.074   2.278   0.126 -0.4626  0.5251  0.5468
  339TMC3    C8 5146   1.837   2.221   0.526 -0.4364 -0.1380 -0.0031
  339TMC3    O1 5147   2.112   2.357   0.043  0.1548  0.7740 -0.2762
  339TMC3    O2 5148   1.778   2.131   0.471 -0.3276 -0.4615 -0.4678
  340MPD2     C 5149   2.835   4.017  10.127  0.1317 -0.3128  0.1183
  340MPD2    C1 5150   2.944   3.976  10.054  0.0383 -0.2603  0.1962
  340MPD2    C2 5151   3.048   4.066  10.040  0.4711 -0.1477 -0.2456
  340MPD2    C3 5152   3.050   4.192  10.098  0.3028 -0.7946  0.3423
  340MPD2    C4 5153   2.946   4.224  10.180  0.4061 -0.3406  0.2100
  340MPD2    C5 5154   2.842   4.133  10.201 -0.4781  0.8107 -0.5141
  340MPD2     H 5155   3.127   4.043   9.970  1.9607 -0.4695  1.5327
  340MPD2    H1 5156   2.939   4.320  10.230  0.0376 -0.6295  0.7125
  340MPD2    H2 5157   2.754   3.947  10.145 -0.5241  0.2526 -0.6072
  340MPD2    H3 5158   2.757   4.147  10.268  0.6020  1.5304  0.7139
  340MPD2     N 5159   3.160   4.281  10.077 -0.4078 -0.2287 -0.1113
  340MPD2    H5 5160   3.150   4.378  10.104  0.5040  0.0608 -0.8478
  340MPD2    N1 5161   2.942   3.847   9.993 -0.8061  0.2086  0.0997
  340MPD2    H7 5162   2.858   3.791  10.006 -0.4329 -0.6905 -1.3747
  341TMC3    C1 5163   2.980   3.670   9.838  0.5013  0.0990  0.0486
  341TMC3    C2 5164   2.851   3.635   9.835 -0.3933  0.1375 -0.0842
  341TMC3    C3 5165   2.809   3.539   9.743  0.5905 -0.1223  0.5154
  341TMC3    C4 5166   3.073   3.610   9.762 -0.7875 -0.2922  0.4783
  341TMC3    C5 5167   3.027   3.509   9.682  0.6159 -0.6116 -0.4821
  341TMC3    C6 5168   2.899   3.475   9.661 -0.0657  0.1555  0.1472
  341TMC3     C 5169   3.030   3.788   9.908 -0.0422 -0.1532 -0.0484
  341TMC3     O 5170   3.140   3.831   9.872  0.2804  0.0532  0.0442
  341TMC3     H 5171   2.780   3.679   9.905  1.0001  1.2479  0.6418
  341TMC3    H1 5172   3.175   3.645   9.763  0.1629 -3.0428  0.1123
  341TMC3    H2 5173   2.868   3.382   9.613  1.6969 -0.7992  0.8612
  341TMC3    C7 5174   3.116   3.429   9.601  0.0242 -1.0903 -0.5559
  341TMC3    C8 5175   2.710   3.446   9.801  0.4233 -0.4613 -0.2491
  341TMC3    O1 5176   3.214   3.385   9.661 -0.1312 -0.1059 -0.6300
  341TMC3    O2 5177   2.681   3.352   9.732  0.1577 -0.3250  0.0670
  342MPD2     C 5178   0.938   2.566  17.536 -0.1630  0.1618 -0.1749
  342MPD2    C1 5179   1.051   2.559  17.455  0.0062 -0.7716  0.2383
  342MPD2    C2 5180   1.096   2.668  17.387  0.3195  0.5621 -0.5391
  342MPD2    C3 5181   1.021   2.782  17.393  0.2990 -0.1283 -0.0602
  342MPD2    C4 5182   0.908   2.790  17.471  0.5115  0.4339  0.3542
  342MPD2    C5 5183   0.864   2.676  17.534  0.7974 -0.6735  0.2929
  342MPD2     H 5184   1.184   2.663  17.323  0.7146 -2.0114  0.2131
  342MPD2    H1 5185   0.850   2.879  17.494 -0.0052  0.2948 -0.4037
  342MPD2    H2 5186   0.889   2.487  17.593 -1.8835 -0.3227 -2.3463
  342MPD2    H3 5187   0.776   2.680  17.596  1.8416  1.2987  1.6689
  342MPD2     N 5188   1.043   2.896  17.315  0.0332 -0.2688 -0.0158
  342MPD2    H5 5189   0.963   2.958  17.319  0.3567  0.1685 -0.1716
  342MPD2    N1 5190   1.119   2.434  17.436 -0.2709 -0.4638 -0.1908
  342MPD2    H7 5191   1.189   2.431  17.363  0.7386  0.2494  0.7451
  343TMC3    C1 5192   1.162   2.203  17.444 -0.2569  0.2711  0.1106
  343TMC3    C2 5193   1.294   2.209  17.426  0.0114  0.0964 -0.5507
  343TMC3    C3 5194   1.362   2.091  17.411  0.1952 -0.2127 -0.6696
  343TMC3    C4 5195   1.090   2.086  17.431 -0.5421 -0.4446 -0.1421
  343TMC3    C5 5196   1.161   1.972  17.398 -0.0938 -0.0299 -0.8397
  343TMC3    C6 5197   1.295   1.973  17.389 -0.5698  0.6408 -1.0213
  343TMC3     C 5198   1.099   2.313  17.504  0.7709 -0.4060 -0.5458
  343TMC3     O 5199   1.027   2.293  17.596 -0.0172 -0.8554 -0.0997
  343TMC3     H 5200   1.349   2.298  17.455  0.3165 -0.0062 -0.8067
  343TMC3    H1 5201   0.982   2.089  17.432 -0.5738 -1.2216 -0.7986
  343TMC3    H2 5202   1.342   1.876  17.375 -2.1684 -0.4682  1.3058
  343TMC3    C7 5203   1.122   1.847  17.456  0.1586 -0.0825 -0.1448
  343TMC3    C8 5204   1.506   2.093  17.398  0.2537 -0.1169  0.2834
  343TMC3    O1 5205   1.165   1.744  17.403  0.4605 -0.3499  0.1002
  343TMC3    O2 5206   1.564   2.200  17.425 -0.4618  0.2708  0.5982
  344MPD2     C 5207   1.208   1.835  10.217  0.1079 -0.4933 -1.1334
  344MPD2    C1 5208   1.272   1.826  10.336  0.4189 -0.6528  0.0206
  344MPD2    C2 5209   1.345   1.937  10.383  0.2881 -0.2345  0.0499
  344MPD2    C3 5210   1.382   2.038  10.291 -0.2768  0.3580  0.4357
  344MPD2    C4 5211   1.325   2.041  10.165 -0.0910 -0.2739 -0.5488
  344MPD2    C5 5212   1.233   1.942  10.132 -0.8461 -0.8239 -0.2437
  344MPD2     H 5213   1.385   1.926  10.483  2.2553  2.3532 -0.4452
  344MPD2    H1 5214   1.359   2.114  10.093 -0.5478 -1.1327 -1.6386
  344MPD2    H2 5215   1.153   1.749  10.181  0.3029 -1.9014  1.8892
  344MPD2    H3 5216   1.185   1.941  10.035  0.0010  3.1595 -0.7340
  344MPD2     N 5217   1.461   2.150  10.326  0.4660 -0.2557 -0.7556
  344MPD2    H5 5218   1.458   2.232  10.267 -0.0009 -1.1616 -1.9878
  344MPD2    N1 5219   1.237   1.721  10.414 -0.4068 -0.2097 -0.4612
  344MPD2    H7 5220   1.159   1.669  10.374 -1.4439  1.8559 -1.1022
  345TMC3    C1 5221   1.598   2.280  10.452  0.4250  0.1953  0.7962
  345TMC3    C2 5222   1.650   2.303  10.578  0.4224 -0.5134 -0.1162
  345TMC3    C3 5223   1.715   2.420  10.599 -0.4060 -0.3372  0.6188
  345TMC3    C4 5224   1.599   2.379  10.357 -0.3034  0.8794 -0.2258
  345TMC3    C5 5225   1.650   2.501  10.390 -0.1605 -0.2599 -0.5346
  345TMC3    C6 5226   1.721   2.516  10.505 -0.1236 -0.8526  0.3371
  345TMC3     C 5227   1.519   2.161  10.445 -0.1598  0.2345 -0.6426
  345TMC3     O 5228   1.539   2.088  10.541 -0.2847 -0.4779  0.1294
  345TMC3     H 5229   1.649   2.228  10.656  1.0528  0.8177  1.1743
  345TMC3    H1 5230   1.555   2.374  10.258  0.7859 -0.3331 -0.6550
  345TMC3    H2 5231   1.786   2.602  10.515 -2.7054  1.0393  0.5376
  345TMC3    C7 5232   1.631   2.629  10.329  0.0958 -0.8715 -0.0437
  345TMC3    C8 5233   1.707   2.456  10.736 -0.1144  0.4666  0.6604
  345TMC3    O1 5234   1.695   2.729  10.370  0.4699  0.1174  0.7415
  345TMC3    O2 5235   1.702   2.371  10.822  0.2241  0.1259  0.4135
  346MPD2     C 5236   1.415   3.285  14.148 -0.5643 -0.0264 -0.0183
  346MPD2    C1 5237   1.542   3.337  14.146 -0.0859 -0.6975 -0.3145
  346MPD2    C2 5238   1.638   3.292  14.234  0.6081  0.9265 -0.3171
  346MPD2    C3 5239   1.603   3.209  14.338  0.1202  0.7323  0.3855
  346MPD2    C4 5240   1.478   3.152  14.339  1.1630 -0.1797 -0.1690
  346MPD2    C5 5241   1.385   3.186  14.241 -0.0106 -0.0607 -0.2071
  346MPD2     H 5242   1.737   3.335  14.239  0.4457  1.3025 -0.2683
  346MPD2    H1 5243   1.457   3.077  14.414 -0.9780  0.8738  0.3014
  346MPD2    H2 5244   1.343   3.303  14.068  0.7536  1.1909 -0.9303
  346MPD2    H3 5245   1.290   3.134  14.234 -0.6081  0.9219  0.5597
  346MPD2     N 5246   1.704   3.193  14.438 -0.1072 -0.3543  0.2709
  346MPD2    H5 5247   1.792   3.241  14.422 -1.4630  1.7643 -0.8575
  346MPD2    N1 5248   1.586   3.437  14.047 -0.1409  0.1105 -0.5338
  346MPD2    H7 5249   1.685   3.453  14.033  0.1472 -0.7824  0.4431
  347TMC3    C1 5250   1.801   3.135  14.644  0.5469 -0.0252 -0.3206
  347TMC3    C2 5251   1.907   3.221  14.627 -0.1521  0.2256  0.3930
  347TMC3    C3 5252   1.998   3.235  14.731 -1.0466 -0.5313  0.3582
  347TMC3    C4 5253   1.788   3.069  14.757 -0.5823 -0.5304  0.4097
  347TMC3    C5 5254   1.884   3.078  14.855 -0.1051 -0.2823 -0.0154
  347TMC3    C6 5255   1.989   3.167  14.850 -0.1404  0.5492  0.5908
  347TMC3     C 5256   1.687   3.126  14.555 -0.0610  0.0638 -0.5424
  347TMC3     O 5257   1.587   3.072  14.597 -0.1925 -0.5383  0.8765
  347TMC3     H 5258   1.936   3.267  14.533  0.3426  1.6297  1.2308
  347TMC3    H1 5259   1.705   3.001  14.772 -1.1510  0.3923  1.5015
  347TMC3    H2 5260   2.060   3.172  14.932  0.7663 -3.0187  0.0088
  347TMC3    C7 5261   1.872   2.987  14.969  0.0600 -0.0804 -0.0966
  347TMC3    C8 5262   2.107   3.327  14.710  0.3384  0.1572  0.5065
  347TMC3    O1 5263   1.759   2.948  15.002  0.4317  0.3004  0.2157
  347TMC3    O2 5264   2.114   3.369  14.594  0.3123 -0.4805 -0.4013
  348MPD2     C 5265   1.018   3.172  11.490  0.5193  0.3362  0.0443
  348MPD2    C1 5266   0.881   3.156  11.459 -0.0225  0.5259  0.0302
  348MPD2    C2 5267   0.815   3.260  11.390  0.2111 -0.2729  0.0085
  348MPD2    C3 5268   0.879   3.378  11.370  0.0373  0.0748  0.9654
  348MPD2    C4 5269   1.013   3.399  11.399 -0.2896  0.7080  0.1764
  348MPD2    C5 5270   1.076   3.294  11.453  0.1547 -0.0247 -0.1074
  348MPD2     H 5271   0.712   3.240  11.364  0.2822 -2.2846  1.2552
  348MPD2    H1 5272   1.069   3.490  11.378  0.5946  0.1434  0.1079
  348MPD2    H2 5273   1.081   3.096  11.535 -2.3321  0.1859  3.7907
  348MPD2    H3 5274   1.177   3.323  11.480  0.9079 -0.5727 -2.2797
  348MPD2     N 5275   0.795   3.485  11.314  0.1749  0.0439  0.3945
  348MPD2    H5 5276   0.697   3.464  11.299  0.3046 -0.5031  0.3337
  348MPD2    N1 5277   0.802   3.040  11.484 -0.2328  0.2570  0.0004
  348MPD2    H7 5278   0.703   3.049  11.467  0.1784 -0.2655 -2.6493
  349TMC3    C1 5279   0.749   2.825  11.578  0.3753  0.2429 -0.0427
  349TMC3    C2 5280   0.777   2.726  11.663  0.0402  0.8269 -0.0644
  349TMC3    C3 5281   0.683   2.665  11.736 -0.6840  0.1916  0.2064
  349TMC3    C4 5282   0.615   2.861  11.562 -0.7150  0.2310  0.1517
  349TMC3    C5 5283   0.515   2.800  11.645  0.3135  0.4679 -0.2005
  349TMC3    C6 5284   0.550   2.702  11.732 -0.3484 -0.0620  0.2115
  349TMC3     C 5285   0.854   2.923  11.542 -0.5937 -0.0437  0.0296
  349TMC3     O 5286   0.967   2.883  11.570  0.5064  0.1078 -0.4362
  349TMC3     H 5287   0.881   2.702  11.680  0.1827 -0.4164 -2.5991
  349TMC3    H1 5288   0.584   2.941  11.496  0.4930 -0.6650 -1.5210
  349TMC3    H2 5289   0.471   2.659  11.792 -1.8906  0.8846 -1.1535
  349TMC3    C7 5290   0.386   2.863  11.665 -0.3689  0.1742 -0.1766
  349TMC3    C8 5291   0.732   2.576  11.843 -0.2073  0.0870 -0.6246
  349TMC3    O1 5292   0.303   2.853  11.572 -0.3819  0.3995  0.0199
  349TMC3    O2 5293   0.846   2.602  11.887  0.1610 -0.0809  0.6561
  350MPD2     C 5294   3.745   1.681   9.896 -0.0228  0.3683 -0.2219
  350MPD2    C1 5295   3.855   1.605   9.867  0.5874  0.6011  0.4773
  350MPD2    C2 5296   3.974   1.668   9.867 -0.2986  0.4108  0.9643
  350MPD2    C3 5297   3.988   1.802   9.910  0.0401  0.0553  0.3591
  350MPD2    C4 5298   3.874   1.875   9.935 -0.0462  0.1276 -0.8389
  350MPD2    C5 5299   3.754   1.811   9.931 -1.0312  0.4793  0.5525
  350MPD2     H 5300   4.061   1.606   9.847 -0.1324  1.1297 -0.4758
  350MPD2    H1 5301   3.870   1.973   9.981 -0.1419  0.7943 -2.2685
  350MPD2    H2 5302   3.649   1.634   9.913  1.2515 -2.1837  0.0044
  350MPD2    H3 5303   3.665   1.870   9.949  0.2372  1.7991  2.5114
  350MPD2     N 5304   4.118   1.851   9.939  0.2719 -0.1440 -0.8803
  350MPD2    H5 5305   4.191   1.784   9.919  0.0808  0.0850 -2.3481
  350MPD2    N1 5306   3.861   1.465   9.855  0.7739 -0.3849  0.2827
  350MPD2    H7 5307   3.951   1.422   9.841 -0.0947 -1.3680 -2.2236
  351TMC3    C1 5308   3.797   1.239   9.843 -0.5208  0.2945 -0.1614
  351TMC3    C2 5309   3.894   1.217   9.749 -0.0260  0.6849 -1.8515
  351TMC3    C3 5310   3.933   1.089   9.735  0.0439 -0.0647  0.9705
  351TMC3    C4 5311   3.750   1.144   9.928  0.6145 -0.2492 -0.0640
  351TMC3    C5 5312   3.792   1.015   9.900  0.6974  0.0834 -0.1776
  351TMC3    C6 5313   3.890   0.979   9.812 -0.3457  0.6777  0.1594
  351TMC3     C 5314   3.756   1.379   9.862  0.2885 -0.3513 -0.1088
  351TMC3     O 5315   3.643   1.394   9.912  0.3472 -0.0543 -0.3891
  351TMC3     H 5316   3.927   1.295   9.682 -1.2164  2.9270  0.1645
  351TMC3    H1 5317   3.685   1.177  10.007  1.6829 -0.5354  0.9349
  351TMC3    H2 5318   3.930   0.880   9.794 -1.9191 -0.3456  2.2311
  351TMC3    C7 5319   3.710   0.912   9.958  0.0944 -0.0656  0.2608
  351TMC3    C8 5320   4.059   1.066   9.665 -0.1381  0.2222 -0.7382
  351TMC3    O1 5321   3.625   0.953  10.035 -0.2241  0.0372  0.5484
  351TMC3    O2 5322   4.091   1.137   9.571  0.3877 -0.3819 -0.0196
  352MPD2     C 5323   2.875   3.659   1.127 -1.0663  0.9900 -0.1806
  352MPD2    C1 5324   2.868   3.674   0.992 -0.0292 -0.5449 -0.3684
  352MPD2    C2 5325   2.958   3.613   0.907  0.9388  0.0563  0.6108
  352MPD2    C3 5326   3.063   3.538   0.958 -0.3266  0.0408 -0.3790
  352MPD2    C4 5327   3.073   3.530   1.094 -0.3878 -0.2587 -0.6414
  352MPD2    C5 5328   2.980   3.588   1.177 -0.4582 -0.4064 -0.0798
  352MPD2     H 5329   2.952   3.625   0.800 -2.6720  2.2054  1.0447
  352MPD2    H1 5330   3.149   3.474   1.146 -0.2441 -0.1658 -0.7541
  352MPD2    H2 5331   2.801   3.707   1.192 -1.5290  1.0300 -0.7372
  352MPD2    H3 5332   2.999   3.580   1.283 -0.2650 -0.9300 -0.1530
  352MPD2     N 5333   3.150   3.459   0.871  0.8694 -0.1646  0.1484
  352MPD2    H5 5334   3.213   3.398   0.922  0.5593 -1.5263 -1.1060
  352MPD2    N1 5335   2.752   3.741   0.943  0.0973  0.0722 -0.7538
  352MPD2    H7 5336   2.684   3.754   1.018  1.8097  1.6029  0.5634
  353TMC3    C1 5337   3.246   3.374   0.674 -0.3796  0.3015  0.4201
  353TMC3    C2 5338   3.324   3.299   0.757 -0.0406 -0.5661  0.0789
  353TMC3    C3 5339   3.340   3.168   0.730 -0.4556 -0.0593  0.1796
  353TMC3    C4 5340   3.193   3.327   0.548 -0.1224  0.4893 -0.3395
  353TMC3    C5 5341   3.239   3.206   0.517 -0.1609 -0.2507  0.2716
  353TMC3    C6 5342   3.305   3.122   0.604  0.2153  0.0433 -0.2766
  353TMC3     C 5343   3.158   3.472   0.732  0.3708  0.7629  0.2833
  353TMC3     O 5344   3.116   3.548   0.647 -0.0992 -0.0109 -0.2174
  353TMC3     H 5345   3.363   3.344   0.848  0.9419 -0.0560 -0.5869
  353TMC3    H1 5346   3.115   3.382   0.497 -0.9898 -0.0644  0.3920
  353TMC3    H2 5347   3.338   3.024   0.570  3.7770  0.6960  1.1957
  353TMC3    C7 5348   3.181   3.132   0.408 -0.5670 -0.4687 -0.0384
  353TMC3    C8 5349   3.428   3.083   0.816 -0.3971 -0.4732  0.8044
  353TMC3    O1 5350   3.170   3.011   0.425  0.0094 -0.0458  0.0242
  353TMC3    O2 5351   3.469   3.143   0.914  0.4097 -0.6416  0.3158
  354TMC3    C1 5352   3.985   0.014  13.192  0.2129  0.0507 -0.2574
  354TMC3    C2 5353   3.932   0.134  13.183  0.0311  0.2453 -0.3142
  354TMC3    C3 5354   3.940   0.202  13.062  0.2028 -0.2507  0.2066
  354TMC3    C4 5355   4.047   4.674  13.091  0.2647  0.5864 -0.2309
  354TMC3    C5 5356   4.019   0.003  12.969 -0.0785 -0.5023 -0.1905
  354TMC3    C6 5357   3.978   0.134  12.951  0.0546 -0.0690  0.5021
  354TMC3     C 5358   3.993   4.681  13.323 -0.3117 -0.3627 -0.0283
  354TMC3     O 5359   4.017   4.561  13.323 -0.3615  0.3219 -0.0407
  354TMC3     H 5360   3.892   0.180  13.273  0.2628 -2.5785  1.2056
  354TMC3    H1 5361   4.054   4.566  13.096  1.2095  0.6230 -0.7725
  354TMC3    H2 5362   3.928   0.160  12.858 -1.7069 -0.7582  1.2554
  354TMC3    C7 5363   4.103   4.701  12.851 -0.3131  0.1363  0.2627
  354TMC3    C8 5364   3.909   0.341  13.050 -0.6598  0.4418  0.3056
  354TMC3    O1 5365   4.082   0.039  12.756 -0.5528  0.5656  0.4860
  354TMC3    O2 5366   3.852   0.398  13.141  0.1526  0.0432  0.9443
  355MPD2     C 5367   4.567   0.478  11.477 -0.0678  0.7346  0.1868
  355MPD2    C1 5368   4.683   0.531  11.439  0.3063 -0.1543 -0.0259
  355MPD2    C2 5369   0.059   0.521  11.523 -0.0623  0.3108  0.0917
  355MPD2    C3 5370   0.046   0.463  11.643  0.5561  0.3254 -0.8688
  355MPD2    C4 5371   4.666   0.411  11.688  0.2873 -0.8102  0.2755
  355MPD2    C5 5372   4.561   0.415  11.602  0.0589  0.4611 -0.2896
  355MPD2     H 5373   0.153   0.561  11.486 -0.5596  1.0301 -0.4124
  355MPD2    H1 5374   4.654   0.364  11.785 -4.1512 -1.1842 -0.4273
  355MPD2    H2 5375   4.477   0.491  11.419 -0.3357 -2.3336 -0.0491
  355MPD2    H3 5376   4.470   0.366  11.634  1.7200 -3.4350 -1.5826
  355MPD2     N 5377   0.165   0.446  11.727 -0.2913  0.3522  0.3388
  355MPD2    H5 5378   0.155   0.450  11.827  3.6012 -1.2040  0.8264
  355MPD2    N1 5379   4.698   0.604  11.321 -0.1749 -0.0553 -0.6778
  355MPD2    H7 5380   0.059   0.633  11.301 -0.3449  0.0308 -1.3549
  356TMC3    C1 5381   0.387   0.536  11.737 -0.4960 -1.1891 -0.1340
  356TMC3    C2 5382   0.476   0.583  11.642  0.0920  0.3173  0.0078
  356TMC3    C3 5383   0.496   0.720  11.624 -0.2973 -0.1151 -0.7082
  356TMC3    C4 5384   0.329   0.625  11.826 -0.0773 -0.4215  0.0508
  356TMC3    C5 5385   0.359   0.760  11.817 -0.0934 -0.7715  0.3613
  356TMC3    C6 5386   0.442   0.810  11.714 -0.1881  0.2775  0.4595
  356TMC3     C 5387   0.290   0.454  11.667 -0.0413  0.0382 -0.0030
  356TMC3     O 5388   0.320   0.428  11.551  0.5967 -0.0302  0.2476
  356TMC3     H 5389   0.525   0.516  11.573 -1.0061 -2.2407  1.7145
  356TMC3    H1 5390   0.277   0.592  11.916  0.4303 -0.6939  0.2426
  356TMC3    H2 5391   0.447   0.918  11.703  3.0345 -0.0253 -0.7054
  356TMC3    C7 5392   0.306   0.839  11.923  0.3615  0.0411 -0.1335
  356TMC3    C8 5393   0.521   0.764  11.488 -0.0556 -0.0482  0.1243
  356TMC3    O1 5394   0.254   0.785  12.020  0.2648  0.3204  0.3652
  356TMC3    O2 5395   0.468   0.695  11.402  0.0467 -0.3604 -0.5269
  357MPD2     C 5396   3.464   0.513   1.238  0.3292 -0.0005 -0.0255
  357MPD2    C1 5397   3.541   0.461   1.133 -0.0574 -0.8555 -0.5008
  357MPD2    C2 5398   3.478   0.378   1.035  0.0236 -0.7142 -0.4748
  357MPD2    C3 5399   3.347   0.353   1.043  0.0659  0.6511  0.0182
  357MPD2    C4 5400   3.276   0.399   1.154  0.1683 -0.3858 -0.7245
  357MPD2    C5 5401   3.331   0.479   1.248 -0.5750  0.7670  0.2410
  357MPD2     H 5402   3.530   0.357   0.942 -0.8428  2.2135 -1.6121
  357MPD2    H1 5403   3.170   0.381   1.165  0.0853  0.8366  0.4068
  357MPD2    H2 5404   3.516   0.562   1.319  0.2491  2.5694 -1.5457
  357MPD2    H3 5405   3.275   0.505   1.337  0.6756 -2.6991  2.0691
  357MPD2     N 5406   3.277   0.284   0.943  0.1115 -0.3964  0.0022
  357MPD2    H5 5407   3.182   0.258   0.967 -0.2189  1.2819  0.5274
  357MPD2    N1 5408   3.678   0.495   1.134  0.5776  0.3682 -0.2309
  357MPD2    H7 5409   3.716   0.552   1.208  0.1367 -2.1139  1.9479
  358TMC3    C1 5410   3.893   0.505   1.033 -0.1655  0.3523  0.6186
  358TMC3    C2 5411   3.947   0.496   0.907  0.1767  0.6242  0.1809
  358TMC3    C3 5412   4.073   0.553   0.886  0.6615  0.9841 -0.1251
  358TMC3    C4 5413   3.955   0.571   1.134 -0.4052 -0.1305  0.3058
  358TMC3    C5 5414   4.076   0.626   1.109 -0.1017  0.7832  0.1175
  358TMC3    C6 5415   4.138   0.624   0.987  0.7247 -1.2307 -0.3177
  358TMC3     C 5416   3.763   0.434   1.042  0.2854 -0.0685 -0.1216
  358TMC3     O 5417   3.742   0.344   0.967 -0.3825 -0.0098  1.2601
  358TMC3     H 5418   3.898   0.450   0.822  0.8680 -0.4107  0.3373
  358TMC3    H1 5419   3.905   0.615   1.220 -2.0440 -0.2556 -0.5747
  358TMC3    H2 5420   4.222   0.690   0.968 -0.6338 -0.5788 -3.9227
  358TMC3    C7 5421   4.151   0.682   1.217 -0.4444  0.7379  0.3511
  358TMC3    C8 5422   4.148   0.522   0.763 -1.0691 -0.2058  0.2123
  358TMC3    O1 5423   4.087   0.724   1.319 -0.4521  0.1647  0.0700
  358TMC3    O2 5424   4.101   0.448   0.680  0.0451  0.2150 -0.6641
  359MPD2     C 5425   4.702   4.483  12.268  0.6171 -0.8646 -0.4571
  359MPD2    C1 5426   0.004   4.355  12.239 -0.3745  0.2038  0.0208
  359MPD2    C2 5427   4.677   4.255  12.316 -0.5177 -0.2932  0.3624
  359MPD2    C3 5428   4.586   4.283  12.411  0.2132 -0.4747 -1.1507
  359MPD2    C4 5429   4.550   4.411  12.436 -0.1659  0.2538 -0.6331
  359MPD2    C5 5430   4.614   4.511  12.369 -0.1737 -0.2716 -0.5948
  359MPD2     H 5431   4.709   4.155  12.287 -3.9973 -0.6203 -2.2885
  359MPD2    H1 5432   4.475   4.434  12.511  0.8400 -0.0676  0.4695
  359MPD2    H2 5433   4.732   4.571  12.212 -3.2308  1.1069  0.5857
  359MPD2    H3 5434   4.587   4.616  12.379 -0.4957 -0.3930 -0.1738
  359MPD2     N 5435   4.508   4.183  12.477 -0.1423 -0.0351  0.3828
  359MPD2    H5 5436   4.424   4.223  12.516  1.1123  2.6423  0.3849
  359MPD2    N1 5437   0.089   4.313  12.136  0.1314 -0.1615  0.0994
  359MPD2    H7 5438   0.120   4.216  12.131 -1.8921 -0.7971 -0.2481
  360TMC3    C1 5439   0.255   4.334  11.967  0.1698  0.1845  0.2385
  360TMC3    C2 5440   0.361   4.408  11.927 -0.7165  0.0067  0.0274
  360TMC3    C3 5441   0.410   4.395  11.800 -0.3533 -1.0443  0.2196
  360TMC3    C4 5442   0.205   4.240  11.883  0.4003 -0.1339  0.2067
  360TMC3    C5 5443   0.264   4.222  11.764  0.3842  0.2417 -0.5429
  360TMC3    C6 5444   0.369   4.295  11.719 -0.1247  0.9789  0.6267
  360TMC3     C 5445   0.155   4.396  12.049 -0.4158 -0.3237  0.1723
  360TMC3     O 5446   0.138   4.517  12.024 -0.1697  0.2967  0.6451
  360TMC3     H 5447   0.395   4.491  11.988 -2.8946  1.6240 -0.9531
  360TMC3    H1 5448   0.112   4.195  11.917  0.2647 -0.6732 -0.8867
  360TMC3    H2 5449   0.404   4.307  11.617  0.5007  2.4433  1.0067
  360TMC3    C7 5450   0.182   4.158  11.662  0.6060 -0.4811 -0.8677
  360TMC3    C8 5451   0.513   4.488  11.753  0.2930  0.2015  0.1062
  360TMC3    O1 5452   0.237   4.148  11.554  0.2026  0.3169  0.1599
  360TMC3    O2 5453   0.521   4.587  11.820 -0.3486 -0.0985 -0.0421
  361MPD2     C 5454   1.849   2.994  16.209 -0.1093  0.2768 -0.1133
  361MPD2    C1 5455   1.843   3.064  16.326  0.0579 -0.7716  0.3230
  361MPD2    C2 5456   1.947   3.055  16.415 -0.5955  0.1282  0.3938
  361MPD2    C3 5457   2.059   2.982  16.383 -0.1269  0.0449  0.3626
  361MPD2    C4 5458   2.059   2.907  16.261 -0.8133 -0.3601 -0.0403
  361MPD2    C5 5459   1.951   2.909  16.179 -0.3421  0.5873 -0.2229
  361MPD2     H 5460   1.943   3.116  16.504 -1.4866 -1.7321  1.5990
  361MPD2    H1 5461   2.132   2.832  16.233  0.2395  0.5605  0.2289
  361MPD2    H2 5462   1.770   2.996  16.135  1.3181 -2.0404 -1.7220
  361MPD2    H3 5463   1.957   2.856  16.084 -0.5607  0.9220 -0.4275
  361MPD2     N 5464   2.166   2.959  16.469  0.1126 -0.7715  0.5349
  361MPD2    H5 5465   2.240   2.891  16.452 -0.1538 -1.4009  1.8904
  361MPD2    N1 5466   1.734   3.153  16.360  0.6400 -0.8693 -0.8294
  361MPD2    H7 5467   1.743   3.209  16.445  1.0121 -1.1216 -0.7040
  362TMC3    C1 5468   1.511   3.253  16.350 -0.5247 -0.0330  0.1747
  362TMC3    C2 5469   1.533   3.307  16.472  0.2016 -0.6158 -0.1890
  362TMC3    C3 5470   1.442   3.402  16.515  0.0659  0.2328 -0.7331
  362TMC3    C4 5471   1.400   3.270  16.272 -0.0203 -0.9079  0.5245
  362TMC3    C5 5472   1.318   3.377  16.316 -0.6994  0.3276 -0.3782
  362TMC3    C6 5473   1.342   3.439  16.436 -0.1177  0.5317 -0.0651
  362TMC3     C 5474   1.615   3.161  16.294 -0.3642  0.4409 -0.0566
  362TMC3     O 5475   1.579   3.102  16.192  0.7888 -0.0107  0.4355
  362TMC3     H 5476   1.622   3.292  16.533  0.6865  2.0987 -0.2280
  362TMC3    H1 5477   1.384   3.221  16.176 -1.2240  0.2258  0.1419
  362TMC3    H2 5478   1.290   3.531  16.460 -2.4564 -0.8859  0.2690
  362TMC3    C7 5479   1.240   3.455  16.219  0.1937 -0.3732 -0.0615
  362TMC3    C8 5480   1.446   3.417  16.659  0.0237 -0.4406  0.3513
  362TMC3    O1 5481   1.199   3.563  16.250 -0.1129 -0.2767  0.2221
  362TMC3    O2 5482   1.535   3.363  16.722 -0.4313  0.1467 -0.4321
  363TMC3    C1 5483   0.292   1.443   9.102 -0.9098  0.0092  0.1155
  363TMC3    C2 5484   0.342   1.317   9.122  0.6405  0.2632  1.0519
  363TMC3    C3 5485   0.246   1.228   9.164  0.9091  0.2863  0.0391
  363TMC3    C4 5486   0.161   1.472   9.099 -0.0582  0.0789 -0.3343
  363TMC3    C5 5487   0.071   1.381   9.128  0.0515  0.3619  0.0114
  363TMC3    C6 5488   0.110   1.261   9.164  0.1765 -0.1882  0.2636
  363TMC3     C 5489   0.390   1.549   9.084  0.1191  0.8961  0.4213
  363TMC3     O 5490   0.502   1.521   9.039  0.2257 -0.2167  0.0253
  363TMC3     H 5491   0.445   1.309   9.155  1.1575  1.6014 -0.2399
  363TMC3    H1 5492   0.126   1.568   9.062 -0.4340 -0.4563 -1.3771
  363TMC3    H2 5493   0.045   1.189   9.211 -1.3615  1.1407  0.1786
  363TMC3    C7 5494   4.669   1.420   9.154 -0.2386 -0.1653 -0.1551
  363TMC3    C8 5495   0.275   1.146   9.278  0.3262  0.4749 -0.1034
  363TMC3    O1 5496   4.588   1.332   9.138 -0.2711 -0.2928 -0.0862
  363TMC3    O2 5497   0.199   1.160   9.374 -0.2784  0.2801  0.0584
  364MPD2     C 5498   3.537   0.124  10.216 -0.0513  0.3331  0.4048
  364MPD2    C1 5499   3.646   0.067  10.161 -0.3017 -0.1108  0.0977
  364MPD2    C2 5500   3.675   4.670  10.182  0.1895  0.2205 -0.1847
  364MPD2    C3 5501   3.582   4.595  10.254 -0.4782 -0.1188 -0.3036
  364MPD2    C4 5502   3.468   4.652  10.311 -0.7118  0.3285  0.3366
  364MPD2    C5 5503   3.456   0.049  10.300 -0.2004  0.4855  0.4265
  364MPD2     H 5504   3.763   4.634  10.130  0.0902 -1.1035  0.5609
  364MPD2    H1 5505   3.408   4.613  10.393  2.2753 -1.8033  1.4948
  364MPD2    H2 5506   3.513   0.229  10.209 -0.3685  0.3051  1.0587
  364MPD2    H3 5507   3.388   0.100  10.367  0.7446  0.5072  1.3795
  364MPD2     N 5508   3.597   4.460  10.288  0.0644  0.5142  0.4305
  364MPD2    H5 5509   3.522   4.428  10.348 -0.6823  0.9745 -0.2721
  364MPD2    N1 5510   3.725   0.154  10.081  0.3821  0.5756  0.6682
  364MPD2    H7 5511   3.706   0.253  10.093 -0.2599  0.3866  1.2311
  365TMC3    C1 5512   3.861   0.237   9.917 -0.3567  0.2933  0.5913
  365TMC3    C2 5513   3.872   0.228   9.779  0.6370  0.6676  0.1220
  365TMC3    C3 5514   3.930   0.338   9.729 -0.0322 -0.4324  0.3470
  365TMC3    C4 5515   3.891   0.347   9.989  0.2612  0.5509 -0.5135
  365TMC3    C5 5516   3.941   0.452   9.919 -0.5658  0.5418  0.2912
  365TMC3    C6 5517   3.974   0.449   9.786  0.0205 -0.3547 -0.1476
  365TMC3     C 5518   3.819   0.116   9.989  0.5254 -0.5075  0.0701
  365TMC3     O 5519   3.830   0.007   9.932 -0.3556  0.5291 -0.6030
  365TMC3     H 5520   3.859   0.133   9.729 -0.0352  1.0431 -0.4171
  365TMC3    H1 5521   3.880   0.351  10.097 -2.4731  0.2986 -0.7951
  365TMC3    H2 5522   4.010   0.540   9.740 -0.4712 -0.5525 -0.9121
  365TMC3    C7 5523   3.997   0.567   9.985  0.5258 -0.1492 -0.8373
  365TMC3    C8 5524   3.926   0.336   9.587  0.0262 -0.5171 -0.4327
  365TMC3    O1 5525   4.084   0.632   9.931 -0.0601 -0.5716  0.7815
  365TMC3    O2 5526   3.824   0.292   9.538 -0.7799  0.5750 -0.5132
  366MPD2     C 5527   1.900   1.225  15.310 -0.3818 -0.1690 -0.0783
  366MPD2    C1 5528   1.990   1.320  15.300 -0.1336  0.3921 -0.2548
  366MPD2    C2 5529   2.123   1.285  15.260  0.2820 -0.0237 -0.2033
  366MPD2    C3 5530   2.158   1.152  15.238 -0.0808 -0.5894  0.2137
  366MPD2    C4 5531   2.056   1.059  15.247  0.2749 -0.5278 -0.3397
  366MPD2    C5 5532   1.928   1.098  15.275  0.0889  0.3311  0.4450
  366MPD2     H 5533   2.201   1.360  15.266 -1.3640  1.5110  1.9001
  366MPD2    H1 5534   2.064   0.954  15.221  1.4825 -0.4864 -0.1267
  366MPD2    H2 5535   1.799   1.249  15.341 -0.4812  0.3783 -0.8132
  366MPD2    H3 5536   1.850   1.024  15.283  1.1850 -0.7787  0.8280
  366MPD2     N 5537   2.288   1.115  15.197  0.6843  0.7913 -0.3053
  366MPD2    H5 5538   2.349   1.194  15.180  0.4881  0.7587 -1.1452
  366MPD2    N1 5539   1.957   1.455  15.321 -0.0389  0.1923 -0.5393
  366MPD2    H7 5540   2.035   1.516  15.301 -0.8615  0.8453 -1.7806
  367TMC3    C1 5541   1.844   1.648  15.336 -0.5197 -0.3871 -0.4937
  367TMC3    C2 5542   1.960   1.710  15.378 -0.2190 -0.5981 -0.9104
  367TMC3    C3 5543   1.989   1.840  15.339 -0.5734 -0.3998 -0.0172
  367TMC3    C4 5544   1.761   1.706  15.245  0.2581 -0.5778  0.9952
  367TMC3    C5 5545   1.779   1.836  15.217 -0.7540 -0.2018  0.9284
  367TMC3    C6 5546   1.896   1.905  15.257  0.0863 -0.3508 -0.4198
  367TMC3     C 5547   1.834   1.509  15.337 -0.3609  0.3042 -0.5518
  367TMC3     O 5548   1.720   1.459  15.318  0.1021  0.1459 -0.3154
  367TMC3     H 5549   2.026   1.657  15.446 -0.0067  0.7457 -0.0646
  367TMC3    H1 5550   1.660   1.667  15.234  0.4027 -0.3162 -1.2293
  367TMC3    H2 5551   1.904   2.008  15.224 -0.3725  0.1256  0.9881
  367TMC3    C7 5552   1.693   1.898  15.116  0.6218  0.5457 -0.0718
  367TMC3    C8 5553   2.109   1.905  15.397 -0.2399  0.7727  0.1982
  367TMC3    O1 5554   1.656   2.014  15.133 -0.8580 -0.2081  0.2311
  367TMC3    O2 5555   2.156   1.837  15.483  0.5366  0.4612 -0.1795
  368MPD2     C 5556   3.698   2.954  12.942  0.3164  0.5995  0.5374
  368MPD2    C1 5557   3.664   3.059  12.853  0.4611 -0.3890  0.8612
  368MPD2    C2 5558   3.725   3.056  12.726 -0.1669  0.4785 -0.0146
  368MPD2    C3 5559   3.813   2.965  12.687 -0.7775 -0.1211 -0.4973
  368MPD2    C4 5560   3.852   2.872  12.774  0.0813  0.5053  0.1280
  368MPD2    C5 5561   3.790   2.859  12.900  0.2182  0.0275 -0.5965
  368MPD2     H 5562   3.696   3.126  12.649 -0.1008  1.5574  0.9355
  368MPD2    H1 5563   3.910   2.786  12.745 -0.9841 -0.2093  0.1162
  368MPD2    H2 5564   3.647   2.936  13.036  0.4882 -1.0412  0.3114
  368MPD2    H3 5565   3.818   2.773  12.959 -0.0655  0.7135  0.5289
  368MPD2     N 5566   3.859   2.953  12.552 -0.3268 -0.0588  0.3854
  368MPD2    H5 5567   3.941   2.894  12.538  0.2508  0.8232  0.0833
  368MPD2    N1 5568   3.581   3.163  12.892 -0.0256 -0.2982  0.0015
  368MPD2    H7 5569   3.525   3.138  12.973 -0.8832 -0.4402 -0.6364
  369TMC3    C1 5570   3.467   3.373  12.896 -0.3684 -0.7102 -0.4736
  369TMC3    C2 5571   3.497   3.505  12.887 -0.3903  0.2038  0.0306
  369TMC3    C3 5572   3.415   3.597  12.938  0.0513 -0.5306  0.7490
  369TMC3    C4 5573   3.347   3.322  12.948 -1.1427 -0.4875  0.4761
  369TMC3    C5 5574   3.267   3.420  13.000  0.4598  0.4689  0.3581
  369TMC3    C6 5575   3.298   3.554  13.000  0.1196  0.6282  0.0205
  369TMC3     C 5576   3.568   3.289  12.838  0.2376  0.1407 -0.0048
  369TMC3     O 5577   3.642   3.344  12.754 -0.5405  0.0362 -0.1870
  369TMC3     H 5578   3.592   3.533  12.844  0.7910 -1.9577  1.2496
  369TMC3    H1 5579   3.328   3.217  12.965 -2.2487 -0.0502  1.8752
  369TMC3    H2 5580   3.230   3.624  13.047  1.6119  1.9856  0.1577
  369TMC3    C7 5581   3.125   3.375  13.022 -0.1926 -0.4848  0.1812
  369TMC3    C8 5582   3.413   3.733  12.890  0.5880  0.1053 -0.7049
  369TMC3    O1 5583   3.097   3.256  13.025 -0.3537  0.2538  0.7183
  369TMC3    O2 5584   3.309   3.793  12.925  0.2310 -0.3256 -0.6667
  370TMC3    C1 5585   2.796   3.977  15.962 -0.3786  0.6228 -0.2494
  370TMC3    C2 5586   2.725   3.986  16.080  0.5820 -0.1813  0.3255
  370TMC3    C3 5587   2.622   3.900  16.098 -0.6239 -0.7243  0.1739
  370TMC3    C4 5588   2.784   3.874  15.874  0.4265  0.3846 -0.3360
  370TMC3    C5 5589   2.679   3.784  15.906  0.0040  0.0423 -0.2963
  370TMC3    C6 5590   2.587   3.809  16.001 -0.4203 -0.1471  0.3310
  370TMC3     C 5591   2.932   4.022  15.984 -0.0784 -0.4723 -0.4897
  370TMC3     O 5592   3.013   3.946  15.935 -0.7209  0.6784 -0.6573
  370TMC3     H 5593   2.757   4.054  16.159 -1.3677  0.3228  0.6786
  370TMC3    H1 5594   2.859   3.852  15.799  0.5797  0.9337 -0.3435
  370TMC3    H2 5595   2.517   3.729  16.024  0.4494 -0.5524  1.5869
  370TMC3    C7 5596   2.657   3.655  15.848 -0.2553  0.4156 -0.1392
  370TMC3    C8 5597   2.638   3.817  16.218  0.0651 -0.0852  1.1317
  370TMC3    O1 5598   2.542   3.608  15.847  0.6932  0.2156 -0.1227
  370TMC3    O2 5599   2.653   3.698  16.192 -0.2134  0.1827 -0.5083
  371TMC3    C1 5600   4.306   2.194  15.616 -0.6013  0.4078 -0.4209
  371TMC3    C2 5601   4.247   2.243  15.733 -0.0757  0.5812  0.1304
  371TMC3    C3 5602   4.196   2.367  15.729  0.3977 -0.2484  0.3121
  371TMC3    C4 5603   4.336   2.266  15.510  0.1967 -0.1157  0.7226
  371TMC3    C5 5604   4.302   2.396  15.520 -0.8014 -0.5051  0.2597
  371TMC3    C6 5605   4.224   2.446  15.620 -0.0109 -0.7105  0.0284
  371TMC3     C 5606   4.360   2.061  15.634 -0.1107  0.2203 -0.4026
  371TMC3     O 5607   4.468   2.037  15.582  0.1243  0.2050 -0.0889
  371TMC3     H 5608   4.225   2.179  15.817  1.3808  1.0845  0.9026
  371TMC3    H1 5609   4.381   2.226  15.419  2.3235 -1.3588  2.3175
  371TMC3    H2 5610   4.172   2.541  15.617 -0.5903 -1.0175  0.4689
  371TMC3    C7 5611   4.288   2.477  15.403  0.3088 -0.1222 -0.2689
  371TMC3    C8 5612   4.061   2.362  15.795  0.1846  0.4141  0.7141
  371TMC3    O1 5613   4.196   2.556  15.407 -0.0622  0.2194 -0.3478
  371TMC3    O2 5614   4.011   2.255  15.812  0.5509 -0.2103  0.1828
  372MPD2     C 5615   3.681   3.791  13.118  0.4768  0.2753 -0.6741
  372MPD2    C1 5616   3.699   3.664  13.168  0.1499  0.8314 -0.3353
  372MPD2    C2 5617   3.638   3.642  13.293 -0.0159 -0.1568  0.1044
  372MPD2    C3 5618   3.561   3.738  13.360  0.3016  0.5668  0.7130
  372MPD2    C4 5619   3.550   3.856  13.303  0.6936  0.7783 -0.4719
  372MPD2    C5 5620   3.606   3.887  13.186 -0.1284 -0.2734 -0.3860
  372MPD2     H 5621   3.640   3.543  13.337  0.3787 -0.2969 -0.2367
  372MPD2    H1 5622   3.518   3.949  13.350  0.1040  0.5373 -0.3998
  372MPD2    H2 5623   3.740   3.835  13.038  0.3274 -0.0912 -0.9845
  372MPD2    H3 5624   3.600   3.983  13.136  0.2668 -0.2162 -0.3244
  372MPD2     N 5625   3.501   3.719  13.482 -0.1072  0.0125  1.3643
  372MPD2    H5 5626   3.537   3.634  13.525 -2.5238 -0.2058  2.9068
  372MPD2    N1 5627   3.766   3.558  13.106  0.0949  0.0083  0.0998
  372MPD2    H7 5628   3.766   3.466  13.148 -0.8279  1.0625  2.4120
  373TMC3    C1 5629   3.346   3.746  13.663 -0.9703  0.8170 -0.7081
  373TMC3    C2 5630   3.442   3.741  13.759 -0.0091  0.5511  0.1264
  373TMC3    C3 5631   3.390   3.734  13.888 -0.0103  0.3202  0.0216
  373TMC3    C4 5632   3.213   3.748  13.687 -0.2722 -0.1273  1.2533
  373TMC3    C5 5633   3.167   3.763  13.808 -1.6430 -0.7463  0.4795
  373TMC3    C6 5634   3.254   3.748  13.912  0.6108 -0.5343 -0.0656
  373TMC3     C 5635   3.391   3.783  13.526  0.0919 -0.3969  0.4907
  373TMC3     O 5636   3.329   3.872  13.477  0.2694 -0.2743  0.1744
  373TMC3     H 5637   3.544   3.765  13.731  0.5532 -0.7032  1.1027
  373TMC3    H1 5638   3.147   3.735  13.602  1.9931 -1.5477 -0.3135
  373TMC3    H2 5639   3.215   3.748  14.013  0.2308 -0.7024 -0.2121
  373TMC3    C7 5640   3.028   3.729  13.831 -0.1412 -0.4535  0.2472
  373TMC3    C8 5641   3.473   3.726  14.010  0.5126 -0.0177 -0.3450
  373TMC3    O1 5642   2.945   3.822  13.812 -0.0988 -0.0710 -0.2907
  373TMC3    O2 5643   3.415   3.699  14.117  1.1211  0.2374 -0.0440
  374TMC3    C1 5644   4.261   3.288   9.684  0.2239  0.4106 -0.4723
  374TMC3    C2 5645   4.341   3.377   9.617 -0.2530  0.4587  0.4795
  374TMC3    C3 5646   4.280   3.483   9.550 -0.2294 -0.1795  0.1812
  374TMC3    C4 5647   4.124   3.299   9.675  0.4766  0.0591 -0.2103
  374TMC3    C5 5648   4.069   3.403   9.605  0.0420 -0.0890 -0.0350
  374TMC3    C6 5649   4.145   3.500   9.543 -0.3487 -0.2587 -0.2524
  374TMC3     C 5650   4.328   3.163   9.709  0.0510  0.2560  0.5173
  374TMC3     O 5651   4.443   3.174   9.746 -0.0229  0.2355 -0.0276
  374TMC3     H 5652   4.447   3.357   9.610 -0.4572 -0.3413 -0.2384
  374TMC3    H1 5653   4.058   3.231   9.728  1.8882 -1.7899 -0.8130
  374TMC3    H2 5654   4.098   3.582   9.491 -2.6897 -0.4885  1.4735
  374TMC3    C7 5655   3.932   3.428   9.627 -0.5783 -0.7369 -0.0827
  374TMC3    C8 5656   4.360   3.605   9.536 -0.3635  0.0378  0.0683
  374TMC3    O1 5657   3.879   3.383   9.731 -0.3701 -0.2233 -0.2316
  374TMC3    O2 5658   4.305   3.704   9.494 -0.1141  0.0443 -0.1635
  375MPD2     C 5659   4.079   3.578  16.726  0.0080 -0.5181  0.2721
  375MPD2    C1 5660   4.096   3.711  16.697 -0.5110  0.8753  0.1951
  375MPD2    C2 5661   4.212   3.754  16.628  0.0317 -1.0005  0.3051
  375MPD2    C3 5662   4.301   3.661  16.581 -1.3600 -0.2617  0.3486
  375MPD2    C4 5663   4.290   3.529  16.617  0.5518  0.6868 -0.5464
  375MPD2    C5 5664   4.183   3.495  16.689 -0.3344  0.1260 -0.0441
  375MPD2     H 5665   4.215   3.861  16.606  0.9579 -1.0746  0.0778
  375MPD2    H1 5666   4.366   3.457  16.588 -0.0763 -0.0094 -0.4743
  375MPD2    H2 5667   3.986   3.546  16.772 -0.6670  0.4242 -0.4237
  375MPD2    H3 5668   4.172   3.392  16.720 -2.2673  0.4937  0.4969
  375MPD2     N 5669   4.401   3.685  16.480  0.3644  0.5041  0.2381
  375MPD2    H5 5670   4.459   3.610  16.443 -2.0953  0.1117 -2.7760
  375MPD2    N1 5671   3.993   3.812  16.729 -0.3873 -0.2810  0.4416
  375MPD2    H7 5672   4.022   3.905  16.701 -1.2450 -0.2498 -0.3519
  376TMC3    C1 5673   4.478   3.790  16.287  0.1811  0.2335  0.9515
  376TMC3    C2 5674   4.591   3.712  16.287  0.0261 -0.2876  0.4174
  376TMC3    C3 5675   4.660   3.690  16.169 -0.2281 -0.5320 -0.4409
  376TMC3    C4 5676   4.423   3.836  16.174 -0.3902  0.0009 -0.0528
  376TMC3    C5 5677   4.493   3.811  16.055 -0.7093  0.2307  0.0642
  376TMC3    C6 5678   4.606   3.728  16.052 -0.4292  0.0705  0.4399
  376TMC3     C 5679   4.403   3.807  16.408 -0.0359  0.0348 -0.1470
  376TMC3     O 5680   4.340   3.912  16.419  0.2656  0.1273 -0.6107
  376TMC3     H 5681   4.644   3.703  16.381  0.0832 -0.1540  0.3974
  376TMC3    H1 5682   4.329   3.888  16.184 -0.1074  0.8135 -1.5722
  376TMC3    H2 5683   4.659   3.699  15.962 -0.4796 -1.3528  0.8797
  376TMC3    C7 5684   4.451   3.885  15.936  0.0137 -0.1968 -0.4327
  376TMC3    C8 5685   0.075   3.701  16.159  0.4367 -0.4286 -0.1452
  376TMC3    O1 5686   4.354   3.954  15.941 -0.0315 -0.7339  0.3718
  376TMC3    O2 5687   0.131   3.753  16.062 -0.3378  0.4592 -0.5000
  377MPD2     C 5688   1.866   4.038  13.078 -0.2722  0.4458 -0.2917
  377MPD2    C1 5689   1.985   3.977  13.032 -0.3810 -0.2468  0.0622
  377MPD2    C2 5690   2.070   3.925  13.121  0.0580 -0.5116  0.7358
  377MPD2    C3 5691   2.041   3.933  13.254  0.2653 -0.6885  0.0062
  377MPD2    C4 5692   1.925   3.994  13.293  0.1709 -0.2766  0.1882
  377MPD2    C5 5693   1.829   4.040  13.202 -0.2476 -0.2475  0.2553
  377MPD2     H 5694   2.160   3.873  13.090  1.4589  1.5079  1.4157
  377MPD2    H1 5695   1.880   3.995  13.392  1.6848 -1.7099  0.8865
  377MPD2    H2 5696   1.798   4.085  13.008 -1.2549 -0.0043  0.3577
  377MPD2    H3 5697   1.729   4.074  13.227  1.0550  1.7059  2.8403
  377MPD2     N 5698   2.118   3.862  13.347  0.1880  0.0920 -0.0991
  377MPD2    H5 5699   2.199   3.822  13.303  0.0668  1.8259 -1.8969
  377MPD2    N1 5700   2.010   3.966  12.890 -0.1639 -0.3485  0.6142
  377MPD2    H7 5701   1.931   3.983  12.828  1.9360 -0.1426 -2.0256
  378TMC3    C1 5702   1.988   3.873  12.498  0.0817  0.6164  0.5992
  378TMC3    C2 5703   1.991   3.884  12.638  0.0987 -0.5384 -0.6411
  378TMC3    C3 5704   2.109   3.935  12.690  0.0492  0.3907  0.4051
  378TMC3    C4 5705   2.087   3.902  12.416 -0.3571  0.7785 -1.0269
  378TMC3    C5 5706   2.198   3.962  12.480  0.0867  0.0750 -1.0200
  378TMC3    C6 5707   2.207   3.970  12.614  0.5048 -0.0089 -0.4957
  378TMC3     C 5708   1.852   3.869  12.442  0.1062  0.2094 -0.0992
  378TMC3     O 5709   1.764   3.929  12.505 -0.3806 -0.8733  0.2179
  378TMC3     H 5710   1.909   3.840  12.692  2.0394 -0.8177  2.0862
  378TMC3    H1 5711   2.067   3.898  12.309 -1.4102 -2.1934 -0.7228
  378TMC3    H2 5712   2.287   4.023  12.665 -0.4553  0.4579  0.5373
  378TMC3    C7 5713   2.321   3.999  12.417 -0.0593  0.2202  0.7569
  378TMC3    C8 5714   2.132   3.937  12.830  0.4487 -0.6181 -0.2471
  378TMC3    O1 5715   2.405   4.057  12.480 -0.0067  0.2132  0.0686
  378TMC3    O2 5716   2.239   3.959  12.883 -0.0729  0.1405 -0.4690
  379MPD2     C 5717   3.378   1.994  15.893  0.9188  0.0327  0.2144
  379MPD2    C1 5718   3.270   1.996  15.973  0.1606 -0.0161 -0.2908
  379MPD2    C2 5719   3.271   1.940  16.099 -0.1513 -0.3658 -0.1251
  379MPD2    C3 5720   3.387   1.885  16.146  0.5207 -1.3418 -0.5434
  379MPD2    C4 5721   3.497   1.881  16.059 -0.0408  0.1399 -0.3699
  379MPD2    C5 5722   3.492   1.928  15.929  0.9338  0.1581  0.8679
  379MPD2     H 5723   3.187   1.936  16.168  1.1023 -0.8331  1.3880
  379MPD2    H1 5724   3.598   1.851  16.086  0.0530  0.1864 -0.6685
  379MPD2    H2 5725   3.374   2.017  15.787 -2.2282  0.2486  0.3973
  379MPD2    H3 5726   3.573   1.923  15.858 -0.4683  0.2530 -0.7493
  379MPD2     N 5727   3.407   1.828  16.270 -0.3796 -0.6578  0.1863
  379MPD2    H5 5728   3.492   1.776  16.288 -0.6254 -1.1371 -0.0342
  379MPD2    N1 5729   3.149   2.031  15.912 -0.5405  0.3551  0.4236
  379MPD2    H7 5730   3.146   2.036  15.811  1.3385 -0.3313  0.3199
  380TMC3    C1 5731   2.921   2.000  15.865  0.1310 -0.3413 -0.0223
  380TMC3    C2 5732   2.938   1.874  15.828 -0.4845  0.0817  0.1680
  380TMC3    C3 5733   2.874   1.832  15.715  0.3964 -0.3483 -0.4259
  380TMC3    C4 5734   2.827   2.085  15.815  0.0199 -0.1921 -0.1769
  380TMC3    C5 5735   2.754   2.041  15.709  0.3503 -0.6488  0.1591
  380TMC3    C6 5736   2.773   1.910  15.666 -0.3276 -0.7211  0.0820
  380TMC3     C 5737   3.018   2.032  15.968 -0.3536 -1.2923  0.0343
  380TMC3     O 5738   2.990   2.003  16.083  0.5191 -0.0881 -0.2387
  380TMC3     H 5739   3.022   1.821  15.870  0.7016  0.4885 -1.6891
  380TMC3    H1 5740   2.832   2.190  15.842  0.0709  0.2953 -2.0739
  380TMC3    H2 5741   2.723   1.878  15.575  0.9004 -1.6276 -0.2688
  380TMC3    C7 5742   2.658   2.126  15.645 -0.5933  0.2083 -0.1573
  380TMC3    C8 5743   2.957   1.783  15.603 -0.1004  0.1071  0.6076
  380TMC3    O1 5744   2.704   2.241  15.637  0.8470 -0.6587  0.4927
  380TMC3    O2 5745   2.913   1.787  15.492  0.3261  0.1443 -0.8360
  381TMC3    C1 5746   2.661   3.070  16.069 -0.1931  0.4428  0.6127
  381TMC3    C2 5747   2.741   3.167  16.019  0.2431 -0.0988  0.0853
  381TMC3    C3 5748   2.759   3.281  16.090 -0.2064  0.3523 -0.3047
  381TMC3    C4 5749   2.599   3.081  16.191  0.0912  0.7074 -0.1081
  381TMC3    C5 5750   2.618   3.196  16.263  0.3242 -0.2529  0.3803
  381TMC3    C6 5751   2.693   3.295  16.210 -0.2256 -0.1863 -0.0462
  381TMC3     C 5752   2.655   2.944  15.997 -0.5689 -0.7512 -0.3913
  381TMC3     O 5753   2.570   2.868  16.037  0.1052  0.1247  0.5114
  381TMC3     H 5754   2.784   3.160  15.919 -1.9287 -2.9329 -0.6508
  381TMC3    H1 5755   2.555   2.994  16.237  0.8990  1.0655  1.3307
  381TMC3    H2 5756   2.707   3.387  16.266  1.1805  0.1726 -0.9979
  381TMC3    C7 5757   2.593   3.175  16.401  0.3140  0.5531 -0.5724
  381TMC3    C8 5758   2.888   3.352  16.058 -0.3728  0.4403  0.1719
  381TMC3    O1 5759   2.597   3.059  16.444  0.0242 -0.3082  0.4444
  381TMC3    O2 5760   2.977   3.289  15.995 -0.1328  0.1639 -0.3796
  382MPD2     C 5761   2.011   0.497  17.475  0.1854  0.7912 -0.3366
  382MPD2    C1 5762   1.926   0.445  17.571  0.3678  0.2953 -0.5258
  382MPD2    C2 5763   1.865   0.321  17.550 -0.4834  0.7987  0.7089
  382MPD2    C3 5764   1.893   0.254  17.432  0.9310 -0.2995  0.1062
  382MPD2    C4 5765   1.993   0.302  17.347  0.0852 -0.4933 -0.1719
  382MPD2    C5 5766   2.054   0.421  17.371  0.2672 -0.1534  0.0056
  382MPD2     H 5767   1.797   0.281  17.625 -0.1706  2.1738  1.7238
  382MPD2    H1 5768   2.044   0.247  17.269 -0.0880 -2.0400  0.8032
  382MPD2    H2 5769   2.060   0.593  17.488 -2.0900  1.8137  0.6860
  382MPD2    H3 5770   2.118   0.463  17.294  1.2825  0.7287  1.3340
  382MPD2     N 5771   1.850   0.121  17.397  0.5148  0.0988 -0.1711
  382MPD2    H5 5772   1.897   0.079  17.317 -2.3237 -2.2095 -0.6016
  382MPD2    N1 5773   1.901   0.512  17.694 -0.2920 -0.2375 -0.4758
  382MPD2    H7 5774   1.833   0.464   0.016  0.7320  0.4042  1.2693
  383TMC3    C1 5775   1.752   4.649  17.423 -0.1055  0.2023 -0.0753
  383TMC3    C2 5776   1.709   4.656  17.293  0.1874 -0.2786  0.0309
  383TMC3    C3 5777   1.708   4.536  17.226  0.5818 -0.7820 -0.1772
  383TMC3    C4 5778   1.778   4.534  17.490 -0.1165  0.3424  0.8463
  383TMC3    C5 5779   1.764   4.417  17.421  0.6456  0.2088  0.0335
  383TMC3    C6 5780   1.726   4.415  17.288  0.0583 -0.1537 -0.1164
  383TMC3     C 5781   1.790   0.042  17.487 -0.1828  0.0962  0.2943
  383TMC3     O 5782   1.776   0.048  17.607  0.4144  0.5473  0.0099
  383TMC3     H 5783   1.677   0.016  17.248  0.8688  0.5048  1.1961
  383TMC3    H1 5784   1.804   4.538  17.595 -0.5931 -2.2250  1.0487
  383TMC3    H2 5785   1.700   4.322  17.239  0.7184 -0.3798 -0.0372
  383TMC3    C7 5786   1.783   4.286  17.493 -0.1838  0.5316  0.0015
  383TMC3    C8 5787   1.633   4.530  17.108  0.2664  0.0050 -0.2029
  383TMC3    O1 5788   1.782   4.284  17.618 -0.0137 -0.3433 -0.2473
  383TMC3    O2 5789   1.544   4.610  17.090 -0.0918 -0.3144  0.3912
  384MPD2     C 5790   3.053   1.909  11.336  0.2423  0.3427 -0.0264
  384MPD2    C1 5791   3.120   1.863  11.445 -0.5010  0.1135  0.1431
  384MPD2    C2 5792   3.230   1.780  11.419 -0.2741  0.0227 -0.2452
  384MPD2    C3 5793   3.263   1.753  11.291 -0.8224 -0.0623 -0.1782
  384MPD2    C4 5794   3.201   1.813  11.186  0.2949  0.6295 -0.4682
  384MPD2    C5 5795   3.095   1.891  11.208  0.6292 -0.8616  0.1511
  384MPD2     H 5796   3.288   1.739  11.501  0.4296  0.4467 -0.5368
  384MPD2    H1 5797   3.230   1.792  11.084  1.3472  1.8254 -0.4156
  384MPD2    H2 5798   2.962   1.960  11.364  0.5687  0.0702  1.5227
  384MPD2    H3 5799   3.032   1.915  11.123 -0.3678  2.1111  1.7300
  384MPD2     N 5800   3.392   1.702  11.266 -0.7007  0.2586 -0.0825
  384MPD2    H5 5801   3.440   1.723  11.179 -0.5364 -0.5006 -0.1731
  384MPD2    N1 5802   3.101   1.897  11.580 -0.2218 -0.1221 -0.0831
  384MPD2    H7 5803   3.151   1.839  11.647 -1.5483 -0.6982  0.4016
  385TMC3    C1 5804   3.587   1.583  11.329  0.2702  0.2917 -0.3269
  385TMC3    C2 5805   3.623   1.448  11.345  0.2266 -0.4353 -1.0579
  385TMC3    C3 5806   3.743   1.415  11.405 -0.4871 -0.4525  0.0291
  385TMC3    C4 5807   3.660   1.676  11.405  0.5068  0.0486  0.3784
  385TMC3    C5 5808   3.757   1.633  11.490  0.2775 -0.3563  0.3582
  385TMC3    C6 5809   3.803   1.503  11.490  0.3227 -0.5484 -0.6739
  385TMC3     C 5810   3.440   1.594  11.334 -0.5997  0.7417  0.3432
  385TMC3     O 5811   3.382   1.515  11.405  0.5045 -0.3016  0.1600
  385TMC3     H 5812   3.563   1.370  11.297 -1.4281 -0.7570  1.5572
  385TMC3    H1 5813   3.623   1.778  11.414  0.7537  0.1712 -0.0113
  385TMC3    H2 5814   3.890   1.476  11.548 -0.2106 -1.4214 -0.2767
  385TMC3    C7 5815   3.721   1.682  11.623 -0.1952 -0.8741 -0.4745
  385TMC3    C8 5816   3.756   1.269  11.433  0.0483 -0.7272  0.1249
  385TMC3    O1 5817   3.687   1.798  11.638 -0.3094 -0.1010 -0.2712
  385TMC3    O2 5818   3.844   1.244  11.512  0.0729  0.0979 -0.0034
  386TMC3    C1 5819   3.850   3.582  11.821  0.2659  0.6219 -0.6121
  386TMC3    C2 5820   3.874   3.653  11.708 -0.0717  1.0640  0.3907
  386TMC3    C3 5821   3.766   3.735  11.670  0.0131 -0.1645 -0.0189
  386TMC3    C4 5822   3.727   3.579  11.879  0.0773  0.3805 -0.2056
  386TMC3    C5 5823   3.633   3.669  11.855 -0.0237  0.2710 -0.1423
  386TMC3    C6 5824   3.646   3.748  11.740 -0.0868 -0.2359  0.1071
  386TMC3     C 5825   3.943   3.475  11.851 -0.0598 -0.4893  0.2977
  386TMC3     O 5826   3.901   3.362  11.834  0.0449  0.2632 -0.4983
  386TMC3     H 5827   3.965   3.634  11.652 -0.0811 -3.4300  1.8839
  386TMC3    H1 5828   3.719   3.516  11.967 -0.8379  1.3972  0.4537
  386TMC3    H2 5829   3.589   3.836  11.713 -0.7344 -0.5452  0.4531
  386TMC3    C7 5830   3.554   3.712  11.962 -0.0406  0.6239  0.1644
  386TMC3    C8 5831   3.766   3.790  11.536  0.2636 -0.1927 -0.4984
  386TMC3    O1 5832   3.522   3.832  11.956  0.1598 -0.6038 -0.0994
  386TMC3    O2 5833   3.659   3.822  11.484  0.0230  0.4522  0.1744
  387MPD2     C 5834   1.554   4.177  10.008  0.0079 -1.0222  0.1580
  387MPD2    C1 5835   1.539   4.115  10.133 -0.6208  0.3791 -0.0307
  387MPD2    C2 5836   1.524   3.977  10.142  0.1800  0.0109  0.2395
  387MPD2    C3 5837   1.533   3.902  10.030 -0.0539  0.2691  0.2093
  387MPD2    C4 5838   1.548   3.959   9.906  0.5542 -0.5334 -0.7267
  387MPD2    C5 5839   1.558   4.098   9.899  0.3397  0.8679 -0.0505
  387MPD2     H 5840   1.534   3.927  10.238 -2.4525  1.5644  1.3430
  387MPD2    H1 5841   1.559   3.909   9.810 -2.7362 -2.9455  0.1640
  387MPD2    H2 5842   1.560   4.284   9.992  1.6260 -0.8728  1.7474
  387MPD2    H3 5843   1.598   4.144   9.809 -0.1334  2.6720  0.6583
  387MPD2     N 5844   1.546   3.768  10.053  0.6943  0.5160 -0.7193
  387MPD2    H5 5845   1.532   3.735  10.148 -0.9938 -1.9767 -1.8169
  387MPD2    N1 5846   1.537   4.181  10.258 -0.2482  0.4751 -0.0539
  387MPD2    H7 5847   1.529   4.119  10.339  3.2110  0.5108  0.3101
  388TMC3    C1 5848   1.625   4.320  10.422  0.4830 -0.1035 -0.0868
  388TMC3    C2 5849   1.630   4.447  10.482  0.2032 -0.0234 -0.2422
  388TMC3    C3 5850   1.690   4.450  10.607  0.2575 -0.5580  0.5833
  388TMC3    C4 5851   1.670   4.204  10.486  0.6206  0.6766  0.1774
  388TMC3    C5 5852   1.720   4.218  10.614  0.2872  0.6690 -0.1880
  388TMC3    C6 5853   1.741   4.348  10.675  0.2772 -0.1853  0.1637
  388TMC3     C 5854   1.569   4.308  10.285  0.1098  0.2292  0.2669
  388TMC3     O 5855   1.543   4.413  10.220  0.0327  0.3798  0.4702
  388TMC3     H 5856   1.622   4.540  10.427 -0.1917 -0.8664 -1.5951
  388TMC3    H1 5857   1.658   4.108  10.437  2.1585  0.3806  0.3910
  388TMC3    H2 5858   1.796   4.355  10.768 -0.3640 -1.6915  0.6678
  388TMC3    C7 5859   1.790   4.108  10.668  0.1520  0.0967 -0.3209
  388TMC3    C8 5860   1.705   4.576  10.679  0.0127  0.1221 -0.7816
  388TMC3    O1 5861   1.892   4.120  10.739 -0.3363  0.5503 -0.4625
  388TMC3    O2 5862   1.746   4.566  10.791 -0.2898 -0.0599 -0.7334
  389MPD2     C 5863   0.698   2.159  10.504  0.3759  0.3942  0.0718
  389MPD2    C1 5864   0.627   2.074  10.420  0.4602  0.2956 -0.5235
  389MPD2    C2 5865   0.555   1.959  10.466  0.6789  0.7916  0.1116
  389MPD2    C3 5866   0.561   1.932  10.598  0.8627 -0.4064  0.0025
  389MPD2    C4 5867   0.639   2.003  10.682 -0.4401 -0.1588  0.0321
  389MPD2    C5 5868   0.703   2.115  10.636  0.2652  0.2926 -0.2392
  389MPD2     H 5869   0.510   1.888  10.397  0.9177  0.3197  0.4418
  389MPD2    H1 5870   0.652   1.979  10.787  2.3577 -1.5846 -0.6485
  389MPD2    H2 5871   0.758   2.242  10.470  1.2934 -0.1225  0.4064
  389MPD2    H3 5872   0.752   2.178  10.710  1.1770 -0.5595 -0.1153
  389MPD2     N 5873   0.494   1.825  10.659  0.1363 -0.5651  0.0333
  389MPD2    H5 5874   0.509   1.827  10.759 -0.4124 -1.5277  0.1310
  389MPD2    N1 5875   0.627   2.109  10.283 -0.1776 -0.0197  0.1762
  389MPD2    H7 5876   0.692   2.184  10.262 -1.6809  1.1498 -0.2733
  390TMC3    C1 5877   0.341   1.647  10.701 -0.7650 -0.0989  0.0405
  390TMC3    C2 5878   0.393   1.643  10.829  0.7615 -0.0749 -0.3765
  390TMC3    C3 5879   0.306   1.609  10.925 -0.3337  1.1898 -1.3533
  390TMC3    C4 5880   0.214   1.603  10.669  0.2855  0.4425 -0.2155
  390TMC3    C5 5881   0.134   1.580  10.773  0.6988 -0.7436 -0.8916
  390TMC3    C6 5882   0.177   1.583  10.906  0.1689  0.4213  0.4031
  390TMC3     C 5883   0.413   1.735  10.602  0.1831  0.4645  0.4285
  390TMC3     O 5884   0.386   1.717  10.484 -0.0422 -0.6874 -0.0414
  390TMC3     H 5885   0.496   1.669  10.846  0.8335 -0.0003 -0.9177
  390TMC3    H1 5886   0.178   1.616  10.567 -2.7504 -1.0503  0.6528
  390TMC3    H2 5887   0.106   1.587  10.988  0.9187 -1.7543  1.1578
  390TMC3    C7 5888   0.023   1.493  10.747  0.0976  0.3386  0.5337
  390TMC3    C8 5889   0.369   1.563  11.045  0.0862 -0.3651  0.5901
  390TMC3    O1 5890   0.022   1.429  10.643 -0.1237 -0.2601 -0.6253
  390TMC3    O2 5891   0.457   1.478  11.035 -0.0288  0.2183  0.7414
  391MPD2     C 5892   0.063   3.575  11.039  0.2638 -0.1361 -0.3208
  391MPD2    C1 5893   0.190   3.605  10.990  1.0205  0.1842 -0.2221
  391MPD2    C2 5894   0.201   3.641  10.859  0.0758 -0.2612  0.2564
  391MPD2    C3 5895   0.093   3.652  10.777  0.4952 -0.8321 -0.5499
  391MPD2    C4 5896   4.704   3.615  10.820 -0.6796  0.4047 -0.0161
  391MPD2    C5 5897   4.695   3.584  10.956 -0.3200 -0.7140 -0.2174
  391MPD2     H 5898   0.302   3.666  10.828  0.4405 -0.3966  1.3075
  391MPD2    H1 5899   4.615   3.607  10.759 -0.7593  1.9241 -0.0923
  391MPD2    H2 5900   0.045   3.550  11.143 -2.7294  1.6680 -0.4404
  391MPD2    H3 5901   4.601   3.558  11.006 -0.6417  0.4415 -0.2317
  391MPD2     N 5902   0.122   3.684  10.638  0.4469 -0.3146 -0.7288
  391MPD2    H5 5903   0.220   3.707  10.623 -0.1801  1.5560 -1.9514
  391MPD2    N1 5904   0.293   3.611  11.088 -0.2281 -0.0296 -0.1729
  391MPD2    H7 5905   0.263   3.624  11.184  1.3932  0.2000  0.3062
  392TMC3    C1 5906   0.108   3.687  10.394 -0.0516  0.2269 -0.1677
  392TMC3    C2 5907   0.020   3.709  10.294 -0.2594 -0.1520  0.7130
  392TMC3    C3 5908   0.052   3.775  10.181  0.1490 -0.0536 -0.7910
  392TMC3    C4 5909   0.223   3.755  10.393 -0.3336 -0.9458  0.3300
  392TMC3    C5 5910   0.249   3.830  10.284  0.8544 -0.4754  0.2244
  392TMC3    C6 5911   0.179   3.830  10.167 -0.0090 -0.3755  0.4979
  392TMC3     C 5912   0.043   3.658  10.526 -0.2208  1.3616 -0.2568
  392TMC3     O 5913   4.673   3.590  10.523 -0.3184  0.4791 -0.2253
  392TMC3     H 5914   4.660   3.655  10.304  0.2015 -0.9954  0.5250
  392TMC3    H1 5915   0.286   3.766  10.480 -0.4707  1.0787  0.1884
  392TMC3    H2 5916   0.212   3.885  10.080 -2.4358 -1.6596 -1.2609
  392TMC3    C7 5917   0.366   3.913  10.290  0.0385 -0.0884 -0.0906
  392TMC3    C8 5918   4.703   3.760  10.063  0.1898 -0.0785 -0.4276
  392TMC3    O1 5919   0.418   3.933  10.400  0.1487  0.4884  0.0479
  392TMC3    O2 5920   4.601   3.690  10.082 -0.0108 -0.3427 -0.4197
  393TMC3    C1 5921   3.724   1.664  10.260 -0.0893  0.2359 -0.4708
  393TMC3    C2 5922   3.601   1.600  10.265  0.7441  0.0742  0.2369
  393TMC3    C3 5923   3.602   1.460  10.259  0.2685 -0.5298  0.4337
  393TMC3    C4 5924   3.837   1.598  10.230 -0.4374  0.7688 -0.2832
  393TMC3    C5 5925   3.828   1.463  10.205 -0.1660  0.0331 -0.1413
  393TMC3    C6 5926   3.712   1.393  10.218 -0.4013  0.0028 -0.1963
  393TMC3     C 5927   3.723   1.808  10.267 -0.5507 -0.3800  0.5637
  393TMC3     O 5928   3.621   1.865  10.230 -0.1780  0.0728  0.1431
  393TMC3     H 5929   3.513   1.656  10.296 -0.3385 -1.4963 -0.0236
  393TMC3    H1 5930   3.925   1.661  10.222  2.1550 -2.8628 -0.2498
  393TMC3    H2 5931   3.708   1.285  10.215  2.8701 -0.0689 -1.6913
  393TMC3    C7 5932   3.948   1.391  10.167  0.4586  0.1927  0.4224
  393TMC3    C8 5933   3.481   1.381  10.271  0.0534 -0.0046 -0.4161
  393TMC3    O1 5934   3.930   1.279  10.126 -0.3450  0.4168  0.1581
  393TMC3    O2 5935   3.465   1.283  10.200 -0.3184  0.0910  0.0619
  394TMC3    C1 5936   0.601   2.097  10.053 -0.2713 -0.6365  0.4392
  394TMC3    C2 5937   0.595   2.022   9.937  0.1917 -0.6836  0.1375
  394TMC3    C3 5938   0.642   2.072   9.824 -0.0446  0.4173 -0.1535
  394TMC3    C4 5939   0.652   2.224  10.046 -0.0776 -0.3791  0.2129
  394TMC3    C5 5940   0.713   2.267   9.930  0.5377 -0.2197 -0.8330
  394TMC3    C6 5941   0.706   2.194   9.817  0.5784  0.1526  0.0574
  394TMC3     C 5942   0.559   2.043  10.181 -0.2677  0.5076 -0.1266
  394TMC3     O 5943   0.481   1.951  10.191  0.4916  0.7396  0.4070
  394TMC3     H 5944   0.535   1.931   9.933  1.0947 -1.0735 -4.0962
  394TMC3    H1 5945   0.647   2.290  10.132  2.5901  0.8083 -0.5466
  394TMC3    H2 5946   0.763   2.213   9.727  0.2003 -0.7617 -0.3697
  394TMC3    C7 5947   0.776   2.397   9.920  0.3398  1.0645  0.3193
  394TMC3    C8 5948   0.656   1.992   9.711 -0.2393  1.2523 -1.0099
  394TMC3    O1 5949   0.716   2.490   9.973 -0.5778 -0.2962 -0.5302
  394TMC3    O2 5950   0.656   2.045   9.604 -0.2723  0.5054  0.1258
  395TMC3    C1 5951   0.903   4.145  14.631 -0.2848 -0.3599  0.2961
  395TMC3    C2 5952   0.826   4.135  14.518 -0.1509  0.4763  0.1236
  395TMC3    C3 5953   0.872   4.204  14.416 -0.1120  0.1110  0.2308
  395TMC3    C4 5954   1.013   4.233  14.647  0.2807  0.4607  0.1921
  395TMC3    C5 5955   1.055   4.299  14.537 -0.5819  0.3549  0.1074
  395TMC3    C6 5956   0.984   4.289  14.415  0.6738 -0.3572 -0.7114
  395TMC3     C 5957   0.824   4.108  14.753 -0.7286 -0.0734 -0.2246
  395TMC3     O 5958   0.856   4.166  14.855 -0.0543 -0.4297  0.1045
  395TMC3     H 5959   0.732   4.082  14.522 -0.2329  0.8699  3.1380
  395TMC3    H1 5960   1.062   4.231  14.743  0.7425 -0.4595 -0.0617
  395TMC3    H2 5961   0.996   4.347  14.325 -1.7522  1.3210  0.0523
  395TMC3    C7 5962   1.111   4.424  14.585  0.8018 -0.4479 -0.9355
  395TMC3    C8 5963   0.776   4.222  14.307 -0.8051 -0.4065 -0.1443
  395TMC3    O1 5964   1.154   4.433  14.701 -0.3875  0.2443  0.1659
  395TMC3    O2 5965   0.794   4.319  14.228  0.1459  0.1898  0.3352
  396MPD2     C 5966   0.522   0.324  17.002 -0.1097  0.6557 -0.4428
  396MPD2    C1 5967   0.634   0.376  17.069 -0.4832  0.6345  0.1885
  396MPD2    C2 5968   0.700   0.483  17.023 -0.4228  0.3016  0.2232
  396MPD2    C3 5969   0.660   0.548  16.913  0.5611  0.6936  0.4137
  396MPD2    C4 5970   0.535   0.505  16.857  0.0680  0.2643 -0.0259
  396MPD2    C5 5971   0.471   0.394  16.896 -0.7977 -0.4776  0.0590
  396MPD2     H 5972   0.791   0.513  17.075 -0.3565  0.7778 -0.1686
  396MPD2    H1 5973   0.488   0.566  16.779 -1.6398 -1.5884 -0.4502
  396MPD2    H2 5974   0.476   0.230  17.027  1.1893 -0.5453 -2.6272
  396MPD2    H3 5975   0.390   0.356  16.834  1.2562 -2.4196 -1.4205
  396MPD2     N 5976   0.725   0.666  16.880  0.4046  0.2390  0.1033
  396MPD2    H5 5977   0.808   0.687  16.934 -0.9508  3.1838  1.0458
  396MPD2    N1 5978   0.696   0.311  17.174  0.2028 -0.1728 -0.3583
  396MPD2    H7 5979   0.790   0.342  17.198 -0.2502  0.4058  0.6661
  397TMC3    C1 5980   0.756   0.137  17.304 -0.3274  0.1780 -0.1980
  397TMC3    C2 5981   0.856   0.108  17.217 -0.2721  0.1803  0.3529
  397TMC3    C3 5982   0.900   4.714  17.214  0.3969 -0.2133  0.2281
  397TMC3    C4 5983   0.714   0.038  17.389 -0.3324 -0.2809  0.2264
  397TMC3    C5 5984   0.767   4.644  17.391  0.1329 -0.7394 -0.2844
  397TMC3    C6 5985   0.866   4.616  17.302  0.2178 -0.0132  0.3955
  397TMC3     C 5986   0.646   0.199  17.240  0.7116  0.3918 -0.1461
  397TMC3     O 5987   0.538   0.144  17.235 -0.4593 -0.7126 -0.2001
  397TMC3     H 5988   0.873   0.180  17.138  1.6536 -0.1045  0.4897
  397TMC3    H1 5989   0.630   0.066  17.452 -0.7280 -0.3137 -0.2835
  397TMC3    H2 5990   0.921   4.523  17.306 -0.7410 -0.5002  2.1364
  397TMC3    C7 5991   0.745   4.556  17.496  0.0167  0.1932 -0.3199
  397TMC3    C8 5992   0.933   4.677  17.079 -0.4627  0.2354 -0.2987
  397TMC3    O1 5993   0.772   4.438  17.471 -0.3421 -0.2581  0.0055
  397TMC3    O2 5994   0.829   4.627  17.027 -0.5256  0.0818  0.8645
  398MPD2     C 5995   3.068   1.841  17.677 -0.6471  0.5745 -0.7554
  398MPD2    C1 5996   3.147   1.753   0.015  0.0507 -0.1758  0.2680
  398MPD2    C2 5997   3.269   1.795   0.063 -0.0712 -0.3350  0.1700
  398MPD2    C3 5998   3.317   1.912   0.020  0.1810  0.0678 -0.4515
  398MPD2    C4 5999   3.233   2.005  17.690  0.3728  0.2444 -0.0008
  398MPD2    C5 6000   3.110   1.965  17.637  0.0116  0.9705  0.3005
  398MPD2     H 6001   3.335   1.736   0.125 -0.7872  0.2385  1.4898
  398MPD2    H1 6002   3.264   2.104  17.658  0.1486  0.4809  0.5161
  398MPD2    H2 6003   2.964   1.812  17.668 -0.1444 -1.4671 -0.0147
  398MPD2    H3 6004   3.047   2.039  17.589 -1.3173 -0.7030 -0.5291
  398MPD2     N 6005   3.444   1.942   0.069 -0.2420  0.0322  0.1511
  398MPD2    H5 6006   3.499   1.870   0.114 -0.3303  0.4333  0.9075
  398MPD2    N1 6007   3.096   1.628   0.063  0.1854 -1.2255  0.0616
  398MPD2    H7 6008   3.161   1.561   0.102  1.2396 -0.4230 -0.3371
  399TMC3    C1 6009   2.936   1.455   0.109 -0.0042 -0.4519  0.0526
  399TMC3    C2 6010   3.011   1.425   0.213  0.0486 -0.6581 -0.2878
  399TMC3    C3 6011   2.983   1.307   0.275  0.2373  0.3208  0.0009
  399TMC3    C4 6012   2.840   1.373   0.064  0.6312 -0.0377 -0.1175
  399TMC3    C5 6013   2.812   1.251   0.130 -0.4332  0.1521 -0.1938
  399TMC3    C6 6014   2.896   1.210   0.234 -0.0239  0.3052  0.6028
  399TMC3     C 6015   2.971   1.573   0.028  0.2266  0.5312  0.0951
  399TMC3     O 6016   2.893   1.601  17.671  0.1429  0.2039 -0.2277
  399TMC3     H 6017   3.076   1.497   0.261 -1.3665  0.5329 -0.1576
  399TMC3    H1 6018   2.786   1.400  17.709 -0.0841  0.9073  0.6025
  399TMC3    H2 6019   2.890   1.116   0.288 -1.7973  0.5470  0.8185
  399TMC3    C7 6020   2.701   1.164   0.095  0.4494 -0.4436  0.2607
  399TMC3    C8 6021   3.080   1.276   0.382 -0.2907 -0.0600 -0.3805
  399TMC3    O1 6022   2.712   1.062   0.162 -1.0537  0.3452 -0.2269
  399TMC3    O2 6023   3.134   1.369   0.439  0.2671  0.0030  0.2449
  400TMC3    C1 6024   1.808   4.375  16.467 -0.2247  0.1428 -0.3163
  400TMC3    C2 6025   1.702   4.415  16.391 -0.1973  0.7601 -0.6050
  400TMC3    C3 6026   1.646   4.540  16.413  0.4310 -0.2431  0.1349
  400TMC3    C4 6027   1.846   4.445  16.570  0.3606 -0.4303  0.5588
  400TMC3    C5 6028   1.793   4.570  16.594 -0.1257 -0.1113  0.5800
  400TMC3    C6 6029   1.688   4.615  16.519 -0.2046 -0.3857 -0.1824
  400TMC3     C 6030   1.849   4.234  16.448  0.6026 -0.1671  0.2496
  400TMC3     O 6031   1.763   4.165  16.398  0.2434 -0.0496  0.0938
  400TMC3     H 6032   1.657   4.361  16.308  0.3257 -0.6905  0.0623
  400TMC3    H1 6033   1.932   4.410  16.627  0.7464 -0.1842  0.1338
  400TMC3    H2 6034   1.657   4.718  16.516 -2.0933 -0.9692 -0.5180
  400TMC3    C7 6035   1.852   4.661  16.692  0.5874 -0.1746 -0.4822
  400TMC3    C8 6036   1.534   4.595  16.339  0.6773 -0.0554  0.2680
  400TMC3    O1 6037   1.965   4.626  16.724  0.4510  0.2958 -0.3947
  400TMC3    O2 6038   1.480   4.696  16.385  0.6701 -0.1146 -0.3779
  401MPD2     C 6039   4.177   3.089  17.427 -0.0008 -0.0976 -0.6507
  401MPD2    C1 6040   4.222   3.016  17.537 -0.1916 -0.5576  0.2328
  401MPD2    C2 6041   4.241   2.879  17.516  0.6291  0.4506 -0.6478
  401MPD2    C3 6042   4.235   2.821  17.394 -0.6945 -0.3698  0.6692
  401MPD2    C4 6043   4.189   2.891  17.286 -0.7721 -0.1312 -0.1472
  401MPD2    C5 6044   4.170   3.024  17.305 -0.2676 -0.4829 -0.2321
  401MPD2     H 6045   4.268   2.816  17.600  0.4272  2.1678  0.7128
  401MPD2    H1 6046   4.185   2.839  17.191 -0.9876  0.6586 -0.5754
  401MPD2    H2 6047   4.160   3.196  17.422  1.5582  0.2855  2.0267
  401MPD2    H3 6048   4.152   3.092  17.222 -0.1787  1.1212  1.0490
  401MPD2     N 6049   4.262   2.682  17.399  0.2553 -0.6624 -0.4552
  401MPD2    H5 6050   4.293   2.638  17.485 -2.7430 -0.7026  0.6005
  401MPD2    N1 6051   4.262   3.071  17.657 -0.9739 -0.2216 -0.1209
  401MPD2    H7 6052   4.307   3.011  17.725 -1.0983 -1.2578 -0.9542
  402TMC3    C1 6053   4.293   2.468  17.316 -0.3798  0.7881 -0.4252
  402TMC3    C2 6054   4.216   2.414  17.415  0.4674  0.3288  0.5843
  402TMC3    C3 6055   4.258   2.293  17.456  0.9374 -0.1469 -0.0669
  402TMC3    C4 6056   4.409   2.428  17.264  0.4386  0.0334 -0.0359
  402TMC3    C5 6057   4.438   2.303  17.307 -0.3043  0.5988  0.1360
  402TMC3    C6 6058   4.362   2.234  17.398  0.0075 -0.2332  0.1580
  402TMC3     C 6059   4.256   2.599  17.292 -0.1026 -0.5365 -0.2070
  402TMC3     O 6060   4.216   2.606  17.178  0.1461  0.6823  0.0788
  402TMC3     H 6061   4.131   2.460  17.465  0.3492 -1.2794  1.8733
  402TMC3    H1 6062   4.471   2.470  17.185  0.6084  0.4769  0.3355
  402TMC3    H2 6063   4.400   2.137  17.428  0.1307 -0.2352 -0.0000
  402TMC3    C7 6064   4.584   2.275  17.306 -0.2661  0.0045  0.3354
  402TMC3    C8 6065   4.264   2.279  17.599  0.2228  1.0414  0.6811
  402TMC3    O1 6066   4.650   2.301  17.205  0.6767  0.2920 -0.0880
  402TMC3    O2 6067   4.378   2.257  17.639 -0.0413 -0.3252 -0.8231
  403MPD2     C 6068   2.659   1.935  13.725 -0.1138  0.2884  0.2722
  403MPD2    C1 6069   2.780   1.871  13.701 -0.5608 -0.0665 -0.3594
  403MPD2    C2 6070   2.895   1.909  13.774  0.3061 -0.2181  0.0444
  403MPD2    C3 6071   2.883   2.006  13.868 -0.3103  1.0675  0.3745
  403MPD2    C4 6072   2.756   2.053  13.907  0.5137  0.1376  0.1777
  403MPD2    C5 6073   2.648   2.025  13.834  0.0646  0.2442 -0.7664
  403MPD2     H 6074   2.988   1.856  13.758  1.7483  1.6416  2.3770
  403MPD2    H1 6075   2.746   2.121  13.990  0.1715  0.8572 -0.4444
  403MPD2    H2 6076   2.574   1.912  13.662 -0.8300  0.4682  1.1916
  403MPD2    H3 6077   2.555   2.080  13.849 -0.9088 -1.4769 -0.5207
  403MPD2     N 6078   2.994   2.047  13.937  0.3714 -0.2709  0.5308
  403MPD2    H5 6079   3.076   1.995  13.906  1.4668  1.2724  0.8428
  403MPD2    N1 6080   2.778   1.770  13.596 -0.9051  0.1955 -0.1090
  403MPD2    H7 6081   2.688   1.730  13.573 -0.1686 -0.4359 -1.8959
  404TMC3    C1 6082   2.879   1.624  13.454 -0.2419  0.0885  0.1767
  404TMC3    C2 6083   2.849   1.516  13.533  0.0559  0.1934 -0.3806
  404TMC3    C3 6084   2.868   1.399  13.470 -0.0116 -0.0149 -0.1957
  404TMC3    C4 6085   2.938   1.619  13.336  0.1311  0.0081  0.6410
  404TMC3    C5 6086   2.933   1.501  13.267  0.2681 -1.2766 -0.2475
  404TMC3    C6 6087   2.888   1.387  13.335  0.1115  0.4618  0.0470
  404TMC3     C 6088   2.896   1.735  13.531 -0.2745 -0.0182  0.5868
  404TMC3     O 6089   3.002   1.789  13.528  0.6052 -0.5218 -0.4869
  404TMC3     H 6090   2.831   1.516  13.639  0.5553  1.6143 -0.2949
  404TMC3    H1 6091   2.980   1.705  13.285 -1.3177 -0.3871 -1.1934
  404TMC3    H2 6092   2.913   1.297  13.282 -0.1982  0.8466 -0.7479
  404TMC3    C7 6093   2.923   1.518  13.124 -0.3636 -0.0692 -0.1631
  404TMC3    C8 6094   2.944   1.305  13.547 -0.0303  0.7768  0.1936
  404TMC3    O1 6095   2.957   1.626  13.088 -0.4130 -0.3911 -0.5943
  404TMC3    O2 6096   3.048   1.265  13.492  0.6538  1.0490 -0.3941
  405MPD2     C 6097   3.747   2.732  14.972  0.0839 -0.1685  0.2161
  405MPD2    C1 6098   3.719   2.622  14.901 -0.0067 -0.0947 -1.0147
  405MPD2    C2 6099   3.631   2.625  14.799  0.5803  0.7110 -0.0640
  405MPD2    C3 6100   3.557   2.735  14.779  0.7084 -0.3203 -0.2353
  405MPD2    C4 6101   3.576   2.844  14.850 -0.1769 -0.2251 -0.1766
  405MPD2    C5 6102   3.676   2.845  14.945 -0.0555  0.4699 -0.5700
  405MPD2     H 6103   3.604   2.534  14.746 -0.5855  0.0835  1.6422
  405MPD2    H1 6104   3.520   2.937  14.844  1.5943  0.8819  0.4121
  405MPD2    H2 6105   3.817   2.732  15.054 -0.5575 -0.6109  0.7650
  405MPD2    H3 6106   3.700   2.940  14.992 -0.6089 -0.3377  1.3809
  405MPD2     N 6107   3.464   2.724  14.669  0.4821  0.0775 -0.0569
  405MPD2    H5 6108   3.468   2.642  14.610  0.9542  0.8253 -1.0604
  405MPD2    N1 6109   3.788   2.500  14.925  0.5613 -0.4833  0.4026
  405MPD2    H7 6110   3.774   2.422  14.862  0.5530 -2.5076  2.9120
  406TMC3    C1 6111   3.057   2.742  14.471  0.0258  0.3555  0.1490
  406TMC3    C2 6112   3.072   2.609  14.450  0.5635  0.0143 -0.1856
  406TMC3    C3 6113   3.197   2.554  14.467  0.0684  0.5028 -0.8628
  406TMC3    C4 6114   3.165   2.812  14.514  0.5614 -0.1755 -0.4407
  406TMC3    C5 6115   3.289   2.753  14.530 -0.2480 -0.2150 -0.1312
  406TMC3    C6 6116   3.305   2.620  14.503 -0.3590  0.3288 -0.5257
  406TMC3     C 6117   2.929   2.791  14.522 -0.6720  0.1976  0.9270
  406TMC3     O 6118   2.900   2.910  14.491  0.9007  0.1708  0.5368
  406TMC3     H 6119   2.987   2.549  14.421  0.1926 -0.0290  0.9719
  406TMC3    H1 6120   3.143   2.911  14.552 -0.2691 -0.2821 -0.6332
  406TMC3    H2 6121   3.400   2.567  14.508 -1.5534 -1.7351  0.3755
  406TMC3    C7 6122   3.365   2.813  14.642 -0.2941 -0.3250 -0.1614
  406TMC3    C8 6123   3.191   2.412  14.490 -0.3177 -0.3026 -0.5346
  406TMC3    O1 6124   3.344   2.922  14.690 -0.4909  0.1259 -0.1339
  406TMC3    O2 6125   3.122   2.339  14.421  0.1584  0.2338 -0.2282
  407MPD2     C 6126   1.080   3.791   9.718 -0.4152  0.1538  1.1089
  407MPD2    C1 6127   1.191   3.871   9.719  0.2326 -0.3204 -0.4157
  407MPD2    C2 6128   1.188   3.995   9.778 -0.2119 -0.2171 -0.3148
  407MPD2    C3 6129   1.069   4.033   9.849  0.1886 -0.0353  0.4551
  407MPD2    C4 6130   0.961   3.944   9.848 -0.0236  0.5607  0.4314
  407MPD2    C5 6131   0.965   3.834   9.776  0.1635 -0.5467  0.0092
  407MPD2     H 6132   1.275   4.058   9.785  0.5488 -1.4021  0.8153
  407MPD2    H1 6133   0.871   3.978   9.899 -0.3308 -0.1589  0.3652
  407MPD2    H2 6134   1.058   3.690   9.683 -0.5515  0.7450 -0.4830
  407MPD2    H3 6135   0.883   3.764   9.768 -0.3644  0.0988 -0.1748
  407MPD2     N 6136   1.065   4.146   9.926 -0.7789  0.2201 -0.4487
  407MPD2    H5 6137   1.124   4.222   9.894 -0.9591  0.1734 -0.8954
  407MPD2    N1 6138   1.305   3.834   9.651  0.0742  0.2210 -0.5448
  407MPD2    H7 6139   1.380   3.902   9.660 -1.0861  1.5960 -1.1537
  408TMC3    C1 6140   1.460   3.682   9.551  0.1336  0.3930 -0.0997
  408TMC3    C2 6141   1.495   3.547   9.553  0.8635 -0.2501  0.2177
  408TMC3    C3 6142   1.627   3.522   9.551  0.3709 -0.3504 -0.2706
  408TMC3    C4 6143   1.552   3.782   9.527  1.0349 -0.1502 -0.1992
  408TMC3    C5 6144   1.684   3.747   9.512  0.4739 -0.9301 -0.2978
  408TMC3    C6 6145   1.723   3.617   9.529 -0.2954  0.1945  0.8441
  408TMC3     C 6146   1.329   3.709   9.588 -0.7178  0.0761  0.3482
  408TMC3     O 6147   1.243   3.621   9.574 -0.5469 -0.0772 -0.3446
  408TMC3     H 6148   1.428   3.469   9.588  0.9651 -0.6987 -0.5758
  408TMC3    H1 6149   1.517   3.885   9.532  0.3821 -0.2937 -1.6417
  408TMC3    H2 6150   1.827   3.589   9.511  0.2006  1.0423  2.4352
  408TMC3    C7 6151   1.781   3.841   9.571  0.7908 -0.3520 -0.6633
  408TMC3    C8 6152   1.668   3.403   9.624  0.0777 -0.1457  0.3104
  408TMC3    O1 6153   1.878   3.786   9.627  0.1037 -0.2668 -0.2734
  408TMC3    O2 6154   1.607   3.298   9.619 -0.3917  0.0039  0.1425
  409MPD2     C 6155   0.459   4.241  16.837 -0.2916 -0.0907  0.2609
  409MPD2    C1 6156   0.585   4.190  16.849 -0.4851  0.1823 -0.2671
  409MPD2    C2 6157   0.692   4.265  16.797  0.2427 -0.5190  0.0851
  409MPD2    C3 6158   0.674   4.389  16.742 -0.3351  0.0055  0.2054
  409MPD2    C4 6159   0.543   4.437  16.730 -0.1833 -0.3576 -0.2985
  409MPD2    C5 6160   0.438   4.359  16.773  0.1692  0.3424  0.5372
  409MPD2     H 6161   0.791   4.220  16.794  0.7653  0.6053  0.3435
  409MPD2    H1 6162   0.543   4.525  16.667 -0.4003  0.8120  1.3320
  409MPD2    H2 6163   0.369   4.184  16.856 -1.1118  0.3616 -2.2794
  409MPD2    H3 6164   0.339   4.398  16.748  0.3681  0.8094  0.4696
  409MPD2     N 6165   0.781   4.461  16.697  0.0895 -0.3681  0.6006
  409MPD2    H5 6166   0.753   4.546  16.648  1.8395 -0.7177 -1.0120
  409MPD2    N1 6167   0.613   4.066  16.909  0.1431 -0.0054 -0.1674
  409MPD2    H7 6168   0.708   4.031  16.900  0.0910 -1.0362  3.3847
  410TMC3    C1 6169   0.998   4.513  16.618  0.1211  0.6085 -0.1640
  410TMC3    C2 6170   1.125   4.515  16.652  0.5208 -0.2378  0.3565
  410TMC3    C3 6171   1.201   4.615  16.599 -0.3570  0.4326 -0.6238
  410TMC3    C4 6172   0.948   4.598  16.534 -0.4817  0.2632  0.9312
  410TMC3    C5 6173   1.029   4.684  16.465  0.1441 -0.3086 -0.0281
  410TMC3    C6 6174   1.159   4.698  16.499  0.2417  0.8400 -0.7583
  410TMC3     C 6175   0.919   4.420  16.693 -0.7194  0.3337 -0.2328
  410TMC3     O 6176   0.979   4.329  16.747  0.4015  0.4095  0.3913
  410TMC3     H 6177   1.158   4.450  16.732 -0.3424 -0.0483  0.8721
  410TMC3    H1 6178   0.849   4.580  16.494 -0.5906  0.4602  1.1149
  410TMC3    H2 6179   1.233   0.025  16.450  1.0249 -0.2696 -0.9616
  410TMC3    C7 6180   0.979   4.726  16.336 -0.4369 -0.4353 -0.1847
  410TMC3    C8 6181   1.339   4.606  16.648 -0.0303  0.1297  0.6269
  410TMC3    O1 6182   0.886   4.664  16.288 -0.0676  0.5870  0.0182
  410TMC3    O2 6183   1.401   4.707  16.681  0.0400  0.0616  0.2952
  411MPD2     C 6184   0.919   0.473  14.290  0.6529 -0.0004 -0.0656
  411MPD2    C1 6185   0.901   0.509  14.425 -0.6663 -0.1096  0.1030
  411MPD2    C2 6186   0.891   0.402  14.515 -0.3057 -0.3814 -0.4509
  411MPD2    C3 6187   0.885   0.271  14.468 -0.1257 -0.3121  0.3343
  411MPD2    C4 6188   0.895   0.240  14.337 -0.8581  0.5539  0.9388
  411MPD2    C5 6189   0.911   0.340  14.248 -0.4112  0.2141  0.0986
  411MPD2     H 6190   0.874   0.423  14.620 -3.3205 -1.5378 -0.7284
  411MPD2    H1 6191   0.866   0.144  14.296 -0.9658  0.6342  0.8259
  411MPD2    H2 6192   0.922   0.547  14.210  0.7274  0.7417  0.6274
  411MPD2    H3 6193   0.926   0.319  14.142  2.1980  0.8188  0.3493
  411MPD2     N 6194   0.852   0.162  14.558 -0.3219 -0.1448 -0.3843
  411MPD2    H5 6195   0.864   0.071  14.513 -0.1156 -0.6195  0.6240
  411MPD2    N1 6196   0.866   0.644  14.459 -0.2445 -0.3041 -0.3890
  411MPD2    H7 6197   0.839   0.698  14.378  0.4164  1.5571  0.6239
  412TMC3    C1 6198   0.759   0.015  14.715 -0.0307 -0.6486  0.1016
  412TMC3    C2 6199   0.631   0.032  14.756  0.2168 -0.2785 -0.5832
  412TMC3    C3 6200   0.548   4.680  14.687 -0.3277  0.4587 -0.7845
  412TMC3    C4 6201   0.812   4.647  14.642  0.6864  0.4448  0.7907
  412TMC3    C5 6202   0.724   4.573  14.569  0.5956 -0.8355  0.6704
  412TMC3    C6 6203   0.590   4.584  14.600 -0.0627 -0.6256  0.4234
  412TMC3     C 6204   0.808   0.150  14.687 -0.3783  0.3153 -0.0215
  412TMC3     O 6205   0.797   0.238  14.769  0.1604  0.7188 -0.4897
  412TMC3     H 6206   0.589   0.114  14.813  0.8634  1.3556 -2.4656
  412TMC3    H1 6207   0.917   4.630  14.622  1.2610  1.3616  3.0897
  412TMC3    H2 6208   0.524   4.525  14.536 -1.2916  0.7779  0.3924
  412TMC3    C7 6209   0.750   4.593  14.429 -0.0123 -0.3524 -0.0561
  412TMC3    C8 6210   0.413   4.717  14.655 -0.0632  0.6897  0.7330
  412TMC3    O1 6211   0.868   4.595  14.396  0.1091  0.0003 -0.4826
  412TMC3    O2 6212   0.382   4.693  14.543 -0.0069 -0.4626  0.6760
  413MPD2     C 6213   2.389   3.364  15.391  0.3073  0.8585 -0.3485
  413MPD2    C1 6214   2.363   3.229  15.362  0.4256  0.8435 -0.6078
  413MPD2    C2 6215   2.453   3.165  15.286  0.1629 -0.1954 -0.2804
  413MPD2    C3 6216   2.558   3.232  15.225 -0.4735 -0.5582 -0.1328
  413MPD2    C4 6217   2.580   3.366  15.250  0.1992 -0.0047 -0.3405
  413MPD2    C5 6218   2.498   3.431  15.337 -0.0230  0.0525 -0.2393
  413MPD2     H 6219   2.443   3.062  15.255 -2.4208  0.8503 -2.8803
  413MPD2    H1 6220   2.666   3.421  15.215  1.1748 -0.3134  1.6097
  413MPD2    H2 6221   2.328   3.412  15.466 -1.6624 -2.0502 -0.0944
  413MPD2    H3 6222   2.519   3.533  15.365 -0.7034  0.0443  0.3021
  413MPD2     N 6223   2.651   3.167  15.139  0.3182 -0.0676  0.2603
  413MPD2    H5 6224   2.739   3.215  15.121  0.7864 -0.0741  2.6046
  413MPD2    N1 6225   2.254   3.158  15.421 -0.3541 -0.0983 -0.5946
  413MPD2    H7 6226   2.257   3.056  15.426 -2.7031 -0.0021  2.4682
  414TMC3    C1 6227   2.751   3.012  14.987  0.0638 -0.2481  0.5186
  414TMC3    C2 6228   2.783   2.879  14.970  0.5672 -0.2893  0.0654
  414TMC3    C3 6229   2.913   2.862  14.920  0.4623  0.5582 -0.1298
  414TMC3    C4 6230   2.820   3.116  14.930  0.4685 -0.4141 -0.7430
  414TMC3    C5 6231   2.937   3.080  14.864  0.0061 -0.4505  0.3043
  414TMC3    C6 6232   2.986   2.956  14.867 -0.2108 -0.0549 -0.5103
  414TMC3     C 6233   2.638   3.049  15.077  1.0947 -0.8088 -0.4926
  414TMC3     O 6234   2.539   2.975  15.065 -0.3981  0.1941 -0.0703
  414TMC3     H 6235   2.723   2.801  15.016 -0.8796 -0.1988 -1.6666
  414TMC3    H1 6236   2.780   3.217  14.924  0.5932 -0.5211 -3.6862
  414TMC3    H2 6237   3.082   2.938  14.821  0.7224 -0.0381  1.4341
  414TMC3    C7 6238   3.033   3.187  14.818  0.7626 -0.1639 -0.1774
  414TMC3    C8 6239   2.981   2.735  14.940  0.4838  0.3937 -0.8441
  414TMC3    O1 6240   3.138   3.153  14.764  0.5592  0.0471  0.2318
  414TMC3    O2 6241   2.914   2.634  14.922  0.0294 -0.1195  0.3278
  415TMC3    C1 6242   3.276   0.862  10.081 -0.6031 -0.2842  0.5975
  415TMC3    C2 6243   3.341   0.899   9.970  0.0018 -0.4966  0.8607
  415TMC3    C3 6244   3.335   0.816   9.861  0.2787 -1.5252 -0.4880
  415TMC3    C4 6245   3.191   0.759  10.093 -0.7882 -0.9071  0.4562
  415TMC3    C5 6246   3.178   0.676   9.980  0.2451 -0.1664 -0.0347
  415TMC3    C6 6247   3.248   0.708   9.866 -0.3493 -0.6698  0.7122
  415TMC3     C 6248   3.299   0.934  10.206  0.5728  0.1788  0.6189
  415TMC3     O 6249   3.197   0.938  10.276 -0.0371  0.3225 -0.3948
  415TMC3     H 6250   3.388   0.997   9.977  0.8818 -0.8165 -0.7681
  415TMC3    H1 6251   3.142   0.746  10.189 -2.0538 -3.0071 -0.4553
  415TMC3    H2 6252   3.247   0.644   9.779 -3.0742 -2.3000  1.9674
  415TMC3    C7 6253   3.137   0.531  10.001 -0.2017  0.5826  0.4718
  415TMC3    C8 6254   3.404   0.837   9.738  0.2859  0.0502 -0.4181
  415TMC3    O1 6255   3.118   0.461   9.903 -0.2962 -0.3195  0.1236
  415TMC3    O2 6256   3.391   0.749   9.655 -0.4252  0.6112  0.0672
  416MPD2     C 6257   0.146   4.716  11.025 -0.0119 -0.9011  0.3890
  416MPD2    C1 6258   0.103   4.640  11.128 -0.2960 -0.2608 -0.0254
  416MPD2    C2 6259   0.093   4.499  11.121 -0.0125  0.1550  0.5078
  416MPD2    C3 6260   0.139   4.441  11.006  0.3558 -0.2719 -0.1795
  416MPD2    C4 6261   0.199   4.518  10.906  0.0330  0.5205  0.4413
  416MPD2    C5 6262   0.193   4.657  10.912 -0.2959 -0.0246 -0.1834
  416MPD2     H 6263   0.042   4.446  11.201  2.9775 -3.6069 -0.0948
  416MPD2    H1 6264   0.226   4.479  10.809 -2.1530 -2.5555  1.0635
  416MPD2    H2 6265   0.139   0.090  11.021 -0.3795 -0.9207  0.5186
  416MPD2    H3 6266   0.218   4.706  10.819 -0.2257 -1.1129 -0.7470
  416MPD2     N 6267   0.130   4.305  10.994 -0.3247 -0.0142  0.1449
  416MPD2    H5 6268   0.099   4.254  11.076  0.9602 -0.5252  0.3184
  416MPD2    N1 6269   0.039   4.711  11.237 -0.1832  0.2322  0.8394
  416MPD2    H7 6270   0.009   0.073  11.223  0.8235  0.1742 -1.8961
  417TMC3    C1 6271   4.615   0.002  11.407  0.2762 -0.7800  0.0501
  417TMC3    C2 6272   4.598   0.007  11.544  0.2625  0.1850  0.3085
  417TMC3    C3 6273   4.484   0.068  11.590  0.3490  0.1938 -0.4374
  417TMC3    C4 6274   4.528   0.063  11.323 -0.0169 -0.5118  0.1592
  417TMC3    C5 6275   4.423   0.134  11.366  0.3390  0.1604 -0.0982
  417TMC3    C6 6276   4.397   0.133  11.503  0.3978  0.1336  0.0201
  417TMC3     C 6277   4.727   4.659  11.359 -0.1321  0.1089 -0.2682
  417TMC3     O 6278   0.027   4.553  11.408 -0.7313 -0.0464  0.3129
  417TMC3     H 6279   4.671   4.692  11.607 -0.4755 -0.6358  0.5211
  417TMC3    H1 6280   4.530   0.037  11.217  0.7231  0.5773 -0.0970
  417TMC3    H2 6281   4.325   0.200  11.547 -1.6247 -2.4021  0.5579
  417TMC3    C7 6282   4.322   0.173  11.271 -0.2918  0.3483  0.4304
  417TMC3    C8 6283   4.461   0.090  11.733 -0.8415 -0.0874  0.0771
  417TMC3    O1 6284   4.363   0.194  11.156  0.1938  0.0533 -0.4431
  417TMC3    O2 6285   4.361   0.147  11.765  0.4079  0.1483 -0.7172
  418TMC3    C1 6286   3.865   2.008   0.074 -0.1454  0.2136 -0.0801
  418TMC3    C2 6287   3.751   2.073   0.039 -0.8588  1.2535 -0.1253
  418TMC3    C3 6288   3.643   2.048   0.120  0.2231 -0.2102  0.1170
  418TMC3    C4 6289   3.875   1.917   0.175 -0.0450 -0.4181 -0.3311
  418TMC3    C5 6290   3.766   1.909   0.254  0.9842  0.1271  0.3226
  418TMC3    C6 6291   3.648   1.971   0.225 -0.6030  0.3240 -0.2295
  418TMC3     C 6292   3.944   1.988  17.688 -0.6351 -0.5255 -0.3879
  418TMC3     O 6293   3.952   2.075  17.603 -0.0916  0.0532  0.8046
  418TMC3     H 6294   3.746   2.121  17.677 -0.4161  1.2384 -0.1583
  418TMC3    H1 6295   3.960   1.849   0.182  0.2449 -0.0718 -0.4669
  418TMC3    H2 6296   3.559   1.946   0.282 -1.1456  0.2592 -1.1065
  418TMC3    C7 6297   3.782   1.836   0.376  0.0669  0.2058  0.3618
  418TMC3    C8 6298   3.509   2.065   0.071 -1.0519  0.2252 -0.2228
  418TMC3    O1 6299   3.684   1.785   0.428  0.1726  0.0921  0.5496
  418TMC3    O2 6300   3.470   2.175   0.034 -0.2526  0.0030  0.3636
  419MPD2     C 6301   1.754   4.677  12.703 -0.1426  0.5829  0.2003
  419MPD2    C1 6302   1.657   0.024  12.753  0.0672 -0.1804  0.0367
  419MPD2    C2 6303   1.659   0.071  12.881  0.5419  0.2471  0.6654
  419MPD2    C3 6304   1.767   0.047  12.965  0.4932  0.4075  0.2094
  419MPD2    C4 6305   1.868   4.702  12.924 -0.2380 -0.0581 -0.0163
  419MPD2    C5 6306   1.859   4.657  12.793  0.1842  0.2886 -0.2286
  419MPD2     H 6307   1.583   0.139  12.917 -1.0977 -0.7933 -0.8679
  419MPD2    H1 6308   1.951   4.678  12.990 -0.8104 -2.5030 -0.1969
  419MPD2    H2 6309   1.756   4.632  12.604 -1.4734 -0.4702  0.6501
  419MPD2    H3 6310   1.929   4.579  12.765  0.1374  0.4276 -0.7201
  419MPD2     N 6311   1.776   0.124  13.085  0.2593  0.7295 -0.8212
  419MPD2    H5 6312   1.719   0.207  13.092  0.7052  1.1431 -2.0389
  419MPD2    N1 6313   1.545   0.068  12.673  0.2611 -1.0277  0.5270
  419MPD2    H7 6314   1.492   0.149  12.705 -0.9375 -1.1803 -1.0743
  420TMC3    C1 6315   1.885   0.212  13.283 -0.1479  0.4002 -0.4347
  420TMC3    C2 6316   1.852   0.338  13.248 -0.1638  1.2949 -0.9421
  420TMC3    C3 6317   1.868   0.434  13.339  0.0184  0.0973  0.1816
  420TMC3    C4 6318   1.951   0.176  13.397 -0.0695  0.5668  0.4892
  420TMC3    C5 6319   1.957   0.274  13.489  0.4115  0.4290 -0.3630
  420TMC3    C6 6320   1.915   0.401  13.464 -0.1172  0.3107 -0.3255
  420TMC3     C 6321   1.867   0.109  13.186  0.6150 -0.9723  0.0912
  420TMC3     O 6322   1.941   0.015  13.203 -0.2723  0.2394 -0.0719
  420TMC3     H 6323   1.797   0.359  13.157 -1.5005 -0.1070 -0.4640
  420TMC3    H1 6324   1.975   0.072  13.414 -0.3103  0.1128 -1.9582
  420TMC3    H2 6325   1.900   0.477  13.540  0.0510  0.1783 -0.1602
  420TMC3    C7 6326   2.015   0.241  13.617 -0.8966 -0.6318  0.3587
  420TMC3    C8 6327   1.775   0.544  13.327 -0.6121  0.2859  0.1235
  420TMC3    O1 6328   2.046   0.127  13.639 -0.2014  0.1246  0.1433
  420TMC3    O2 6329   1.668   0.528  13.268  0.3047 -0.1097  0.3687
  421TMC3    C1 6330   3.133   2.122  14.105  0.1659 -0.1415  0.5893
  421TMC3    C2 6331   3.190   2.243  14.129 -0.5636  0.0050  1.1789
  421TMC3    C3 6332   3.321   2.236  14.160  0.4888 -0.0899  0.4750
  421TMC3    C4 6333   3.209   2.004  14.094 -0.4745  0.1095  0.7179
  421TMC3    C5 6334   3.346   2.005  14.126 -0.0200 -0.1901  0.5942
  421TMC3    C6 6335   3.399   2.120  14.170  0.2788  0.3593  0.9971
  421TMC3     C 6336   3.001   2.135  14.042 -0.2064 -0.5114  0.2844
  421TMC3     O 6337   2.927   2.214  14.103  0.3604  0.2651 -0.3522
  421TMC3     H 6338   3.133   2.336  14.132 -0.9908 -0.1073 -3.1465
  421TMC3    H1 6339   3.161   1.909  14.073  1.8875 -0.2411 -3.0738
  421TMC3    H2 6340   3.500   2.119  14.212  1.0015 -1.7796 -0.8145
  421TMC3    C7 6341   3.430   1.892  14.135  0.3837  0.2304  0.1641
  421TMC3    C8 6342   3.385   2.354  14.211  0.4923 -0.0894 -0.6489
  421TMC3    O1 6343   3.544   1.911  14.177 -0.1060 -0.1103  0.5937
  421TMC3    O2 6344   3.468   2.330  14.297 -0.4386 -0.0005 -0.3054
  422TMC3    C1 6345   1.481   3.082  12.590  0.0571 -0.2032  0.7309
  422TMC3    C2 6346   1.433   3.178  12.679 -0.0270 -0.1084  0.0358
  422TMC3    C3 6347   1.295   3.214  12.667 -0.2737 -0.6738  0.6276
  422TMC3    C4 6348   1.398   3.029  12.490 -0.0746 -0.2954 -0.3898
  422TMC3    C5 6349   1.269   3.068  12.487  0.1807  0.4118 -0.4878
  422TMC3    C6 6350   1.214   3.163  12.567  0.2038 -0.2525  0.5006
  422TMC3     C 6351   1.626   3.099  12.559 -1.2436  0.0278  0.5308
  422TMC3     O 6352   1.698   3.156  12.642 -0.7721  0.3718  0.3404
  422TMC3     H 6353   1.499   3.238  12.739 -1.1271 -0.4700  1.5988
  422TMC3    H1 6354   1.427   2.947  12.425 -1.6960 -1.3792  0.2329
  422TMC3    H2 6355   1.109   3.191  12.563 -0.4697 -2.6810  1.1852
  422TMC3    C7 6356   1.181   2.987  12.398  0.3949  0.3836  0.0167
  422TMC3    C8 6357   1.254   3.348  12.725  0.1277  0.4147  0.2197
  422TMC3    O1 6358   1.241   2.929  12.306  0.3160  0.1297  0.3805
  422TMC3    O2 6359   1.300   3.385  12.835  0.0969  0.3489 -0.1208
  423MPD2     C 6360   2.366   4.134   0.294  0.5818  0.1194  0.7058
  423MPD2    C1 6361   2.409   4.007   0.324 -0.2936 -0.1480 -0.5390
  423MPD2    C2 6362   2.445   3.926   0.220  0.0490  0.0678 -0.5023
  423MPD2    C3 6363   2.435   3.969   0.086  0.4956  0.2310 -0.4121
  423MPD2    C4 6364   2.389   4.100   0.057  0.0773  0.1867  0.2229
  423MPD2    C5 6365   2.348   4.182   0.164 -0.5416 -0.3190 -0.7811
  423MPD2     H 6366   2.477   3.825   0.242 -1.3381 -0.3022 -0.2085
  423MPD2    H1 6367   2.389   4.140  17.692  0.2328  0.1498  0.2082
  423MPD2    H2 6368   2.342   4.209   0.368 -1.6018  1.3539 -1.2423
  423MPD2    H3 6369   2.318   4.284   0.147  1.8501  0.4696 -0.1970
  423MPD2     N 6370   2.468   3.893  17.707 -0.1432  0.1897  0.4808
  423MPD2    H5 6371   2.474   3.942  17.618  1.0053 -1.8140 -0.5453
  423MPD2    N1 6372   2.425   3.953   0.456 -0.3078  0.7998 -0.1237
  423MPD2    H7 6373   2.457   3.858   0.472 -0.9035  0.3810 -1.4405
  424TMC3    C1 6374   2.424   3.947   0.691 -0.8437 -0.3094 -0.2293
  424TMC3    C2 6375   2.550   3.887   0.691 -0.6990 -0.0645  0.3979
  424TMC3    C3 6376   2.607   3.877   0.816  0.1448  0.0818  0.4584
  424TMC3    C4 6377   2.359   3.997   0.806 -0.3268  0.1912 -0.1848
  424TMC3    C5 6378   2.423   3.979   0.924 -0.1711  0.1339 -1.0555
  424TMC3    C6 6379   2.542   3.915   0.933 -0.2114 -0.6081  0.4098
  424TMC3     C 6380   2.398   4.022   0.573 -0.4535  0.2373  0.4567
  424TMC3     O 6381   2.327   4.119   0.585  0.2581  0.0827 -0.1540
  424TMC3     H 6382   2.602   3.852   0.603 -1.7827 -0.2539 -0.1645
  424TMC3    H1 6383   2.262   4.045   0.805  0.4330  1.7244 -0.2503
  424TMC3    H2 6384   2.597   3.913   1.027  0.6108 -2.9369 -0.1195
  424TMC3    C7 6385   2.388   4.078   1.027  0.8273 -0.1806 -0.2278
  424TMC3    C8 6386   2.724   3.785   0.813  0.1801  0.2955 -0.8847
  424TMC3    O1 6387   2.480   4.132   1.089 -0.6621  0.1330 -0.5370
  424TMC3    O2 6388   2.785   3.768   0.709  0.0258 -0.1061  0.2674
  425MPD2     C 6389   1.526   2.899  16.471  0.1418 -0.0155  0.4979
  425MPD2    C1 6390   1.583   2.911  16.595  0.3681  0.0204  0.3404
  425MPD2    C2 6391   1.512   2.966  16.703  0.9180  0.2787 -0.3028
  425MPD2    C3 6392   1.390   3.023  16.681  0.7283 -0.3517 -0.6696
  425MPD2    C4 6393   1.336   3.022  16.557 -0.2955  0.1841  1.1064
  425MPD2    C5 6394   1.396   2.961  16.454 -0.2075 -0.1713 -0.0784
  425MPD2     H 6395   1.562   2.961  16.799 -1.0107 -2.4356  0.5392
  425MPD2    H1 6396   1.232   3.047  16.537  0.2103  1.4632  0.0416
  425MPD2    H2 6397   1.574   2.833  16.399 -1.6292  0.4452 -1.1352
  425MPD2    H3 6398   1.343   2.945  16.361  0.0927 -0.8855 -0.1265
  425MPD2     N 6399   1.320   3.076  16.793  0.4598 -0.0930 -0.1723
  425MPD2    H5 6400   1.374   3.077  16.879  1.2392 -0.1045 -0.6615
  425MPD2    N1 6401   1.705   2.839  16.625 -0.0220  0.4725 -0.0983
  425MPD2    H7 6402   1.742   2.772  16.557 -1.2535 -0.7064  0.3925
  426TMC3    C1 6403   1.859   2.750  16.769  0.1616 -0.9141  0.0395
  426TMC3    C2 6404   1.794   2.632  16.743  0.5413 -0.0827 -0.1653
  426TMC3    C3 6405   1.783   2.543  16.846 -0.8171  0.6776 -0.6393
  426TMC3    C4 6406   1.935   2.768  16.882  0.0824  0.5106 -0.2611
  426TMC3    C5 6407   1.917   2.674  16.977 -0.5695 -0.8103  0.4217
  426TMC3    C6 6408   1.843   2.557  16.966  0.4942  0.1583 -0.1348
  426TMC3     C 6409   1.790   2.866  16.726  1.1245  0.3520  0.1311
  426TMC3     O 6410   1.797   2.969  16.791 -0.6029 -0.7126 -0.6482
  426TMC3     H 6411   1.742   2.599  16.654 -0.3462  0.8495  0.0087
  426TMC3    H1 6412   1.977   2.867  16.894  0.9416 -0.0785  1.4897
  426TMC3    H2 6413   1.849   2.482  17.043 -3.2645 -1.3904 -1.3189
  426TMC3    C7 6414   1.941   2.716  17.109 -0.1342  0.4927  0.9201
  426TMC3    C8 6415   1.739   2.410  16.811 -0.2270 -0.2255  0.2479
  426TMC3    O1 6416   2.046   2.778  17.115  0.0943 -0.2175 -0.1761
  426TMC3    O2 6417   1.763   2.369  16.697 -0.2148  0.3574 -0.0248
  427MPD2     C 6418   0.034   0.586  14.675 -0.3273  0.5617  0.8388
  427MPD2    C1 6419   0.003   0.544  14.801  0.3541  0.0631 -0.2569
  427MPD2    C2 6420   4.607   0.535  14.832  0.2565  0.4744 -0.5386
  427MPD2    C3 6421   4.505   0.573  14.740 -0.3552 -1.0353  0.1882
  427MPD2    C4 6422   4.535   0.600  14.610 -0.1065 -0.5524  0.2533
  427MPD2    C5 6423   4.672   0.617  14.587 -0.2779  0.2595  0.6918
  427MPD2     H 6424   4.597   0.503  14.935  0.6664  2.5362  0.1391
  427MPD2    H1 6425   4.471   0.615  14.524  0.3796 -1.6383 -0.2901
  427MPD2    H2 6426   0.137   0.594  14.641  0.0370 -0.9033  1.6497
  427MPD2    H3 6427   4.713   0.642  14.490 -2.3416 -0.4963 -0.3643
  427MPD2     N 6428   4.371   0.575  14.780  0.3642 -0.3501  0.0981
  427MPD2    H5 6429   4.313   0.605  14.702 -0.7385  0.2675  1.1590
  427MPD2    N1 6430   0.087   0.509  14.907  0.6308 -0.0006  0.1441
  427MPD2    H7 6431   0.055   0.480  14.998 -0.6827 -1.0045 -0.6453
  428TMC3    C1 6432   0.282   0.431  15.018  0.1363 -0.0759  0.4597
  428TMC3    C2 6433   0.193   0.343  15.083  0.2300 -0.6606  0.3432
  428TMC3    C3 6434   0.262   0.254  15.171 -0.2701  0.0151  0.5357
  428TMC3    C4 6435   0.414   0.429  15.030 -0.0913  0.2979  0.3457
  428TMC3    C5 6436   0.467   0.351  15.126  0.2594 -0.4489 -0.2520
  428TMC3    C6 6437   0.400   0.256  15.195 -0.2795 -0.9623  0.0045
  428TMC3     C 6438   0.227   0.498  14.900  0.4356  0.2624  0.5901
  428TMC3     O 6439   0.297   0.554  14.822  0.2561 -0.5563  0.1836
  428TMC3     H 6440   0.085   0.351  15.080  0.3920  1.2415 -0.4217
  428TMC3    H1 6441   0.465   0.510  14.979  0.3209  0.7712  1.5055
  428TMC3    H2 6442   0.448   0.195  15.270 -3.2202 -1.0868  1.7688
  428TMC3    C7 6443   0.593   0.395  15.188  0.4928 -0.5323 -0.0160
  428TMC3    C8 6444   0.184   0.180  15.263 -0.7865 -0.0897 -0.3724
  428TMC3    O1 6445   0.591   0.394  15.306  0.4252 -0.2099  0.1285
  428TMC3    O2 6446   0.068   0.211  15.276 -0.6273  0.4500 -0.6431
  429MPD2     C 6447   0.994   0.187  17.637  0.2009  0.5652 -0.2940
  429MPD2    C1 6448   1.088   0.101  17.574  0.1313 -0.0154 -0.0686
  429MPD2    C2 6449   1.138   0.134  17.447 -0.4115  0.0868  0.1686
  429MPD2    C3 6450   1.091   0.245  17.382 -0.2690 -0.0998  0.0206
  429MPD2    C4 6451   0.996   0.319  17.442  0.0890  0.5268  0.1571
  429MPD2    C5 6452   0.946   0.293  17.567  0.8524  0.1789  0.0997
  429MPD2     H 6453   1.223   0.082  17.403  1.0745  1.5935  1.2576
  429MPD2    H1 6454   0.949   0.405  17.396 -2.8241 -0.9002  0.4460
  429MPD2    H2 6455   0.945   0.166  17.731 -2.9032  3.0795 -1.3541
  429MPD2    H3 6456   0.873   0.363  17.606  0.7581 -0.5005  1.1237
  429MPD2     N 6457   1.145   0.278  17.256 -0.0021  0.0564 -0.1044
  429MPD2    H5 6458   1.231   0.234  17.227  0.2892  2.5657 -3.0103
  429MPD2    N1 6459   1.136   4.717  17.629 -0.2418 -0.0451  0.5857
  429MPD2    H7 6460   1.185   4.651  17.571 -0.0435  0.7499 -0.1401
  430TMC3    C1 6461   1.167   0.432  17.075 -0.0731  0.0730  0.2921
  430TMC3    C2 6462   1.104   0.495  16.968  0.3048  0.1494 -0.4780
  430TMC3    C3 6463   1.178   0.560  16.872  0.6602 -0.4084  0.5904
  430TMC3    C4 6464   1.303   0.424  17.082  0.3950 -0.6794  0.4975
  430TMC3    C5 6465   1.374   0.492  16.983 -0.8319 -0.7926 -0.3000
  430TMC3    C6 6466   1.311   0.572  16.886  0.6608 -0.2981  0.1171
  430TMC3     C 6467   1.083   0.369  17.178  0.1979  0.1110  0.3475
  430TMC3     O 6468   0.964   0.406  17.186  0.7134 -0.7733 -0.3158
  430TMC3     H 6469   0.995   0.498  16.968  0.2341 -2.3732 -1.1842
  430TMC3    H1 6470   1.366   0.388  17.162  2.6782 -0.9907 -1.4468
  430TMC3    H2 6471   1.364   0.603  16.797  0.3202 -0.3753 -0.1128
  430TMC3    C7 6472   1.466   0.404  16.920 -0.7654 -0.4876  0.0570
  430TMC3    C8 6473   1.126   0.639  16.766  0.4621 -0.3694 -0.2519
  430TMC3    O1 6474   1.454   0.383  16.801  0.5924  0.3359  0.1535
  430TMC3    O2 6475   1.043   0.597  16.684  0.2231 -0.3182  0.1140
  431MPD2     C 6476   1.835   0.810  12.867  0.0714 -0.0719  0.6124
  431MPD2    C1 6477   1.888   0.806  12.740 -0.2288  0.0275 -0.3360
  431MPD2    C2 6478   1.845   0.713  12.645  0.4488  0.3945  0.4291
  431MPD2    C3 6479   1.742   0.629  12.688  0.5420 -0.8652  0.3989
  431MPD2    C4 6480   1.683   0.653  12.810 -0.1587 -0.6827  0.5547
  431MPD2    C5 6481   1.734   0.733  12.911 -0.1033 -0.3272  0.2918
  431MPD2     H 6482   1.906   0.701  12.557 -2.3597 -1.3582 -1.3020
  431MPD2    H1 6483   1.583   0.614  12.826  0.3720 -2.3758 -0.2356
  431MPD2    H2 6484   1.867   0.883  12.940  0.6501 -0.5667  0.8517
  431MPD2    H3 6485   1.688   0.727  13.009  0.5442  1.2080  0.6878
  431MPD2     N 6486   1.686   0.524  12.617 -0.2270  0.1504  0.4342
  431MPD2    H5 6487   1.607   0.483  12.665  0.3634 -1.6695 -0.1635
  431MPD2    N1 6488   1.996   0.887  12.708  0.5387  0.3363 -0.4051
  431MPD2    H7 6489   2.027   0.881  12.612 -0.9859  1.8953 -0.9808
  432TMC3    C1 6490   1.646   0.386  12.442 -0.0131 -0.3954  0.1142
  432TMC3    C2 6491   1.634   0.376  12.304  0.1259 -0.4924 -0.4336
  432TMC3    C3 6492   1.562   0.277  12.245  0.1650  0.5192 -0.2506
  432TMC3    C4 6493   1.590   0.296  12.528 -0.4090  0.0154  0.1253
  432TMC3    C5 6494   1.531   0.184  12.467  0.6467  0.3517 -0.2675
  432TMC3    C6 6495   1.520   0.175  12.326  0.1597 -0.3674 -0.3314
  432TMC3     C 6496   1.722   0.502  12.488  0.0742  0.0809  0.3789
  432TMC3     O 6497   1.782   0.575  12.410 -0.5153 -0.0855 -0.1836
  432TMC3     H 6498   1.685   0.451  12.245  3.0403  0.4923  3.3285
  432TMC3    H1 6499   1.643   0.284  12.622  0.4254  0.6248 -0.2687
  432TMC3    H2 6500   1.464   0.097  12.276 -1.5361  0.4580  0.2620
  432TMC3    C7 6501   1.549   0.057  12.536 -0.3011  0.3219 -0.5930
  432TMC3    C8 6502   1.602   0.223  12.121 -0.1743  0.8953  0.0672
  432TMC3    O1 6503   1.569   4.693  12.467  0.0075  0.1784  0.2317
  432TMC3    O2 6504   1.555   0.256  12.012 -0.2504 -0.4652 -0.0400
  433MPD2     C 6505   0.870   4.000  10.546  0.4189 -0.0615  0.1992
  433MPD2    C1 6506   0.904   3.897  10.636 -0.6560 -0.7656 -0.0649
  433MPD2    C2 6507   0.975   3.929  10.749  0.4280 -0.1628  0.3350
  433MPD2    C3 6508   1.002   4.061  10.788 -0.4479  0.3500  0.0901
  433MPD2    C4 6509   0.973   4.160  10.697  0.4480  0.0419 -0.2186
  433MPD2    C5 6510   0.904   4.130  10.577  0.0477 -0.3531 -0.0428
  433MPD2     H 6511   1.016   3.850  10.810  2.2740 -0.4136 -1.2104
  433MPD2    H1 6512   0.990   4.265  10.717 -0.0544  0.1417 -0.3209
  433MPD2    H2 6513   0.816   3.980  10.454  3.0933  3.1551 -2.0814
  433MPD2    H3 6514   0.873   4.209  10.510 -2.7520 -0.6428  0.9313
  433MPD2     N 6515   1.055   4.089  10.912  0.3240 -0.2404 -0.1187
  433MPD2    H5 6516   1.087   4.015  10.973  1.8285  0.4509 -0.0882
  433MPD2    N1 6517   0.879   3.768  10.595  0.3828  0.3092 -0.3881
  433MPD2    H7 6518   0.825   3.752  10.511  1.0720  0.6274 -0.8897
  434TMC3    C1 6519   0.901   3.531  10.578  0.4300  0.1933  0.7032
  434TMC3    C2 6520   0.973   3.417  10.610 -0.3306 -0.5585  0.3556
  434TMC3    C3 6521   0.952   3.309  10.529 -0.4048 -0.1935  0.2540
  434TMC3    C4 6522   0.812   3.531  10.470  0.1219 -0.5401 -0.5096
  434TMC3    C5 6523   0.775   3.410  10.420 -0.4860  0.5492 -0.4428
  434TMC3    C6 6524   0.849   3.300  10.442 -0.2324  0.2741 -0.1451
  434TMC3     C 6525   0.933   3.653  10.652  0.7130 -0.2066 -0.4328
  434TMC3     O 6526   1.009   3.641  10.749  0.0661  0.1302 -0.9095
  434TMC3     H 6527   1.052   3.415  10.684  0.6740  0.5928 -0.6886
  434TMC3    H1 6528   0.755   3.616  10.436 -1.4753 -1.2743  0.3340
  434TMC3    H2 6529   0.840   3.222  10.367  1.2569  1.0048 -1.0797
  434TMC3    C7 6530   0.714   3.417  10.286  0.5911 -0.1512 -0.5881
  434TMC3    C8 6531   1.013   3.178  10.567 -0.0141 -0.1690  0.7824
  434TMC3    O1 6532   0.766   3.488  10.209  0.1040  0.4908  0.2385
  434TMC3    O2 6533   1.017   3.088  10.485  0.6340 -0.3305 -0.3850
  435MPD2     C 6534   3.489   4.230  15.308  0.5998 -0.4150 -0.3168
  435MPD2    C1 6535   3.385   4.190  15.391 -0.1940  0.0259  0.4188
  435MPD2    C2 6536   3.406   4.087  15.478 -0.1040 -0.5174 -0.3701
  435MPD2    C3 6537   3.526   4.018  15.476  1.1003 -0.1505  0.5387
  435MPD2    C4 6538   3.624   4.061  15.394  0.9424 -0.0176 -0.2884
  435MPD2    C5 6539   3.607   4.164  15.307  0.4995  0.5302  0.5685
  435MPD2     H 6540   3.317   4.040  15.519 -0.2670 -0.1038 -0.2516
  435MPD2    H1 6541   3.715   4.002  15.384 -0.2562 -1.4431 -3.0790
  435MPD2    H2 6542   3.466   4.307  15.235  0.0530 -0.0632  0.2317
  435MPD2    H3 6543   3.682   4.182  15.231  0.7251  1.2620  0.9614
  435MPD2     N 6544   3.535   3.907  15.560 -0.5949 -0.5951  0.3443
  435MPD2    H5 6545   3.482   3.904  15.646 -1.6584 -0.1869 -0.3050
  435MPD2    N1 6546   3.254   4.247  15.394  0.1789  0.0778  0.1008
  435MPD2    H7 6547   3.193   4.201  15.461 -1.2990  1.9839  0.0884
  436TMC3    C1 6548   2.890   4.365  15.513 -0.2023 -0.0252  0.0620
  436TMC3    C2 6549   3.019   4.333  15.482 -0.9431 -0.4279  0.2163
  436TMC3    C3 6550   3.089   4.409  15.385  0.1603  0.5349  0.0046
  436TMC3    C4 6551   2.826   4.469  15.453 -0.3040 -0.6983  0.4943
  436TMC3    C5 6552   2.890   4.540  15.356 -0.1593  0.1437 -0.5631
  436TMC3    C6 6553   3.019   4.507  15.316 -0.3818  0.1554  0.6728
  436TMC3     C 6554   2.869   4.360  15.650 -0.0214  0.1829  0.1427
  436TMC3     O 6555   2.965   4.358  15.727 -0.5147 -0.5668 -0.1548
  436TMC3     H 6556   3.059   4.251  15.539  1.2274  1.2676  1.1475
  436TMC3    H1 6557   2.723   4.496  15.474 -0.0379  2.1295 -1.7897
  436TMC3    H2 6558   3.064   4.573  15.243  0.0518 -0.3686  0.4672
  436TMC3    C7 6559   2.808   4.648  15.296 -0.4358 -0.2205  0.4179
  436TMC3    C8 6560   3.216   4.367  15.334  0.0134  0.3135 -0.8880
  436TMC3    O1 6561   2.694   4.666  15.339 -0.0001  0.0969  0.3509
  436TMC3    O2 6562   3.269   4.427  15.243  0.5691  0.4520 -0.3666
  437TMC3    C1 6563   1.165   1.708  12.627 -0.0278 -0.2218  0.4265
  437TMC3    C2 6564   1.094   1.818  12.651 -0.5591  0.5999  0.4792
  437TMC3    C3 6565   1.119   1.925  12.567 -0.4036 -0.0732 -0.2815
  437TMC3    C4 6566   1.227   1.693  12.505 -0.0304  0.1712  0.3089
  437TMC3    C5 6567   1.246   1.800  12.420  0.0050 -0.9920  0.6310
  437TMC3    C6 6568   1.192   1.918  12.450  0.5579 -0.3905 -0.3380
  437TMC3     C 6569   1.145   1.599  12.726  0.0590 -0.5299 -0.6812
  437TMC3     O 6570   1.047   1.617  12.800 -0.5828  0.2552 -0.4044
  437TMC3     H 6571   1.046   1.834  12.747 -1.5258  0.0038  0.0892
  437TMC3    H1 6572   1.259   1.595  12.472  1.7144 -0.5775  4.2359
  437TMC3    H2 6573   1.194   1.998  12.377 -2.4103  2.1196  2.3802
  437TMC3    C7 6574   1.335   1.778  12.307 -0.0203 -0.2446 -0.3406
  437TMC3    C8 6575   1.109   2.054  12.636  0.0305 -0.1873  0.7956
  437TMC3    O1 6576   1.312   1.850  12.208  0.5713  0.1221  0.8520
  437TMC3    O2 6577   1.048   2.058  12.744 -0.9472  0.4018 -0.3423
  438MPD2     C 6578   4.376   1.815  16.869 -0.2005 -0.7232  0.0485
  438MPD2    C1 6579   4.392   1.681  16.903 -0.3196  0.0618  0.2996
  438MPD2    C2 6580   4.286   1.613  16.970  0.0731  0.1409 -0.0394
  438MPD2    C3 6581   4.166   1.674  16.990  0.3253 -0.3062 -0.1302
  438MPD2    C4 6582   4.147   1.805  16.945 -0.1420  0.2072 -0.1071
  438MPD2    C5 6583   4.250   1.869  16.877  0.3692  0.6161 -0.4201
  438MPD2     H 6584   4.298   1.511  17.005 -2.4673  0.4114  1.5793
  438MPD2    H1 6585   4.051   1.852  16.959 -0.1910  0.0235  0.1700
  438MPD2    H2 6586   4.456   1.883  16.840 -0.9035 -0.2378 -0.7513
  438MPD2    H3 6587   4.236   1.976  16.863 -1.1628  0.4071 -0.5451
  438MPD2     N 6588   4.060   1.621  17.063  0.0968 -0.0719  0.5245
  438MPD2    H5 6589   3.979   1.681  17.072 -0.4520 -0.9363  1.4446
  438MPD2    N1 6590   4.518   1.618  16.879 -0.3438 -0.1426  0.3770
  438MPD2    H7 6591   4.535   1.527  16.921 -1.1522  0.1082  1.2442
  439TMC3    C1 6592   4.706   1.557  16.780  0.2863 -0.1354  0.0131
  439TMC3    C2 6593   4.733   1.539  16.648 -0.0141  0.0848  0.3181
  439TMC3    C3 6594   0.064   1.427  16.611 -0.3008  0.2376  0.0276
  439TMC3    C4 6595   0.024   1.470  16.872 -0.0972  0.0462  0.5243
  439TMC3    C5 6596   0.076   1.353  16.827  0.3409  0.0123  0.6532
  439TMC3    C6 6597   0.109   1.335  16.698  0.0706 -0.3982 -0.3359
  439TMC3     C 6598   4.620   1.674  16.802  0.1124 -0.3544  0.0559
  439TMC3     O 6599   4.618   1.767  16.728  0.0482 -0.5740 -0.3072
  439TMC3     H 6600   4.689   1.606  16.575 -2.3154 -2.7644 -0.9315
  439TMC3    H1 6601   0.013   1.481  16.979  0.1531 -2.3241  0.7864
  439TMC3    H2 6602   0.165   1.247  16.670 -0.5953 -1.6310  2.2037
  439TMC3    C7 6603   0.150   1.267  16.923 -0.3003  0.1126 -1.1313
  439TMC3    C8 6604   0.110   1.419  16.475 -0.6158  0.9666  0.0949
  439TMC3    O1 6605   0.219   1.321  17.008 -0.2258  0.1201  0.4444
  439TMC3    O2 6606   0.204   1.345  16.456  0.2444  0.0673 -0.4667
  440MPD2     C 6607   2.575   1.994  15.159  0.3135 -0.2876 -0.3111
  440MPD2    C1 6608   2.627   2.092  15.081  0.0775 -0.4081 -0.0739
  440MPD2    C2 6609   2.737   2.064  15.004  0.3231 -0.1590 -0.2827
  440MPD2    C3 6610   2.787   1.943  15.009 -0.2938 -0.9286  0.4936
  440MPD2    C4 6611   2.734   1.843  15.086 -1.1223 -0.5734  0.7099
  440MPD2    C5 6612   2.622   1.865  15.157 -0.2921  0.7021 -0.2482
  440MPD2     H 6613   2.779   2.148  14.950 -0.2665  1.2330  1.4312
  440MPD2    H1 6614   2.785   1.748  15.095 -0.8931 -0.3780  1.4347
  440MPD2    H2 6615   2.481   2.001  15.213  1.2895  3.1952  0.9164
  440MPD2    H3 6616   2.578   1.803  15.235  1.4061 -2.3806 -1.7239
  440MPD2     N 6617   2.906   1.906  14.937  0.1573  0.7949 -0.4616
  440MPD2    H5 6618   2.943   1.819  14.972 -2.6337 -0.1012  0.2747
  440MPD2    N1 6619   2.566   2.212  15.064  0.5938 -0.3410  0.1727
  440MPD2    H7 6620   2.628   2.285  15.029  1.4812 -1.4421 -0.5399
  441TMC3    C1 6621   3.120   1.937  14.840 -0.1193  0.2210 -0.0826
  441TMC3    C2 6622   3.198   2.050  14.852  0.6777  0.3790  0.9456
  441TMC3    C3 6623   3.280   2.062  14.957 -0.3783 -0.3002 -0.0796
  441TMC3    C4 6624   3.142   1.833  14.923  0.1112 -0.4909  0.2938
  441TMC3    C5 6625   3.247   1.840  15.015 -0.1972 -0.2961 -0.0043
  441TMC3    C6 6626   3.325   1.954  15.025 -0.0772 -0.5778 -0.4499
  441TMC3     C 6627   2.979   1.983  14.857 -0.8712  0.3739  1.1431
  441TMC3     O 6628   2.958   2.091  14.804 -0.1445  0.5006 -0.3110
  441TMC3     H 6629   3.174   2.139  14.796  0.8317 -1.2186 -1.6473
  441TMC3    H1 6630   3.078   1.746  14.921  0.3466 -0.5607 -2.8876
  441TMC3    H2 6631   3.408   1.971  15.092  0.8588  0.0629 -1.7835
  441TMC3    C7 6632   3.215   1.784  15.143 -0.2794 -0.0153 -0.0588
  441TMC3    C8 6633   3.346   2.187  14.975  0.2599 -0.0239 -0.3456
  441TMC3    O1 6634   3.094   1.778  15.157  0.5034 -0.1157  1.1067
  441TMC3    O2 6635   3.454   2.191  15.033 -0.5630  0.2584  0.4733
  442MPD2     C 6636   1.193   2.642  16.736  0.3194 -0.3945  0.0691
  442MPD2    C1 6637   1.142   2.536  16.795  0.6419  0.0378 -0.1325
  442MPD2    C2 6638   1.182   2.407  16.758 -0.2839 -0.5009 -0.7421
  442MPD2    C3 6639   1.268   2.382  16.657 -0.3391  0.3725 -0.6988
  442MPD2    C4 6640   1.309   2.491  16.577  0.5137  0.1707 -0.6330
  442MPD2    C5 6641   1.280   2.619  16.624  0.1921 -0.0017 -0.7544
  442MPD2     H 6642   1.137   2.321  16.807  1.0535  0.0455  1.4639
  442MPD2    H1 6643   1.370   2.479  16.488  1.2308  3.8174 -0.6450
  442MPD2    H2 6644   1.175   2.745  16.765 -1.2813 -0.6619  0.0317
  442MPD2    H3 6645   1.322   2.707  16.576 -0.7014  1.5760  1.3895
  442MPD2     N 6646   1.300   2.247  16.618 -0.2243 -0.3049 -0.0013
  442MPD2    H5 6647   1.371   2.245  16.546  0.7922 -1.7657  1.0270
  442MPD2    N1 6648   1.065   2.548  16.906 -0.3407 -0.5654  0.3784
  442MPD2    H7 6649   1.030   2.465  16.951  2.6074 -0.8151  2.1850
  443TMC3    C1 6650   0.917   2.634  17.071 -0.7313  0.0337 -0.3719
  443TMC3    C2 6651   0.820   2.722  17.093  0.0086  0.1843  0.1395
  443TMC3    C3 6652   0.718   2.695  17.185  0.5131 -0.1760 -0.2509
  443TMC3    C4 6653   0.926   2.510  17.138  0.2428  0.0263 -0.0052
  443TMC3    C5 6654   0.823   2.485  17.228  0.2679  0.0220  0.3522
  443TMC3    C6 6655   0.719   2.572  17.254 -0.0485  0.3983  0.1173
  443TMC3     C 6656   1.014   2.661  16.959 -0.6049 -0.1975 -0.1540
  443TMC3     O 6657   1.023   2.774  16.914  0.1561 -0.0333  0.1354
  443TMC3     H 6658   0.814   2.812  17.033 -1.2962  0.2881  0.4287
  443TMC3    H1 6659   0.999   2.433  17.119  1.9881  2.0459 -1.4984
  443TMC3    H2 6660   0.628   2.539  17.302 -0.0026  0.0873 -0.0090
  443TMC3    C7 6661   0.809   2.353  17.279 -0.2168 -0.0874  1.3026
  443TMC3    C8 6662   0.584   2.735  17.142 -0.2492  0.1041  0.4609
  443TMC3    O1 6663   0.861   2.259  17.221 -0.6768 -0.2880  0.1168
  443TMC3    O2 6664   0.499   2.722  17.224 -0.4164 -0.0715  0.1981
  444MPD2     C 6665   1.791   2.035  17.398 -0.3611 -0.0262  0.5258
  444MPD2    C1 6666   1.695   1.972  17.313  0.6134 -0.8543  0.0422
  444MPD2    C2 6667   1.744   1.893  17.206 -0.4221 -0.1232  0.6518
  444MPD2    C3 6668   1.880   1.874  17.183  0.5456 -0.8393  0.3327
  444MPD2    C4 6669   1.969   1.939  17.268 -0.7915  0.3380  0.2021
  444MPD2    C5 6670   1.924   2.018  17.374  0.2936  0.4674 -0.4179
  444MPD2     H 6671   1.667   1.837  17.154 -0.7184 -0.6493  1.6698
  444MPD2    H1 6672   2.074   1.927  17.244 -0.6910 -0.9257  1.3013
  444MPD2    H2 6673   1.765   2.092  17.487 -0.6950  1.4557 -0.5025
  444MPD2    H3 6674   1.998   2.060  17.441 -2.1317  2.6315  0.9276
  444MPD2     N 6675   1.938   1.784  17.091  0.2987  0.8956 -0.3273
  444MPD2    H5 6676   2.039   1.779  17.094  0.3744  2.4291 -0.2501
  444MPD2    N1 6677   1.557   1.985  17.330 -0.6151  0.0544 -0.1981
  444MPD2    H7 6678   1.500   1.930  17.266  1.2792  1.1474 -2.8007
  445TMC3    C1 6679   1.945   1.587  16.967  0.0595 -0.0663  0.1007
  445TMC3    C2 6680   1.897   1.463  16.982 -0.0612  0.1148  0.1765
  445TMC3    C3 6681   1.974   1.353  16.956  0.6996 -0.1653  0.0074
  445TMC3    C4 6682   2.080   1.604  16.930  0.2836 -0.2145 -0.4864
  445TMC3    C5 6683   2.151   1.491  16.900  1.1114  0.4341  0.2925
  445TMC3    C6 6684   2.099   1.363  16.915  0.4001  0.7350 -0.8952
  445TMC3     C 6685   1.867   1.694  17.014  0.5178 -0.0881  0.7185
  445TMC3     O 6686   1.748   1.690  17.005  0.3022  0.4248 -0.4691
  445TMC3     H 6687   1.796   1.453  17.021 -0.7092  0.9310 -1.2945
  445TMC3    H1 6688   2.121   1.704  16.919  1.8113 -0.8117 -0.1639
  445TMC3    H2 6689   2.160   1.275  16.899 -0.6145 -0.3210  1.0619
  445TMC3    C7 6690   2.290   1.490  16.870  0.1133 -0.4595 -0.2279
  445TMC3    C8 6691   1.916   1.215  16.951 -1.0251 -0.3533  0.7510
  445TMC3    O1 6692   2.362   1.400  16.916  0.6091  0.2662 -0.0886
  445TMC3    O2 6693   1.994   1.119  16.930 -0.0910 -0.1140 -0.0446
  446MPD2     C 6694   0.880   3.193  11.061 -0.3147 -0.4833  0.1786
  446MPD2    C1 6695   0.836   3.296  10.979 -0.4082 -0.4802  0.1067
  446MPD2    C2 6696   0.928   3.400  10.944  0.3652  0.6529  0.2554
  446MPD2    C3 6697   1.040   3.412  11.021 -0.9002 -0.4675 -0.3296
  446MPD2    C4 6698   1.080   3.304  11.094  0.3929  0.8630  0.2657
  446MPD2    C5 6699   1.006   3.192  11.104 -0.1519  0.0432 -0.0488
  446MPD2     H 6700   0.897   3.483  10.881 -2.6056  1.7699  3.1972
  446MPD2    H1 6701   1.170   3.298  11.155  1.1855 -1.1082 -1.0832
  446MPD2    H2 6702   0.819   3.108  11.090 -1.3018 -0.8147 -2.8428
  446MPD2    H3 6703   1.040   3.108  11.163  1.6373 -2.6422 -4.9075
  446MPD2     N 6704   1.119   3.526  11.005 -0.3644  0.0475 -0.0742
  446MPD2    H5 6705   1.115   3.588  10.925  2.6878 -1.2421 -1.2450
  446MPD2    N1 6706   0.704   3.314  10.925 -0.4754  0.9215 -0.3565
  446MPD2    H7 6707   0.681   3.397  10.872  0.5854  0.0550 -2.2067
  447TMC3    C1 6708   1.331   3.637  11.011 -0.1087 -0.3589  0.0446
  447TMC3    C2 6709   1.305   3.723  10.909 -0.1996  0.0625  0.2802
  447TMC3    C3 6710   1.388   3.834  10.900 -0.0334 -0.2225  0.4684
  447TMC3    C4 6711   1.443   3.650  11.087  0.0672  0.6262 -0.1320
  447TMC3    C5 6712   1.525   3.755  11.066 -0.6083  0.6227 -0.3566
  447TMC3    C6 6713   1.494   3.853  10.985  0.6376  0.2017  0.6051
  447TMC3     C 6714   1.235   3.553  11.084 -0.3399  0.3305 -0.1218
  447TMC3     O 6715   1.264   3.510  11.195  0.0723  0.4639 -0.0121
  447TMC3     H 6716   1.219   3.712  10.844  0.0076 -1.2579  0.2448
  447TMC3    H1 6717   1.458   3.576  11.164  0.5348 -0.4051 -1.2098
  447TMC3    H2 6718   1.568   3.930  10.966  0.3042  0.2142 -0.6699
  447TMC3    C7 6719   1.640   3.786  11.153 -0.5644 -0.7338 -0.3815
  447TMC3    C8 6720   1.363   3.935  10.800 -0.8611  0.0657 -0.1247
  447TMC3    O1 6721   1.682   3.901  11.163 -0.5827 -0.2569 -0.0565
  447TMC3    O2 6722   1.281   3.911  10.711 -0.1744  0.1956  0.1992
  448TMC3    C1 6723   3.800   3.011  17.261  1.0222 -0.4529  0.2023
  448TMC3    C2 6724   3.808   2.928  17.150 -0.1656  0.3180 -0.7257
  448TMC3    C3 6725   3.823   2.797  17.166  0.4921  0.1165  0.0167
  448TMC3    C4 6726   3.821   2.961  17.388  0.6278 -0.2720 -0.8182
  448TMC3    C5 6727   3.833   2.823  17.401  0.4992  0.3332  0.6116
  448TMC3    C6 6728   3.823   2.742  17.294  0.2203  0.1044  0.3123
  448TMC3     C 6729   3.801   3.157  17.250  0.2011 -0.4283 -0.5323
  448TMC3     O 6730   3.756   3.218  17.344  0.3210 -0.4085 -0.2083
  448TMC3     H 6731   3.810   2.964  17.047 -1.2000  0.0540 -0.8422
  448TMC3    H1 6732   3.827   3.031  17.470 -1.9764 -1.5990  0.5212
  448TMC3    H2 6733   3.824   2.634  17.307  1.7181 -0.0663 -1.3374
  448TMC3    C7 6734   3.893   2.766  17.517  0.1948 -0.8173 -0.1560
  448TMC3    C8 6735   3.861   2.714  17.053 -0.0071  0.3320 -0.0569
  448TMC3    O1 6736   3.945   2.651  17.508  0.9425 -0.3637 -0.0070
  448TMC3    O2 6737   3.932   2.615  17.079  0.3877 -0.1673  0.0274
  449MPD2     C 6738   0.818   1.397  13.965 -0.0436  0.0797  0.2765
  449MPD2    C1 6739   0.696   1.429  13.925  0.2414  0.4739  0.5850
  449MPD2    C2 6740   0.584   1.355  13.972 -0.4721 -0.1974 -0.2658
  449MPD2    C3 6741   0.596   1.251  14.056  0.7469 -0.5690  0.4690
  449MPD2    C4 6742   0.726   1.213  14.096 -0.7806  0.8472 -1.2797
  449MPD2    C5 6743   0.835   1.287  14.053 -0.5196 -0.1160 -0.5712
  449MPD2     H 6744   0.486   1.386  13.938  0.6765  1.6803 -1.8698
  449MPD2    H1 6745   0.731   1.128  14.162 -1.3249  1.6474 -0.2000
  449MPD2    H2 6746   0.908   1.445  13.929 -0.0911  1.0488  1.4694
  449MPD2    H3 6747   0.935   1.265  14.088 -0.5443  1.9169  0.7981
  449MPD2     N 6748   0.483   1.166  14.072 -0.4081  0.4701  0.5392
  449MPD2    H5 6749   0.395   1.190  14.028 -0.5074 -0.9164 -0.0338
  449MPD2    N1 6750   0.659   1.533  13.834 -0.4222 -0.2969  0.5876
  449MPD2    H7 6751   0.560   1.552  13.825 -0.4353 -0.0439  1.2694
  450TMC3    C1 6752   0.673   1.703  13.688 -0.2512 -0.0566  0.0786
  450TMC3    C2 6753   0.689   1.686  13.553  0.4148  0.2505 -0.7195
  450TMC3    C3 6754   0.577   1.671  13.482  0.0729  0.0344 -0.0844
  450TMC3    C4 6755   0.549   1.717  13.747 -0.3791  0.0520  0.2292
  450TMC3    C5 6756   0.440   1.728  13.666  0.0650  0.3374 -0.5040
  450TMC3    C6 6757   0.451   1.693  13.531  0.6994  0.0235 -0.0967
  450TMC3     C 6758   0.748   1.610  13.765 -0.0675 -1.0721  0.2962
  450TMC3     O 6759   0.864   1.591  13.740 -0.3911 -0.0279 -0.4409
  450TMC3     H 6760   0.795   1.670  13.532  0.7626  2.4703 -0.5748
  450TMC3    H1 6761   0.546   1.734  13.854 -0.4657  0.9711  0.0812
  450TMC3    H2 6762   0.359   1.669  13.479 -0.1022  0.6132  1.0530
  450TMC3    C7 6763   0.339   1.651  13.732  0.1705 -0.3709 -0.1734
  450TMC3    C8 6764   0.582   1.689  13.338  0.0817 -0.3246 -0.0083
  450TMC3    O1 6765   0.379   1.591  13.829  0.6674 -0.2540 -0.3299
  450TMC3    O2 6766   0.478   1.719  13.285  0.0222  0.7710 -0.1583
  451MPD2     C 6767   1.793   1.494   0.865  0.1924  0.0102  0.0467
  451MPD2    C1 6768   1.775   1.437   0.995  0.6223  1.2721  0.7455
  451MPD2    C2 6769   1.788   1.300   1.009  0.5366 -0.1177  0.2765
  451MPD2    C3 6770   1.836   1.218   0.911 -0.1192 -0.9843 -0.5220
  451MPD2    C4 6771   1.854   1.272   0.783  0.2208 -0.7740 -0.1220
  451MPD2    C5 6772   1.827   1.403   0.764  0.3405 -0.2833 -0.1733
  451MPD2     H 6773   1.759   1.264   1.107 -3.3977  0.0900 -0.7938
  451MPD2    H1 6774   1.871   1.219   0.690  0.1509 -1.3813  0.2048
  451MPD2    H2 6775   1.791   1.602   0.852  1.8610  0.1579  0.9634
  451MPD2    H3 6776   1.842   1.450   0.668  1.9373  0.0699  0.2356
  451MPD2     N 6777   1.864   1.076   0.927  0.1648  0.4911 -1.1051
  451MPD2    H5 6778   1.891   1.014   0.851  1.3503 -1.7784  1.1958
  451MPD2    N1 6779   1.756   1.527   1.104 -0.8036  0.4066  0.1167
  451MPD2    H7 6780   1.739   1.623   1.075  0.0949  1.3763  2.8825
  452TMC3    C1 6781   1.909   0.870   1.054 -0.1789  0.0481 -0.3764
  452TMC3    C2 6782   1.892   0.810   1.178  0.6225 -0.3218 -0.0925
  452TMC3    C3 6783   1.889   0.675   1.185 -0.0533  0.4932  0.6502
  452TMC3    C4 6784   1.907   0.795   0.946  0.5817  0.7218  0.3662
  452TMC3    C5 6785   1.906   0.658   0.957  0.4560 -0.5403  0.4985
  452TMC3    C6 6786   1.889   0.597   1.077  0.2206  0.0778  0.3036
  452TMC3     C 6787   1.854   1.013   1.048  0.3260  0.0041 -0.9343
  452TMC3     O 6788   1.840   1.063   1.159  0.0438  0.1990 -0.0726
  452TMC3     H 6789   1.878   0.867   1.269 -1.2967 -0.3414 -0.3821
  452TMC3    H1 6790   1.895   0.837   0.847  0.1672  1.0468  0.5495
  452TMC3    H2 6791   1.871   0.491   1.088  1.8255 -0.2868 -0.5019
  452TMC3    C7 6792   1.955   0.586   0.837 -0.2191 -0.5367  0.4050
  452TMC3    C8 6793   1.830   0.614   1.304  0.2482  0.0042 -0.5556
  452TMC3    O1 6794   2.024   0.649   0.760 -0.4403  0.0237 -0.7381
  452TMC3    O2 6795   1.733   0.545   1.285 -0.5567  0.0344 -1.5129
  453TMC3    C1 6796   2.814   2.455  11.677  0.9957 -1.2331  0.1349
  453TMC3    C2 6797   2.744   2.344  11.644 -0.3811 -0.3488  0.1129
  453TMC3    C3 6798   2.639   2.360  11.559 -0.3410 -0.0612 -0.1939
  453TMC3    C4 6799   2.791   2.580  11.611  0.1719 -0.0472 -0.6479
  453TMC3    C5 6800   2.681   2.591  11.527  0.1721  0.8641  0.1073
  453TMC3    C6 6801   2.607   2.480  11.504 -0.5157 -0.7732 -0.2127
  453TMC3     C 6802   2.921   2.439  11.778 -0.1734  0.1918 -0.3421
  453TMC3     O 6803   2.989   2.545  11.801 -0.1682  0.1947 -0.2203
  453TMC3     H 6804   2.769   2.247  11.684  1.0122  0.7179  1.8017
  453TMC3    H1 6805   2.855   2.663  11.637  0.9481  0.0710 -2.9900
  453TMC3    H2 6806   2.526   2.481  11.432 -0.7406  0.8802  0.0531
  453TMC3    C7 6807   2.703   2.673  11.409  0.0752  0.2721 -0.9618
  453TMC3    C8 6808   2.568   2.240  11.511  0.9337 -0.1825  0.1992
  453TMC3    O1 6809   2.666   2.621  11.303 -0.7323 -0.0564 -0.1005
  453TMC3    O2 6810   2.464   2.267  11.455  0.1403 -0.1649  0.3223
  454MPD2     C 6811   2.297   1.458  16.006  0.7003 -0.5550 -1.1893
  454MPD2    C1 6812   2.195   1.545  16.021 -0.1633  0.9177 -0.2425
  454MPD2    C2 6813   2.157   1.584  16.149  0.2329 -0.2492  0.3594
  454MPD2    C3 6814   2.209   1.524  16.263  0.2717  0.2155 -0.4814
  454MPD2    C4 6815   2.298   1.419  16.240  0.3874 -0.5944 -0.4316
  454MPD2    C5 6816   2.347   1.396  16.116  0.6006 -0.2443 -0.7432
  454MPD2     H 6817   2.063   1.639  16.149  0.5668  0.3254 -0.7757
  454MPD2    H1 6818   2.342   1.374  16.329 -0.3239 -0.6829 -0.1265
  454MPD2    H2 6819   2.346   1.426  15.914  0.2818 -2.0544 -0.8981
  454MPD2    H3 6820   2.432   1.330  16.108  1.0797  0.3647 -0.6327
  454MPD2     N 6821   2.163   1.549  16.392 -0.6898  0.0340 -0.0726
  454MPD2    H5 6822   2.168   1.477  16.463  1.3512  1.7143  1.5000
  454MPD2    N1 6823   2.122   1.594  15.914  0.1999  0.6862  0.6858
  454MPD2    H7 6824   2.056   1.670  15.924  1.0140  1.5754 -0.7388
  455TMC3    C1 6825   1.983   1.642  16.526 -0.3360 -0.0352 -0.3471
  455TMC3    C2 6826   1.933   1.756  16.571  0.5886 -0.5944 -0.0818
  455TMC3    C3 6827   1.820   1.756  16.647 -0.6080  0.4865 -0.2954
  455TMC3    C4 6828   1.927   1.518  16.555 -0.0804 -0.6483 -0.1883
  455TMC3    C5 6829   1.812   1.531  16.639 -0.3843 -0.1397 -0.8320
  455TMC3    C6 6830   1.753   1.648  16.692  0.1062  0.5846 -0.6274
  455TMC3     C 6831   2.080   1.655  16.419  0.1716  0.5413  0.5819
  455TMC3     O 6832   2.081   1.763  16.363 -0.1590 -0.0916 -0.0085
  455TMC3     H 6833   1.972   1.851  16.536  0.1782 -0.7626 -1.0137
  455TMC3    H1 6834   1.970   1.419  16.544 -1.2211 -0.8669 -2.6525
  455TMC3    H2 6835   1.654   1.646  16.735  1.6394  0.8935  2.8621
  455TMC3    C7 6836   1.744   1.404  16.667  0.5276  0.2077  0.1855
  455TMC3    C8 6837   1.789   1.886  16.701 -0.4535 -0.3201  0.3686
  455TMC3    O1 6838   1.682   1.398  16.774  0.2185  0.7124 -0.3335
  455TMC3    O2 6839   1.873   1.974  16.684 -0.7196  0.1863 -0.1300
  456MPD2     C 6840   4.633   1.993  15.926  0.2415  0.2186  0.3262
  456MPD2    C1 6841   4.695   1.934  16.033 -0.6823  0.0350 -0.0969
  456MPD2    C2 6842   4.637   1.950  16.160  0.0056  0.1863  0.1747
  456MPD2    C3 6843   4.532   2.043  16.175  0.0888 -0.2902 -0.6667
  456MPD2    C4 6844   4.477   2.104  16.063  0.0119  0.0095  0.1308
  456MPD2    C5 6845   4.525   2.077  15.938 -0.2160  0.5177  0.0896
  456MPD2     H 6846   4.682   1.916  16.253 -0.7137 -0.8336  0.1503
  456MPD2    H1 6847   4.406   2.186  16.071  0.7937  0.8720 -1.6805
  456MPD2    H2 6848   4.660   1.968  15.824 -1.8997  1.4348 -0.5263
  456MPD2    H3 6849   4.478   2.121  15.851 -0.2044 -0.6411 -0.5007
  456MPD2     N 6850   4.476   2.061  16.306 -0.5263 -0.7293 -0.5786
  456MPD2    H5 6851   4.494   1.990  16.376 -3.3989 -1.2590 -0.3906
  456MPD2    N1 6852   0.080   1.863  16.016  0.5693  0.1708 -0.3961
  456MPD2    H7 6853   0.121   1.872  15.923 -0.7606 -2.9861 -1.2627
  457TMC3    C1 6854   4.358   2.170  16.488  0.2697  1.0646 -0.1956
  457TMC3    C2 6855   4.252   2.251  16.537  0.4209 -0.2918  0.5742
  457TMC3    C3 6856   4.247   2.286  16.669  0.7738  0.0340 -0.0301
  457TMC3    C4 6857   4.460   2.133  16.567 -0.5656  0.4388  0.0583
  457TMC3    C5 6858   4.447   2.177  16.698 -0.2722  0.2098 -0.2081
  457TMC3    C6 6859   4.339   2.240  16.756  0.8084  0.3197  0.6211
  457TMC3     C 6860   4.397   2.172  16.345  0.7260 -0.1410  0.4245
  457TMC3     O 6861   4.362   2.274  16.281  0.0002  0.0851 -0.6919
  457TMC3     H 6862   4.184   2.298  16.467 -1.6794 -2.7306  0.9729
  457TMC3    H1 6863   4.544   2.069  16.543 -0.1939  1.7250 -2.0785
  457TMC3    H2 6864   4.341   2.271  16.860  3.0466  0.4718  0.5237
  457TMC3    C7 6865   4.547   2.147  16.797 -0.6490  0.2107  0.4622
  457TMC3    C8 6866   4.156   2.389  16.718  0.0670  0.0656 -0.3672
  457TMC3    O1 6867   4.510   2.125  16.912 -0.3785 -0.4476 -0.2756
  457TMC3    O2 6868   4.168   2.416  16.837 -0.0431  0.3746  0.0890
  458MPD2     C 6869   1.820   1.728  12.163 -0.5627 -0.2225 -0.3655
  458MPD2    C1 6870   1.809   1.689  12.291  0.4346  0.1509 -0.7759
  458MPD2    C2 6871   1.688   1.684  12.356 -1.0115 -0.2284  0.3732
  458MPD2    C3 6872   1.573   1.709  12.278 -0.2710 -0.0329 -0.1514
  458MPD2    C4 6873   1.583   1.744  12.139 -0.3159  0.9274 -0.6761
  458MPD2    C5 6874   1.710   1.756  12.088 -0.4616 -0.2546 -0.4505
  458MPD2     H 6875   1.672   1.678  12.463 -0.9138 -2.7842  0.2418
  458MPD2    H1 6876   1.496   1.774  12.081  0.0594 -0.4694 -1.9815
  458MPD2    H2 6877   1.919   1.755  12.127 -0.0781 -1.6870 -0.1190
  458MPD2    H3 6878   1.728   1.805  11.993 -0.1024  0.7305  0.1354
  458MPD2     N 6879   1.453   1.715  12.347  0.1275  0.6293  0.4698
  458MPD2    H5 6880   1.461   1.697  12.447  1.7334 -0.1859  0.1831
  458MPD2    N1 6881   1.935   1.657  12.346  0.1289 -0.2301 -0.5429
  458MPD2    H7 6882   2.015   1.673  12.286 -0.0958  0.0672 -0.7630
  459TMC3    C1 6883   2.101   1.600  12.503 -0.0906  0.7936 -0.8049
  459TMC3    C2 6884   2.205   1.642  12.429  0.1793  0.1554 -0.0656
  459TMC3    C3 6885   2.332   1.635  12.474  0.2020 -0.1887 -0.0932
  459TMC3    C4 6886   2.125   1.560  12.636 -0.0731 -0.3451  0.0131
  459TMC3    C5 6887   2.252   1.573  12.682 -0.0852 -0.4783  0.7094
  459TMC3    C6 6888   2.360   1.614  12.604  0.4462  0.4030 -0.0914
  459TMC3     C 6889   1.958   1.614  12.474  0.2184 -0.2330  0.6126
  459TMC3     O 6890   1.879   1.595  12.565 -1.1773  0.6709 -1.3038
  459TMC3     H 6891   2.196   1.689  12.332  1.0727  1.4835  0.4964
  459TMC3    H1 6892   2.044   1.546  12.707  2.2479 -1.3790  2.4658
  459TMC3    H2 6893   2.462   1.608  12.640  0.1934  2.7060  0.9698
  459TMC3    C7 6894   2.292   1.487  12.796 -0.4829 -0.4572 -0.5967
  459TMC3    C8 6895   2.437   1.655  12.380 -0.6249  0.5203 -0.5574
  459TMC3    O1 6896   2.217   1.397  12.829 -0.7391  0.3384 -0.5131
  459TMC3    O2 6897   2.532   1.730  12.407  0.2013 -0.0606 -0.2373
  460MPD2     C 6898   1.430   4.286  10.832  1.0228 -0.1634 -0.0621
  460MPD2    C1 6899   1.385   4.177  10.764  0.1642  0.6214  0.0603
  460MPD2    C2 6900   1.315   4.194  10.643 -0.0841 -0.2720 -0.0331
  460MPD2    C3 6901   1.307   4.316  10.581 -0.2468 -0.3236 -0.5111
  460MPD2    C4 6902   1.337   4.429  10.657 -0.1836 -0.4883  0.1601
  460MPD2    C5 6903   1.395   4.409  10.779  0.0097  0.0227 -0.8558
  460MPD2     H 6904   1.268   4.112  10.590 -2.2565  0.4481  0.8083
  460MPD2    H1 6905   1.316   4.531  10.628 -0.7616 -0.3461  1.0777
  460MPD2    H2 6906   1.485   4.275  10.925  0.8703 -0.5139 -0.0145
  460MPD2    H3 6907   1.426   4.498  10.832  0.2819 -0.4184 -0.2712
  460MPD2     N 6908   1.244   4.326  10.451  0.0868 -0.6753 -0.8323
  460MPD2    H5 6909   1.210   4.242  10.403 -2.7268  0.2252 -0.4176
  460MPD2    N1 6910   1.408   4.058  10.838  0.8406 -0.4747 -0.2365
  460MPD2    H7 6911   1.447   4.069  10.931  1.3124  0.7274 -0.5839
  461TMC3    C1 6912   1.124   4.421  10.271 -0.1343 -0.6543 -0.6585
  461TMC3    C2 6913   1.081   4.302  10.224 -0.2457  0.3772 -0.8381
  461TMC3    C3 6914   1.032   4.292  10.100  0.7295  0.3191  0.0265
  461TMC3    C4 6915   1.103   4.528  10.191  0.1306 -0.1745  0.1068
  461TMC3    C5 6916   1.056   4.513  10.061 -0.3114  0.3649  0.2222
  461TMC3    C6 6917   1.019   4.389  10.008 -0.1712  0.8543 -0.2126
  461TMC3     C 6918   1.216   4.442  10.386  0.1163 -0.0253 -0.2791
  461TMC3     O 6919   1.268   4.553  10.404  0.5520 -0.2334  0.3661
  461TMC3     H 6920   1.078   4.217  10.292 -0.3001  0.5965 -0.5678
  461TMC3    H1 6921   1.121   4.627  10.233  3.2927 -1.0560  0.8634
  461TMC3    H2 6922   0.989   4.372   9.905 -2.0663 -1.2905  0.7127
  461TMC3    C7 6923   1.067   4.612   9.959 -0.4963  0.7248 -0.1284
  461TMC3    C8 6924   1.002   4.157  10.045  0.2076 -0.0096 -0.1403
  461TMC3    O1 6925   1.017   4.591   9.847 -0.1722 -0.2225  0.3049
  461TMC3    O2 6926   0.931   4.078  10.110  0.4511 -0.5805  0.3691
  462TMC3    C1 6927   1.540   4.193   0.196 -0.1857  0.5035 -0.3383
  462TMC3    C2 6928   1.515   4.242   0.070 -0.0606  0.6896 -0.3156
  462TMC3    C3 6929   1.419   4.167   0.000  0.6495 -0.6332  0.5369
  462TMC3    C4 6930   1.474   4.088   0.250  0.2573  0.2601 -0.1648
  462TMC3    C5 6931   1.393   4.009   0.172 -0.6891 -0.2353 -0.5639
  462TMC3    C6 6932   1.375   4.043   0.042 -0.1534 -0.3783 -0.2662
  462TMC3     C 6933   1.657   4.236   0.264  0.0659  0.7471 -0.1334
  462TMC3     O 6934   1.658   4.215   0.383  0.5911  0.0556  0.1158
  462TMC3     H 6935   1.559   4.327   0.020  0.0369  0.6924 -0.2253
  462TMC3    H1 6936   1.511   4.037   0.338 -0.6563  1.5446  0.9708
  462TMC3    H2 6937   1.290   4.008  17.720  1.0285 -0.7583 -1.8063
  462TMC3    C7 6938   1.302   3.918   0.232 -0.0106  0.4557 -0.3944
  462TMC3    C8 6939   1.422   4.187  17.594  0.2757 -0.3209  0.1872
  462TMC3    O1 6940   1.243   3.845   0.148  0.4354  0.4571 -0.3127
  462TMC3    O2 6941   1.413   4.304  17.565 -0.5234 -0.1593  0.2510
  463MPD2     C 6942   1.059   3.544   2.086  0.1172  0.7872 -0.3186
  463MPD2    C1 6943   1.084   3.536   1.949 -0.9726  0.4628  0.2311
  463MPD2    C2 6944   1.074   3.647   1.872 -0.4992 -0.2136 -0.5064
  463MPD2    C3 6945   1.036   3.771   1.928  0.4738  0.5556  0.0020
  463MPD2    C4 6946   1.003   3.773   2.064 -0.1530  0.3834 -0.1391
  463MPD2    C5 6947   1.012   3.662   2.139 -0.1978 -0.5549 -0.5967
  463MPD2     H 6948   1.104   3.644   1.767  2.4113  1.6122  0.2857
  463MPD2    H1 6949   0.965   3.865   2.107  0.9757  0.8306 -0.0769
  463MPD2    H2 6950   1.066   3.454   2.147 -1.5409  1.4085  0.7963
  463MPD2    H3 6951   0.989   3.668   2.245 -0.3263 -1.6090 -0.5687
  463MPD2     N 6952   1.029   3.891   1.860 -0.0508 -0.0319 -0.4040
  463MPD2    H5 6953   1.014   3.977   1.913  2.1674  0.4843 -0.6129
  463MPD2    N1 6954   1.121   3.413   1.886  0.4124  0.2592  0.4213
  463MPD2    H7 6955   1.147   3.408   1.788  1.5752  0.1074  0.7369
  464TMC3    C1 6956   1.142   3.183   1.844  0.5975 -0.1541 -0.2566
  464TMC3    C2 6957   1.249   3.212   1.758  0.2742 -0.6090 -0.5443
  464TMC3    C3 6958   1.263   3.130   1.650  0.2179 -0.2276 -0.1470
  464TMC3    C4 6959   1.064   3.065   1.837  0.1994 -0.9800 -0.0494
  464TMC3    C5 6960   1.098   2.981   1.735  0.0991 -0.1173  0.2382
  464TMC3    C6 6961   1.198   3.007   1.643  0.0961  0.2642  0.5053
  464TMC3     C 6962   1.109   3.285   1.939 -0.8938 -0.1279 -0.0406
  464TMC3     O 6963   1.060   3.255   2.047  0.0104  0.3024  0.4411
  464TMC3     H 6964   1.298   3.308   1.771 -0.4570 -0.4178  0.8744
  464TMC3    H1 6965   0.973   3.050   1.894 -0.3011  1.2679 -0.2467
  464TMC3    H2 6966   1.227   2.933   1.570 -1.3981  0.8667 -0.7089
  464TMC3    C7 6967   1.041   2.846   1.741  0.0098 -0.1446  0.1101
  464TMC3    C8 6968   1.330   3.192   1.540 -0.0176  0.1628  0.4203
  464TMC3    O1 6969   0.966   2.823   1.836 -0.2220 -0.8442 -0.4072
  464TMC3    O2 6970   1.379   3.306   1.560 -0.0001 -0.3188  0.5970
  465MPD2     C 6971   4.094   2.051  16.243  0.2923 -0.6605  0.3158
  465MPD2    C1 6972   4.012   1.994  16.343 -0.0624  0.1942  0.3752
  465MPD2    C2 6973   3.879   2.020  16.339 -0.2366 -0.6688 -0.3890
  465MPD2    C3 6974   3.832   2.101  16.238 -0.0548 -0.3243  1.0354
  465MPD2    C4 6975   3.907   2.141  16.126 -0.9202 -0.3780 -0.6160
  465MPD2    C5 6976   4.039   2.112  16.134  0.0120  0.6406 -0.4127
  465MPD2     H 6977   3.810   1.973  16.409  0.8322 -1.2149  0.2962
  465MPD2    H1 6978   3.869   2.198  16.043 -2.9965  0.5881  0.9892
  465MPD2    H2 6979   4.202   2.040  16.236  0.3901 -0.0317  0.7568
  465MPD2    H3 6980   4.103   2.159  16.060  2.9428 -0.6862  1.2842
  465MPD2     N 6981   3.695   2.132  16.247  0.9277 -0.0094 -0.4079
  465MPD2    H5 6982   3.632   2.095  16.317  0.3522  2.0172  0.1434
  465MPD2    N1 6983   4.056   1.911  16.446  0.1819  0.6001 -0.2435
  465MPD2    H7 6984   3.985   1.889  16.515 -1.6766  1.3067 -1.9272
  466TMC3    C1 6985   3.305   2.214  16.335  0.1550  0.9740  0.4305
  466TMC3    C2 6986   3.246   2.322  16.277 -0.2930  0.1486 -0.3244
  466TMC3    C3 6987   3.308   2.371  16.169  0.3586  0.2852 -1.0842
  466TMC3    C4 6988   3.425   2.172  16.296 -0.6469 -0.1338 -0.1223
  466TMC3    C5 6989   3.490   2.229  16.188 -0.6913 -0.0963 -0.8057
  466TMC3    C6 6990   3.426   2.321  16.119 -0.4366 -0.4738  0.8091
  466TMC3     C 6991   3.264   2.176  16.466 -0.5653 -0.1649 -0.6443
  466TMC3     O 6992   3.360   2.156  16.539  0.5267 -0.2569 -0.3435
  466TMC3     H 6993   3.148   2.357  16.306  0.3507 -0.6804  2.8890
  466TMC3    H1 6994   3.466   2.088  16.351 -0.8513 -2.9197 -4.2688
  466TMC3    H2 6995   3.475   2.374  16.037 -2.0446  0.6880  0.6084
  466TMC3    C7 6996   3.630   2.215  16.163  1.7641  0.3990  0.8466
  466TMC3    C8 6997   3.263   2.490  16.096  0.3469  0.3541 -0.0455
  466TMC3    O1 6998   3.677   2.294  16.080 -0.0479  0.4931 -0.0940
  466TMC3    O2 6999   3.298   2.508  15.980  0.2622  0.5839  0.3150
  467TMC3    C1 7000   4.473   1.086  13.582 -0.0148 -0.5238  0.7134
  467TMC3    C2 7001   4.394   1.199  13.573 -0.4966  0.5048 -0.1144
  467TMC3    C3 7002   4.260   1.177  13.595  0.1648 -0.8570  0.1504
  467TMC3    C4 7003   4.422   0.952  13.594 -0.3213 -0.4140 -0.1699
  467TMC3    C5 7004   4.285   0.949  13.603 -0.0326  0.8156 -0.1102
  467TMC3    C6 7005   4.199   1.058  13.603 -0.4397  0.2679  0.2761
  467TMC3     C 7006   4.619   1.112  13.559 -0.0586  0.0495 -0.4423
  467TMC3     O 7007   4.685   1.031  13.627  0.1688  0.0741  1.1688
  467TMC3     H 7008   4.434   1.300  13.572 -1.6071  0.8998 -3.8231
  467TMC3    H1 7009   4.493   0.870  13.592  1.1302  0.8466 -0.5711
  467TMC3    H2 7010   4.091   1.052  13.602 -0.4306  0.0721  0.8510
  467TMC3    C7 7011   4.236   0.819  13.642  0.0046  0.0575  0.1302
  467TMC3    C8 7012   4.184   1.299  13.613 -0.2120  0.5267 -0.2432
  467TMC3    O1 7013   4.320   0.730  13.647 -0.4333 -0.3713 -0.1019
  467TMC3    O2 7014   4.242   1.400  13.568  0.2044 -0.3418 -0.1136
  468MPD2     C 7015   3.343   3.951  10.337  0.2698  0.8106 -0.0314
  468MPD2    C1 7016   3.367   3.880  10.456  0.2702  0.2220 -0.5735
  468MPD2    C2 7017   3.363   3.737  10.446 -0.3665 -0.0184  0.4300
  468MPD2    C3 7018   3.341   3.677  10.326 -0.5699  0.0684  0.1682
  468MPD2    C4 7019   3.316   3.750  10.210 -0.7320 -0.3016 -0.1679
  468MPD2    C5 7020   3.324   3.888  10.216 -0.0623  0.6126  0.3514
  468MPD2     H 7021   3.388   3.676  10.532 -2.1284 -1.7036 -0.2571
  468MPD2    H1 7022   3.296   3.700  10.116 -0.3959 -2.3319  0.8242
  468MPD2    H2 7023   3.345   4.060  10.336  0.7785  0.8388  3.0177
  468MPD2    H3 7024   3.305   3.944  10.126 -1.4171  2.4492  1.7802
  468MPD2     N 7025   3.315   3.537  10.321  0.6627  0.1825 -0.0231
  468MPD2    H5 7026   3.301   3.497  10.229 -1.3025  2.1575 -0.5791
  468MPD2    N1 7027   3.402   3.943  10.576 -0.0024  0.0134  0.1055
  468MPD2    H7 7028   3.426   3.886  10.656  0.1707  0.6161  0.4789
  469TMC3    C1 7029   3.458   4.113  10.721  0.5812  0.7520  0.4665
  469TMC3    C2 7030   3.573   4.041  10.757 -0.1219  0.8809  0.3294
  469TMC3    C3 7031   3.623   4.070  10.885  0.2934  0.1000 -0.3020
  469TMC3    C4 7032   3.399   4.214  10.789  0.5174  0.4573  1.2794
  469TMC3    C5 7033   3.450   4.231  10.915  0.3421  0.5033  0.4205
  469TMC3    C6 7034   3.568   4.166  10.961 -0.6034  0.1015  0.3064
  469TMC3     C 7035   3.389   4.076  10.594 -0.8187  0.1237 -0.2831
  469TMC3     O 7036   3.315   4.157  10.547  0.0728 -0.0491  0.3414
  469TMC3     H 7037   3.622   3.964  10.699 -0.4146  0.4561  0.6443
  469TMC3    H1 7038   3.306   4.265  10.765  0.6252  0.5021  0.9685
  469TMC3    H2 7039   3.614   4.195  11.055  2.1052  0.2378 -1.0677
  469TMC3    C7 7040   3.368   4.307  11.003 -0.4200 -0.1002  0.8095
  469TMC3    C8 7041   3.746   4.008  10.929  0.5539  0.4951 -0.2172
  469TMC3    O1 7042   3.326   4.414  10.957 -0.3137 -0.2531 -0.4445
  469TMC3    O2 7043   3.815   3.956  10.840  0.7052 -0.4700  0.2980
  470TMC3    C1 7044   0.989   0.104   1.094  0.3477  0.3873 -0.1569
  470TMC3    C2 7045   1.020   0.223   1.162  0.0677  0.5640  0.2546
  470TMC3    C3 7046   0.931   0.273   1.250  0.4760  0.2939  0.5844
  470TMC3    C4 7047   0.871   0.036   1.110 -0.2082  0.4284 -0.4576
  470TMC3    C5 7048   0.787   0.097   1.204  0.5170  0.6939 -1.2408
  470TMC3    C6 7049   0.818   0.206   1.275 -0.3893 -0.2390 -0.2790
  470TMC3     C 7050   1.080   0.069   0.987  0.3030 -0.0591 -0.7162
  470TMC3     O 7051   1.175   0.142   0.970  0.0574  0.3934  0.1959
  470TMC3     H 7052   1.111   0.279   1.147  0.2157  0.6252  1.3971
  470TMC3    H1 7053   0.840   4.685   1.050 -0.0389 -0.2489  0.4058
  470TMC3    H2 7054   0.747   0.256   1.339  0.8078  1.7005 -0.4928
  470TMC3    C7 7055   0.653   0.037   1.208  0.2233  0.2869 -0.5989
  470TMC3    C8 7056   0.938   0.414   1.291  0.5893  0.9347  0.1584
  470TMC3    O1 7057   0.625   4.677   1.137 -0.4822 -0.0777 -0.8393
  470TMC3    O2 7058   0.828   0.464   1.306  0.2243 -0.2211  0.0968
  471MPD2     C 7059   1.255   1.067  16.487 -0.3022  0.6459  1.3655
  471MPD2    C1 7060   1.207   0.937  16.455 -0.6342  0.7447 -0.3867
  471MPD2    C2 7061   1.187   0.841  16.542 -0.0937  0.5484 -1.1547
  471MPD2    C3 7062   1.204   0.866  16.678  0.6788  0.6754  0.3234
  471MPD2    C4 7063   1.244   0.992  16.713  0.3640  0.5821 -0.2757
  471MPD2    C5 7064   1.262   1.097  16.622 -0.3129  0.3094 -0.4463
  471MPD2     H 7065   1.173   0.743  16.498  0.7771  0.6899 -1.7441
  471MPD2    H1 7066   1.256   1.016  16.818  1.3335  1.0556 -0.4903
  471MPD2    H2 7067   1.273   1.147  16.417 -0.2286  0.1662  0.8426
  471MPD2    H3 7068   1.304   1.191  16.654  2.4916 -1.8132  2.1416
  471MPD2     N 7069   1.186   0.759  16.778 -0.4149 -0.2920 -0.3141
  471MPD2    H5 7070   1.218   0.778  16.872 -2.5402  0.3639  0.2735
  471MPD2    N1 7071   1.195   0.901  16.322  0.2050  0.6869  0.3415
  471MPD2    H7 7072   1.141   0.819  16.296  0.8114  0.2225  0.5394
  472TMC3    C1 7073   1.186   0.895  16.102 -0.5195  0.1808 -0.6280
  472TMC3    C2 7074   1.114   0.948  16.000  0.1050  0.5734  0.3623
  472TMC3    C3 7075   1.099   0.863  15.900 -0.0376  0.1943  0.6214
  472TMC3    C4 7076   1.251   0.775  16.093 -0.3236 -0.2218  0.5455
  472TMC3    C5 7077   1.234   0.689  15.993  0.1743 -0.2534 -0.4863
  472TMC3    C6 7078   1.154   0.734  15.896  0.2206  0.3745 -0.1973
  472TMC3     C 7079   1.231   0.977  16.217 -0.7604  0.9764 -0.6575
  472TMC3     O 7080   1.288   1.084  16.207  1.3068 -0.4109  0.6710
  472TMC3     H 7081   1.052   1.036  16.008 -0.8951 -0.1459  0.5474
  472TMC3    H1 7082   1.310   0.741  16.178 -0.4719 -0.6952  0.4582
  472TMC3    H2 7083   1.140   0.675  15.806 -0.7101 -0.2929  0.3776
  472TMC3    C7 7084   1.212   0.554  16.043  0.2410  0.6403 -0.2454
  472TMC3    C8 7085   0.964   0.852  15.863  0.5858 -0.1520 -0.6841
  472TMC3    O1 7086   1.285   0.504  16.126  0.3848  0.1447 -0.2219
  472TMC3    O2 7087   0.918   0.934  15.786  0.4214 -0.4190 -0.3848
  473MPD2     C 7088   1.151   3.203  13.695  0.5935 -0.2980  0.5450
  473MPD2    C1 7089   1.043   3.234  13.626  0.6620  0.1814 -0.2544
  473MPD2    C2 7090   0.966   3.341  13.671 -0.1015  0.0017  1.1768
  473MPD2    C3 7091   0.994   3.405  13.791  0.2489  0.8285  1.0536
  473MPD2    C4 7092   1.098   3.359  13.872  0.2960  0.2960 -0.2128
  473MPD2    C5 7093   1.177   3.257  13.821 -0.1154  0.2560  0.6016
  473MPD2     H 7094   0.885   3.373  13.607 -0.8192 -2.2668  0.9707
  473MPD2    H1 7095   1.120   3.408  13.966 -0.8618 -0.8502  0.6593
  473MPD2    H2 7096   1.216   3.122  13.666  1.3358  0.3845  0.2963
  473MPD2    H3 7097   1.267   3.228  13.873  0.1891  0.1617  0.0199
  473MPD2     N 7098   0.914   3.500  13.843 -0.3027  0.1073 -0.9367
  473MPD2    H5 7099   0.906   3.518  13.943 -0.7058  0.6165 -1.0651
  473MPD2    N1 7100   0.994   3.178  13.502  0.5035  0.1325 -0.3158
  473MPD2    H7 7101   0.915   3.228  13.461  0.2391 -1.3261 -1.5752
  474TMC3    C1 7102   0.746   3.663  13.849 -0.4719  0.0851 -0.7529
  474TMC3    C2 7103   0.690   3.771  13.784 -0.2981  0.1765 -0.5156
  474TMC3    C3 7104   0.576   3.828  13.837 -0.0299 -0.1548 -0.1257
  474TMC3    C4 7105   0.696   3.613  13.966  0.2888  0.8258 -0.6852
  474TMC3    C5 7106   0.582   3.674  14.009 -0.2967 -0.7476  0.7379
  474TMC3    C6 7107   0.515   3.775  13.943  0.9688  0.6172  0.3983
  474TMC3     C 7108   0.830   3.578  13.770 -0.4074 -0.6299 -0.5153
  474TMC3     O 7109   0.815   3.586  13.648 -0.1710 -0.0368 -0.1878
  474TMC3     H 7110   0.748   3.813  13.703  0.7888  0.4492  0.4058
  474TMC3    H1 7111   0.721   3.517  14.008 -3.4046 -0.2053 -0.7858
  474TMC3    H2 7112   0.423   3.813  13.986  1.1507  3.0476 -1.4228
  474TMC3    C7 7113   0.530   3.640  14.139 -0.1469 -0.4190  0.3516
  474TMC3    C8 7114   0.519   3.947  13.772 -0.2086  0.0292 -0.4147
  474TMC3    O1 7115   0.441   3.711  14.179 -0.3501  0.1114 -0.2087
  474TMC3    O2 7116   0.406   3.975  13.800 -0.1691  0.3607 -0.0431
  475MPD2     C 7117   4.388   1.405   9.908 -0.1619  0.6211  0.0131
  475MPD2    C1 7118   4.394   1.500  10.016 -0.5700 -0.8963 -0.4198
  475MPD2    C2 7119   4.305   1.500  10.116  0.3024 -0.7028  0.2982
  475MPD2    C3 7120   4.181   1.438  10.091 -0.2335 -0.7525  0.0039
  475MPD2    C4 7121   4.177   1.354   9.979  0.5537  0.5371 -0.7674
  475MPD2    C5 7122   4.280   1.337   9.892  0.6735 -0.8089 -0.3234
  475MPD2     H 7123   4.327   1.534  10.217 -0.6163 -1.2106  0.6658
  475MPD2    H1 7124   4.090   1.295   9.954 -0.7241  1.1919  2.1439
  475MPD2    H2 7125   4.460   1.395   9.828  0.4624 -1.0056  0.7736
  475MPD2    H3 7126   4.276   1.263   9.813 -0.9146  0.6190 -1.5685
  475MPD2     N 7127   4.073   1.453  10.184 -0.3594 -0.1119 -0.3259
  475MPD2    H5 7128   4.090   1.516  10.261 -0.7495  0.3941 -0.6585
  475MPD2    N1 7129   4.513   1.577  10.022  0.1622  0.1801 -0.0311
  475MPD2    H7 7130   4.589   1.531   9.973 -0.8107 -0.5503 -0.8614
  476TMC3    C1 7131   4.415   1.772  10.128  0.2909  0.2725  0.1301
  476TMC3    C2 7132   4.350   1.843  10.031  0.3518  0.4664  0.8666
  476TMC3    C3 7133   4.267   1.942  10.075  0.1558  0.3280  0.6848
  476TMC3    C4 7134   4.409   1.805  10.257  0.4924 -0.4430  0.3325
  476TMC3    C5 7135   4.332   1.908  10.297  0.0895  0.6844  0.3850
  476TMC3    C6 7136   4.254   1.973  10.208 -0.0468  0.2827  0.6501
  476TMC3     C 7137   4.529   1.695  10.082 -0.8427 -0.6112 -0.2227
  476TMC3     O 7138   4.638   1.753  10.105  0.0899 -0.4128  0.6709
  476TMC3     H 7139   4.360   1.817   9.926 -0.9367 -1.9833  1.3356
  476TMC3    H1 7140   4.470   1.760  10.334 -1.2564 -1.7633  0.9700
  476TMC3    H2 7141   4.177   2.042  10.239  1.6640  2.3865  0.1681
  476TMC3    C7 7142   4.291   1.913  10.431  0.0838 -0.6330  0.5322
  476TMC3    C8 7143   4.147   1.969   9.999 -0.0979  0.4461 -1.1197
  476TMC3    O1 7144   4.284   1.812  10.496  0.1896 -0.2839 -0.1401
  476TMC3    O2 7145   4.072   2.053  10.038 -0.3788 -0.0967 -0.3945
  477MPD2     C 7146   1.460   2.768  11.861  0.3316 -0.6455 -0.1054
  477MPD2    C1 7147   1.519   2.776  11.737  0.0662  0.6740  0.2836
  477MPD2    C2 7148   1.629   2.698  11.720  0.3550 -0.1845 -0.5560
  477MPD2    C3 7149   1.681   2.613  11.822 -0.0726 -0.4735 -0.3668
  477MPD2    C4 7150   1.623   2.608  11.943  1.0363  0.2638 -0.4780
  477MPD2    C5 7151   1.509   2.684  11.957 -0.1702  0.5965  0.0781
  477MPD2     H 7152   1.689   2.697  11.630  0.7330  0.3163 -0.3085
  477MPD2    H1 7153   1.654   2.536  12.017  1.9032 -0.7367 -1.8018
  477MPD2    H2 7154   1.369   2.825  11.872  2.2266  2.2352  0.8106
  477MPD2    H3 7155   1.453   2.679  12.049  1.5128 -0.6117  1.0273
  477MPD2     N 7156   1.793   2.538  11.789  0.1940 -0.5325  0.0178
  477MPD2    H5 7157   1.806   2.536  11.688  2.2724 -0.4475  0.2855
  477MPD2    N1 7158   1.480   2.878  11.651  0.6786  0.3120  0.3573
  477MPD2    H7 7159   1.427   2.949  11.700 -1.7686 -0.7744 -0.7334
  478TMC3    C1 7160   1.468   3.006  11.459 -0.4283 -0.1680  0.0468
  478TMC3    C2 7161   1.481   3.125  11.519 -0.5012  0.1677  0.5398
  478TMC3    C3 7162   1.444   3.237  11.452  0.3723 -0.3801 -0.3478
  478TMC3    C4 7163   1.443   2.994  11.322 -0.0453  0.2663  0.5835
  478TMC3    C5 7164   1.422   3.112  11.252  0.0895  0.4025  0.8756
  478TMC3    C6 7165   1.414   3.232  11.320 -0.1684 -0.0190  0.2681
  478TMC3     C 7166   1.521   2.887  11.516 -0.6779 -0.3142 -0.2709
  478TMC3     O 7167   1.573   2.803  11.448 -0.0704  0.0336  0.0923
  478TMC3     H 7168   1.505   3.135  11.624  0.6336 -1.4769  0.4412
  478TMC3    H1 7169   1.433   2.897  11.274 -0.1312 -0.1825  1.5202
  478TMC3    H2 7170   1.411   3.323  11.261  0.1700  0.4909  1.0396
  478TMC3    C7 7171   1.379   3.118  11.113  0.1465  0.4530  0.5934
  478TMC3    C8 7172   1.486   3.354  11.515 -0.6773  0.1320 -0.5795
  478TMC3    O1 7173   1.393   3.229  11.062 -0.0994 -0.1161 -0.2074
  478TMC3    O2 7174   1.562   3.343  11.613 -0.0979 -0.3857 -0.2732
  479MPD2     C 7175   0.863   0.630  15.070  0.2855  0.7447  0.5761
  479MPD2    C1 7176   0.791   0.544  15.153  0.4522 -0.5655 -0.1521
  479MPD2    C2 7177   0.831   0.551  15.285  0.2638 -0.3600  0.1879
  479MPD2    C3 7178   0.919   0.640  15.332 -0.4331  0.2140 -0.5611
  479MPD2    C4 7179   0.991   0.725  15.248  0.2497 -0.2982 -0.7972
  479MPD2    C5 7180   0.974   0.701  15.115  0.1564  0.3001  0.4403
  479MPD2     H 7181   0.787   0.478  15.352  2.3188 -1.2875  0.4920
  479MPD2    H1 7182   1.068   0.783  15.298 -1.0825  0.6017  0.1933
  479MPD2    H2 7183   0.843   0.632  14.964  0.6426  0.2257  0.4967
  479MPD2    H3 7184   1.020   0.764  15.040  0.0750 -1.0182 -0.7099
  479MPD2     N 7185   0.950   0.643  15.472  0.2888 -0.5683 -0.3043
  479MPD2    H5 7186   1.043   0.684  15.483 -0.2873  0.4255  0.8760
  479MPD2    N1 7187   0.674   0.482  15.107 -0.6353 -0.0439  0.3923
  479MPD2    H7 7188   0.659   0.481  15.006 -0.6246  1.3971  0.3814
  480TMC3    C1 7189   0.590   0.407  15.660 -0.1781 -0.0970 -0.7130
  480TMC3    C2 7190   0.493   0.491  15.616 -0.4274 -0.3901 -0.1900
  480TMC3    C3 7191   0.541   0.606  15.570 -0.4564 -0.1182 -0.1231
  480TMC3    C4 7192   0.728   0.423  15.653 -0.4208 -0.8025 -0.3050
  480TMC3    C5 7193   0.766   0.531  15.583  0.4628  0.0218 -0.4565
  480TMC3    C6 7194   0.673   0.626  15.537 -0.2585  0.1343  0.7885
  480TMC3     C 7195   0.546   0.274  15.702 -0.3373  0.1715 -0.4173
  480TMC3     O 7196   0.632   0.217  15.772  0.3900 -0.5571 -0.8242
  480TMC3     H 7197   0.386   0.475  15.626 -0.7179  1.6849  0.0202
  480TMC3    H1 7198   0.804   0.349  15.676 -0.2396  0.1947  2.2739
  480TMC3    H2 7199   0.704   0.726  15.509 -0.0805  0.4065  1.9539
  480TMC3    C7 7200   0.905   0.559  15.569 -0.0674  0.0603 -0.5357
  480TMC3    C8 7201   0.446   0.654  15.481 -0.3318  0.0248  0.1118
  480TMC3    O1 7202   0.976   0.517  15.657  0.3179  0.4868 -0.0997
  480TMC3    O2 7203   0.335   0.668  15.535  0.0606 -0.7025  0.2089
  481MPD2     C 7204   2.395   4.498  14.779  0.2827  0.0321 -0.1795
  481MPD2    C1 7205   2.343   4.415  14.680  1.1543 -0.2602 -0.6563
  481MPD2    C2 7206   2.313   4.276  14.704  0.1945  0.1210 -0.2196
  481MPD2    C3 7207   2.320   4.230  14.839  0.6665 -0.1097 -0.8123
  481MPD2    C4 7208   2.358   4.321  14.936  0.2212 -0.1956  0.2498
  481MPD2    C5 7209   2.399   4.447  14.905 -0.2111 -0.6566 -0.3676
  481MPD2     H 7210   2.273   4.205  14.632  1.2305 -1.7904  1.0601
  481MPD2    H1 7211   2.359   4.291  15.040 -0.1446  2.2650  0.9647
  481MPD2    H2 7212   2.423   4.602  14.774  1.3707 -0.1833  1.5340
  481MPD2    H3 7213   2.418   4.515  14.988  0.0781 -1.4698  0.2345
  481MPD2     N 7214   2.277   4.101  14.882  0.0728 -0.1307  0.0845
  481MPD2    H5 7215   2.286   4.082  14.982  0.0347  3.9722  0.8678
  481MPD2    N1 7216   2.327   4.467  14.546 -0.0112  0.3409 -0.9395
  481MPD2    H7 7217   2.325   4.568  14.536 -1.0794  0.4740  0.6728
  482TMC3    C1 7218   2.252   4.479  14.329 -1.1302  0.2150  0.0199
  482TMC3    C2 7219   2.149   4.424  14.260 -0.5175  0.0306 -0.6879
  482TMC3    C3 7220   2.054   4.495  14.197 -0.4857  0.7210 -0.4379
  482TMC3    C4 7221   2.270   4.614  14.324  0.1959 -0.5685 -0.1661
  482TMC3    C5 7222   2.171   4.692  14.253 -0.0975  0.1228  0.7827
  482TMC3    C6 7223   2.063   4.635  14.192  0.3441 -0.1377 -0.3687
  482TMC3     C 7224   2.309   4.392  14.429 -0.7375 -0.1048  0.1182
  482TMC3     O 7225   2.301   4.272  14.406  0.7856  0.5230 -0.0548
  482TMC3     H 7226   2.148   4.316  14.252 -2.3668 -0.0661  0.8902
  482TMC3    H1 7227   2.362   4.666  14.347 -1.6679  1.0960  3.6058
  482TMC3    H2 7228   1.977   4.694  14.164  2.3779  2.8846 -0.1845
  482TMC3    C7 7229   2.203   0.095  14.219  0.3112  0.5578  0.0099
  482TMC3    C8 7230   1.931   4.411  14.167  0.3908  0.1452 -0.1268
  482TMC3    O1 7231   2.278   0.160  14.291 -0.4642 -0.5663  0.0399
  482TMC3    O2 7232   1.927   4.301  14.217 -0.1068  0.0756  0.4933
  483TMC3    C1 7233   4.297   3.225   0.088 -0.2007 -0.2957  0.8654
  483TMC3    C2 7234   4.378   3.341   0.117 -0.0638 -0.6453  0.3649
  483TMC3    C3 7235   4.454   3.348   0.230  0.1137  0.4781 -0.1615
  483TMC3    C4 7236   4.299   3.113   0.179 -0.0583  0.1776  0.6808
  483TMC3    C5 7237   4.388   3.125   0.291  0.4917  0.6981 -0.4271
  483TMC3    C6 7238   4.452   3.246   0.318 -0.5117 -0.1862 -0.5461
  483TMC3     C 7239   4.250   3.207  17.689  0.3200  0.3692  0.2414
  483TMC3     O 7240   4.218   3.302  17.615  0.0193  1.0733  0.4161
  483TMC3     H 7241   4.388   3.424   0.049 -0.5153  0.7885  2.0602
  483TMC3    H1 7242   4.230   3.031   0.165  2.1766 -1.9550  2.0437
  483TMC3    H2 7243   4.527   3.242   0.396  0.8971  0.0509 -1.8790
  483TMC3    C7 7244   4.449   3.015   0.372  0.0673  0.0811 -0.3492
  483TMC3    C8 7245   4.546   3.454   0.245 -0.4210 -0.6789  0.0041
  483TMC3    O1 7246   4.484   3.038   0.487  0.6100  0.5670 -0.0764
  483TMC3    O2 7247   4.621   3.461   0.150  0.0774 -0.0499  0.4324
  484MPD2     C 7248   2.454   1.471  12.056  1.1216 -0.2337  1.0110
  484MPD2    C1 7249   2.495   1.561  12.148  0.1149 -0.2498 -0.1483
  484MPD2    C2 7250   2.612   1.638  12.123 -0.2077 -0.3529  0.3517
  484MPD2    C3 7251   2.677   1.621  12.001  0.2488  0.7281 -0.1319
  484MPD2    C4 7252   2.625   1.537  11.907 -0.2049  0.0089  0.3815
  484MPD2    C5 7253   2.515   1.462  11.935 -0.5280  0.6482  0.4386
  484MPD2     H 7254   2.645   1.720  12.185  2.1307  0.4614 -1.9674
  484MPD2    H1 7255   2.682   1.536  11.815  0.1555  2.1680  0.5891
  484MPD2    H2 7256   2.364   1.413  12.077  0.7828 -0.9388 -2.3675
  484MPD2    H3 7257   2.471   1.389  11.867 -2.0321  0.2117  1.9054
  484MPD2     N 7258   2.778   1.719  11.959 -0.3080  0.0580 -0.7114
  484MPD2    H5 7259   2.805   1.713  11.861  1.6131 -0.0366 -0.1826
  484MPD2    N1 7260   2.412   1.579  12.269  0.2432  0.1226 -0.2843
  484MPD2    H7 7261   2.323   1.531  12.268 -0.2200  1.0135 -0.5472
  485TMC3    C1 7262   2.955   1.861  11.955  0.0137  0.5458  0.5877
  485TMC3    C2 7263   3.082   1.848  12.000  0.7446 -0.8317 -0.5071
  485TMC3    C3 7264   3.179   1.923  11.939  0.1390  0.7250 -0.0569
  485TMC3    C4 7265   2.915   1.926  11.841  0.7431  0.5611 -0.6222
  485TMC3    C5 7266   3.016   1.993  11.775 -0.0318 -0.1300 -0.2033
  485TMC3    C6 7267   3.138   2.004  11.833  0.3815  0.3569 -0.4902
  485TMC3     C 7268   2.860   1.791  12.040 -0.3175  0.5760  0.8974
  485TMC3     O 7269   2.843   1.830  12.154 -0.1038 -0.3647  0.0829
  485TMC3     H 7270   3.108   1.806  12.097  2.4471  0.3591 -0.4405
  485TMC3    H1 7271   2.817   1.915  11.797  0.0609  1.3387  0.7029
  485TMC3    H2 7272   3.206   2.061  11.772 -0.7336  1.0361 -1.0961
  485TMC3    C7 7273   3.008   1.989  11.635 -0.0734  0.1848  0.5444
  485TMC3    C8 7274   3.293   1.847  11.894  0.5371 -0.3866  0.0866
  485TMC3    O1 7275   2.926   2.061  11.579  0.4667  0.7478 -0.9133
  485TMC3    O2 7276   3.308   1.851  11.773  0.5034 -0.0642  1.3081
  486MPD2     C 7277   0.423   0.676  13.077 -0.2016 -0.5389  0.0404
  486MPD2    C1 7278   0.326   0.606  13.003 -0.1483 -0.2810  0.4023
  486MPD2    C2 7279   0.267   0.682  12.903 -0.0627 -0.1971 -0.1544
  486MPD2    C3 7280   0.294   0.812  12.876  0.4471 -0.1097  0.0916
  486MPD2    C4 7281   0.391   0.875  12.954  0.0479 -0.1113  0.0578
  486MPD2    C5 7282   0.455   0.806  13.049  0.0869 -0.1713  0.8420
  486MPD2     H 7283   0.198   0.638  12.832  0.9102  0.1075 -1.2933
  486MPD2    H1 7284   0.399   0.983  12.950  0.1477 -0.1460 -0.8656
  486MPD2    H2 7285   0.473   0.619  13.155  0.3618  1.5958  1.2386
  486MPD2    H3 7286   0.520   0.859  13.118  1.3555 -0.9518  0.2402
  486MPD2     N 7287   0.236   0.870  12.758  0.2662 -0.2774 -0.1832
  486MPD2    H5 7288   0.165   0.819  12.706 -1.2110  1.9026 -0.3246
  486MPD2    N1 7289   0.303   0.468  13.019  0.5741  0.2347  0.1145
  486MPD2    H7 7290   0.361   0.427  13.091  1.7236 -1.2066 -1.6286
  487TMC3    C1 7291   0.214   0.263  13.023 -0.0775  1.0555 -0.1310
  487TMC3    C2 7292   0.135   0.167  12.960 -0.2947 -0.6103  0.6528
  487TMC3    C3 7293   0.100   0.053  13.033  0.4681 -0.5261  0.6601
  487TMC3    C4 7294   0.241   0.249  13.159  0.4086  0.2826 -0.3868
  487TMC3    C5 7295   0.200   0.134  13.220  0.1923 -0.1159 -0.3720
  487TMC3    C6 7296   0.149   0.025  13.154 -0.4844  0.6962 -0.0797
  487TMC3     C 7297   0.216   0.392  12.957  0.3907 -1.2198  0.5002
  487TMC3     O 7298   0.159   0.415  12.854 -0.5120 -0.4636  0.0336
  487TMC3     H 7299   0.118   0.185  12.855 -1.5443  1.8475  1.2592
  487TMC3    H1 7300   0.274   0.327  13.226  1.3192 -1.9304  1.7097
  487TMC3    H2 7301   0.118   4.667  13.203  0.4480  0.5259  0.1988
  487TMC3    C7 7302   0.165   0.137  13.366 -0.9279 -0.4724  0.4628
  487TMC3    C8 7303   4.714   4.711  13.002  0.3851  1.1594  0.0476
  487TMC3    O1 7304   0.225   0.218  13.432 -0.6440  0.1280  0.1109
  487TMC3    O2 7305   4.642   4.687  13.097 -0.9048  0.9233 -0.4510
  488MPD2     C 7306   0.393   1.808  16.498  0.5296 -0.1016 -0.0532
  488MPD2    C1 7307   0.445   1.905  16.579 -0.1554 -0.0366 -0.3032
  488MPD2    C2 7308   0.495   1.873  16.706  0.6568 -0.2842 -0.8175
  488MPD2    C3 7309   0.471   1.750  16.754 -0.2307  0.5553  0.2933
  488MPD2    C4 7310   0.413   1.656  16.677 -0.3400 -0.7979 -0.5926
  488MPD2    C5 7311   0.373   1.684  16.552 -0.1488  0.3211 -0.2287
  488MPD2     H 7312   0.551   1.949  16.759  0.5040  1.3490 -2.9889
  488MPD2    H1 7313   0.397   1.559  16.723  2.2494 -0.3403  1.3009
  488MPD2    H2 7314   0.368   1.825  16.394  0.3853 -1.4976 -0.2352
  488MPD2    H3 7315   0.336   1.602  16.491  2.4886 -0.7144 -0.4444
  488MPD2     N 7316   0.514   1.728  16.885  0.4923  0.4988 -0.1964
  488MPD2    H5 7317   0.544   1.812  16.932 -1.8837  1.7766 -0.9343
  488MPD2    N1 7318   0.466   2.039  16.535  0.0000  0.0322  0.9242
  488MPD2    H7 7319   0.504   2.107  16.600  0.2615 -0.3223  1.1461
  489TMC3    C1 7320   0.522   1.616  17.093  0.0385  0.4238 -0.0919
  489TMC3    C2 7321   0.589   1.725  17.148  0.7268  0.7318  0.4942
  489TMC3    C3 7322   0.615   1.726  17.283 -0.3008 -0.0451 -0.4184
  489TMC3    C4 7323   0.486   1.514  17.173  0.1989 -0.5967  0.7163
  489TMC3    C5 7324   0.499   1.519  17.310  0.7935  0.8191  0.0312
  489TMC3    C6 7325   0.566   1.622  17.361  0.6486 -0.2293 -0.7562
  489TMC3     C 7326   0.507   1.605  16.949  0.2995  0.1116  0.5782
  489TMC3     O 7327   0.490   1.493  16.903  1.0427  0.4059 -0.0553
  489TMC3     H 7328   0.624   1.800  17.078 -0.9915  0.2343 -0.8924
  489TMC3    H1 7329   0.443   1.422  17.136 -4.3046  1.5669  0.6025
  489TMC3    H2 7330   0.573   1.638  17.468 -0.7592 -0.6428 -0.5988
  489TMC3    C7 7331   0.476   1.413  17.403 -0.2491  0.0371 -0.4272
  489TMC3    C8 7332   0.689   1.838  17.336  0.1832  0.3995  0.1776
  489TMC3    O1 7333   0.470   1.442  17.522 -0.1839 -0.0537 -0.5719
  489TMC3    O2 7334   0.757   1.894  17.255 -0.1955  0.1404 -0.3090
  490MPD2     C 7335   2.057   1.067  17.290 -0.1072  0.5846 -0.0618
  490MPD2    C1 7336   1.944   1.124  17.344  0.1096 -0.0026 -0.3487
  490MPD2    C2 7337   1.937   1.260  17.341  0.4683  0.0587 -0.5454
  490MPD2    C3 7338   2.036   1.344  17.292 -0.2099 -0.2578 -0.3338
  490MPD2    C4 7339   2.143   1.283  17.233  0.1024 -0.5440 -0.3980
  490MPD2    C5 7340   2.153   1.145  17.238  0.9410  0.1031  0.7838
  490MPD2     H 7341   1.847   1.306  17.378 -0.0305  0.0283 -1.7350
  490MPD2    H1 7342   2.224   1.346  17.199 -2.0238  1.2321 -2.1384
  490MPD2    H2 7343   2.075   0.960  17.283 -3.2434  0.2413 -2.8254
  490MPD2    H3 7344   2.240   1.091  17.203  0.8013 -1.0759  2.2805
  490MPD2     N 7345   2.046   1.486  17.325 -0.4327 -0.1042 -0.3161
  490MPD2    H5 7346   2.141   1.521  17.324 -1.3441  2.3472 -0.8855
  490MPD2    N1 7347   1.830   1.056  17.384  0.4733 -0.7636 -0.0761
  490MPD2    H7 7348   1.744   1.110  17.386  0.0233 -1.4504 -1.1505
  491TMC3    C1 7349   1.689   0.871  17.445  0.0367 -0.4056 -0.2744
  491TMC3    C2 7350   1.672   0.777  17.543  0.6100  0.4065 -0.9500
  491TMC3    C3 7351   1.548   0.751  17.587 -0.6889  0.2585  0.0750
  491TMC3    C4 7352   1.584   0.941  17.394 -0.4518 -0.2703  0.1122
  491TMC3    C5 7353   1.459   0.910  17.450  0.0596 -0.1011  0.5734
  491TMC3    C6 7354   1.439   0.817  17.540  0.5855 -0.4146  0.0964
  491TMC3     C 7355   1.820   0.922  17.420 -0.0289  0.3242  0.6645
  491TMC3     O 7356   1.912   0.846  17.434  0.3131  1.1043  0.0156
  491TMC3     H 7357   1.755   0.716  17.576 -0.5817 -1.5839 -1.6185
  491TMC3    H1 7358   1.583   0.993  17.299 -3.3478 -0.8678 -0.1999
  491TMC3    H2 7359   1.334   0.788  17.546  1.3098 -2.7798  1.4865
  491TMC3    C7 7360   1.339   0.983  17.391 -0.2501  0.0696  0.0896
  491TMC3    C8 7361   1.528   0.691  17.718  0.0381 -0.0889 -0.5141
  491TMC3    O1 7362   1.222   0.948  17.403  0.3833 -0.5070  0.3865
  491TMC3    O2 7363   1.620   0.628   0.041 -0.2615 -0.2477 -0.0477
  492MPD2     C 7364   1.176   1.764  11.177 -0.0437  0.0010  0.1539
  492MPD2    C1 7365   1.135   1.634  11.134  0.0350  0.1362  0.5092
  492MPD2    C2 7366   1.058   1.558  11.224 -0.4229 -0.1495  0.1728
  492MPD2    C3 7367   1.042   1.609  11.360  0.2702  0.0804  0.1394
  492MPD2    C4 7368   1.071   1.733  11.398  0.0276 -0.4184  0.2180
  492MPD2    C5 7369   1.137   1.803  11.303  0.2152 -0.0851  0.1977
  492MPD2     H 7370   1.018   1.463  11.192  0.9334 -0.8195  0.4346
  492MPD2    H1 7371   1.045   1.781  11.492 -0.4921 -1.1421  0.4378
  492MPD2    H2 7372   1.239   1.829  11.118  1.2612 -1.2194  0.1879
  492MPD2    H3 7373   1.161   1.906  11.328 -1.1025  0.2194  0.1964
  492MPD2     N 7374   0.994   1.532  11.466 -0.4676  0.0102  0.9237
  492MPD2    H5 7375   0.988   1.574  11.559  1.1690 -1.3979  1.6715
  492MPD2    N1 7376   1.169   1.594  11.005 -0.4596 -1.0770 -0.0069
  492MPD2    H7 7377   1.236   1.654  10.959 -0.0103  0.9102  3.2196
  493TMC3    C1 7378   1.150   1.474  10.798  1.0049  0.3731  0.1574
  493TMC3    C2 7379   1.217   1.573  10.735  0.8682  0.3396 -0.1659
  493TMC3    C3 7380   1.198   1.585  10.599 -0.2843  1.2514 -0.2045
  493TMC3    C4 7381   1.071   1.384  10.728 -0.5389  0.4737 -0.3253
  493TMC3    C5 7382   1.051   1.402  10.592 -0.1957 -0.1339  0.0654
  493TMC3    C6 7383   1.114   1.502  10.526  0.8371 -0.2090  0.0205
  493TMC3     C 7384   1.115   1.484  10.941  0.2815 -0.8373  0.2195
  493TMC3     O 7385   1.041   1.394  10.989 -0.3390 -0.4651 -0.4122
  493TMC3     H 7386   1.284   1.641  10.787  1.3579  0.0553 -0.4158
  493TMC3    H1 7387   1.020   1.311  10.790  1.4782 -0.8460 -0.1874
  493TMC3    H2 7388   1.106   1.525  10.421  3.5875 -1.4957 -0.4655
  493TMC3    C7 7389   0.931   1.358  10.526  0.3645 -0.4804  0.6556
  493TMC3    C8 7390   1.277   1.691  10.542  0.3562 -0.1471  0.2084
  493TMC3    O1 7391   0.909   1.421  10.418  0.4276  0.4071  0.5233
  493TMC3    O2 7392   1.367   1.737  10.610 -0.0329 -0.1360 -0.1569
  494TMC3    C1 7393   2.149   3.695   0.284 -0.2866  0.1831  0.0004
  494TMC3    C2 7394   2.158   3.556   0.296 -0.7070  0.9021 -0.1733
  494TMC3    C3 7395   2.128   3.488   0.183  0.7508  0.2793  0.2351
  494TMC3    C4 7396   2.132   3.761   0.171  1.0784  0.0678  0.1812
  494TMC3    C5 7397   2.127   3.687   0.057  0.0933  0.0330  0.7254
  494TMC3    C6 7398   2.120   3.550   0.056 -0.1407  0.4900 -0.6826
  494TMC3     C 7399   2.103   3.744   0.413 -0.2542  0.2473  0.9525
  494TMC3     O 7400   2.086   3.663   0.505  0.0782  0.0314  0.3127
  494TMC3     H 7401   2.196   3.506   0.384 -2.0745  0.1848  0.0060
  494TMC3    H1 7402   2.153   3.867   0.160  0.7665 -0.0367 -1.3953
  494TMC3    H2 7403   2.087   3.495  17.704  1.4211  1.1176 -1.6573
  494TMC3    C7 7404   2.162   3.747  17.665 -0.4672  0.0395  0.0559
  494TMC3    C8 7405   2.133   3.347   0.170  0.4068 -0.8115  0.0877
  494TMC3    O1 7406   2.204   3.684  17.570  0.0363 -0.2654  0.2643
  494TMC3    O2 7407   2.169   3.292   0.070  0.3997 -0.2567  0.1591
  495TMC3    C1 7408   0.729   0.782  14.589  1.0881  0.3774  0.2788
  495TMC3    C2 7409   0.630   0.753  14.498  0.2686 -0.0103 -0.2581
  495TMC3    C3 7410   0.499   0.774  14.530  0.0215  0.6084  0.7035
  495TMC3    C4 7411   0.703   0.840  14.707 -0.7239 -1.0286 -0.0699
  495TMC3    C5 7412   0.568   0.855  14.735 -0.3226  0.1835  0.0456
  495TMC3    C6 7413   0.468   0.836  14.647 -0.8214 -0.3030 -0.1568
  495TMC3     C 7414   0.836   0.685  14.589 -0.6289  0.6156 -0.0177
  495TMC3     O 7415   0.867   0.642  14.699 -0.4279  0.0306 -0.1114
  495TMC3     H 7416   0.660   0.715  14.400 -1.5243  0.3292 -0.9355
  495TMC3    H1 7417   0.780   0.864  14.779  0.9154 -0.5441 -1.9903
  495TMC3    H2 7418   0.365   0.830  14.681  0.0466 -0.4661  2.4498
  495TMC3    C7 7419   0.539   0.869  14.874 -0.2499 -0.0586  0.2704
  495TMC3    C8 7420   0.395   0.754  14.441  0.0532  0.5600 -0.2313
  495TMC3    O1 7421   0.633   0.892  14.949  0.3209 -0.2286 -0.0983
  495TMC3    O2 7422   0.293   0.819  14.452 -0.0300  0.7566 -0.3007
  496MPD2     C 7423   2.953   0.932  15.449 -0.2727  0.4963 -0.1285
  496MPD2    C1 7424   2.883   0.816  15.407 -0.9354 -0.1314  0.1262
  496MPD2    C2 7425   2.774   0.775  15.487 -0.0148 -0.2057  0.4148
  496MPD2    C3 7426   2.734   0.843  15.603  0.0201  0.0910  0.3313
  496MPD2    C4 7427   2.809   0.948  15.649  0.6061  0.1954 -0.2748
  496MPD2    C5 7428   2.915   0.987  15.569 -0.0232 -0.2986 -0.3970
  496MPD2     H 7429   2.716   0.687  15.461 -0.5855  0.4117 -0.3736
  496MPD2    H1 7430   2.783   1.002  15.739 -0.6584  1.5657 -1.4573
  496MPD2    H2 7431   3.030   0.978  15.387 -1.5796  1.1530 -1.2486
  496MPD2    H3 7432   2.963   1.083  15.583 -0.8638 -0.0640  0.8452
  496MPD2     N 7433   2.626   0.785  15.683  0.2146  0.1802 -0.3748
  496MPD2    H5 7434   2.567   0.715  15.639  0.5681  0.7503 -1.7416
  496MPD2    N1 7435   2.935   0.754  15.291 -0.5216 -0.2213 -0.3773
  496MPD2    H7 7436   3.021   0.793  15.254 -0.7811  2.5369  1.9572
  497TMC3    C1 7437   2.521   0.705  15.868 -0.1679  0.4144 -0.0917
  497TMC3    C2 7438   2.481   0.597  15.792  0.2770  0.7684 -0.1044
  497TMC3    C3 7439   2.375   0.515  15.840  0.1169 -0.0374  0.5255
  497TMC3    C4 7440   2.456   0.725  15.982 -0.1920 -0.0615  0.0600
  497TMC3    C5 7441   2.377   0.629  16.041 -0.2843 -0.2741 -0.0925
  497TMC3    C6 7442   2.321   0.525  15.966  0.0491  1.0363 -0.3414
  497TMC3     C 7443   2.620   0.793  15.818 -0.3129 -0.1043 -0.7228
  497TMC3     O 7444   2.691   0.849  15.898 -0.0831  0.5323 -0.1792
  497TMC3     H 7445   2.530   0.562  15.702 -2.4313 -1.1026 -0.8677
  497TMC3    H1 7446   2.492   0.808  16.043  1.1731 -0.5544 -0.0822
  497TMC3    H2 7447   2.269   0.444  16.018  0.9130  0.7503  0.0704
  497TMC3    C7 7448   2.336   0.642  16.179  0.7786 -0.3005 -0.7461
  497TMC3    C8 7449   2.339   0.394  15.771 -0.5185  0.7644  0.6116
  497TMC3    O1 7450   2.240   0.572  16.219 -0.5751 -0.0020  0.3469
  497TMC3    O2 7451   2.300   0.300  15.842 -0.0525  0.1676  0.1064
  498MPD2     C 7452   3.685   1.137   9.416  0.0825 -0.0914 -0.3289
  498MPD2    C1 7453   3.635   1.212   9.523  0.4282  0.6156  0.3385
  498MPD2    C2 7454   3.550   1.158   9.622 -0.3999  0.0113  0.1966
  498MPD2    C3 7455   3.523   1.020   9.624  0.0648  0.3959 -0.1530
  498MPD2    C4 7456   3.572   0.947   9.512  0.4598  0.0748  0.0428
  498MPD2    C5 7457   3.652   1.005   9.416  0.3136  0.6640  0.1109
  498MPD2     H 7458   3.505   1.223   9.696  0.0612  2.1805 -1.4180
  498MPD2    H1 7459   3.538   0.847   9.490  3.8937 -1.2824  1.0599
  498MPD2    H2 7460   3.744   1.175   9.333 -1.1810  1.0333 -0.7056
  498MPD2    H3 7461   3.691   0.943   9.335 -1.2859  1.3049 -1.1554
  498MPD2     N 7462   3.448   0.968   9.732 -0.1380  0.0936  0.5574
  498MPD2    H5 7463   3.440   1.023   9.817 -3.1765  0.4865  0.0204
  498MPD2    N1 7464   3.662   1.350   9.533 -0.3266 -0.0370 -0.1526
  498MPD2    H7 7465   3.605   1.401   9.598  0.0057  2.6395 -1.9708
  499TMC3    C1 7466   3.779   1.549   9.504  0.3647 -0.6989 -0.6069
  499TMC3    C2 7467   3.908   1.599   9.504 -0.4118  0.5016  0.2237
  499TMC3    C3 7468   3.923   1.725   9.543  0.1186  0.6792 -0.1175
  499TMC3    C4 7469   3.665   1.626   9.537  0.1178  0.7808 -0.0427
  499TMC3    C5 7470   3.685   1.756   9.570  0.3797 -0.2589  0.0225
  499TMC3    C6 7471   3.817   1.810   9.571 -0.2198 -0.4785  0.3662
  499TMC3     C 7472   3.765   1.408   9.466 -0.3572  0.0775  0.4481
  499TMC3     O 7473   3.863   1.356   9.410  0.4925  0.4065 -0.5995
  499TMC3     H 7474   3.990   1.541   9.464 -0.8929  0.0267 -0.0697
  499TMC3    H1 7475   3.570   1.591   9.500  0.8892 -1.0757 -0.2482
  499TMC3    H2 7476   3.826   1.918   9.582 -1.0937 -0.6328  2.7630
  499TMC3    C7 7477   3.578   1.848   9.595 -0.9769 -0.2867 -0.2713
  499TMC3    C8 7478   4.052   1.781   9.575  0.5011  0.4104  0.0544
  499TMC3    O1 7479   3.604   1.967   9.573 -0.3673 -0.0390 -0.7238
  499TMC3    O2 7480   4.053   1.887   9.629 -0.0177 -0.2678  0.7180
  500MPD2     C 7481   0.054   2.211  10.119  0.2956  0.1167 -0.6912
  500MPD2    C1 7482   0.035   2.350  10.115  0.2295 -0.1056 -0.0684
  500MPD2    C2 7483   4.655   2.393  10.053  0.2331  0.6502  0.3011
  500MPD2    C3 7484   4.560   2.311   9.997  0.7998 -0.0415 -1.2106
  500MPD2    C4 7485   4.585   2.177  10.001  0.3886  0.1362 -0.5596
  500MPD2    C5 7486   4.692   2.131  10.068  0.3648  0.1055 -0.6195
  500MPD2     H 7487   4.638   2.499  10.062  1.2563  0.8309  0.1300
  500MPD2    H1 7488   4.528   2.094   9.960 -1.5176  0.8021  0.7377
  500MPD2    H2 7489   0.136   2.159  10.167 -0.1994  0.9627  1.0828
  500MPD2    H3 7490   4.692   2.023  10.078 -2.7806  0.2585  0.8591
  500MPD2     N 7491   4.442   2.369   9.939  0.1249 -0.1905 -0.3628
  500MPD2    H5 7492   4.437   2.471   9.945 -0.7577 -0.2226 -0.5755
  500MPD2    N1 7493   0.120   2.439  10.183 -0.6108  0.0520  0.0655
  500MPD2    H7 7494   0.081   2.531  10.202  1.8712  0.6556  2.1635
  501TMC3    C1 7495   0.327   2.523  10.270 -0.2397  0.4760 -0.0567
  501TMC3    C2 7496   0.304   2.644  10.207  0.0521  0.0761  0.7377
  501TMC3    C3 7497   0.411   2.723  10.172 -0.1850  0.2567 -0.3398
  501TMC3    C4 7498   0.457   2.483  10.292  0.8425 -0.1619 -0.4412
  501TMC3    C5 7499   0.563   2.557  10.251  0.1920  0.1813 -0.1181
  501TMC3    C6 7500   0.542   2.674  10.189 -0.3968 -0.6216  0.9664
  501TMC3     C 7501   0.251   2.410  10.215  0.5748 -0.5291  0.0066
  501TMC3     O 7502   0.320   2.309  10.188  0.2868  0.2150 -0.2834
  501TMC3     H 7503   0.207   2.690  10.195 -0.4950 -1.7655 -1.7710
  501TMC3    H1 7504   0.471   2.389  10.344 -2.9617 -0.2467  0.4184
  501TMC3    H2 7505   0.609   2.733  10.128 -0.0014 -1.2025  0.8408
  501TMC3    C7 7506   0.691   2.521  10.296 -0.6248  0.2621  0.1066
  501TMC3    C8 7507   0.401   2.865  10.181  0.4600 -0.6743 -0.1652
  501TMC3    O1 7508   0.709   2.417  10.357 -0.2951  0.5134  0.0368
  501TMC3    O2 7509   0.380   2.913  10.291  0.5747 -0.1526 -0.6969
  502TMC3    C1 7510   0.281   1.576  14.949  0.0439 -0.1451  0.5023
  502TMC3    C2 7511   0.263   1.657  14.841  0.4033 -0.3035 -0.7797
  502TMC3    C3 7512   0.143   1.713  14.813 -0.1830 -0.0055  0.8949
  502TMC3    C4 7513   0.170   1.533  15.029  0.0223 -0.3345  0.2498
  502TMC3    C5 7514   0.047   1.588  14.997 -0.1816  0.0279  0.5134
  502TMC3    C6 7515   0.035   1.682  14.897 -0.7200 -0.6153  0.2485
  502TMC3     C 7516   0.412   1.522  14.977 -0.2952 -0.1394 -0.2665
  502TMC3     O 7517   0.493   1.540  14.887 -0.0596  0.0351  0.5286
  502TMC3     H 7518   0.340   1.667  14.766  2.1176 -2.3720  0.6947
  502TMC3    H1 7519   0.174   1.446  15.093 -1.6324 -0.6252 -0.0350
  502TMC3    H2 7520   4.680   1.743  14.907  0.8907  1.6650  0.7746
  502TMC3    C7 7521   4.670   1.581  15.097 -0.2446  0.2646  1.2341
  502TMC3    C8 7522   0.141   1.852  14.768  0.4300 -0.0911  0.0193
  502TMC3    O1 7523   4.560   1.635  15.078  0.2786 -0.2387  0.2503
  502TMC3    O2 7524   0.251   1.909  14.766  0.0339  0.2779  0.2653
  503MPD2     C 7525   2.082   2.299  16.844  0.1893 -0.5554 -0.1475
  503MPD2    C1 7526   2.219   2.318  16.841  0.0729  0.3623 -0.0510
  503MPD2    C2 7527   2.301   2.217  16.888  0.4965 -0.9701 -0.2431
  503MPD2    C3 7528   2.248   2.096  16.933  0.1073  0.4795  0.7064
  503MPD2    C4 7529   2.108   2.086  16.949 -0.4027 -0.6471 -0.1200
  503MPD2    C5 7530   2.023   2.180  16.890 -0.1125  1.3817  0.0412
  503MPD2     H 7531   2.407   2.236  16.875  0.3676  0.1074  0.2560
  503MPD2    H1 7532   2.055   2.004  16.996 -0.0423 -0.7089  0.1760
  503MPD2    H2 7533   2.009   2.369  16.805  2.3613  1.8790  0.1669
  503MPD2    H3 7534   1.916   2.164  16.881  0.3206 -1.0135 -0.6703
  503MPD2     N 7535   2.335   2.009  16.991  0.3549 -0.4521  1.1446
  503MPD2    H5 7536   2.433   2.034  16.981  0.0946  0.1099 -0.0822
  503MPD2    N1 7537   2.276   2.439  16.792 -0.5186 -0.4919 -0.0674
  503MPD2    H7 7538   2.373   2.460  16.813 -0.6960  0.0306  0.2235
  504TMC3    C1 7539   2.411   1.812  17.109  0.2076 -0.0837  0.2652
  504TMC3    C2 7540   2.380   1.734  17.220  0.3721  0.2274  0.0162
  504TMC3    C3 7541   2.487   1.680  17.285  1.0009  0.1846 -0.0297
  504TMC3    C4 7542   2.536   1.839  17.066 -0.4361  0.5856  0.1750
  504TMC3    C5 7543   2.638   1.776  17.135 -0.4308  0.6242 -0.4922
  504TMC3    C6 7544   2.623   1.697  17.247  0.7193 -0.3395 -0.2970
  504TMC3     C 7545   2.297   1.891  17.057  0.2102  0.8571 -0.1742
  504TMC3     O 7546   2.195   1.843  17.091  0.2806 -0.2821  0.1584
  504TMC3     H 7547   2.278   1.726  17.255 -0.8730  2.7898 -3.0443
  504TMC3    H1 7548   2.558   1.896  16.977 -0.1549  0.5621  0.2302
  504TMC3    H2 7549   2.707   1.657  17.303  1.4998  0.8713 -0.5854
  504TMC3    C7 7550   2.775   1.770  17.080 -0.5772 -0.2518  0.7393
  504TMC3    C8 7551   2.449   1.607  17.408  0.2655 -0.3988 -0.1588
  504TMC3    O1 7552   2.786   1.757  16.959 -0.1235 -0.1591 -0.1930
  504TMC3    O2 7553   2.333   1.566  17.419 -0.4468  0.2287 -0.5345
  505MPD2     C 7554   2.534   0.769  10.623  0.4039  0.0709 -0.7127
  505MPD2    C1 7555   2.620   0.712  10.720  0.5054 -0.1532  0.7472
  505MPD2    C2 7556   2.695   0.807  10.798 -0.0001 -0.7521 -0.0634
  505MPD2    C3 7557   2.690   0.942  10.775  0.5315 -0.9101 -0.4068
  505MPD2    C4 7558   2.617   0.994  10.667 -0.4626 -0.3610  0.4494
  505MPD2    C5 7559   2.539   0.909  10.597  0.4042  0.0479 -0.5632
  505MPD2     H 7560   2.757   0.760  10.873 -0.6223 -0.5499  0.5769
  505MPD2    H1 7561   2.627   1.096  10.632  2.1179 -0.9494 -0.5111
  505MPD2    H2 7562   2.477   0.707  10.555 -0.2302  0.2308 -0.3205
  505MPD2    H3 7563   2.481   0.945  10.513  0.9629  0.0577 -0.9466
  505MPD2     N 7564   2.767   1.038  10.847 -0.1376  0.2446 -1.4255
  505MPD2    H5 7565   2.759   1.130  10.804  4.2137  1.3301  0.0254
  505MPD2    N1 7566   2.625   0.570  10.735  0.1569 -0.5859 -0.2771
  505MPD2    H7 7567   2.573   0.514  10.668  2.2885 -0.0113 -2.3855
  506TMC3    C1 7568   2.708   0.371  10.833 -0.3904 -0.4679 -0.3593
  506TMC3    C2 7569   2.765   0.330  10.717  0.7264 -0.2098  0.0394
  506TMC3    C3 7570   2.858   0.238  10.732  0.0208 -1.1458 -0.4019
  506TMC3    C4 7571   2.749   0.323  10.952 -0.1063 -0.4149  0.4651
  506TMC3    C5 7572   2.853   0.236  10.960 -0.3537 -0.3602  0.4242
  506TMC3    C6 7573   2.900   0.173  10.845 -0.4979  0.1087 -0.3053
  506TMC3     C 7574   2.675   0.510  10.853 -0.4932  0.3886  0.4770
  506TMC3     O 7575   2.704   0.557  10.959 -0.3105 -0.3883 -0.7451
  506TMC3     H 7576   2.730   0.351  10.616  0.0519 -0.8606  0.1288
  506TMC3    H1 7577   2.693   0.349  11.041 -0.4914 -0.7572  0.3235
  506TMC3    H2 7578   2.985   0.106  10.837  1.3870  2.3896  0.5993
  506TMC3    C7 7579   2.953   0.283  11.052  0.0885  0.4537 -0.1376
  506TMC3    C8 7580   2.914   0.184  10.618 -0.4705  0.1559  0.3747
  506TMC3    O1 7581   3.020   0.197  11.108 -0.0116  0.5008 -0.5086
  506TMC3    O2 7582   2.942   0.063  10.614  0.6014 -0.3273  0.4519
  507TMC3    C1 7583   3.779   2.144  15.116 -0.0887 -0.0710  0.0847
  507TMC3    C2 7584   3.744   2.089  14.991 -0.6368 -0.4680 -0.3164
  507TMC3    C3 7585   3.804   2.166  14.885  0.5003 -0.2542  0.8285
  507TMC3    C4 7586   3.856   2.251  15.132  0.7094  0.7238 -0.4128
  507TMC3    C5 7587   3.906   2.329  15.027 -0.8549 -0.3959 -0.6421
  507TMC3    C6 7588   3.883   2.280  14.900  0.0692 -0.5938 -0.6955
  507TMC3     C 7589   3.758   2.041  15.222 -0.6263  0.7203  0.0963
  507TMC3     O 7590   3.735   1.926  15.187 -0.3502  0.4490 -0.2016
  507TMC3     H 7591   3.674   2.007  14.981 -2.4973  0.8451  1.8161
  507TMC3    H1 7592   3.872   2.285  15.233 -2.1617 -1.9776  0.9674
  507TMC3    H2 7593   3.926   2.323  14.809 -0.4918  3.2834  0.8603
  507TMC3    C7 7594   3.867   2.473  15.033 -0.5749 -0.5223  0.5554
  507TMC3    C8 7595   3.710   2.191  14.780  0.2792 -0.6659  0.0362
  507TMC3    O1 7596   3.897   2.525  15.140 -0.1546  0.8261  0.3340
  507TMC3    O2 7597   3.708   2.311  14.748  0.4374  0.5309 -0.1791
  508MPD2     C 7598   4.550   3.886  15.586 -0.1252 -0.4403  0.1031
  508MPD2    C1 7599   4.507   3.932  15.707  0.0480  0.3233  0.1534
  508MPD2    C2 7600   4.478   4.061  15.714  0.4630  0.2016 -0.0318
  508MPD2    C3 7601   4.470   4.143  15.606  0.4258  0.0696 -0.3384
  508MPD2    C4 7602   4.494   4.098  15.482  0.1073  0.7606  0.2834
  508MPD2    C5 7603   4.539   3.967  15.476 -0.6093  0.0145 -0.5593
  508MPD2     H 7604   4.466   4.107  15.812 -0.5582 -0.9174  0.3676
  508MPD2    H1 7605   4.484   4.157  15.392  2.0906 -1.9729 -1.7005
  508MPD2    H2 7606   4.582   3.783  15.576  0.0139 -0.2520 -1.4392
  508MPD2    H3 7607   4.567   3.923  15.381 -1.0924 -0.9597 -0.2480
  508MPD2     N 7608   4.442   4.279  15.637  0.4295  0.1295  0.4797
  508MPD2    H5 7609   4.423   4.299  15.734  0.0978 -2.8860  1.0351
  508MPD2    N1 7610   4.517   3.853  15.822  0.3181 -0.5483 -0.4414
  508MPD2    H7 7611   4.575   3.769  15.822  1.4149  0.1875  2.7571
  509TMC3    C1 7612   4.235   4.632  15.704 -0.0640 -0.1873  1.2117
  509TMC3    C2 7613   4.305   4.650  15.814 -0.1068 -0.0431  0.0264
  509TMC3    C3 7614   4.431   4.592  15.820 -0.5365  0.0085 -0.5794
  509TMC3    C4 7615   4.272   4.569  15.594  0.4754  0.6369  0.1352
  509TMC3    C5 7616   4.389   4.499  15.604 -0.2356 -0.4062 -1.4695
  509TMC3    C6 7617   4.478   4.517  15.706  0.0977  1.0956  0.1365
  509TMC3     C 7618   4.124   4.728  15.706  0.1362  0.3875  0.1889
  509TMC3     O 7619   4.086   0.046  15.810  0.2023 -0.1472 -0.1926
  509TMC3     H 7620   4.273   4.701  15.904 -0.6076 -0.8041  0.2715
  509TMC3    H1 7621   4.211   4.560  15.505  0.4975 -1.2449  0.3145
  509TMC3    H2 7622   4.577   4.473  15.703 -0.7429 -0.8104  0.2679
  509TMC3    C7 7623   4.403   4.371  15.539 -0.0115  0.8730 -0.3237
  509TMC3    C8 7624   4.526   4.615  15.916 -0.9777 -0.2024 -0.1489
  509TMC3    O1 7625   4.366   4.358  15.425  1.0659 -0.9187 -0.0725
  509TMC3    O2 7626   4.619   4.538  15.928  0.6618  0.4772  0.1661
  510MPD2     C 7627   2.072   0.769  14.393 -0.5144 -0.6536 -0.0064
  510MPD2    C1 7628   2.116   0.789  14.523  0.1320 -0.4046 -0.1022
  510MPD2    C2 7629   2.239   0.841  14.546 -0.0356  0.4293 -0.1627
  510MPD2    C3 7630   2.314   0.886  14.439  0.2044 -0.1809  0.3970
  510MPD2    C4 7631   2.278   0.849  14.311 -0.6660  0.1055  0.3472
  510MPD2    C5 7632   2.160   0.785  14.290 -0.2725  0.0186  0.2375
  510MPD2     H 7633   2.272   0.855  14.649 -3.3841  0.0811  0.9654
  510MPD2    H1 7634   2.334   0.880  14.224 -0.9020 -0.2856  0.0552
  510MPD2    H2 7635   1.978   0.720  14.371 -1.6570  1.1755  0.8216
  510MPD2    H3 7636   2.126   0.760  14.190 -2.4524 -2.9897  1.7246
  510MPD2     N 7637   2.434   0.951  14.475  0.5014  0.2274 -0.5705
  510MPD2    H5 7638   2.457   0.982  14.569  0.2959  1.0629 -0.8049
  510MPD2    N1 7639   2.037   0.737  14.629 -0.1078  0.0222 -0.4132
  510MPD2    H7 7640   1.946   0.695  14.612 -0.2299 -0.0957  0.5597
  511TMC3    C1 7641   1.955   0.678  14.844  0.3977 -0.5554  0.5402
  511TMC3    C2 7642   1.967   0.694  14.981 -0.1419 -0.6215  1.2658
  511TMC3    C3 7643   1.901   0.605  15.053  0.4987  0.5263 -0.2619
  511TMC3    C4 7644   1.886   0.570  14.791 -0.5993 -0.2455  0.0399
  511TMC3    C5 7645   1.823   0.479  14.865 -0.2703 -0.5099 -0.3335
  511TMC3    C6 7646   1.824   0.501  15.002 -0.5567 -0.2859 -0.3479
  511TMC3     C 7647   2.057   0.744  14.764  0.0138 -0.5039 -0.2727
  511TMC3     O 7648   2.154   0.781  14.826  0.0789  0.0970 -0.0741
  511TMC3     H 7649   2.015   0.776  15.033 -2.4784  1.5107  0.0788
  511TMC3    H1 7650   1.917   0.527  14.696  1.7043 -0.2618  0.7796
  511TMC3    H2 7651   1.783   0.422  15.063 -0.7763 -0.0009 -0.1241
  511TMC3    C7 7652   1.730   0.396  14.790 -0.3074  0.6341  0.1490
  511TMC3    C8 7653   1.904   0.628  15.193 -0.0362  0.6162  0.3529
  511TMC3    O1 7654   1.681   0.464  14.700 -0.4021 -0.0899  0.0964
  511TMC3    O2 7655   1.910   0.736  15.244  0.0317  0.6471  0.3837
  512TMC3    C1 7656   0.987   0.483  13.484 -0.4618  0.0642 -0.3005
  512TMC3    C2 7657   1.103   0.456  13.553  0.8112 -0.7503 -0.0569
  512TMC3    C3 7658   1.162   0.341  13.527  0.3583 -0.4065 -0.1671
  512TMC3    C4 7659   0.934   0.399  13.403  0.1167  0.3352  0.0552
  512TMC3    C5 7660   1.003   0.286  13.373 -0.4362  0.1654 -0.3266
  512TMC3    C6 7661   1.110   0.243  13.448 -0.1772 -0.8733 -0.0016
  512TMC3     C 7662   0.952   0.625  13.497 -0.4913  0.2318  0.2907
  512TMC3     O 7663   1.047   0.699  13.516  0.1795  0.4619 -0.1114
  512TMC3     H 7664   1.137   0.528  13.626 -0.4422 -0.2729  0.0538
  512TMC3    H1 7665   0.843   0.430  13.352 -0.3634 -1.3470 -0.1029
  512TMC3    H2 7666   1.161   0.148  13.438 -1.4128 -1.5813  0.4363
  512TMC3    C7 7667   0.960   0.222  13.255  0.0531  0.1510 -0.1560
  512TMC3    C8 7668   1.298   0.323  13.579  0.1636  0.9993  0.4978
  512TMC3    O1 7669   0.870   0.284  13.197 -0.5375  0.1342 -0.5501
  512TMC3    O2 7670   1.333   0.219  13.633  0.6142 -0.6982 -0.0730
  513MPD2     C 7671   2.339   0.065  13.727  0.5028  0.2264 -0.0012
  513MPD2    C1 7672   2.377   0.160  13.638 -0.3628 -0.5682  0.7814
  513MPD2    C2 7673   2.445   0.271  13.680  0.5831 -0.3707 -0.2130
  513MPD2    C3 7674   2.486   0.282  13.811  0.3178 -0.1944  0.0293
  513MPD2    C4 7675   2.457   0.186  13.897 -0.3745 -0.3660 -0.2626
  513MPD2    C5 7676   2.390   0.080  13.852 -0.5375  0.4408 -0.6339
  513MPD2     H 7677   2.482   0.343  13.608  2.1957 -0.2416  0.7344
  513MPD2    H1 7678   2.482   0.182  14.002  1.7135  0.3760 -0.7289
  513MPD2    H2 7679   2.277   4.713  13.703  1.2943 -0.4964  0.5150
  513MPD2    H3 7680   2.365   4.728  13.913 -1.4345  0.6497 -0.7066
  513MPD2     N 7681   2.555   0.399  13.847  0.6932 -0.2184  0.2362
  513MPD2    H5 7682   2.570   0.460  13.768  1.3481  0.2088  0.6936
  513MPD2    N1 7683   2.336   0.135  13.507  0.4534 -0.0184 -0.0564
  513MPD2    H7 7684   2.284   0.050  13.490 -0.3577  0.6285 -0.8015
  514TMC3    C1 7685   2.274   0.190  13.284  0.4935  0.3037 -0.8213
  514TMC3    C2 7686   2.299   0.062  13.248  0.1508 -0.1225 -0.2740
  514TMC3    C3 7687   2.362   0.028  13.134 -0.2885  0.2755 -0.4548
  514TMC3    C4 7688   2.311   0.288  13.192 -0.1890  0.2487 -0.3281
  514TMC3    C5 7689   2.380   0.255  13.079  0.3959 -0.4637  0.9709
  514TMC3    C6 7690   2.410   0.129  13.051 -0.3529  0.5084  0.7547
  514TMC3     C 7691   2.327   0.236  13.410 -0.0610  0.3431 -0.2800
  514TMC3     O 7692   2.364   0.349  13.420  0.0671 -0.1042 -0.1875
  514TMC3     H 7693   2.275   4.715  13.316  1.2392  0.3053  0.6310
  514TMC3    H1 7694   2.281   0.390  13.210  0.8224  0.1482  1.9283
  514TMC3    H2 7695   2.459   0.101  12.958 -0.7256 -1.2354  1.0772
  514TMC3    C7 7696   2.501   0.339  13.062  0.1514  0.4621  0.0129
  514TMC3    C8 7697   2.387   4.627  13.103  0.1425 -1.1287 -0.4158
  514TMC3    O1 7698   2.566   0.324  12.964 -0.5381 -0.3751  0.1856
  514TMC3    O2 7699   2.390   4.543  13.192  0.7485 -0.3852  0.0230
  515MPD2     C 7700   1.022   1.191  14.702 -0.7223  0.1242  0.8694
  515MPD2    C1 7701   0.924   1.289  14.679 -0.4522 -0.0463 -0.2670
  515MPD2    C2 7702   0.919   1.393  14.774  0.4192 -0.4581  0.6025
  515MPD2    C3 7703   1.016   1.414  14.871  0.0907 -0.1267  0.3666
  515MPD2    C4 7704   1.111   1.318  14.884  0.6270 -0.1630  0.3826
  515MPD2    C5 7705   1.104   1.198  14.814 -0.2191 -0.1682  0.8194
  515MPD2     H 7706   0.842   1.468  14.769  1.0524  0.1016 -0.5051
  515MPD2    H1 7707   1.199   1.332  14.945  0.0695  0.5634  1.0094
  515MPD2    H2 7708   1.022   1.107  14.634  1.4393 -0.4816  1.6360
  515MPD2    H3 7709   1.174   1.117  14.833  1.4086  0.8468 -0.7999
  515MPD2     N 7710   1.014   1.524  14.956  0.2095 -0.3082 -0.1941
  515MPD2    H5 7711   1.075   1.518  15.037 -2.0887 -1.9412  1.4085
  515MPD2    N1 7712   0.818   1.287  14.585 -0.2986  0.4411  0.1174
  515MPD2    H7 7713   0.750   1.362  14.574 -0.9381  0.1269  2.0420
  516TMC3    C1 7714   0.657   1.198  14.447 -0.1938 -0.1872  0.4796
  516TMC3    C2 7715   0.648   1.321  14.389 -0.5463  0.3739  0.6564
  516TMC3    C3 7716   0.527   1.391  14.402 -0.1358 -0.1593  0.0227
  516TMC3    C4 7717   0.564   1.164  14.534 -0.8986  0.1003  0.3320
  516TMC3    C5 7718   0.455   1.236  14.554  0.2635 -0.8649 -0.2690
  516TMC3    C6 7719   0.425   1.350  14.483  0.1433  0.3180 -0.4539
  516TMC3     C 7720   0.787   1.181  14.506 -0.1034  0.2184 -0.7742
  516TMC3     O 7721   0.847   1.074  14.481  0.4331 -0.0370 -0.6538
  516TMC3     H 7722   0.731   1.347  14.324 -0.2420 -2.5368 -0.1148
  516TMC3    H1 7723   0.592   1.082  14.599 -2.5124 -1.2835 -0.7212
  516TMC3    H2 7724   0.331   1.402  14.499 -0.5166 -0.7066 -1.0155
  516TMC3    C7 7725   0.393   1.222  14.687 -0.5322 -0.6156  0.5354
  516TMC3    C8 7726   0.510   1.512  14.319 -0.5355  0.0043 -0.2208
  516TMC3    O1 7727   0.456   1.167  14.773 -0.1363 -0.7949 -0.7849
  516TMC3    O2 7728   0.402   1.566  14.340  0.2573  0.1446 -0.0433
  517MPD2     C 7729   0.647   3.427  17.208 -0.3765  1.0901  0.2004
  517MPD2    C1 7730   0.751   3.392  17.291 -0.1868 -0.4358 -0.2675
  517MPD2    C2 7731   0.730   3.399  17.426 -0.3125 -0.1841  0.9291
  517MPD2    C3 7732   0.610   3.432  17.482 -0.1021 -1.0732  0.2273
  517MPD2    C4 7733   0.507   3.458  17.399 -0.0481  0.3482 -0.3132
  517MPD2    C5 7734   0.526   3.456  17.266  0.2378  0.3982 -0.2137
  517MPD2     H 7735   0.816   3.372  17.486  1.9193  1.0755 -1.7040
  517MPD2    H1 7736   0.414   3.494  17.441 -0.7310 -0.5173 -1.0910
  517MPD2    H2 7737   0.645   3.407  17.102  2.1117 -0.1763  0.3988
  517MPD2    H3 7738   0.433   3.465  17.211 -1.0914  3.4444  2.5248
  517MPD2     N 7739   0.594   3.447  17.619 -0.2789  0.0435  0.3850
  517MPD2    H5 7740   0.505   3.485  17.651 -0.4849  0.2524 -0.4427
  517MPD2    N1 7741   0.872   3.341  17.244  0.3590  0.0600 -1.1021
  517MPD2    H7 7742   0.934   3.313  17.320  0.3857  1.3599 -0.6312
  518TMC3    C1 7743   1.037   3.244  17.107 -0.5282 -0.1505  0.3977
  518TMC3    C2 7744   1.048   3.136  17.193 -0.1405  0.0539 -0.3491
  518TMC3    C3 7745   1.125   3.034  17.145 -0.2396  0.5134 -0.3513
  518TMC3    C4 7746   1.089   3.244  16.984  0.0893  0.8775 -0.2962
  518TMC3    C5 7747   1.173   3.146  16.940  0.6981  0.9530 -0.5565
  518TMC3    C6 7748   1.189   3.035  17.018 -0.1340 -0.1134 -0.2509
  518TMC3     C 7749   0.912   3.317  17.115 -0.1768  0.2404 -0.3404
  518TMC3     O 7750   0.857   3.350  17.011  0.4175 -0.3450  0.0222
  518TMC3     H 7751   0.984   3.130  17.280  0.3534  0.5539  0.0538
  518TMC3    H1 7752   1.064   3.328  16.920 -2.4831 -0.1634 -0.6522
  518TMC3    H2 7753   1.243   2.949  16.980  2.0062  0.7434  0.8469
  518TMC3    C7 7754   1.188   3.130  16.800 -0.3778  0.3439  0.9576
  518TMC3    C8 7755   1.146   2.920  17.228  0.8016  0.3474 -0.4170
  518TMC3    O1 7756   1.097   3.148  16.722  0.5628  0.1901 -0.0232
  518TMC3    O2 7757   1.236   2.841  17.201 -0.2828  0.0346  0.4495
  519MPD2     C 7758   2.109   2.118  14.424 -0.5578  0.2568  0.2496
  519MPD2    C1 7759   2.102   2.146  14.283 -0.2257  0.2110  0.3950
  519MPD2    C2 7760   2.174   2.061  14.197  0.0330  0.4137  0.2688
  519MPD2    C3 7761   2.255   1.960  14.253  0.5358  0.5245 -0.0568
  519MPD2    C4 7762   2.265   1.944  14.388  0.4406  0.0055 -0.0660
  519MPD2    C5 7763   2.198   2.025  14.471  0.6595 -0.5539 -0.3253
  519MPD2     H 7764   2.150   2.081  14.093 -3.0238  0.0193  0.8809
  519MPD2    H1 7765   2.327   1.865  14.428 -0.7574 -0.9993 -0.1919
  519MPD2    H2 7766   2.048   2.171  14.496 -0.1971  0.0581  0.6946
  519MPD2    H3 7767   2.205   2.010  14.578  1.1082 -0.6486 -0.3671
  519MPD2     N 7768   2.325   1.865  14.179 -0.3966 -0.1362 -0.2248
  519MPD2    H5 7769   2.383   1.796  14.226 -0.8693 -0.2224  0.2301
  519MPD2    N1 7770   2.011   2.251  14.240 -0.3699  0.2875  0.0096
  519MPD2    H7 7771   1.939   2.274  14.308  2.3458  1.7018  2.3959
  520TMC3    C1 7772   2.397   1.755  13.988  0.1574 -0.3587 -0.0026
  520TMC3    C2 7773   2.368   1.693  13.875 -0.4462 -0.5466  0.1485
  520TMC3    C3 7774   2.465   1.622  13.807 -0.5187  0.3341 -0.0649
  520TMC3    C4 7775   2.530   1.742  14.040  0.5746  0.7259 -0.1663
  520TMC3    C5 7776   2.624   1.675  13.964  0.0601  1.2680 -0.1924
  520TMC3    C6 7777   2.597   1.607  13.847 -0.0314 -0.3803 -0.3250
  520TMC3     C 7778   2.303   1.848  14.047  0.0824  0.2134  0.4972
  520TMC3     O 7779   2.218   1.899  13.977 -0.5687  0.5216 -0.2628
  520TMC3     H 7780   2.267   1.709  13.839 -1.6185 -1.4638  3.0648
  520TMC3    H1 7781   2.549   1.797  14.132  0.7978  0.4082 -0.0223
  520TMC3    H2 7782   2.676   1.567  13.784  0.2796  2.2605 -1.6127
  520TMC3    C7 7783   2.754   1.646  14.026  1.0010  0.3095  0.4839
  520TMC3    C8 7784   2.445   1.616  13.659  0.7772 -0.5023  0.2353
  520TMC3    O1 7785   2.810   1.538  14.005  0.1579  0.1245 -0.6796
  520TMC3    O2 7786   2.536   1.655  13.588 -0.3670 -0.2616 -0.1556
  521MPD2     C 7787   3.687   4.618  17.205 -0.3010 -0.6795 -0.1544
  521MPD2    C1 7788   3.567   4.559  17.173  0.5465  0.2674  0.5048
  521MPD2    C2 7789   3.571   4.453  17.082  0.3939  0.3661  0.0408
  521MPD2    C3 7790   3.698   4.416  17.023  1.0315  0.0048  0.4400
  521MPD2    C4 7791   3.813   4.490  17.052  0.4245 -0.0915  0.5319
  521MPD2    C5 7792   3.808   4.588  17.144 -0.0802 -0.0137 -0.0941
  521MPD2     H 7793   3.482   4.409  17.038 -0.3394 -0.4398  2.3065
  521MPD2    H1 7794   3.903   4.461  16.998 -2.0242 -2.5924 -2.2263
  521MPD2    H2 7795   3.698   4.704  17.270 -0.3282 -1.4865  0.9252
  521MPD2    H3 7796   3.893   4.654  17.159  0.0523 -0.2421  0.1536
  521MPD2     N 7797   3.686   4.306  16.943 -1.0731 -0.1753 -0.4821
  521MPD2    H5 7798   3.593   4.267  16.936 -1.0095  0.1715 -3.3786
  521MPD2    N1 7799   3.447   4.616  17.231  0.2669 -0.2729  0.5912
  521MPD2    H7 7800   3.465   4.689  17.298 -1.0658  1.5288 -1.0184
  522TMC3    C1 7801   3.741   4.130  16.802 -0.5477  0.0060 -0.6251
  522TMC3    C2 7802   3.828   4.020  16.789 -0.3797  0.7805  0.5220
  522TMC3    C3 7803   3.778   3.897  16.748  0.5127  0.1375  0.5356
  522TMC3    C4 7804   3.611   4.120  16.757  0.4219  0.0328 -0.1530
  522TMC3    C5 7805   3.563   3.993  16.746  0.0274 -0.6878  0.3259
  522TMC3    C6 7806   3.643   3.878  16.729  0.1162 -0.3802 -0.3019
  522TMC3     C 7807   3.792   4.242  16.885  0.2886 -0.7999  0.0543
  522TMC3     O 7808   3.912   4.258  16.888  0.0963  0.5003 -0.1640
  522TMC3     H 7809   3.931   4.029  16.819  0.4353 -1.6823 -1.5211
  522TMC3    H1 7810   3.544   4.204  16.772  0.5310  0.7108 -3.3603
  522TMC3    H2 7811   3.611   3.779  16.697  2.1784 -1.2508  0.3339
  522TMC3    C7 7812   3.423   3.969  16.706 -0.3413  0.2341 -0.2811
  522TMC3    C8 7813   3.867   3.784  16.766  0.9042  0.8379  0.0887
  522TMC3    O1 7814   3.386   3.854  16.689  0.2179 -0.5670  0.0840
  522TMC3    O2 7815   3.817   3.676  16.794 -0.0852 -0.4032  0.1472
  523MPD2     C 7816   1.276   0.179   9.986  0.0896 -0.3226 -0.1021
  523MPD2    C1 7817   1.190   0.088   9.927  0.1716 -0.1523  0.3181
  523MPD2    C2 7818   1.131   0.122   9.806 -0.1190  0.1612  0.2693
  523MPD2    C3 7819   1.157   0.247   9.749 -0.5345  0.0268  0.9007
  523MPD2    C4 7820   1.240   0.335   9.808 -0.2388  0.3254  0.2585
  523MPD2    C5 7821   1.302   0.304   9.924  0.7018  0.2065  0.3477
  523MPD2     H 7822   1.055   0.062   9.757 -3.4077  2.5341  2.4749
  523MPD2    H1 7823   1.266   0.429   9.762 -3.1675  1.8727  1.7572
  523MPD2    H2 7824   1.322   0.169  10.083  0.6139  0.3529 -0.2812
  523MPD2    H3 7825   1.366   0.381   9.966 -0.5490  0.3368  2.0369
  523MPD2     N 7826   1.107   0.294   9.632  0.3413 -0.1421  0.1420
  523MPD2    H5 7827   1.131   0.390   9.609 -0.6123 -0.6099 -2.7451
  523MPD2    N1 7828   1.160   4.705   9.996  0.3328 -0.1367 -0.1722
  523MPD2    H7 7829   1.206   4.684  10.084  1.3009 -1.6315 -1.0315
  524TMC3    C1 7830   0.959   0.320   9.453 -0.0183  0.7528 -0.1125
  524TMC3    C2 7831   0.889   0.256   9.355 -0.1816  0.4923 -0.4514
  524TMC3    C3 7832   0.800   0.324   9.272  0.5224 -0.1533  0.0958
  524TMC3    C4 7833   0.911   0.444   9.498  0.7253  0.1145 -0.6369
  524TMC3    C5 7834   0.821   0.508   9.417  0.3841 -0.1530  1.0227
  524TMC3    C6 7835   0.765   0.450   9.304  0.1082 -0.3521 -0.7187
  524TMC3     C 7836   1.020   0.232   9.555 -0.4642 -0.6948 -0.3397
  524TMC3     O 7837   0.999   0.109   9.547  0.0947 -0.5269  0.2626
  524TMC3     H 7838   0.926   0.160   9.320 -1.0464  0.4796 -1.3442
  524TMC3    H1 7839   0.943   0.496   9.588  0.8029  2.3349 -1.9521
  524TMC3    H2 7840   0.671   0.488   9.265 -0.6460 -2.1209 -0.6382
  524TMC3    C7 7841   0.755   0.630   9.473  0.0274 -0.3129  0.4510
  524TMC3    C8 7842   0.764   0.268   9.146  0.0394  0.7275  0.3286
  524TMC3    O1 7843   0.763   0.639   9.594  0.3815  0.1643 -0.0296
  524TMC3    O2 7844   0.773   0.146   9.137  0.3062  0.4215  0.0431
  525MPD2     C 7845   3.606   1.516  14.641  0.6999 -0.3525  0.1925
  525MPD2    C1 7846   3.736   1.487  14.660 -0.0096  0.0412  0.1622
  525MPD2    C2 7847   3.835   1.540  14.577  0.4019  0.0739 -0.3749
  525MPD2    C3 7848   3.802   1.637  14.479 -0.4633  0.2868  0.2657
  525MPD2    C4 7849   3.666   1.672  14.467 -0.0548  0.4247  0.5386
  525MPD2    C5 7850   3.573   1.604  14.539  0.7094 -0.3457 -0.0743
  525MPD2     H 7851   3.938   1.506  14.587  0.3249 -0.1894 -0.4789
  525MPD2    H1 7852   3.629   1.741  14.393 -0.5357 -0.7066 -0.2777
  525MPD2    H2 7853   3.527   1.477  14.705 -0.9156 -0.2034 -1.6917
  525MPD2    H3 7854   3.469   1.629  14.527  0.1494 -2.4004  0.4988
  525MPD2     N 7855   3.892   1.698  14.389 -0.2329 -0.4778 -0.2383
  525MPD2    H5 7856   3.861   1.786  14.350 -4.7657 -1.1469  1.8101
  525MPD2    N1 7857   3.784   1.391  14.751 -0.2252 -0.0134 -0.1385
  525MPD2    H7 7858   3.884   1.378  14.748 -0.0560  1.1466  0.3368
  526TMC3    C1 7859   3.795   1.211  14.887 -0.1456 -0.0430 -0.5892
  526TMC3    C2 7860   3.761   1.142  14.998  0.7223 -0.3197 -0.7253
  526TMC3    C3 7861   3.857   1.063  15.056 -0.1379 -0.1768  0.0941
  526TMC3    C4 7862   3.898   1.173  14.812 -0.1252 -0.8939  0.3658
  526TMC3    C5 7863   3.993   1.097  14.876 -0.0931  0.1531  0.1889
  526TMC3    C6 7864   3.983   1.062  15.011 -0.6869 -0.1668  0.0627
  526TMC3     C 7865   3.711   1.308  14.833 -0.6231  0.1018  0.0112
  526TMC3     O 7866   3.591   1.307  14.851  0.0340 -0.0398 -0.0204
  526TMC3     H 7867   3.665   1.151  15.048  0.4045  0.2429 -1.4511
  526TMC3    H1 7868   3.898   1.192  14.705 -0.0513  1.4185  0.7588
  526TMC3    H2 7869   4.052   1.000  15.066 -1.0869 -0.5980  0.0798
  526TMC3    C7 7870   4.086   1.039  14.782  0.4344  0.0096  0.5867
  526TMC3    C8 7871   3.836   1.065  15.202  0.1652  0.3892 -0.4030
  526TMC3    O1 7872   4.052   1.047  14.663  0.2559  0.0415 -0.4413
  526TMC3    O2 7873   3.935   1.097  15.268 -0.0827 -0.2894  0.0330
  527MPD2     C 7874   2.046   4.419   1.215 -0.5090 -0.1181  0.2889
  527MPD2    C1 7875   1.976   4.326   1.142 -0.1238 -0.4489 -0.1989
  527MPD2    C2 7876   2.044   4.220   1.088 -0.0581  0.6306 -0.5090
  527MPD2    C3 7877   2.186   4.213   1.106  0.6557 -0.9705  1.3071
  527MPD2    C4 7878   2.250   4.300   1.181  0.0998  0.1832  0.3822
  527MPD2    C5 7879   2.183   4.404   1.229 -0.2249 -0.4385  0.9495
  527MPD2     H 7880   1.989   4.146   1.031  0.1590  3.2732 -4.1729
  527MPD2    H1 7881   2.358   4.314   1.180 -0.0203  1.1306  0.8260
  527MPD2    H2 7882   1.995   4.497   1.269 -0.9341 -0.7240  0.7498
  527MPD2    H3 7883   2.232   4.476   1.294  0.7128  0.1993 -0.4734
  527MPD2     N 7884   2.254   4.106   1.036 -0.0343  0.5725 -0.2723
  527MPD2    H5 7885   2.189   4.043   0.990  0.6683 -1.0006  0.8989
  527MPD2    N1 7886   1.835   4.337   1.119  0.2956  0.3577 -0.3453
  527MPD2    H7 7887   1.797   4.272   1.051 -0.7526  0.6676 -0.0606
  528TMC3    C1 7888   1.617   4.422   1.153 -0.5889 -0.4942  0.1199
  528TMC3    C2 7889   1.531   4.507   1.223 -0.8327  0.2373  0.2893
  528TMC3    C3 7890   1.396   4.496   1.197  0.9627  0.5688 -0.2728
  528TMC3    C4 7891   1.567   4.330   1.062  0.6024 -0.1058 -0.0278
  528TMC3    C5 7892   1.431   4.330   1.042 -0.2062 -0.3755  0.5021
  528TMC3    C6 7893   1.347   4.407   1.111 -0.4396 -0.0415 -0.4070
  528TMC3     C 7894   1.750   4.422   1.197  0.1486  0.1608  0.8903
  528TMC3     O 7895   1.776   4.490   1.299 -0.2932 -0.6350  0.2772
  528TMC3     H 7896   1.569   4.580   1.294 -1.5551  0.1081  0.8014
  528TMC3    H1 7897   1.632   4.280   0.991  0.0092 -0.8033 -0.0775
  528TMC3    H2 7898   1.241   4.384   1.107 -0.8238  1.4065  1.2385
  528TMC3    C7 7899   1.371   4.228   0.967  0.4140  0.8275  0.4674
  528TMC3    C8 7900   1.312   4.600   1.265  0.6887 -0.2568 -0.0760
  528TMC3    O1 7901   1.260   4.184   1.002  0.5874 -0.5347  0.5677
  528TMC3    O2 7902   1.356   4.713   1.286 -0.0306 -0.2072 -0.0090
  529MPD2     C 7903   3.733   2.269   0.487  0.7858  0.0828 -0.1768
  529MPD2    C1 7904   3.803   2.330   0.589  0.1002 -0.2088 -0.4381
  529MPD2    C2 7905   3.801   2.467   0.605 -0.3462 -0.0442  0.1523
  529MPD2    C3 7906   3.731   2.549   0.519  0.1535 -0.6446  0.3574
  529MPD2    C4 7907   3.654   2.483   0.426  0.5204 -0.0603  0.3678
  529MPD2    C5 7908   3.650   2.346   0.412  0.1892 -0.8019 -0.4471
  529MPD2     H 7909   3.855   2.504   0.691  0.7335  0.0923 -0.5836
  529MPD2    H1 7910   3.593   2.547   0.363  0.9665  0.9028  0.9161
  529MPD2    H2 7911   3.731   2.163   0.468  1.5528  0.0254  0.0895
  529MPD2    H3 7912   3.583   2.313   0.334 -0.3179  1.0384 -0.7707
  529MPD2     N 7913   3.727   2.687   0.530  0.7300  0.1365 -0.1006
  529MPD2    H5 7914   3.680   2.739   0.456  0.4843  0.9514  0.6259
  529MPD2    N1 7915   3.888   2.261   0.676  0.1865  0.0725  0.0776
  529MPD2    H7 7916   3.949   2.320   0.731  0.0246 -0.6125  0.9994
  530TMC3    C1 7917   4.016   2.084   0.753 -0.6256  1.4740  0.3963
  530TMC3    C2 7918   4.115   2.174   0.771 -1.1497 -0.7570 -0.2203
  530TMC3    C3 7919   4.225   2.115   0.834  0.2605 -0.4710  0.3484
  530TMC3    C4 7920   4.005   1.959   0.812  0.1445  0.3517  0.3181
  530TMC3    C5 7921   4.107   1.916   0.893  0.0140  0.8771  0.2320
  530TMC3    C6 7922   4.218   1.991   0.907 -0.0882 -0.9490  0.1378
  530TMC3     C 7923   3.900   2.122   0.674 -0.3385 -0.6342 -0.0680
  530TMC3     O 7924   3.806   2.046   0.649 -0.4697  0.2585 -0.5454
  530TMC3     H 7925   4.130   2.270   0.723  0.3166 -1.5416 -1.3377
  530TMC3    H1 7926   3.950   1.883   0.758  0.6468 -0.3862  0.8560
  530TMC3    H2 7927   4.297   1.953   0.972  2.5191  1.4753 -1.6170
  530TMC3    C7 7928   4.105   1.787   0.966 -0.5709 -0.0963  0.4124
  530TMC3    C8 7929   4.302   2.216   0.904  0.0871  0.0799  0.1923
  530TMC3    O1 7930   4.215   1.746   1.006  0.0208 -0.0320 -0.2706
  530TMC3    O2 7931   4.239   2.318   0.926 -0.0399  0.0602  0.2735
  531MPD2     C 7932   2.880   0.542  13.310 -0.0521  0.8506 -0.8632
  531MPD2    C1 7933   2.773   0.551  13.397 -0.3354  0.6595 -0.4443
  531MPD2    C2 7934   2.649   0.525  13.346 -0.1365  0.3941 -0.7862
  531MPD2    C3 7935   2.642   0.470  13.215 -0.5942 -0.0547 -0.2469
  531MPD2    C4 7936   2.750   0.475  13.133 -0.4783  0.3139 -0.1649
  531MPD2    C5 7937   2.868   0.515  13.174  0.3615 -0.0753  0.2077
  531MPD2     H 7938   2.561   0.517  13.410 -1.3503  1.6978 -2.3177
  531MPD2    H1 7939   2.728   0.466  13.028 -0.5984 -3.1131  0.1568
  531MPD2    H2 7940   2.981   0.565  13.343  0.7080 -3.7394  0.0042
  531MPD2    H3 7941   2.954   0.526  13.109 -0.8252 -0.1158 -1.3629
  531MPD2     N 7942   2.522   0.409  13.177  0.4665 -0.7562  0.4969
  531MPD2    H5 7943   2.469   0.381  13.259  0.1852 -0.0917  0.5399
  531MPD2    N1 7944   2.801   0.588  13.534 -0.6073  0.3092  0.2938
  531MPD2    H7 7945   2.896   0.589  13.569  0.0945  0.7447 -1.6164
  532TMC3    C1 7946   2.751   0.637  13.769  0.1467 -0.7837 -0.1807
  532TMC3    C2 7947   2.653   0.622  13.861 -0.6720  0.1298 -0.4768
  532TMC3    C3 7948   2.684   0.543  13.968 -0.2078  0.6554 -0.3361
  532TMC3    C4 7949   2.882   0.605  13.805 -0.1867  0.4228 -0.1352
  532TMC3    C5 7950   2.909   0.551  13.927  0.2122 -0.3694  0.3029
  532TMC3    C6 7951   2.809   0.514  14.010 -0.0895 -0.2180 -0.3911
  532TMC3     C 7952   2.705   0.603  13.635 -0.1904 -0.3719 -0.0751
  532TMC3     O 7953   2.582   0.592  13.617  0.4430 -0.2148 -0.0403
  532TMC3     H 7954   2.551   0.652  13.840 -0.7328  1.2762  1.5203
  532TMC3    H1 7955   2.961   0.648  13.745  0.4858 -0.1213  0.3588
  532TMC3    H2 7956   2.826   0.423  14.066  1.1672 -0.1444 -0.6348
  532TMC3    C7 7957   3.039   0.529  13.970 -0.0327  0.9835  0.3978
  532TMC3    C8 7958   2.605   0.428  13.973  0.5298  0.7721 -0.0719
  532TMC3    O1 7959   3.055   0.515  14.089 -0.0953  0.6788 -0.0202
  532TMC3    O2 7960   2.593   0.364  14.076  0.2937 -0.0022 -0.1039
  533TMC3    C1 7961   4.102   1.795  14.376 -0.2649  0.3599 -0.3866
  533TMC3    C2 7962   4.232   1.768  14.357 -0.0542 -0.0280  0.7803
  533TMC3    C3 7963   4.328   1.845  14.412  0.0639  0.7508 -0.0193
  533TMC3    C4 7964   4.065   1.892  14.462 -0.1850  0.4136  0.1321
  533TMC3    C5 7965   4.162   1.955  14.539 -0.4856 -0.0349  0.3080
  533TMC3    C6 7966   4.300   1.933  14.522  0.0897  0.0801  0.8286
  533TMC3     C 7967   4.029   1.675  14.398  0.1855  0.3789  0.1543
  533TMC3     O 7968   4.089   1.573  14.436  0.4696  0.1262 -0.1213
  533TMC3     H 7969   4.254   1.689  14.287  0.7723 -0.1237  1.1515
  533TMC3    H1 7970   3.959   1.911  14.475 -0.3155  1.3050 -2.1798
  533TMC3    H2 7971   4.373   2.005  14.557  2.0916 -0.7571 -1.5843
  533TMC3    C7 7972   4.119   1.956  14.680 -0.3328  0.0331  0.4932
  533TMC3    C8 7973   4.462   1.810  14.392  0.2722 -0.7806  0.1326
  533TMC3    O1 7974   4.052   1.861  14.716  0.2963  0.2889 -0.0702
  533TMC3    O2 7975   4.488   1.694  14.374  0.2404 -0.1178  0.3809
  534MPD2     C 7976   0.882   2.597   1.680 -0.0032 -0.7915  0.1066
  534MPD2    C1 7977   0.972   2.663   1.594  0.5390  0.2540 -0.7548
  534MPD2    C2 7978   0.988   2.614   1.463 -0.3572  0.2293 -0.0070
  534MPD2    C3 7979   0.902   2.516   1.406 -0.8487 -0.1647 -0.0413
  534MPD2    C4 7980   0.799   2.477   1.488 -0.3189 -0.3796 -0.6455
  534MPD2    C5 7981   0.790   2.519   1.619 -0.5959  0.4511  0.1209
  534MPD2     H 7982   1.053   2.668   1.395 -1.2823  0.8819 -0.3839
  534MPD2    H1 7983   0.720   2.410   1.455 -1.5406  1.5494 -1.6012
  534MPD2    H2 7984   0.872   2.621   1.785 -0.6347  2.5856 -0.7237
  534MPD2    H3 7985   0.710   2.475   1.677 -1.6232  0.6476 -1.1587
  534MPD2     N 7986   0.911   2.468   1.277  0.0646 -0.1206  0.6567
  534MPD2    H5 7987   0.826   2.418   1.252 -0.1339  1.2869 -1.4907
  534MPD2    N1 7988   1.046   2.776   1.626  0.2679 -0.3431 -0.1398
  534MPD2    H7 7989   1.102   2.813   1.550  2.1549 -1.5571  0.6270
  535TMC3    C1 7990   0.934   2.492   1.044 -0.3006 -0.2458  0.4399
  535TMC3    C2 7991   0.800   2.511   1.024  0.0062 -0.2028 -0.0044
  535TMC3    C3 7992   0.749   2.556   0.904  0.6770  0.0584  0.1452
  535TMC3    C4 7993   1.014   2.517   0.939 -0.1217  0.4550 -0.2780
  535TMC3    C5 7994   0.965   2.566   0.825  0.2920  0.7155 -0.7543
  535TMC3    C6 7995   0.834   2.588   0.802 -0.4131 -0.8083 -0.5835
  535TMC3     C 7996   0.993   2.508   1.174  0.3661 -0.3850  0.2948
  535TMC3     O 7997   1.096   2.569   1.180 -0.0077  0.4574 -0.0913
  535TMC3     H 7998   0.727   2.489   1.101 -1.0599 -0.6230 -1.1151
  535TMC3    H1 7999   1.122   2.513   0.949 -0.2021  0.1815  0.4964
  535TMC3    H2 8000   0.796   2.630   0.709 -2.3801  0.1460  0.6756
  535TMC3    C7 8001   1.057   2.587   0.718 -0.2604  0.6243 -0.3469
  535TMC3    C8 8002   0.604   2.558   0.882 -0.3580 -1.0295  0.1074
  535TMC3    O1 8003   1.160   2.522   0.727  0.0910  0.0742  0.0605
  535TMC3    O2 8004   0.566   2.547   0.765  0.2083 -0.4742  0.6697
  536MPD2     C 8005   1.072   1.355  16.342 -0.0969  0.4856 -0.0735
  536MPD2    C1 8006   0.991   1.246  16.353 -0.6560 -0.5241  0.1951
  536MPD2    C2 8007   0.920   1.209  16.238  0.0356 -0.4863  0.9432
  536MPD2    C3 8008   0.933   1.271  16.111 -0.1896 -0.2417  0.0953
  536MPD2    C4 8009   1.018   1.380  16.108 -0.3057  0.0937 -0.2007
  536MPD2    C5 8010   1.090   1.419  16.220 -0.3923 -0.8485  0.0347
  536MPD2     H 8011   0.852   1.126  16.254  1.2678 -2.0182 -1.6990
  536MPD2    H1 8012   1.026   1.445  16.022  0.6913  0.6651  0.3328
  536MPD2    H2 8013   1.127   1.384  16.431 -0.1937  2.7052 -0.7496
  536MPD2    H3 8014   1.156   1.505  16.209 -0.2050 -0.9022  0.7487
  536MPD2     N 8015   0.854   1.239  15.997 -0.4111 -0.0118  0.4480
  536MPD2    H5 8016   0.857   1.304  15.919 -0.1172 -0.2997  0.2169
  536MPD2    N1 8017   0.966   1.186  16.485 -0.2266 -0.1701  0.2956
  536MPD2    H7 8018   1.021   1.229  16.558 -1.1226  0.5140  0.5774
  537TMC3    C1 8019   0.877   1.032  16.648 -0.4942 -0.6017  0.3980
  537TMC3    C2 8020   0.934   1.091  16.754  0.1302 -0.3260 -0.3298
  537TMC3    C3 8021   0.917   1.018  16.875  0.5330  0.3396 -0.1159
  537TMC3    C4 8022   0.818   0.909  16.654 -0.1832  0.0862  0.2332
  537TMC3    C5 8023   0.800   0.850  16.773 -0.2585 -0.2311 -0.5608
  537TMC3    C6 8024   0.846   0.900  16.888 -0.6360 -0.1974  0.3065
  537TMC3     C 8025   0.872   1.088  16.508  0.1910 -0.4215  0.9357
  537TMC3     O 8026   0.777   1.046  16.443 -0.0905 -0.5984  0.4006
  537TMC3     H 8027   0.961   1.196  16.751 -2.5415  0.3568 -0.8131
  537TMC3    H1 8028   0.795   0.860  16.561  1.6546 -1.0166  0.3560
  537TMC3    H2 8029   0.811   0.868  16.986 -0.7727  2.2463  1.0777
  537TMC3    C7 8030   0.718   0.728  16.762  0.2471 -0.1127  0.0845
  537TMC3    C8 8031   0.984   1.055  16.999  0.5531  0.3960 -0.4155
  537TMC3    O1 8032   0.635   0.721  16.675 -0.0076  0.1686 -0.1849
  537TMC3    O2 8033   0.988   0.974  17.094  0.3006  0.1862  0.5614
  538TMC3    C1 8034   1.344   4.529  11.552 -0.3908  0.6589 -0.1676
  538TMC3    C2 8035   1.434   4.428  11.533 -0.0910  0.4637  0.4207
  538TMC3    C3 8036   1.496   4.421  11.414  0.1900  0.0165  0.7324
  538TMC3    C4 8037   1.300   4.613  11.450  0.3520 -0.1951 -0.2479
  538TMC3    C5 8038   1.367   4.603  11.327 -0.2104  0.7830  0.4053
  538TMC3    C6 8039   1.472   4.511  11.308 -0.0758 -0.5497  0.2226
  538TMC3     C 8040   1.336   4.594  11.682  0.2343  0.4231  0.8345
  538TMC3     O 8041   1.317   4.710  11.675  0.2026 -0.1954 -0.3045
  538TMC3     H 8042   1.462   4.361  11.613 -3.6699 -1.2616  0.2387
  538TMC3    H1 8043   1.225   4.687  11.475  0.2217  0.4794 -2.5917
  538TMC3    H2 8044   1.508   4.491  11.208 -0.1911  1.1304 -0.1394
  538TMC3    C7 8045   1.292   4.658  11.217  0.8783 -0.2418 -0.5115
  538TMC3    C8 8046   1.596   4.321  11.390 -0.2130  0.0831 -0.1922
  538TMC3    O1 8047   1.170   4.681  11.239 -0.2903 -0.0299  0.1752
  538TMC3    O2 8048   1.565   4.207  11.418 -0.3903 -0.0738  0.7444
  539MPD2     C 8049   1.560   3.636  11.595  0.7864 -0.4859 -0.0390
  539MPD2    C1 8050   1.466   3.604  11.499 -0.1357 -0.1441 -0.2491
  539MPD2    C2 8051   1.400   3.706  11.437 -0.0099  0.8051  0.1767
  539MPD2    C3 8052   1.436   3.843  11.468  0.2661  0.5300  0.7569
  539MPD2    C4 8053   1.540   3.869  11.551 -0.3731  0.5091 -0.6834
  539MPD2    C5 8054   1.593   3.766  11.623  0.2944 -0.4519 -0.0752
  539MPD2     H 8055   1.323   3.683  11.364  1.3644 -1.1877 -0.6596
  539MPD2    H1 8056   1.586   3.967  11.549 -0.0171  0.3851  1.6667
  539MPD2    H2 8057   1.615   3.559  11.648 -1.2120 -0.1369  2.5101
  539MPD2    H3 8058   1.656   3.790  11.707  1.1976 -2.7965 -0.0695
  539MPD2     N 8059   1.380   3.950  11.405 -0.2622 -0.3343 -0.8504
  539MPD2    H5 8060   1.419   4.042  11.424 -1.2135  0.3020 -1.9644
  539MPD2    N1 8061   1.446   3.474  11.452 -0.2684  0.7442 -0.0653
  539MPD2    H7 8062   1.399   3.463  11.362 -1.6542 -2.5723  1.0828
  540TMC3    C1 8063   1.234   4.072  11.271  0.4546  0.3085  0.2305
  540TMC3    C2 8064   1.211   4.081  11.133  0.0905  0.3293 -0.5301
  540TMC3    C3 8065   1.156   4.202  11.092  0.2844  0.4453 -0.3800
  540TMC3    C4 8066   1.206   4.168  11.367 -0.1273 -0.4343 -0.5099
  540TMC3    C5 8067   1.145   4.280  11.318 -0.1436 -0.9220 -0.5934
  540TMC3    C6 8068   1.120   4.301  11.184  0.2550  0.1031 -0.2130
  540TMC3     C 8069   1.276   3.944  11.320  0.2967  0.3952  0.3085
  540TMC3     O 8070   1.221   3.849  11.267  0.2002  0.3655 -0.0248
  540TMC3     H 8071   1.247   4.008  11.062 -0.1709 -1.8016  1.5279
  540TMC3    H1 8072   1.214   4.147  11.473  0.9778 -1.2733 -0.7617
  540TMC3    H2 8073   1.076   4.393  11.147  0.0414 -0.7002 -1.9543
  540TMC3    C7 8074   1.043   4.331  11.402  0.5697  0.0389  0.1032
  540TMC3    C8 8075   1.091   4.211  10.959  0.1770  0.0024  0.4563
  540TMC3    O1 8076   1.015   4.262  11.500  0.6160 -0.1750  0.1714
  540TMC3    O2 8077   1.043   4.315  10.923  0.0137  0.4322 -0.5376
  541MPD2     C 8078   3.915   0.629  12.949 -0.2203  0.2939 -0.0684
  541MPD2    C1 8079   3.990   0.526  12.898  0.6640 -0.4049 -0.0393
  541MPD2    C2 8080   4.065   0.547  12.784 -0.4194 -0.0605 -0.8378
  541MPD2    C3 8081   4.077   0.672  12.725 -0.5632 -0.5026  0.0495
  541MPD2    C4 8082   3.999   0.772  12.771  0.1097  0.6183  0.4293
  541MPD2    C5 8083   3.915   0.749  12.880 -0.2014  0.3223  0.5952
  541MPD2     H 8084   4.122   0.462  12.748  1.3841  1.4940 -1.5831
  541MPD2    H1 8085   3.995   0.864  12.714  0.0756  1.2112  1.3757
  541MPD2    H2 8086   3.848   0.619  13.033  0.3344  1.5725  0.5365
  541MPD2    H3 8087   3.869   0.835  12.926 -0.6356  1.0362 -1.1660
  541MPD2     N 8088   4.152   0.693  12.604 -0.1413  1.0843 -0.3415
  541MPD2    H5 8089   4.157   0.791  12.581 -0.2742  0.7486 -1.8200
  541MPD2    N1 8090   3.989   0.395  12.953  0.1137  0.6476  0.5529
  541MPD2    H7 8091   4.053   0.325  12.917 -0.3354 -0.1959  1.3950
  542TMC3    C1 8092   4.309   0.646  12.434  0.2159 -0.0123 -0.2667
  542TMC3    C2 8093   4.340   0.539  12.348 -0.0998 -0.1116  0.3203
  542TMC3    C3 8094   4.337   0.557  12.219 -0.1296 -0.2488  0.4603
  542TMC3    C4 8095   4.265   0.763  12.376 -0.3596 -0.4566 -0.4294
  542TMC3    C5 8096   4.260   0.774  12.240  0.0101 -0.1697  0.1665
  542TMC3    C6 8097   4.302   0.677  12.154 -0.6268  0.1104  0.0506
  542TMC3     C 8098   4.246   0.599  12.554  0.1188 -0.3079  0.4331
  542TMC3     O 8099   4.276   0.486  12.593  0.0644  0.2578  0.4835
  542TMC3     H 8100   4.360   0.443  12.395 -1.2714 -0.9170 -0.8192
  542TMC3    H1 8101   4.227   0.840  12.442  1.0179 -1.1716  1.2187
  542TMC3    H2 8102   4.305   0.675  12.046 -0.8981  1.8981  0.0227
  542TMC3    C7 8103   4.195   0.907  12.201  0.1762 -0.2688 -0.4499
  542TMC3    C8 8104   4.382   0.450  12.131  0.4090  0.2091  0.2276
  542TMC3    O1 8105   4.188   1.001  12.284 -0.0375  0.3656 -0.0637
  542TMC3    O2 8106   4.338   0.445  12.021 -0.7033 -0.1977 -0.1459
  543TMC3    C1 8107   3.926   1.484  17.203 -0.6128  0.1282 -0.2114
  543TMC3    C2 8108   3.893   1.356  17.239  0.0681  0.6477 -0.1485
  543TMC3    C3 8109   3.800   1.345  17.336 -0.6286  0.8398 -0.4661
  543TMC3    C4 8110   3.873   1.596  17.262  0.0498  0.4485 -0.2407
  543TMC3    C5 8111   3.776   1.574  17.360  0.0782  0.2526 -0.5544
  543TMC3    C6 8112   3.742   1.449  17.394 -0.2960  0.5065 -0.1600
  543TMC3     C 8113   4.038   1.496  17.108 -0.5514  0.0040  0.8161
  543TMC3     O 8114   4.110   1.398  17.098  0.3641 -0.0275  0.5866
  543TMC3     H 8115   3.950   1.275  17.195 -0.5372 -0.7908  1.7364
  543TMC3    H1 8116   3.915   1.694  17.245 -1.2068  1.2027  0.9898
  543TMC3    H2 8117   3.658   1.445  17.464  1.0686  0.2239  1.4634
  543TMC3    C7 8118   3.709   1.691  17.416  0.5154  0.1787 -0.0048
  543TMC3    C8 8119   3.735   1.215  17.343  0.0867 -0.4693 -0.0271
  543TMC3    O1 8120   3.650   1.680  17.516 -0.0797 -0.0877 -0.3539
  543TMC3    O2 8121   3.801   1.119  17.304 -0.1896 -0.3333 -0.1022
  544MPD2     C 8122   3.315   0.924  17.313 -0.3423 -1.2361 -0.4170
  544MPD2    C1 8123   3.445   0.883  17.303 -0.4799 -0.4294 -0.2463
  544MPD2    C2 8124   3.543   0.981  17.317  0.9135 -0.4495 -0.2395
  544MPD2    C3 8125   3.512   1.118  17.317  0.3485  0.3162 -0.3497
  544MPD2    C4 8126   3.378   1.153  17.326  0.1067  0.1603  0.2718
  544MPD2    C5 8127   3.284   1.054  17.338  0.2700  0.1093  1.0907
  544MPD2     H 8128   3.647   0.952  17.306  0.9679 -0.8233  1.4150
  544MPD2    H1 8129   3.339   1.254  17.329  2.7507  1.2165 -1.1120
  544MPD2    H2 8130   3.238   0.849  17.312  0.5429 -2.1064 -2.3141
  544MPD2    H3 8131   3.182   1.090  17.348  0.4881 -0.0792  3.9832
  544MPD2     N 8132   3.603   1.223  17.338  0.3346  0.2631  0.3195
  544MPD2    H5 8133   3.563   1.316  17.332 -0.3680  0.0261  1.3320
  544MPD2    N1 8134   3.458   0.748  17.278  0.1104 -0.1329  0.2672
  544MPD2    H7 8135   3.373   0.695  17.261  1.1045 -1.5938 -0.1395
  545TMC3    C1 8136   3.554   0.561  17.227  0.1482  0.6144 -0.1180
  545TMC3    C2 8137   3.438   0.535  17.152  0.0054 -0.1841 -0.0885
  545TMC3    C3 8138   3.398   0.408  17.128 -0.2417 -0.5172  0.1239
  545TMC3    C4 8139   3.612   0.461  17.303  0.4126 -0.7925  0.3288
  545TMC3    C5 8140   3.568   0.330  17.277  0.0059  0.5264  0.6121
  545TMC3    C6 8141   3.468   0.308  17.191  0.0804  0.3281 -0.3269
  545TMC3     C 8142   3.580   0.689  17.265 -0.1349  0.6412 -0.1255
  545TMC3     O 8143   3.688   0.710  17.320  0.2007 -0.0246 -0.5458
  545TMC3     H 8144   3.375   0.612  17.110 -1.4237 -1.5163 -0.4047
  545TMC3    H1 8145   3.686   0.480  17.380  1.6784 -0.6578 -0.9256
  545TMC3    H2 8146   3.437   0.204  17.183  1.3625  0.0103 -1.3084
  545TMC3    C7 8147   3.606   0.216  17.360 -0.0830 -0.0745 -0.1668
  545TMC3    C8 8148   3.296   0.371  17.031 -0.0512 -0.5155  0.2792
  545TMC3    O1 8149   3.535   0.115  17.365 -0.2247  0.1361 -0.3396
  545TMC3    O2 8150   3.201   0.445  17.037 -0.3845 -0.1579 -0.1672
  546MPD2     C 8151   0.818   1.546  17.732 -0.0611 -0.0516 -0.2490
  546MPD2    C1 8152   0.871   1.519  17.608 -0.1170  0.7622 -0.6391
  546MPD2    C2 8153   0.939   1.623  17.544  0.3828 -0.2413  0.1552
  546MPD2    C3 8154   0.954   1.750  17.609 -0.1991 -0.2076  0.1792
  546MPD2    C4 8155   0.899   1.764  17.735 -0.1947 -0.0804  0.1842
  546MPD2    C5 8156   0.817   1.668   0.054 -0.0557 -0.1417 -0.5326
  546MPD2     H 8157   0.978   1.616  17.443  0.9623  1.5531  0.2490
  546MPD2    H1 8158   0.901   1.856   0.057  1.7984 -0.4430  0.6941
  546MPD2    H2 8159   0.758   1.472   0.049 -0.8350 -0.3940 -1.6248
  546MPD2    H3 8160   0.753   1.677   0.141  1.3658  1.6138  0.3270
  546MPD2     N 8161   1.022   1.860  17.547  0.1212 -0.3129 -0.5520
  546MPD2    H5 8162   1.014   1.952  17.587  2.0306  0.1039 -1.1093
  546MPD2    N1 8163   0.833   1.391  17.550 -0.4285  0.0839  0.0469
  546MPD2    H7 8164   0.781   1.328  17.611  1.0396  0.2006  1.4032
  547TMC3    C1 8165   0.800   1.227  17.376  0.7539 -0.1796 -0.2932
  547TMC3    C2 8166   0.772   1.201  17.245  0.0514  0.6775  0.5065
  547TMC3    C3 8167   0.721   1.076  17.213  0.2718  0.6774 -0.0034
  547TMC3    C4 8168   0.792   1.126  17.473  0.4407 -0.2045 -0.5205
  547TMC3    C5 8169   0.751   0.998  17.438 -0.0936  0.2767  0.2833
  547TMC3    C6 8170   0.713   0.970  17.307 -0.2543 -0.0162  0.3037
  547TMC3     C 8171   0.849   1.355  17.417 -0.4366  0.5416 -0.1555
  547TMC3     O 8172   0.901   1.423  17.331 -0.6166 -0.2229 -0.0642
  547TMC3     H 8173   0.773   1.281  17.172 -0.7881  0.5675  0.3830
  547TMC3    H1 8174   0.825   1.142  17.575 -1.0907 -0.4853  0.0218
  547TMC3    H2 8175   0.690   0.869  17.275  0.0809  0.2336 -0.7216
  547TMC3    C7 8176   0.753   0.900  17.541 -0.1170  0.6097 -0.0249
  547TMC3    C8 8177   0.622   1.077  17.106 -0.4302 -0.3095 -0.4335
  547TMC3    O1 8178   0.735   0.937  17.659  0.3218  0.5042  0.1224
  547TMC3    O2 8179   0.607   1.184  17.044  0.7416  0.2845  0.5082
  548MPD2     C 8180   0.342   2.119  12.482  0.8223  0.5035 -0.1230
  548MPD2    C1 8181   0.271   2.045  12.389 -0.2404  0.0507 -0.5032
  548MPD2    C2 8182   0.335   1.957  12.306  0.3174  0.3609  0.4355
  548MPD2    C3 8183   0.471   1.940  12.312 -0.4234 -0.3754 -0.7582
  548MPD2    C4 8184   0.542   2.012  12.409  0.5701 -0.4645  0.0945
  548MPD2    C5 8185   0.475   2.106  12.492 -0.1238  0.0740 -0.7164
  548MPD2     H 8186   0.282   1.894  12.236  0.3125 -0.9147  1.5995
  548MPD2    H1 8187   0.650   2.008  12.419  0.6981  0.9025 -0.7380
  548MPD2    H2 8188   0.290   2.189  12.546 -1.7675  1.1680 -2.9787
  548MPD2    H3 8189   0.535   2.162  12.563  1.2934 -1.2246 -0.8891
  548MPD2     N 8190   0.522   1.841  12.230  0.2362 -0.0257 -0.9313
  548MPD2    H5 8191   0.455   1.803  12.163  0.3294 -1.3755 -0.2497
  548MPD2    N1 8192   0.126   2.055  12.383  0.1200 -0.1391  0.5198
  548MPD2    H7 8193   0.088   2.123  12.448 -0.2219 -0.0299  0.2045
  549TMC3    C1 8194   4.640   1.997  12.359  0.3235  0.1555 -1.2146
  549TMC3    C2 8195   4.589   2.127  12.352 -0.5408 -0.1703 -0.2467
  549TMC3    C3 8196   4.455   2.140  12.343 -0.2073  0.4557 -0.3045
  549TMC3    C4 8197   4.564   1.889  12.357 -0.1860 -0.0755  0.4462
  549TMC3    C5 8198   4.425   1.910  12.362  0.1299 -0.3803  1.0827
  549TMC3    C6 8199   4.367   2.032  12.347  0.3056  0.6634  0.3112
  549TMC3     C 8200   0.038   1.976  12.314 -0.4437 -0.1717 -0.1837
  549TMC3     O 8201   0.059   1.872  12.253  0.2404  0.1897  0.9854
  549TMC3     H 8202   4.644   2.220  12.356 -0.9730  0.0730  0.0965
  549TMC3    H1 8203   4.604   1.788  12.355 -0.1554 -0.0757  1.0216
  549TMC3    H2 8204   4.259   2.033  12.355  0.1998  0.2530 -1.0635
  549TMC3    C7 8205   4.330   1.795  12.362  0.0927 -0.3274 -0.6799
  549TMC3    C8 8206   4.393   2.274  12.355  0.4412 -0.4146 -0.4206
  549TMC3    O1 8207   4.227   1.797  12.294 -0.0453  0.0738  0.2957
  549TMC3    O2 8208   4.465   2.356  12.408 -0.4119  0.0856 -0.2069
  550TMC3    C1 8209   3.407   4.662  12.320  0.3215  0.0353  0.1230
  550TMC3    C2 8210   3.399   0.011  12.426  0.7133  0.0331 -0.8331
  550TMC3    C3 8211   3.271   0.033  12.478 -0.2928 -0.1526 -0.1213
  550TMC3    C4 8212   3.300   4.605  12.262  0.0793 -0.5394  0.2275
  550TMC3    C5 8213   3.181   4.628  12.315  0.4824 -0.4999  0.2699
  550TMC3    C6 8214   3.160   4.710  12.418 -0.2704 -0.0113  0.0517
  550TMC3     C 8215   3.533   4.646  12.255  0.2231 -0.2126  0.5053
  550TMC3     O 8216   3.632   4.665  12.321  0.3719  0.2921  0.3522
  550TMC3     H 8217   3.491   0.054  12.464  1.6244 -2.4836 -0.1772
  550TMC3    H1 8218   3.321   4.519  12.200 -1.1362 -0.5414 -0.1827
  550TMC3    H2 8219   3.061   4.722  12.459 -0.2407  0.4045  0.0074
  550TMC3    C7 8220   3.066   4.557  12.263 -0.2683  0.3517  0.2490
  550TMC3    C8 8221   3.254   0.176  12.503 -0.2097 -0.2934 -0.1247
  550TMC3    O1 8222   2.961   4.611  12.298  0.6993 -0.3329  0.2582
  550TMC3    O2 8223   3.340   0.247  12.450  0.1651 -0.2354  0.0091
  551TMC3    C1 8224   1.400   2.795  13.519 -0.3373 -0.0980 -0.6029
  551TMC3    C2 8225   1.523   2.852  13.508 -0.0219  0.2049  0.4832
  551TMC3    C3 8226   1.579   2.906  13.614 -0.2222 -0.6711  1.0533
  551TMC3    C4 8227   1.328   2.792  13.641  0.3031  0.9119  0.7730
  551TMC3    C5 8228   1.392   2.848  13.749  0.2750  0.2061  0.0223
  551TMC3    C6 8229   1.517   2.909  13.732  1.0957  0.2189  0.4397
  551TMC3     C 8230   1.320   2.770  13.398 -0.3395  0.0274  0.8588
  551TMC3     O 8231   1.271   2.659  13.380  0.4314  0.4438  0.2576
  551TMC3     H 8232   1.560   2.875  13.409  4.2934 -1.1287  1.7980
  551TMC3    H1 8233   1.229   2.750  13.649  0.7427 -0.0524  1.2012
  551TMC3    H2 8234   1.588   2.928  13.812  1.0802  0.6975  0.3386
  551TMC3    C7 8235   1.350   2.832  13.886  0.2542  0.3598 -0.3386
  551TMC3    C8 8236   1.707   2.967  13.613 -0.0163 -0.0055 -0.2871
  551TMC3    O1 8237   1.440   2.835  13.974  0.8091 -0.1731  0.0546
  551TMC3    O2 8238   1.730   3.063  13.687  0.0956  0.4744 -0.2999
  552MPD2     C 8239   3.228   0.245  14.318  0.5615  0.2326 -0.0128
  552MPD2    C1 8240   3.251   0.129  14.250  0.6196  0.8974  0.0454
  552MPD2    C2 8241   3.369   0.061  14.271 -0.5201  0.1827 -0.4704
  552MPD2    C3 8242   3.462   0.117  14.361  0.3363 -0.4117  0.0603
  552MPD2    C4 8243   3.447   0.243  14.416 -0.0673  0.6424  0.3229
  552MPD2    C5 8244   3.326   0.300  14.395 -0.1319  0.5331  0.2691
  552MPD2     H 8245   3.389   4.707  14.212  1.1334 -0.5855  1.2491
  552MPD2    H1 8246   3.519   0.298  14.474 -0.1928  0.7612  0.3668
  552MPD2    H2 8247   3.148   0.312  14.290 -0.1378 -0.1444  1.0836
  552MPD2    H3 8248   3.307   0.403  14.422 -0.4688  0.7987 -0.9549
  552MPD2     N 8249   3.584   0.057  14.380  0.2646  0.5040  0.2260
  552MPD2    H5 8250   3.652   0.094  14.445 -0.6140  2.4719  0.0102
  552MPD2    N1 8251   3.157   0.076  14.158  0.0617 -0.5468 -0.1579
  552MPD2    H7 8252   3.197   0.011  14.091 -1.0965 -0.0924 -1.2903
  553TMC3    C1 8253   2.948   0.046  14.033 -0.3157  0.3323  0.1755
  553TMC3    C2 8254   2.882   0.132  13.940  0.4471 -0.3335 -0.3198
  553TMC3    C3 8255   2.846   0.093  13.814  0.1440  0.5857  0.1062
  553TMC3    C4 8256   2.979   4.655  13.984 -0.2644  0.0563 -0.2142
  553TMC3    C5 8257   2.939   4.617  13.859  0.9919  0.5259  0.3636
  553TMC3    C6 8258   2.875   4.698  13.776  0.1013 -0.0187  0.2786
  553TMC3     C 8259   3.021   0.103  14.155  0.0348 -0.3258 -0.0569
  553TMC3     O 8260   2.954   0.181  14.227 -0.5421  0.0411 -0.1075
  553TMC3     H 8261   2.862   0.234  13.970 -0.1624 -0.0779 -1.6506
  553TMC3    H1 8262   3.034   4.585  14.046 -1.3703  0.2035  0.9348
  553TMC3    H2 8263   2.862   4.662  13.674 -0.0848 -1.4901  0.8142
  553TMC3    C7 8264   2.989   4.489  13.807 -0.4278 -0.2730 -0.2157
  553TMC3    C8 8265   2.891   0.180  13.711  0.0145 -0.3221  0.1092
  553TMC3    O1 8266   2.914   4.433  13.729 -0.2748 -0.4576  0.1379
  553TMC3    O2 8267   2.970   0.269  13.741 -0.2737  0.0632 -0.4577
  554TMC3    C1 8268   0.711   3.687  11.263  0.0707 -0.3979  0.2364
  554TMC3    C2 8269   0.626   3.624  11.176  0.2640  0.0084 -0.0154
  554TMC3    C3 8270   0.501   3.675  11.172  0.1413 -0.0493  1.0182
  554TMC3    C4 8271   0.694   3.805  11.331  0.1695  0.8130  0.3678
  554TMC3    C5 8272   0.567   3.856  11.302  0.3435 -0.0018  0.6310
  554TMC3    C6 8273   0.465   3.793  11.234  0.4719 -0.2094  0.1746
  554TMC3     C 8274   0.831   3.617  11.293 -0.8095 -0.1839 -0.1503
  554TMC3     O 8275   0.931   3.678  11.316 -0.2007 -0.6825  0.4573
  554TMC3     H 8276   0.663   3.541  11.117 -1.7096 -0.7143 -0.2113
  554TMC3    H1 8277   0.761   3.859  11.397 -1.5522  1.4550  1.5915
  554TMC3    H2 8278   0.367   3.841  11.234  0.3914 -0.3744  0.2721
  554TMC3    C7 8279   0.543   3.995  11.320 -0.6157  0.3404  0.4452
  554TMC3    C8 8280   0.421   3.637  11.055  0.6616  0.0432  0.2048
  554TMC3    O1 8281   0.593   4.044  11.419  0.5917 -0.4806  0.4086
  554TMC3    O2 8282   0.481   3.612  10.951  0.7308  0.3433  0.0497
  555TMC3    C1 8283   4.240   3.304  15.069 -0.4496  0.3605  0.1223
  555TMC3    C2 8284   4.218   3.375  15.180 -0.0796  0.1995  0.3700
  555TMC3    C3 8285   4.214   3.309  15.299 -0.0387 -0.6671 -0.5916
  555TMC3    C4 8286   4.258   3.171  15.056 -0.1772 -0.3203  1.0820
  555TMC3    C5 8287   4.247   3.107  15.168  0.2380 -0.7577  0.5901
  555TMC3    C6 8288   4.234   3.172  15.292 -0.7343  0.3910 -0.1872
  555TMC3     C 8289   4.266   3.370  14.937 -0.1002  0.0781 -0.3542
  555TMC3     O 8290   4.350   3.328  14.853  1.1832  0.1272 -0.1384
  555TMC3     H 8291   4.201   3.482  15.180 -1.2284  0.0161  0.1975
  555TMC3    H1 8292   4.272   3.123  14.960  0.7467 -0.0191  1.0688
  555TMC3    H2 8293   4.215   3.120  15.385  2.7821 -1.1613 -0.3266
  555TMC3    C7 8294   4.256   2.962  15.175 -0.4894 -0.3974 -0.2864
  555TMC3    C8 8295   4.162   3.378  15.420 -0.4415  0.3265 -1.3449
  555TMC3    O1 8296   4.188   2.914  15.265  0.2086 -0.6986 -0.2942
  555TMC3    O2 8297   4.109   3.491  15.406 -0.4419 -0.4794  0.8376
  556MPD2     C 8298   2.291   0.575  10.850  0.0774  0.1453 -0.2282
  556MPD2    C1 8299   2.259   0.497  10.958 -0.7978  0.5772  0.1265
  556MPD2    C2 8300   2.222   0.368  10.934 -0.0891 -0.1228 -0.1843
  556MPD2    C3 8301   2.226   0.309  10.809 -0.4282 -0.1091  0.2512
  556MPD2    C4 8302   2.265   0.384  10.702 -0.1338  0.4101 -0.4141
  556MPD2    C5 8303   2.289   0.514  10.728 -0.0698  0.4050  0.2783
  556MPD2     H 8304   2.197   0.313  11.024  0.9600  1.5615  1.1343
  556MPD2    H1 8305   2.270   0.351  10.599  2.5381  0.3925 -0.2867
  556MPD2    H2 8306   2.314   0.680  10.857 -2.3614  0.3983  3.8468
  556MPD2    H3 8307   2.311   0.581  10.647  0.6459 -2.6677 -2.0824
  556MPD2     N 8308   2.185   0.173  10.794 -0.1547 -0.7241  0.5124
  556MPD2    H5 8309   2.177   0.121  10.881 -1.7632 -1.5387 -0.1304
  556MPD2    N1 8310   2.254   0.548  11.092 -0.6333  0.6081  0.4635
  556MPD2    H7 8311   2.197   0.490  11.152 -1.8337 -0.6564 -1.8994
  557TMC3    C1 8312   2.147   4.689  10.689  0.7227  0.3597  0.8138
  557TMC3    C2 8313   2.124   4.620  10.578 -0.1788 -0.0462 -0.4382
  557TMC3    C3 8314   2.098   4.487  10.595  0.8701 -0.2714  0.3039
  557TMC3    C4 8315   2.151   4.637  10.814 -0.3704  0.6392 -0.6277
  557TMC3    C5 8316   2.116   4.505  10.830  0.2175 -0.3031 -0.4770
  557TMC3    C6 8317   2.092   4.434  10.721 -0.4769  0.4103 -0.3356
  557TMC3     C 8318   2.151   0.106  10.676  0.4140  0.4925 -1.1371
  557TMC3     O 8319   2.140   0.162  10.572  0.4645  0.0625 -0.0878
  557TMC3     H 8320   2.130   4.663  10.479 -0.2452  2.3310  0.5924
  557TMC3    H1 8321   2.169   4.701  10.900 -0.7989 -0.5980  0.3886
  557TMC3    H2 8322   2.070   4.328  10.733 -3.0976  0.6881 -2.5366
  557TMC3    C7 8323   2.045   4.479  10.950 -0.2843  0.7523  0.4808
  557TMC3    C8 8324   2.018   4.426  10.498 -0.1839 -0.2037 -0.0469
  557TMC3    O1 8325   2.020   4.569  11.020 -0.5117  0.2705 -0.1098
  557TMC3    O2 8326   1.937   4.496  10.440 -0.5262 -0.4303  0.1569
  558TMC3    C1 8327   4.253   2.373   9.805  0.3143  0.5419  0.1272
  558TMC3    C2 8328   4.198   2.468   9.891  0.5457 -0.1297  0.2990
  558TMC3    C3 8329   4.088   2.523   9.840 -0.7114  0.0543  0.6364
  558TMC3    C4 8330   4.190   2.332   9.687 -0.2167 -0.3677 -0.4711
  558TMC3    C5 8331   4.077   2.389   9.644  0.1358 -0.1837  0.0978
  558TMC3    C6 8332   4.020   2.482   9.724 -0.0443  0.2467 -0.3232
  558TMC3     C 8333   4.355   2.298   9.858 -0.0682  0.0989  0.0956
  558TMC3     O 8334   4.359   2.179   9.822 -0.8031 -0.1492 -0.7793
  558TMC3     H 8335   4.238   2.495   9.988  1.9148  1.3566 -0.6832
  558TMC3    H1 8336   4.234   2.258   9.622  1.7046 -0.5709  1.0892
  558TMC3    H2 8337   3.920   2.519   9.705 -0.2719 -0.7783 -1.1004
  558TMC3    C7 8338   4.019   2.370   9.514  0.6941 -0.6854  0.0019
  558TMC3    C8 8339   4.012   2.611   9.925 -0.2796 -0.1144  0.2958
  558TMC3    O1 8340   4.096   2.343   9.421 -0.1356  0.2314  0.0503
  558TMC3    O2 8341   3.950   2.699   9.864  0.8304  0.2410  0.0158
  559MPD2     C 8342   0.136   3.450  10.112 -0.0366 -0.1122 -0.3081
  559MPD2    C1 8343   0.055   3.381  10.192 -0.4946 -0.0899 -0.0395
  559MPD2    C2 8344   0.095   3.340  10.320 -0.7416  0.8119  1.1630
  559MPD2    C3 8345   0.223   3.370  10.365  0.0596  0.6477 -0.2184
  559MPD2    C4 8346   0.303   3.442  10.283 -0.1104 -0.0872  0.4825
  559MPD2    C5 8347   0.263   3.477  10.158 -0.5237 -0.2551 -0.4269
  559MPD2     H 8348   0.022   3.292  10.384  0.1455 -0.3059  1.3472
  559MPD2    H1 8349   0.398   3.481  10.319 -0.3252  0.8503  0.0375
  559MPD2    H2 8350   0.110   3.474  10.010  1.3643  2.2270 -0.1267
  559MPD2    H3 8351   0.319   3.543  10.093  0.9008 -0.8040  0.2480
  559MPD2     N 8352   0.256   3.331  10.496 -0.1075  0.0291 -0.6340
  559MPD2    H5 8353   0.202   3.251  10.526 -0.2403  0.5587  0.5490
  559MPD2    N1 8354   4.662   3.353  10.140 -0.2694  0.1211  0.3717
  559MPD2    H7 8355   4.630   3.402  10.057  2.1899 -0.3309 -0.8370
  560TMC3    C1 8356   0.354   3.327  10.708 -0.5290  0.4189 -0.7300
  560TMC3    C2 8357   0.236   3.291  10.764  0.5501 -0.7956 -0.2605
  560TMC3    C3 8358   0.238   3.242  10.890  0.4814 -0.5270  0.3154
  560TMC3    C4 8359   0.477   3.321  10.769  0.5872 -0.1761 -0.7683
  560TMC3    C5 8360   0.477   3.274  10.899  0.9189  0.1206 -0.3440
  560TMC3    C6 8361   0.357   3.234  10.963  0.2318  0.8454  0.0298
  560TMC3     C 8362   0.353   3.390  10.580 -0.2390  0.5269 -0.3995
  560TMC3     O 8363   0.444   3.469  10.547 -0.4172  0.2141 -0.8176
  560TMC3     H 8364   0.146   3.296  10.704  0.3058 -0.2412  0.1591
  560TMC3    H1 8365   0.566   3.341  10.711 -0.5266  1.7253 -1.8450
  560TMC3    H2 8366   0.361   3.200  11.066 -1.1526  1.3257  0.2538
  560TMC3    C7 8367   0.598   3.238  10.971 -0.0586 -0.5982 -0.0683
  560TMC3    C8 8368   0.110   3.202  10.936  0.2053  0.2626  0.0190
  560TMC3    O1 8369   0.594   3.164  11.068 -0.8598 -0.0535 -1.1084
  560TMC3    O2 8370   0.029   3.185  10.844  0.1744 -0.0135 -0.3507
  561TMC3    C1 8371   2.673   2.273  10.611  1.1351 -0.5172  0.6045
  561TMC3    C2 8372   2.572   2.213  10.670 -0.4173  0.5242 -0.2482
  561TMC3    C3 8373   2.509   2.273  10.773 -0.1529 -0.0523 -0.2676
  561TMC3    C4 8374   2.716   2.399  10.649 -0.2170  0.8998 -0.1583
  561TMC3    C5 8375   2.642   2.462  10.746  0.2897 -0.2031 -0.2208
  561TMC3    C6 8376   2.535   2.402  10.805  0.3975  0.1134 -0.4262
  561TMC3     C 8377   2.775   2.185  10.555  0.2203  0.1153  0.6270
  561TMC3     O 8378   2.734   2.078  10.506 -0.1222  0.0949  0.3639
  561TMC3     H 8379   2.557   2.107  10.649 -3.2890  0.7192  0.8041
  561TMC3    H1 8380   2.791   2.450  10.590 -0.6353  0.3024 -1.2153
  561TMC3    H2 8381   2.478   2.450  10.884 -0.5496  1.5663 -1.9840
  561TMC3    C7 8382   2.675   2.594  10.804 -0.5430 -0.6516  0.9075
  561TMC3    C8 8383   2.437   2.191  10.862 -0.0950 -0.4792  0.3859
  561TMC3    O1 8384   2.638   2.608  10.921 -0.1051 -0.2882 -0.0135
  561TMC3    O2 8385   2.420   2.073  10.831  0.9595  0.0860  0.2636
  562TMC3    C1 8386   4.207   3.536  16.181 -0.2297 -0.2822 -0.4602
  562TMC3    C2 8387   4.170   3.613  16.075 -0.2418  0.7132  0.6251
  562TMC3    C3 8388   4.047   3.676  16.089 -0.3070 -0.3187  0.0277
  562TMC3    C4 8389   4.135   3.526  16.295 -0.2866 -0.2603 -0.4984
  562TMC3    C5 8390   4.017   3.587  16.302  0.6395 -0.3326  0.2732
  562TMC3    C6 8391   3.966   3.664  16.200  0.4148  0.0123  0.0906
  562TMC3     C 8392   4.339   3.477  16.178 -0.1813  0.3792  0.7323
  562TMC3     O 8393   4.371   3.451  16.297 -0.0360  0.3687 -0.1484
  562TMC3     H 8394   4.224   3.624  15.981 -0.8861  0.1423  0.1964
  562TMC3    H1 8395   4.173   3.473  16.381 -2.5970 -0.3915  0.4556
  562TMC3    H2 8396   3.868   3.708  16.215  0.9494  0.3607  2.4732
  562TMC3    C7 8397   3.925   3.538  16.399  0.0170 -0.2788  0.6797
  562TMC3    C8 8398   4.007   3.785  16.005  0.0411 -0.3911 -0.4125
  562TMC3    O1 8399   3.823   3.603  16.421  0.4065 -0.1564 -0.1223
  562TMC3    O2 8400   3.927   3.861  16.058  0.1038  0.8318 -0.6153
  563MPD2     C 8401   1.484   0.115  15.353 -0.2296 -0.1341 -0.8089
  563MPD2    C1 8402   1.491   0.218  15.435  0.0237 -0.5693  0.8224
  563MPD2    C2 8403   1.602   0.223  15.524 -0.5191  0.2218  0.5472
  563MPD2    C3 8404   1.702   0.129  15.523  0.8317 -0.7675  0.2268
  563MPD2    C4 8405   1.704   0.039  15.418  0.5139  0.9941 -0.6631
  563MPD2    C5 8406   1.596   0.038  15.330  0.3150 -0.0667 -0.7645
  563MPD2     H 8407   1.624   0.309  15.586 -0.0427  1.6477 -1.6018
  563MPD2    H1 8408   1.777   4.697  15.391 -0.4391 -0.9964  2.2853
  563MPD2    H2 8409   1.402   0.097  15.284  0.6847 -1.5055 -1.5616
  563MPD2    H3 8410   1.579   4.698  15.252  0.9686 -1.5951  0.5264
  563MPD2     N 8411   1.793   0.118  15.632  0.8603 -0.3565  0.7791
  563MPD2    H5 8412   1.779   0.174  15.716 -0.6510 -1.1291  1.0428
  563MPD2    N1 8413   1.382   0.304  15.443 -0.1829 -0.4270  0.3967
  563MPD2    H7 8414   1.297   0.274  15.396  0.9080 -1.0415 -1.1577
  564TMC3    C1 8415   1.283   0.329  15.657  0.2176 -0.3392 -0.6764
  564TMC3    C2 8416   1.175   0.266  15.611 -0.4895  0.5104 -0.6154
  564TMC3    C3 8417   1.122   0.169  15.692  0.3975  0.3317 -0.0109
  564TMC3    C4 8418   1.362   0.284  15.762 -0.3052 -0.2924  0.7867
  564TMC3    C5 8419   1.321   0.170  15.824  0.4065  0.4792  0.5729
  564TMC3    C6 8420   1.197   0.116  15.792 -0.0022 -0.0053  0.2770
  564TMC3     C 8421   1.366   0.393  15.547  0.2363 -0.1226  0.0223
  564TMC3     O 8422   1.448   0.472  15.580 -0.8409  0.2580 -0.2441
  564TMC3     H 8423   1.115   0.317  15.536  0.1719  1.0028 -0.8020
  564TMC3    H1 8424   1.464   0.318  15.776 -0.7723  1.1790  0.6805
  564TMC3    H2 8425   1.180   0.015  15.827  0.3978  0.1332  0.8672
  564TMC3    C7 8426   1.425   0.065  15.838  0.0859 -0.2740 -0.1615
  564TMC3    C8 8427   1.057   0.064  15.616 -1.0172  0.3831  0.0028
  564TMC3    O1 8428   1.503   0.077  15.928  0.2582 -0.8173  0.5988
  564TMC3    O2 8429   1.015   4.695  15.670  0.1312  0.1616  0.0742
  565TMC3    C1 8430   1.826   1.153  10.266 -0.0102  0.0381 -0.3816
  565TMC3    C2 8431   1.810   1.080  10.379 -0.1036 -0.1526 -0.5908
  565TMC3    C3 8432   1.688   1.025  10.406  0.4164 -0.3211 -0.0763
  565TMC3    C4 8433   1.724   1.155  10.179  0.0818 -0.0573  0.3638
  565TMC3    C5 8434   1.602   1.105  10.215  0.7893 -0.0268 -0.3480
  565TMC3    C6 8435   1.581   1.028  10.322  0.2247 -0.1996 -0.2203
  565TMC3     C 8436   1.960   1.214  10.240 -0.0801 -0.3658 -0.1940
  565TMC3     O 8437   2.056   1.149  10.285 -0.2286 -0.2167 -0.0604
  565TMC3     H 8438   1.882   1.091  10.460 -1.4288 -1.0668  0.6989
  565TMC3    H1 8439   1.742   1.200  10.082  0.4784 -1.2215 -0.1026
  565TMC3    H2 8440   1.480   0.998  10.349  0.2874 -0.2584 -0.0516
  565TMC3    C7 8441   1.518   1.084  10.100  0.7492  0.2191 -0.2119
  565TMC3    C8 8442   1.676   0.944  10.524  0.0276  0.6933 -0.5031
  565TMC3    O1 8443   1.556   1.139   9.994  0.1625  0.6325  0.6849
  565TMC3    O2 8444   1.756   0.973  10.612 -0.0545 -0.2598  0.4761
  566MPD2     C 8445   3.913   3.635  14.268  0.4895 -0.2548  0.0728
  566MPD2    C1 8446   3.936   3.646  14.130 -0.5390  0.4978 -0.1429
  566MPD2    C2 8447   3.831   3.678  14.043  0.4049  0.2343  0.4975
  566MPD2    C3 8448   3.703   3.692  14.090 -0.3082  0.1905 -0.4220
  566MPD2    C4 8449   3.683   3.695  14.230 -0.5696 -0.3439  0.2697
  566MPD2    C5 8450   3.785   3.666  14.319 -0.0331  0.4114 -0.5844
  566MPD2     H 8451   3.842   3.680  13.936 -0.2168 -0.7849  0.4168
  566MPD2    H1 8452   3.585   3.714  14.270  0.3023  0.9244  1.8058
  566MPD2    H2 8453   3.998   3.612  14.331  1.0419 -0.1631 -0.6346
  566MPD2    H3 8454   3.765   3.646  14.423 -1.0659  0.2171 -0.8204
  566MPD2     N 8455   3.604   3.727  13.989  0.4791 -0.4338  0.1437
  566MPD2    H5 8456   3.639   3.741  13.894 -0.8648  1.2625 -0.1115
  566MPD2    N1 8457   4.062   3.629  14.078  0.3209  0.2634 -0.0640
  566MPD2    H7 8458   4.136   3.590  14.136 -1.1001  1.1915  2.3690
  567TMC3    C1 8459   4.240   3.598  13.922  0.7938 -0.2197  1.1648
  567TMC3    C2 8460   4.250   3.557  13.790 -0.5006 -0.2698 -0.0832
  567TMC3    C3 8461   4.303   3.433  13.758 -0.4315 -0.6814 -0.0717
  567TMC3    C4 8462   4.294   3.511  14.017 -0.1112  0.0671 -0.3989
  567TMC3    C5 8463   4.346   3.392  13.980 -0.6042  0.0844 -0.0090
  567TMC3    C6 8464   4.357   3.352  13.854 -0.3408  0.1108 -0.0390
  567TMC3     C 8465   4.102   3.650  13.953 -0.3171  0.1296 -0.6621
  567TMC3     O 8466   4.036   3.672  13.851 -1.1464  0.7569 -0.4377
  567TMC3     H 8467   4.216   3.626  13.714  0.6003 -1.4289 -1.6342
  567TMC3    H1 8468   4.284   3.534  14.122 -0.3634  2.2877 -0.9193
  567TMC3    H2 8469   4.405   3.258  13.832  1.0789  0.0119  3.4195
  567TMC3    C7 8470   4.363   3.300  14.088 -0.2293 -0.2165 -0.9125
  567TMC3    C8 8471   4.308   3.395  13.614 -0.0803 -0.1307  0.7642
  567TMC3    O1 8472   4.455   3.219  14.087  0.0861 -0.5069 -0.6173
  567TMC3    O2 8473   4.269   3.477  13.530  0.0984 -0.1542  0.3656
  568MPD2     C 8474   1.089   3.328  15.910 -0.1430 -0.0808  0.0261
  568MPD2    C1 8475   1.149   3.422  15.989 -0.2833  0.0446  0.5751
  568MPD2    C2 8476   1.173   3.549  15.935  1.0838  0.7587 -0.1772
  568MPD2    C3 8477   1.126   3.586  15.810  0.3549 -0.2787 -0.1291
  568MPD2    C4 8478   1.051   3.496  15.743 -0.2983  0.0086 -0.6880
  568MPD2    C5 8479   1.035   3.370  15.792  0.1525  0.3677 -0.7707
  568MPD2     H 8480   1.243   3.607  15.996 -0.0080  1.3040  0.5622
  568MPD2    H1 8481   1.026   3.527  15.642  0.3193  1.0736 -0.5167
  568MPD2    H2 8482   1.064   3.226  15.939 -0.7633 -0.1587 -0.7657
  568MPD2    H3 8483   0.985   3.297  15.729 -0.5989 -0.3227  0.6188
  568MPD2     N 8484   1.153   3.722  15.768  0.3913  0.0998 -0.6068
  568MPD2    H5 8485   1.214   3.779  15.826  0.8389  0.7394 -1.7154
  568MPD2    N1 8486   1.196   3.374  16.115 -0.5468  0.1724  0.5415
  568MPD2    H7 8487   1.197   3.274  16.133  1.3144  0.5334  2.4249
  569TMC3    C1 8488   1.148   3.919  15.642 -0.3287 -0.1133  0.0009
  569TMC3    C2 8489   1.158   3.985  15.766  0.1410  0.2751  0.2096
  569TMC3    C3 8490   1.230   4.106  15.765 -0.0056 -0.1761 -0.6813
  569TMC3    C4 8491   1.195   3.969  15.523 -0.5541 -0.5379 -1.5038
  569TMC3    C5 8492   1.256   4.094  15.531 -0.2974  0.0826  0.3805
  569TMC3    C6 8493   1.275   4.158  15.648 -0.5993 -0.1361  0.4139
  569TMC3     C 8494   1.110   3.777  15.645  0.4598  0.1831 -0.0107
  569TMC3     O 8495   1.053   3.738  15.541 -0.4799 -0.3591 -0.3135
  569TMC3     H 8496   1.110   3.955  15.859  3.6083 -1.9969  1.2587
  569TMC3    H1 8497   1.164   3.930  15.427  1.7136 -1.1528 -1.9865
  569TMC3    H2 8498   1.336   4.248  15.650  0.7736 -1.1250  2.0588
  569TMC3    C7 8499   1.213   4.185  15.421  0.0907 -0.2394  0.0215
  569TMC3    C8 8500   1.177   4.204  15.859  0.0699  0.8676  0.7859
  569TMC3    O1 8501   1.211   4.142  15.305 -0.2383 -0.0678 -0.4369
  569TMC3    O2 8502   1.058   4.214  15.888 -0.1540  0.2341  0.0208
  570TMC3    C1 8503   0.485   2.215  16.382  0.2913  0.1041 -0.0511
  570TMC3    C2 8504   0.561   2.240  16.270  0.1935 -0.6483 -0.4735
  570TMC3    C3 8505   0.608   2.368  16.243 -0.4903 -0.2460  0.2915
  570TMC3    C4 8506   0.456   2.314  16.474  0.0557 -0.6101 -0.2618
  570TMC3    C5 8507   0.512   2.438  16.444  0.8130  0.3919 -0.4015
  570TMC3    C6 8508   0.585   2.469  16.329  0.0433 -0.2064 -0.2915
  570TMC3     C 8509   0.443   2.081  16.398 -0.5292  0.4827 -0.6738
  570TMC3     O 8510   0.412   2.018  16.296  0.1311 -0.0042 -0.1572
  570TMC3     H 8511   0.579   2.162  16.197 -2.0348 -0.8113 -0.8581
  570TMC3    H1 8512   0.398   2.304  16.565  1.7363  0.4393  0.9453
  570TMC3    H2 8513   0.603   2.573  16.301 -0.7545 -0.0407 -0.2063
  570TMC3    C7 8514   0.504   2.543  16.540 -0.1310  0.4835 -0.7177
  570TMC3    C8 8515   0.696   2.399  16.139 -1.1330  0.1618  0.2902
  570TMC3    O1 8516   0.600   2.624  16.545 -0.7490 -0.8259  0.7850
  570TMC3    O2 8517   0.688   2.507  16.078  0.5545 -0.1513  0.1182
  571MPD2     C 8518   2.841   4.083   0.713 -0.3549 -0.7324  0.0750
  571MPD2    C1 8519   2.791   4.097   0.583 -0.5753  0.3281  0.3397
  571MPD2    C2 8520   2.688   4.185   0.552  0.1263  0.1952 -0.5244
  571MPD2    C3 8521   2.647   4.261   0.659 -0.1176  0.1873  0.0944
  571MPD2    C4 8522   2.701   4.259   0.784  0.0888 -0.2308 -0.4660
  571MPD2    C5 8523   2.794   4.166   0.812 -0.9185  0.0408  0.0227
  571MPD2     H 8524   2.653   4.184   0.449 -0.1991 -1.6687 -0.3952
  571MPD2    H1 8525   2.667   4.324   0.864 -1.4134  0.3316 -1.5485
  571MPD2    H2 8526   2.936   4.031   0.723 -0.5147 -1.2533 -1.0747
  571MPD2    H3 8527   2.829   4.147   0.912 -0.8249  1.2410  0.2145
  571MPD2     N 8528   2.539   4.353   0.646  0.6180  0.1528  0.5020
  571MPD2    H5 8529   2.499   4.377   0.737  1.6274  1.2411  0.6547
  571MPD2    N1 8530   2.847   4.003   0.487 -0.7011 -0.2825 -0.2756
  571MPD2    H7 8531   2.923   3.940   0.509 -0.5969 -1.1830 -3.3211
  572TMC3    C1 8532   2.394   4.518   0.547 -0.5912  0.2155 -0.0037
  572TMC3    C2 8533   2.296   4.494   0.646  0.2427  0.0060  0.2654
  572TMC3    C3 8534   2.228   4.603   0.699 -0.8353  0.9381  0.4117
  572TMC3    C4 8535   2.440   4.652   0.539 -0.2894 -0.2570  0.3042
  572TMC3    C5 8536   2.379   0.018   0.612  0.3314 -0.5881 -0.3313
  572TMC3    C6 8537   2.261   0.002   0.679  0.0268 -0.4701 -0.6891
  572TMC3     C 8538   2.498   4.414   0.529  0.1156  0.5837  0.3993
  572TMC3     O 8539   2.577   4.427   0.438  0.6014  0.5147  0.4633
  572TMC3     H 8540   2.255   4.394   0.653  1.8430 -0.5609  1.6796
  572TMC3    H1 8541   2.528   4.672   0.480 -0.2032 -2.6887 -0.3904
  572TMC3    H2 8542   2.208   0.085   0.723  2.3140  0.9025 -0.5813
  572TMC3    C7 8543   2.411   0.150   0.563  0.7536 -0.1165 -0.9375
  572TMC3    C8 8544   2.107   4.581   0.772 -0.7405 -0.1258 -0.0012
  572TMC3    O1 8545   2.423   0.165   0.443 -0.3285 -0.2155  0.3552
  572TMC3    O2 8546   2.038   4.491   0.730  0.1971 -0.0310  0.0333
  573MPD2     C 8547   4.470   0.656   0.660 -1.1546  0.5777  0.2550
  573MPD2    C1 8548   4.356   0.577   0.647 -0.1002 -0.6468 -0.0248
  573MPD2    C2 8549   4.346   0.500   0.539 -0.4188  0.7678  0.4555
  573MPD2    C3 8550   4.440   0.496   0.436  0.3446 -0.9419  0.4584
  573MPD2    C4 8551   4.552   0.583   0.445 -0.0604  0.0140  0.7559
  573MPD2    C5 8552   4.569   0.656   0.563  0.3144 -0.9727  0.6565
  573MPD2     H 8553   4.270   0.423   0.542  0.2831  0.0014 -1.0201
  573MPD2    H1 8554   4.620   0.593   0.361  1.9267 -0.7616  2.2809
  573MPD2    H2 8555   4.472   0.727   0.741  1.2643 -0.2069  0.8688
  573MPD2    H3 8556   4.654   0.722   0.577  1.6933 -2.2817 -1.5670
  573MPD2     N 8557   4.447   0.403   0.331 -0.0001  0.0266  0.0012
  573MPD2    H5 8558   4.525   0.429   0.271  1.0515 -3.2639 -0.0460
  573MPD2    N1 8559   4.257   0.591   0.756  0.0604 -0.5785  0.1390
  573MPD2    H7 8560   4.285   0.654   0.831  1.9173 -0.9231 -0.2592
  574TMC3    C1 8561   4.392   0.223   0.187 -0.6447 -0.4469  0.1804
  574TMC3    C2 8562   4.300   0.164   0.108  0.2821 -0.0441 -0.5264
  574TMC3    C3 8563   4.337   0.070   0.016 -0.0159 -0.1644  0.2364
  574TMC3    C4 8564   4.524   0.184   0.178 -0.0967  0.0394  0.3889
  574TMC3    C5 8565   4.559   0.096   0.077  0.3163 -0.8804 -0.8537
  574TMC3    C6 8566   4.471   0.029  17.729 -0.7225 -0.4594 -0.1533
  574TMC3     C 8567   4.349   0.321   0.284  0.4461 -0.3532  0.6815
  574TMC3     O 8568   4.231   0.324   0.305  0.8071 -0.5369 -0.1778
  574TMC3     H 8569   4.197   0.186   0.134  0.6109  1.1301 -0.1958
  574TMC3    H1 8570   4.596   0.227   0.247  1.0252  0.3476 -0.9732
  574TMC3    H2 8571   4.494   4.687  17.657 -0.1127  0.3117 -0.7687
  574TMC3    C7 8572   4.708   0.081   0.050 -0.6312 -0.8536  0.3697
  574TMC3    C8 8573   4.231   0.006  17.677 -0.3520 -0.4144  0.5511
  574TMC3    O1 8574   0.051   0.165   0.085 -0.1953 -0.3397 -0.7417
  574TMC3    O2 8575   4.230   4.620  17.668  0.1519 -0.2356  0.0033
  575TMC3    C1 8576   1.593   1.091  11.349  0.1481 -0.2763  0.1595
  575TMC3    C2 8577   1.562   0.998  11.445 -0.8681 -0.2227  0.0723
  575TMC3    C3 8578   1.529   0.871  11.405 -0.2204 -0.2934  0.4954
  575TMC3    C4 8579   1.610   1.059  11.219 -0.6013 -0.7699 -0.0783
  575TMC3    C5 8580   1.586   0.927  11.185 -0.5682 -0.1514  0.2556
  575TMC3    C6 8581   1.531   0.833  11.270  0.2751  1.3474 -1.2358
  575TMC3     C 8582   1.603   1.225  11.401 -0.1506 -0.0020  0.1498
  575TMC3     O 8583   1.657   1.238  11.511 -0.0950 -0.0015 -0.2089
  575TMC3     H 8584   1.552   1.031  11.547 -1.8019  0.7880 -0.3413
  575TMC3    H1 8585   1.641   1.123  11.137 -1.5800 -1.4625 -0.9961
  575TMC3    H2 8586   1.521   0.730  11.237  0.1889  0.9319  0.1058
  575TMC3    C7 8587   1.578   0.898  11.042 -0.1074  0.1151  0.1911
  575TMC3    C8 8588   1.480   0.778  11.509  0.0041  0.0000 -0.1158
  575TMC3    O1 8589   1.610   0.993  10.970  0.1069 -0.5880 -0.3491
  575TMC3    O2 8590   1.458   0.826  11.619  0.0022  0.5871  0.8947
  576MPD2     C 8591   2.583   2.472  12.013  0.2055 -0.2296 -0.4401
  576MPD2    C1 8592   2.455   2.451  12.068  0.0182 -0.6054 -0.5472
  576MPD2    C2 8593   2.445   2.407  12.199  0.0914 -0.0609  0.3542
  576MPD2    C3 8594   2.556   2.358  12.262  0.9468 -0.4798  0.2424
  576MPD2    C4 8595   2.682   2.369  12.207 -0.2833  0.4195 -0.0296
  576MPD2    C5 8596   2.694   2.434  12.086 -0.2743 -0.0211  0.6759
  576MPD2     H 8597   2.350   2.401  12.252 -0.3618 -1.2829 -0.6094
  576MPD2    H1 8598   2.772   2.351  12.265 -0.0607  1.0095 -0.1961
  576MPD2    H2 8599   2.611   2.523  11.922 -1.2902 -1.5090 -1.6145
  576MPD2    H3 8600   2.793   2.451  12.045 -0.1040  0.1101  1.1427
  576MPD2     N 8601   2.538   2.298  12.389 -0.4417 -0.2721 -0.6697
  576MPD2    H5 8602   2.446   2.300  12.431  0.1228  0.1940  0.5427
  576MPD2    N1 8603   2.340   2.461  11.994 -0.1994 -0.6486 -0.4051
  576MPD2    H7 8604   2.256   2.424  12.037  2.0948 -2.5573  2.3540
  577TMC3    C1 8605   2.223   2.472  11.788  0.3514 -0.0817  0.4953
  577TMC3    C2 8606   2.219   2.403  11.668 -0.8637 -0.1818 -0.2550
  577TMC3    C3 8607   2.099   2.362  11.621  0.0940 -0.2458  0.3441
  577TMC3    C4 8608   2.113   2.483  11.870 -0.0786 -0.1825  0.5342
  577TMC3    C5 8609   1.998   2.434  11.813  0.5659  0.4912 -0.0016
  577TMC3    C6 8610   1.986   2.379  11.692 -0.4264 -0.1114  0.2154
  577TMC3     C 8611   2.350   2.468  11.857 -0.3789 -0.2265  0.5032
  577TMC3     O 8612   2.443   2.479  11.780 -0.0458  0.6449 -0.0671
  577TMC3     H 8613   2.310   2.376  11.617 -1.0311 -0.3229 -0.4785
  577TMC3    H1 8614   2.111   2.530  11.968  0.5061 -0.5466  0.7193
  577TMC3    H2 8615   1.889   2.350  11.654  0.7684 -0.9172 -2.1909
  577TMC3    C7 8616   1.883   2.473  11.874 -0.4794 -0.2453  0.4658
  577TMC3    C8 8617   2.093   2.262  11.514 -0.2564  0.1730  0.3550
  577TMC3    O1 8618   1.883   2.475  11.998 -0.2595  0.1537  0.9328
  577TMC3    O2 8619   2.016   2.172  11.537 -0.9038  0.4063 -0.0990
  578MPD2     C 8620   4.000   2.361   0.120 -0.7170 -0.3525  0.6001
  578MPD2    C1 8621   4.132   2.338   0.072 -0.0080 -0.6135 -0.5239
  578MPD2    C2 8622   4.232   2.337   0.163  0.3607 -0.3651  0.4872
  578MPD2    C3 8623   4.216   2.362   0.299  0.1287 -0.6431  0.2556
  578MPD2    C4 8624   4.090   2.412   0.341  0.4904  1.4429 -0.5656
  578MPD2    C5 8625   3.982   2.396   0.253 -0.2776 -0.0037  0.7388
  578MPD2     H 8626   4.333   2.318   0.129  0.6245 -0.5465  1.3584
  578MPD2    H1 8627   4.062   2.427   0.445  0.9555 -2.4905  0.1376
  578MPD2    H2 8628   3.914   2.368   0.054 -0.6133 -0.4476  0.4552
  578MPD2    H3 8629   3.883   2.406   0.295  0.1779 -1.0499  2.0680
  578MPD2     N 8630   4.332   2.349   0.378  0.2292 -0.8345 -0.1632
  578MPD2    H5 8631   4.407   2.299   0.333  1.4173  2.2853 -1.6742
  578MPD2    N1 8632   4.149   2.318  17.666  0.2121  0.3249 -0.4622
  578MPD2    H7 8633   4.061   2.320  17.615 -0.7436  1.1199  1.1913
  579TMC3    C1 8634   4.467   2.353   0.579 -0.0375  0.4026  0.3595
  579TMC3    C2 8635   4.506   2.433   0.690 -0.0198 -0.3290  0.3669
  579TMC3    C3 8636   4.628   2.403   0.742  0.5760  0.3345  0.8862
  579TMC3    C4 8637   4.539   2.249   0.535 -0.3736 -0.0582 -0.0639
  579TMC3    C5 8638   4.659   2.228   0.595 -0.2984 -0.1247  0.4625
  579TMC3    C6 8639   4.709   2.308   0.692 -0.3558  0.6998  0.1282
  579TMC3     C 8640   4.339   2.385   0.512 -0.9977  1.2871 -0.3279
  579TMC3     O 8641   4.252   2.430   0.587  0.0514 -0.0192  0.6502
  579TMC3     H 8642   4.453   2.522   0.721 -1.8685 -1.4217  0.3852
  579TMC3    H1 8643   4.491   2.176   0.470  0.1740  0.0794 -0.6244
  579TMC3    H2 8644   0.062   2.271   0.745 -1.3338  0.3912  1.5021
  579TMC3    C7 8645   0.006   2.118   0.539 -0.0072 -0.1862 -0.2484
  579TMC3    C8 8646   4.684   2.502   0.830 -0.8804  0.5846  1.1816
  579TMC3    O1 8647   0.112   2.109   0.595 -0.6901  0.1819 -0.2421
  579TMC3    O2 8648   4.601   2.578   0.883  0.0954  0.2891  0.2460
  580TMC3    C1 8649   4.268   1.274  11.543 -0.3152  0.2726  0.5002
  580TMC3    C2 8650   4.318   1.237  11.421  0.7810 -0.4443 -0.5147
  580TMC3    C3 8651   4.403   1.125  11.410  0.0171  0.3579 -0.2594
  580TMC3    C4 8652   4.294   1.200  11.654 -0.0622  0.4970  0.3707
  580TMC3    C5 8653   4.378   1.096  11.636  0.1201  0.3301  0.0922
  580TMC3    C6 8654   4.439   1.056  11.517 -0.6993  0.4588 -0.6919
  580TMC3     C 8655   4.204   1.406  11.553 -0.1976  0.1120 -0.4253
  580TMC3     O 8656   4.204   1.468  11.447  0.4139 -0.3070  0.1327
  580TMC3     H 8657   4.314   1.306  11.337  1.8162 -1.1223 -1.1164
  580TMC3    H1 8658   4.255   1.230  11.750 -1.1097 -3.4705  1.1938
  580TMC3    H2 8659   4.499   0.966  11.508  0.0021  0.9929 -1.4205
  580TMC3    C7 8660   4.452   1.062  11.759  0.3964 -0.3795 -0.0098
  580TMC3    C8 8661   4.446   1.089  11.278 -0.1485 -0.7795 -0.1631
  580TMC3    O1 8662   4.446   1.138  11.854  0.5900  0.1296 -0.4110
  580TMC3    O2 8663   4.438   0.971  11.238 -0.3073  0.1338 -0.5701
  581MPD2     C 8664   2.745   1.409  14.643  0.1710 -0.6454 -0.5873
  581MPD2    C1 8665   2.639   1.336  14.686 -0.1406 -0.4680 -0.8610
  581MPD2    C2 8666   2.521   1.365  14.626 -0.8242  0.1003 -0.0917
  581MPD2    C3 8667   2.497   1.476  14.554 -0.2451  0.0684 -0.4296
  581MPD2    C4 8668   2.605   1.560  14.517 -0.3943  0.2491 -0.4572
  581MPD2    C5 8669   2.732   1.521  14.562 -0.7958  0.0734  0.1774
  581MPD2     H 8670   2.432   1.309  14.654 -1.2192  0.9005  0.2391
  581MPD2    H1 8671   2.596   1.647  14.454 -0.3919 -0.4665 -1.4442
  581MPD2    H2 8672   2.842   1.378  14.680  0.3265  0.7925  0.2246
  581MPD2    H3 8673   2.819   1.576  14.527 -0.0067 -0.9323  0.5683
  581MPD2     N 8674   2.367   1.496  14.506  0.0450 -0.2360 -0.7042
  581MPD2    H5 8675   2.295   1.435  14.542 -1.1411  0.2647 -2.2377
  581MPD2    N1 8676   2.654   1.230  14.781 -0.6508  0.4999  0.0425
  581MPD2    H7 8677   2.739   1.228  14.836 -0.3999 -0.9700 -0.4039
  582TMC3    C1 8678   2.589   1.070  14.942 -0.0665  0.5715  0.7508
  582TMC3    C2 8679   2.702   1.099  15.016  0.3551  0.0005  0.5023
  582TMC3    C3 8680   2.685   1.095  15.153 -0.3884  0.0247 -0.2304
  582TMC3    C4 8681   2.481   1.008  14.998  0.2172 -0.0564 -0.7252
  582TMC3    C5 8682   2.476   1.007  15.130 -0.1245  0.0150 -0.5109
  582TMC3    C6 8683   2.565   1.058  15.212 -0.5105 -0.3334  0.1336
  582TMC3     C 8684   2.562   1.135  14.816  0.6122  0.3724  0.1147
  582TMC3     O 8685   2.462   1.098  14.755 -0.3520  0.0797  0.1339
  582TMC3     H 8686   2.790   1.135  14.964  0.6509 -2.2668 -0.5872
  582TMC3    H1 8687   2.394   0.976  14.942  0.1964 -0.0607 -0.6904
  582TMC3    H2 8688   2.541   1.066  15.318 -0.7467 -1.4153  0.1595
  582TMC3    C7 8689   2.336   0.989  15.171  0.0870  0.5740  0.0895
  582TMC3    C8 8690   2.793   1.146  15.235  0.0652  0.3105  0.1983
  582TMC3    O1 8691   2.280   0.877  15.153 -0.0516  0.2346  0.4350
  582TMC3    O2 8692   2.900   1.155  15.181  0.9709 -0.6275  0.2645
  583MPD2     C 8693   2.551   3.213  16.700 -0.0633  0.2009  0.6628
  583MPD2    C1 8694   2.536   3.311  16.604  0.4641  0.1674 -0.3264
  583MPD2    C2 8695   2.495   3.438  16.638 -0.3368 -1.1298  0.2117
  583MPD2    C3 8696   2.477   3.467  16.774 -0.1299 -0.1503 -0.3650
  583MPD2    C4 8697   2.503   3.372  16.868  0.4058  0.6564  0.3844
  583MPD2    C5 8698   2.539   3.245  16.830 -0.1232  0.2812  0.0347
  583MPD2     H 8699   2.494   3.516  16.562 -0.5301 -1.3023  0.0387
  583MPD2    H1 8700   2.489   3.382  16.975  1.1058  1.4650  0.3983
  583MPD2    H2 8701   2.597   3.115  16.684 -0.0163  0.2496  0.4982
  583MPD2    H3 8702   2.565   3.181  16.913  1.1694 -0.6370 -1.0764
  583MPD2     N 8703   2.455   3.593  16.831 -0.1380  0.3140 -0.7634
  583MPD2    H5 8704   2.433   3.591  16.930 -2.4839  1.0430 -1.2568
  583MPD2    N1 8705   2.561   3.294  16.466 -0.1639  0.4806  0.3513
  583MPD2    H7 8706   2.556   3.382  16.415 -0.3148 -0.0741 -0.5884
  584TMC3    C1 8707   2.429   3.839  16.844  0.4477  0.8884  0.0971
  584TMC3    C2 8708   2.455   3.959  16.784 -0.0195 -0.1184 -0.2128
  584TMC3    C3 8709   2.437   4.075  16.859 -0.5668  0.2797 -0.2161
  584TMC3    C4 8710   2.396   3.834  16.977 -0.3021 -0.5036 -0.5054
  584TMC3    C5 8711   2.377   3.947  17.044  0.1401 -0.0960  0.2659
  584TMC3    C6 8712   2.396   4.070  16.991  0.2007  0.0534  0.0658
  584TMC3     C 8713   2.448   3.715  16.761 -1.0067 -1.5943  1.2719
  584TMC3     O 8714   2.446   3.729  16.637 -0.4973  0.3009 -0.6653
  584TMC3     H 8715   2.496   3.947  16.684 -1.3812 -2.1035 -0.5332
  584TMC3    H1 8716   2.377   3.736  17.019  1.0606 -0.1668  0.8702
  584TMC3    H2 8717   2.374   4.161  17.045  3.1309  0.6617  0.2525
  584TMC3    C7 8718   2.329   3.935  17.183  0.4037 -0.0283 -0.4150
  584TMC3    C8 8719   2.476   4.206  16.812  0.2106 -0.5003  0.2179
  584TMC3    O1 8720   2.308   3.816  17.217  0.1033  0.5080  0.6041
  584TMC3    O2 8721   2.459   4.227  16.693 -0.4289  0.3230  0.5934
  585MPD2     C 8722   1.387   2.139   0.025 -0.6670  0.1970 -0.0321
  585MPD2    C1 8723   1.525   2.163   0.032  0.0814 -0.4577  0.2630
  585MPD2    C2 8724   1.616   2.064   0.017  0.3774 -0.1578  0.2611
  585MPD2    C3 8725   1.582   1.941  17.707 -0.1919 -0.0144 -0.0237
  585MPD2    C4 8726   1.446   1.920  17.686  0.3223 -0.1486  0.1994
  585MPD2    C5 8727   1.351   2.011  17.723  0.1648 -0.2152 -0.3263
  585MPD2     H 8728   1.723   2.068   0.034  0.1380  1.9630  1.3204
  585MPD2    H1 8729   1.416   1.823  17.646  1.2365  0.1683 -1.2209
  585MPD2    H2 8730   1.306   2.209   0.039 -0.8001 -0.5561  2.8929
  585MPD2    H3 8731   1.247   1.985  17.708 -0.1129 -0.4656  1.9815
  585MPD2     N 8732   1.671   1.840  17.674  0.9106 -0.3170 -0.0515
  585MPD2    H5 8733   1.636   1.764  17.617 -0.5023 -0.0775  0.5087
  585MPD2    N1 8734   1.558   2.295   0.070 -0.5995 -0.5614  0.0596
  585MPD2    H7 8735   1.479   2.356   0.085  0.1329  0.2529  0.5994
  586TMC3    C1 8736   1.866   1.705  17.689 -0.3173 -0.1516 -0.1011
  586TMC3    C2 8737   1.923   1.624   0.047 -0.0836 -0.0192 -0.9243
  586TMC3    C3 8738   2.022   1.546  17.724  0.3453 -0.1389 -0.3414
  586TMC3    C4 8739   1.890   1.705  17.556 -0.3096 -0.2697  0.2151
  586TMC3    C5 8740   1.988   1.622  17.504 -0.0509  0.2836  0.3689
  586TMC3    C6 8741   2.058   1.541  17.593 -0.2773 -0.7004  0.1176
  586TMC3     C 8742   1.793   1.825  17.735  0.5494  0.4688  0.0424
  586TMC3     O 8743   1.834   1.876   0.100  0.3453  0.4814 -0.0425
  586TMC3     H 8744   1.914   1.639   0.154 -1.1883 -1.6024 -0.8026
  586TMC3    H1 8745   1.826   1.757  17.486 -0.5388 -1.8758 -0.7765
  586TMC3    H2 8746   2.121   1.466  17.547  0.3903  0.2148 -0.4788
  586TMC3    C7 8747   1.944   1.553  17.385 -0.1795 -0.6481  0.5126
  586TMC3    C8 8748   2.047   1.422   0.056 -0.2164  0.7083 -0.2997
  586TMC3    O1 8749   1.822   1.543  17.366 -0.7422 -0.1397  0.1907
  586TMC3    O2 8750   2.037   1.320  17.718  0.2322  0.4642  0.2295
  587TMC3    C1 8751   3.980   0.749  16.803 -0.3279  0.2962 -0.0097
  587TMC3    C2 8752   3.969   0.855  16.723  0.7858  0.2666 -0.5025
  587TMC3    C3 8753   4.069   0.950  16.721 -0.2772 -0.3699 -0.5855
  587TMC3    C4 8754   4.082   0.731  16.893  0.9191 -0.3236 -0.3256
  587TMC3    C5 8755   4.185   0.824  16.883  0.8063 -0.2974  0.2010
  587TMC3    C6 8756   4.180   0.932  16.798 -0.6832  0.2729 -0.0338
  587TMC3     C 8757   3.864   0.660  16.811  0.0474 -0.1570 -0.2015
  587TMC3     O 8758   3.887   0.543  16.784 -0.0925  0.6062 -0.4222
  587TMC3     H 8759   3.881   0.866  16.661  0.9510  1.2083 -0.5636
  587TMC3    H1 8760   4.078   0.641  16.954  1.4918  0.4173  0.8028
  587TMC3    H2 8761   4.253   1.012  16.806  0.7510 -0.8431 -1.9340
  587TMC3    C7 8762   4.305   0.806  16.961 -0.2767  0.2191  0.1618
  587TMC3    C8 8763   4.072   1.061  16.624  0.6346 -0.6109  0.1307
  587TMC3    O1 8764   4.368   0.904  17.002  0.2655  0.0961  0.6823
  587TMC3    O2 8765   4.179   1.113  16.617  0.1260 -0.1438  0.1248
  588TMC3    C1 8766   1.588   3.548  10.013 -0.0137 -0.2071  1.1711
  588TMC3    C2 8767   1.500   3.446   9.996 -0.3270 -0.2117 -0.6761
  588TMC3    C3 8768   1.507   3.337  10.085  0.1119 -0.1603 -0.1075
  588TMC3    C4 8769   1.661   3.549  10.128 -0.0066  0.0468  0.1550
  588TMC3    C5 8770   1.665   3.444  10.209  0.5844  0.2037  0.1006
  588TMC3    C6 8771   1.585   3.331  10.194  0.2371 -0.0624 -0.3974
  588TMC3     C 8772   1.548   3.678   9.956  0.1556 -0.6569 -0.0900
  588TMC3     O 8773   1.551   3.683   9.835  0.0979 -0.2507  0.2799
  588TMC3     H 8774   1.434   3.448   9.910 -1.2282  1.9249  0.0728
  588TMC3    H1 8775   1.737   3.627  10.135 -0.7058  0.6614  0.7826
  588TMC3    H2 8776   1.624   3.244  10.245 -1.2741 -1.2263 -1.2148
  588TMC3    C7 8777   1.743   3.461  10.331  0.1531 -0.0184  0.4300
  588TMC3    C8 8778   1.446   3.210  10.052 -0.3942  0.5131 -0.3589
  588TMC3    O1 8779   1.776   3.363  10.396  0.1716 -0.2863  0.2484
  588TMC3    O2 8780   1.387   3.208   9.947  0.2604 -0.4742  0.0441
  589TMC3    C1 8781   0.581   1.154   1.090 -0.4099  0.2505 -0.5253
  589TMC3    C2 8782   0.637   1.274   1.071 -0.7025  0.0210  0.0661
  589TMC3    C3 8783   0.768   1.292   1.114  0.0150  0.1889 -0.1519
  589TMC3    C4 8784   0.647   1.055   1.150  0.3957  0.7363 -0.2799
  589TMC3    C5 8785   0.774   1.074   1.200  0.4421 -0.3538  0.2176
  589TMC3    C6 8786   0.841   1.193   1.174 -0.0426  0.4327 -0.6852
  589TMC3     C 8787   0.457   1.109   1.032 -0.0778 -0.5549  0.0400
  589TMC3     O 8788   0.431   0.991   1.034 -0.0593 -0.7577  0.4430
  589TMC3     H 8789   0.580   1.356   1.030  0.7454  1.3844  0.7476
  589TMC3    H1 8790   0.592   0.968   1.184  1.3571  0.0077 -0.5851
  589TMC3    H2 8791   0.946   1.201   1.198 -0.5891 -0.0231  1.8517
  589TMC3    C7 8792   0.846   0.948   1.204  0.0222  0.8192  0.6210
  589TMC3    C8 8793   0.824   1.427   1.096  0.8646 -0.1772 -0.6997
  589TMC3    O1 8794   0.805   0.855   1.136  0.2160  0.0200  0.9486
  589TMC3    O2 8795   0.761   1.513   1.038  0.3093  0.2327  0.1266
  590MPD2     C 8796   0.364   3.560  16.287  0.2466 -0.2689  0.0084
  590MPD2    C1 8797   0.283   3.671  16.276 -0.3965 -0.1255  0.5063
  590MPD2    C2 8798   0.340   3.794  16.245  0.9519  0.0147 -0.1254
  590MPD2    C3 8799   0.479   3.808  16.234 -1.0114 -0.3115 -0.1530
  590MPD2    C4 8800   0.553   3.693  16.252 -0.3620  0.2333  0.3105
  590MPD2    C5 8801   0.495   3.568  16.264  0.0514 -0.0121  0.2543
  590MPD2     H 8802   0.276   3.880  16.226 -1.2511 -1.6108  0.0307
  590MPD2    H1 8803   0.657   3.713  16.232 -0.1354  1.4987  2.7702
  590MPD2    H2 8804   0.327   3.459  16.307 -1.2266  0.4877  1.1370
  590MPD2    H3 8805   0.560   3.482  16.253 -0.2303 -0.1733 -0.1376
  590MPD2     N 8806   0.551   3.928  16.183 -0.8232 -0.0084 -0.5244
  590MPD2    H5 8807   0.650   3.926  16.160 -0.4578  0.9295  0.9543
  590MPD2    N1 8808   0.145   3.649  16.266  0.5230  0.0091 -0.0830
  590MPD2    H7 8809   0.107   3.570  16.317  0.3370 -0.9562 -1.7118
  591TMC3    C1 8810   0.545   4.134  16.073  0.4793 -0.2453 -0.2710
  591TMC3    C2 8811   0.664   4.119  16.001  0.4031 -0.4359  0.6138
  591TMC3    C3 8812   0.695   4.211  15.899 -0.7254  0.1067  0.2839
  591TMC3    C4 8813   0.456   4.233  16.040  0.6658 -0.4563  0.8707
  591TMC3    C5 8814   0.492   4.316  15.938 -0.0042  0.3544 -0.4218
  591TMC3    C6 8815   0.602   4.307  15.859 -0.3488 -0.6600 -0.3236
  591TMC3     C 8816   0.479   4.038  16.153 -0.1743  0.1181  0.2524
  591TMC3     O 8817   0.378   4.072  16.212 -0.2420 -0.2763  0.2949
  591TMC3     H 8818   0.734   4.040  16.024  1.6949  0.6476  0.3740
  591TMC3    H1 8819   0.367   4.259  16.095 -0.9592  0.9794 -2.4400
  591TMC3    H2 8820   0.617   4.367  15.770 -0.4949  1.8977  1.3868
  591TMC3    C7 8821   0.390   4.409  15.890  0.5374 -0.3674  0.3880
  591TMC3    C8 8822   0.753   4.140  15.782 -0.0897 -0.1346 -0.0191
  591TMC3    O1 8823   0.274   4.385  15.921 -0.1225  0.0347  0.0329
  591TMC3    O2 8824   0.737   4.017  15.781 -0.0397  0.3848 -0.0109
  592MPD2     C 8825   0.498   1.165  11.191  0.2377 -0.2235 -0.6734
  592MPD2    C1 8826   0.545   1.208  11.313  0.9077 -0.1131  0.0643
  592MPD2    C2 8827   0.573   1.114  11.409  0.8333  0.2936  0.1043
  592MPD2    C3 8828   0.541   0.982  11.383 -0.5037  0.3500  1.4120
  592MPD2    C4 8829   0.499   0.944  11.254 -0.4065  0.3236 -0.2420
  592MPD2    C5 8830   0.479   1.034  11.158  0.2914  0.1742 -0.3366
  592MPD2     H 8831   0.603   1.147  11.508  2.5698 -0.0054 -0.3240
  592MPD2    H1 8832   0.488   0.839  11.227 -0.1611 -0.2477  1.8969
  592MPD2    H2 8833   0.462   1.240  11.121  0.8274  0.0806 -0.6454
  592MPD2    H3 8834   0.443   0.999  11.061  0.6392  0.0032 -0.4045
  592MPD2     N 8835   0.559   0.892  11.487 -0.5674  0.6144  0.1269
  592MPD2    H5 8836   0.611   0.929  11.566  2.7669 -0.1494 -1.7121
  592MPD2    N1 8837   0.571   1.343  11.331  0.1702 -0.1862  0.0510
  592MPD2    H7 8838   0.548   1.406  11.255  1.3525  1.0715  0.7119
  593TMC3    C1 8839   0.607   1.553  11.422  1.0001 -0.4653 -0.2873
  593TMC3    C2 8840   0.573   1.633  11.523  0.4427  0.4798  0.6997
  593TMC3    C3 8841   0.629   1.759  11.523 -1.2818  0.5808 -0.5742
  593TMC3    C4 8842   0.676   1.588  11.308  0.3244  0.0231  0.2265
  593TMC3    C5 8843   0.714   1.716  11.298 -0.0724 -0.1498  0.4622
  593TMC3    C6 8844   0.690   1.800  11.409 -0.2141 -0.5417  0.3988
  593TMC3     C 8845   0.593   1.413  11.449  1.2326 -0.5940  0.1032
  593TMC3     O 8846   0.587   1.371  11.563  0.1420  0.0821  0.2884
  593TMC3     H 8847   0.535   1.592  11.616 -1.8520 -0.9875 -0.8739
  593TMC3    H1 8848   0.738   1.515  11.258  1.0559  0.4433  0.5276
  593TMC3    H2 8849   0.715   1.905  11.394  0.9410 -0.9377 -0.5129
  593TMC3    C7 8850   0.782   1.748  11.176 -0.1678 -0.0039 -0.6442
  593TMC3    C8 8851   0.619   1.839  11.644 -0.3876  0.1292  0.2847
  593TMC3    O1 8852   0.811   1.864  11.184 -0.0197  0.0374 -0.4325
  593TMC3    O2 8853   0.536   1.801  11.725  0.4294  0.1741 -0.2614
  594MPD2     C 8854   4.275   0.023  13.996  0.1087 -0.0775  0.5134
  594MPD2    C1 8855   4.230   0.077  14.114 -0.3193 -0.6518  0.1477
  594MPD2    C2 8856   4.259   0.206  14.139  0.5038  0.2913 -0.4284
  594MPD2    C3 8857   4.325   0.284  14.042 -0.4859  0.4417  0.0282
  594MPD2    C4 8858   4.363   0.226  13.922  0.0153  0.0625 -0.3850
  594MPD2    C5 8859   4.343   0.090  13.900  0.2496 -0.2340  0.0553
  594MPD2     H 8860   4.236   0.260  14.230 -4.6179  0.0293 -1.5631
  594MPD2    H1 8861   4.415   0.274  13.840 -2.0454  1.6229 -0.7747
  594MPD2    H2 8862   4.263   4.651  13.974  0.3081  0.7076 -3.2828
  594MPD2    H3 8863   4.362   0.048  13.802  0.1174 -0.7649  0.2574
  594MPD2     N 8864   4.346   0.424  14.070  0.5136  0.9645  0.2627
  594MPD2    H5 8865   4.324   0.452  14.165  1.1905 -1.9461  1.2864
  594MPD2    N1 8866   4.150   0.001  14.201 -0.3260  0.2007 -0.2519
  594MPD2    H7 8867   4.132   4.637  14.183 -0.4228 -0.0307  1.0571
  595TMC3    C1 8868   4.563   0.830  14.079 -0.8951 -0.6803  0.5534
  595TMC3    C2 8869   4.524   0.728  13.992 -0.0510 -0.4136  0.2028
  595TMC3    C3 8870   4.410   0.657  14.031 -0.1807 -1.0135 -0.1682
  595TMC3    C4 8871   4.491   0.864  14.189  0.6593 -0.5960  0.1506
  595TMC3    C5 8872   4.383   0.787  14.229  0.2619 -0.3116 -0.1605
  595TMC3    C6 8873   4.343   0.684  14.149  0.1120 -0.5957  0.0204
  595TMC3     C 8874   4.693   0.804  14.132 -0.1727  0.0730  0.1710
  595TMC3     O 8875   4.705   0.826  14.249  0.2317  0.4815  0.3560
  595TMC3     H 8876   4.575   0.710  13.898 -0.5147  0.2184 -0.1687
  595TMC3    H1 8877   4.532   0.947  14.246 -0.0764  0.2102 -0.4865
  595TMC3    H2 8878   4.255   0.627  14.173  1.8496 -1.9699  3.0865
  595TMC3    C7 8879   4.331   0.808  14.363 -0.2972 -0.1165  0.3252
  595TMC3    C8 8880   4.390   0.518  13.978 -0.6817  0.0733 -0.4411
  595TMC3    O1 8881   4.221   0.764  14.395  0.4488 -0.7292 -0.4440
  595TMC3    O2 8882   4.442   0.501  13.869 -0.2454  0.4240 -0.2099
  596MPD2     C 8883   3.402   2.950  16.551 -0.8083  0.0846 -0.2635
  596MPD2    C1 8884   3.390   3.073  16.501 -0.8318 -0.3493 -0.4658
  596MPD2    C2 8885   3.400   3.098  16.367 -1.4810  0.0925  0.0857
  596MPD2    C3 8886   3.419   2.993  16.278 -0.4096 -0.1511  0.0200
  596MPD2    C4 8887   3.450   2.869  16.333  0.3007 -1.1419  0.3282
  596MPD2    C5 8888   3.434   2.844  16.467 -0.1253 -0.1805 -0.3129
  596MPD2     H 8889   3.393   3.199  16.330 -0.9200 -0.0490 -0.3920
  596MPD2    H1 8890   3.482   2.787  16.271 -0.2025 -0.3625 -0.9716
  596MPD2    H2 8891   3.413   2.928  16.657 -0.4396 -0.5218 -0.4294
  596MPD2    H3 8892   3.446   2.740  16.498  0.4070  0.8348  2.8965
  596MPD2     N 8893   3.416   2.998  16.135  0.6063 -0.1588 -0.0400
  596MPD2    H5 8894   3.416   2.907  16.089 -0.8941 -0.4730  0.5940
  596MPD2    N1 8895   3.392   3.185  16.585  0.1173  0.2691  0.2144
  596MPD2    H7 8896   3.422   3.271  16.539 -1.7784  1.2409  0.7781
  597TMC3    C1 8897   3.363   3.332  16.751 -0.7863 -0.1430 -0.4321
  597TMC3    C2 8898   3.438   3.396  16.658 -0.6089  0.6164 -0.0895
  597TMC3    C3 8899   3.407   3.521  16.625 -0.4199  0.0617  0.2838
  597TMC3    C4 8900   3.259   3.390  16.817  0.9072 -0.6841 -0.3068
  597TMC3    C5 8901   3.224   3.518  16.775 -0.2764 -0.1503 -0.3437
  597TMC3    C6 8902   3.294   3.583  16.673  0.0888  0.3881  0.0591
  597TMC3     C 8903   3.344   3.193  16.712  0.2471  0.5674  0.8770
  597TMC3     O 8904   3.276   3.114  16.776  0.2788 -0.0394 -0.0625
  597TMC3     H 8905   3.533   3.358  16.624 -0.2741  2.6100 -1.3624
  597TMC3    H1 8906   3.200   3.338  16.891  0.3256  0.8189  0.2941
  597TMC3    H2 8907   3.248   3.669  16.626  0.1970 -0.1431 -1.0264
  597TMC3    C7 8908   3.119   3.586  16.852  0.8102 -0.5959  0.2389
  597TMC3    C8 8909   3.457   3.554  16.495 -1.1844  0.6544 -0.7325
  597TMC3    O1 8910   3.028   3.512  16.888  0.4920  0.4202 -0.5899
  597TMC3    O2 8911   3.484   3.469  16.416 -0.3376 -0.3479  0.3686
  598TMC3    C1 8912   1.512   4.177  15.114 -0.1985  0.1603 -0.0414
  598TMC3    C2 8913   1.443   4.105  15.017  0.1037  0.0413 -0.0166
  598TMC3    C3 8914   1.405   4.168  14.906  0.9140 -0.8014 -0.2631
  598TMC3    C4 8915   1.551   4.308  15.091  0.6113 -0.2576 -0.0554
  598TMC3    C5 8916   1.532   4.361  14.967  0.3510 -0.2804 -0.3870
  598TMC3    C6 8917   1.445   4.300  14.878 -0.4110 -0.0473  0.1263
  598TMC3     C 8918   1.550   4.122  15.245  0.0312 -0.5867  0.5701
  598TMC3     O 8919   1.617   4.198  15.316 -0.2052  0.5220 -0.0084
  598TMC3     H 8920   1.439   3.998  15.037 -2.2207  0.2057  0.3972
  598TMC3    H1 8921   1.574   4.368  15.178  1.0929 -1.1237  0.4092
  598TMC3    H2 8922   1.412   4.343  14.784  1.4908  0.9009 -0.0911
  598TMC3    C7 8923   1.584   4.496  14.941 -0.0348 -0.8907 -0.4689
  598TMC3    C8 8924   1.344   4.099  14.794 -0.1182  0.7121 -0.1187
  598TMC3    O1 8925   1.643   4.549  15.031  0.3898 -0.0849  0.0868
  598TMC3    O2 8926   1.367   4.143  14.682  0.0663  0.2898  0.9035
  599MPD2     C 8927   1.739   2.065  15.931 -0.2289 -1.0591 -0.5357
  599MPD2    C1 8928   1.684   1.941  15.957  1.2527 -0.3794 -0.5809
  599MPD2    C2 8929   1.576   1.924  16.043 -0.6238 -0.0196  0.1756
  599MPD2    C3 8930   1.523   2.032  16.114  0.7907 -0.3756  0.2595
  599MPD2    C4 8931   1.578   2.159  16.086  0.3942  0.2060 -0.4261
  599MPD2    C5 8932   1.692   2.175  16.007 -0.6386  0.0998 -0.4599
  599MPD2     H 8933   1.536   1.825  16.060 -0.4089 -0.3393 -1.1742
  599MPD2    H1 8934   1.549   2.244  16.147  0.5968  0.1203 -0.2092
  599MPD2    H2 8935   1.829   2.076  15.873  0.9826 -0.4492  1.4628
  599MPD2    H3 8936   1.737   2.273  15.997  1.1192 -0.5444  1.0718
  599MPD2     N 8937   1.429   2.018  16.218 -1.1938  0.0996  0.4252
  599MPD2    H5 8938   1.395   2.099  16.269  0.8359  0.4405  1.2209
  599MPD2    N1 8939   1.744   1.834  15.898 -0.4775  0.2822 -0.4513
  599MPD2    H7 8940   1.832   1.852  15.852 -0.1341  0.0833  0.1231
  600TMC3    C1 8941   1.334   1.900  16.411  0.0871  0.6715 -0.3117
  600TMC3    C2 8942   1.276   1.785  16.459 -0.3650  0.6068 -0.3860
  600TMC3    C3 8943   1.233   1.781  16.589  0.0066  0.0927  0.2435
  600TMC3    C4 8944   1.361   2.009  16.487 -0.1568  0.5082  0.3555
  600TMC3    C5 8945   1.306   2.006  16.622 -0.7001 -0.2565 -0.9099
  600TMC3    C6 8946   1.250   1.892  16.675  0.7174 -0.0624  0.7817
  600TMC3     C 8947   1.384   1.897  16.267  0.1225 -0.2917  0.4074
  600TMC3     O 8948   1.396   1.779  16.228  0.4286  0.1339 -0.2845
  600TMC3     H 8949   1.277   1.698  16.395 -0.8344 -0.0482  0.5020
  600TMC3    H1 8950   1.423   2.089  16.448 -0.3039  0.7794  0.6755
  600TMC3    H2 8951   1.219   1.893  16.779  2.8019  0.8571  1.3838
  600TMC3    C7 8952   1.253   2.130  16.677  0.4052 -0.3794  0.0263
  600TMC3    C8 8953   1.127   1.692  16.617 -0.1173  0.7104  0.3171
  600TMC3    O1 8954   1.176   2.112  16.769  0.2739 -0.3144 -0.1286
  600TMC3    O2 8955   1.103   1.672  16.734  0.2665 -0.4978  0.1501
  601MPD2     C 8956   2.722   0.534   0.657 -0.1767 -0.1088 -0.3464
  601MPD2    C1 8957   2.669   0.493   0.538 -0.0560 -0.3959  0.2615
  601MPD2    C2 8958   2.579   0.391   0.542  0.9024 -0.1491 -0.9712
  601MPD2    C3 8959   2.547   0.324   0.662 -0.4967 -0.6065  0.5362
  601MPD2    C4 8960   2.608   0.366   0.777  0.7347 -0.2520  0.3796
  601MPD2    C5 8961   2.696   0.469   0.774  0.0966 -0.1981  0.0027
  601MPD2     H 8962   2.524   0.362   0.453  1.0468  0.7205 -1.3530
  601MPD2    H1 8963   2.586   0.320   0.872 -0.6217 -1.1842 -0.3802
  601MPD2    H2 8964   2.797   0.610   0.676 -0.7184  0.0666  1.0775
  601MPD2    H3 8965   2.728   0.510   0.869  2.9501  1.7885 -1.8093
  601MPD2     N 8966   2.451   0.221   0.668 -0.6788 -0.7436  0.5801
  601MPD2    H5 8967   2.425   0.179   0.756 -3.4464 -0.7448 -0.2493
  601MPD2    N1 8968   2.706   0.552   0.419  0.4105 -0.3981  0.1376
  601MPD2    H7 8969   2.665   0.505   0.339  1.2325  2.3471 -1.8893
  602TMC3    C1 8970   2.811   0.696   0.260 -0.0193 -0.0481 -0.1831
  602TMC3    C2 8971   2.920   0.776   0.236 -0.1063 -0.1554  0.2566
  602TMC3    C3 8972   2.961   0.794   0.108 -0.5275  0.0188  0.5123
  602TMC3    C4 8973   2.753   0.625   0.160 -0.2480 -0.2224 -0.0077
  602TMC3    C5 8974   2.801   0.642   0.030  0.2707  0.2755 -0.0880
  602TMC3    C6 8975   2.895   0.733   0.007 -0.1109  0.3208  0.4478
  602TMC3     C 8976   2.794   0.660   0.399  0.7551 -0.0462 -0.2682
  602TMC3     O 8977   2.861   0.721   0.481  0.4444  0.1025  0.3968
  602TMC3     H 8978   2.970   0.833   0.313 -0.9807 -0.2930  0.9337
  602TMC3    H1 8979   2.656   0.579   0.178  0.9996 -1.8712  2.4955
  602TMC3    H2 8980   2.935   0.747  17.642 -1.4879  1.4968  0.0544
  602TMC3    C7 8981   2.705   0.620  17.664 -0.2719 -1.0849 -0.5418
  602TMC3    C8 8982   3.035   0.920   0.070  0.3604 -0.2801  0.0302
  602TMC3    O1 8983   2.620   0.534  17.687  0.3162  0.2589 -0.0643
  602TMC3    O2 8984   3.095   0.979   0.156 -0.6757 -0.5182  0.0813
  603TMC3    C1 8985   1.158   0.772  10.915 -0.5709 -0.1565 -0.7012
  603TMC3    C2 8986   1.151   0.814  11.044 -0.3871  0.5137  0.4753
  603TMC3    C3 8987   1.202   0.938  11.071  0.0636 -0.0489  0.1564
  603TMC3    C4 8988   1.223   0.846  10.818 -0.4154  0.0286  0.2331
  603TMC3    C5 8989   1.270   0.972  10.853  0.6960 -0.0458 -0.1112
  603TMC3    C6 8990   1.267   1.017  10.979 -0.1175 -0.0599 -0.1200
  603TMC3     C 8991   1.091   0.654  10.867 -0.2170  0.2511  0.6972
  603TMC3     O 8992   1.070   0.643  10.746  0.6295  0.0026  0.8034
  603TMC3     H 8993   1.093   0.764  11.121  1.4188  0.1214  1.5747
  603TMC3    H1 8994   1.220   0.807  10.717 -0.5440  0.8755 -0.0950
  603TMC3    H2 8995   1.286   1.120  11.009  0.3489  0.6624 -2.8957
  603TMC3    C7 8996   1.300   1.072  10.756  0.6732 -0.0898 -0.1093
  603TMC3    C8 8997   1.217   0.960  11.217 -0.2200  0.5346  0.1809
  603TMC3    O1 8998   1.365   1.174  10.787 -0.1785 -0.0028 -0.1758
  603TMC3    O2 8999   1.228   0.859  11.285 -0.1007 -0.5494 -0.7681
  604MPD2     C 9000   2.556   4.359  16.061  0.2010  0.7616 -0.0626
  604MPD2    C1 9001   2.484   4.339  15.947 -0.0642 -0.4151 -0.0954
  604MPD2    C2 9002   2.546   4.326  15.824 -0.5288 -0.6277  0.0101
  604MPD2    C3 9003   2.680   4.353  15.809 -0.3953 -0.1076  0.0037
  604MPD2    C4 9004   2.751   4.393  15.922 -0.1749 -0.9381 -0.5781
  604MPD2    C5 9005   2.685   4.393  16.044  0.5330 -0.4115 -0.0321
  604MPD2     H 9006   2.493   4.312  15.731 -1.0677 -1.2175  0.4035
  604MPD2    H1 9007   2.857   4.416  15.922 -0.4190  0.1842  0.2091
  604MPD2    H2 9008   2.507   4.365  16.157  0.4184  0.8581  0.0429
  604MPD2    H3 9009   2.738   4.422  16.134 -1.0144  1.5598  0.2474
  604MPD2     N 9010   2.735   4.359  15.679  1.1034  0.6401  0.6016
  604MPD2    H5 9011   2.667   4.359  15.605 -0.0927  0.3690  1.6945
  604MPD2    N1 9012   2.351   4.303  15.968 -0.2162  0.2868 -0.2690
  604MPD2    H7 9013   2.329   4.313  16.066 -3.7984  1.0899 -1.1756
  605TMC3    C1 9014   2.125   4.238  15.946 -0.0878  0.9066  0.2602
  605TMC3    C2 9015   2.139   4.226  16.080 -0.5069 -0.0448 -0.4992
  605TMC3    C3 9016   2.062   4.301  16.166  0.7528  0.0369  0.3448
  605TMC3    C4 9017   2.023   4.314  15.896  0.8192  0.0760  0.7304
  605TMC3    C5 9018   1.933   4.364  15.985  0.4491 -0.3256 -0.0823
  605TMC3    C6 9019   1.946   4.356  16.122 -0.0194 -0.4880 -0.2987
  605TMC3     C 9020   2.254   4.264  15.876  0.2720 -0.2237  0.8924
  605TMC3     O 9021   2.260   4.276  15.756 -0.1294  0.2267 -0.0316
  605TMC3     H 9022   2.218   4.164  16.122 -1.6718  1.5655  4.0615
  605TMC3    H1 9023   2.021   4.331  15.789  3.5592 -0.1996  0.6486
  605TMC3    H2 9024   1.878   4.410  16.187  0.4318  2.0750 -1.9202
  605TMC3    C7 9025   1.806   4.413  15.939  0.4029 -0.0979  0.2635
  605TMC3    C8 9026   2.145   4.375  16.257  0.2813 -0.8647 -0.1008
  605TMC3    O1 9027   1.730   4.458  16.027 -0.0696  0.5809  0.8176
  605TMC3    O2 9028   2.254   4.324  16.284  0.5939  0.3867 -0.2964
  606TMC3    C1 9029   3.488   3.590  17.375 -0.3938 -0.7633 -0.4330
  606TMC3    C2 9030   3.484   3.559  17.509 -0.4707  0.2651 -0.4698
  606TMC3    C3 9031   3.459   3.430  17.539 -1.2226 -0.1398 -0.2209
  606TMC3    C4 9032   3.473   3.491  17.280  0.9639 -0.1668 -0.1373
  606TMC3    C5 9033   3.438   3.362  17.310  0.1853  0.9954 -0.2184
  606TMC3    C6 9034   3.434   3.330  17.448 -0.5973  0.0189 -0.8468
  606TMC3     C 9035   3.562   3.709  17.329  0.2471  0.0798 -0.0415
  606TMC3     O 9036   3.571   3.731  17.210  0.0963  0.4380  0.4080
  606TMC3     H 9037   3.509   3.631  17.586  0.6679 -1.7458  1.0529
  606TMC3    H1 9038   3.468   3.529  17.179 -1.0598 -2.4488 -0.8736
  606TMC3    H2 9039   3.406   3.233  17.487  0.3935  0.4008  0.8445
  606TMC3    C7 9040   3.452   3.257  17.213 -0.0183  1.2308  0.1960
  606TMC3    C8 9041   3.471   3.386  17.676 -0.0498 -0.3264  0.7111
  606TMC3    O1 9042   3.452   3.299  17.097 -0.7291 -0.3720 -0.6291
  606TMC3    O2 9043   3.475   3.266  17.691 -0.4776 -0.4948  0.4736
  607MPD2     C 9044   0.665   0.841  11.956 -0.0218  0.0627  0.3242
  607MPD2    C1 9045   0.666   0.975  11.979  0.3738  0.8844  0.1894
  607MPD2    C2 9046   0.619   1.015  12.103 -0.3754  0.9879 -0.2614
  607MPD2    C3 9047   0.563   0.935  12.201  0.1494 -0.2105 -0.3214
  607MPD2    C4 9048   0.571   0.806  12.174 -0.6126  0.8362  0.4388
  607MPD2    C5 9049   0.625   0.761  12.058  0.8461  0.1694 -0.5201
  607MPD2     H 9050   0.645   1.118  12.125  0.4089  0.7389 -0.0257
  607MPD2    H1 9051   0.539   0.738  12.252  1.9872 -0.9703 -0.0697
  607MPD2    H2 9052   0.693   0.800  11.859 -0.5460  0.0362  0.1818
  607MPD2    H3 9053   0.617   0.654  12.044 -2.1044  0.3027  0.1142
  607MPD2     N 9054   0.546   0.993  12.332  0.5087  0.0106  0.2136
  607MPD2    H5 9055   0.577   1.089  12.346 -0.1837  0.7824 -3.5738
  607MPD2    N1 9056   0.716   1.068  11.884 -0.7664  0.1018  0.4203
  607MPD2    H7 9057   0.725   1.161  11.923 -1.7146  1.2691 -2.1717
  608TMC3    C1 9058   0.858   1.165  11.734 -0.4926  0.7429  0.3237
  608TMC3    C2 9059   0.925   1.218  11.840 -0.9036  0.3021 -0.0376
  608TMC3    C3 9060   1.001   1.324  11.825 -0.1038  0.6220 -0.3138
  608TMC3    C4 9061   0.865   1.225  11.610  0.1411 -0.0737  0.3864
  608TMC3    C5 9062   0.928   1.346  11.599  0.0921  0.1198 -0.1509
  608TMC3    C6 9063   0.995   1.396  11.704 -0.0657 -0.3365  0.4170
  608TMC3     C 9064   0.758   1.062  11.758  0.2102  0.3746  0.1250
  608TMC3     O 9065   0.741   0.975  11.676 -0.2835 -0.4933 -0.6263
  608TMC3     H 9066   0.947   1.155  11.926  0.9438 -1.5989 -1.9110
  608TMC3    H1 9067   0.813   1.184  11.524 -0.2502  3.1644 -0.9119
  608TMC3    H2 9068   1.075   1.469  11.704 -1.1508  0.8514 -0.0282
  608TMC3    C7 9069   0.941   1.403  11.465 -0.3895  0.5849  0.3787
  608TMC3    C8 9070   1.043   1.401  11.931 -0.4987  0.3841  0.3370
  608TMC3    O1 9071   0.895   1.344  11.363 -0.2531 -0.0647 -0.1460
  608TMC3    O2 9072   1.115   1.497  11.910 -0.0204  0.3859  0.0634
  609TMC3    C1 9073   4.094   0.031   8.706 -0.4249 -0.5116  0.1100
  609TMC3    C2 9074   4.046   4.636   8.732 -0.7136  0.3156  0.3611
  609TMC3    C3 9075   4.138   4.527   8.717  0.2485  0.0295  0.5320
  609TMC3    C4 9076   4.225   0.051   8.670 -0.2689  0.4195  0.3392
  609TMC3    C5 9077   4.308   4.674   8.661 -0.8406 -0.1644 -0.0648
  609TMC3    C6 9078   4.270   4.550   8.684 -0.8316 -0.0637  0.1268
  609TMC3     C 9079   4.011   0.143   8.754  0.8354 -0.4841 -0.3584
  609TMC3     O 9080   3.916   0.128   8.827  0.4809  0.2936  0.4433
  609TMC3     H 9081   3.939   4.625   8.751 -0.8292  1.4639  0.4224
  609TMC3    H1 9082   4.272   0.149   8.673 -1.7403  1.1708 -1.0140
  609TMC3    H2 9083   4.350   4.477   8.687  0.4290  1.2554 -2.1742
  609TMC3    C7 9084   4.448   4.693   8.675  0.2792  0.0002 -0.1392
  609TMC3    C8 9085   4.078   4.398   8.709  0.1509 -0.2728  0.4896
  609TMC3    O1 9086   4.506   4.623   8.760 -0.1023  0.0639 -0.2643
  609TMC3    O2 9087   3.957   4.384   8.721  0.1000 -0.8765 -0.1864
  610TMC3    C1 9088   1.111   1.032  13.000  0.0929  0.5149 -0.1776
  610TMC3    C2 9089   1.161   1.068  12.878 -0.4009  0.2548 -0.6688
  610TMC3    C3 9090   1.289   1.027  12.841 -0.1329 -0.4743  0.0045
  610TMC3    C4 9091   1.197   0.972  13.090  0.5644 -0.1686  0.8608
  610TMC3    C5 9092   1.317   0.940  13.049 -0.6625  0.0891  0.1878
  610TMC3    C6 9093   1.374   0.964  12.931  0.2348 -0.3122  0.1537
  610TMC3     C 9094   0.981   1.080  13.050  0.1311  0.1512 -0.2716
  610TMC3     O 9095   0.933   1.009  13.140 -0.6680  0.4140 -0.4190
  610TMC3     H 9096   1.105   1.137  12.816 -0.7070 -0.2052 -0.9087
  610TMC3    H1 9097   1.160   0.934  13.185 -1.9344 -0.1179 -0.0872
  610TMC3    H2 9098   1.478   0.940  12.909  0.1663 -1.2327  0.8185
  610TMC3    C7 9099   1.418   0.907  13.146  0.0375 -0.7819 -0.4422
  610TMC3    C8 9100   1.356   1.075  12.719 -0.5387 -0.2094 -0.2207
  610TMC3    O1 9101   1.395   0.825  13.228 -0.5099 -0.7184 -0.0803
  610TMC3    O2 9102   1.468   1.037  12.697  0.2028 -0.2053  0.4557
  611MPD2     C 9103   0.260   0.907  10.323 -0.6073 -0.4203 -0.1971
  611MPD2    C1 9104   0.269   0.862  10.193  0.2352  0.2077 -0.3643
  611MPD2    C2 9105   0.385   0.891  10.122  0.6193  0.0840 -0.0917
  611MPD2    C3 9106   0.498   0.943  10.184  0.2179 -0.1627  0.4293
  611MPD2    C4 9107   0.492   0.975  10.312  0.5346 -0.0364  0.1462
  611MPD2    C5 9108   0.372   0.961  10.380  0.2041  0.2742 -0.8220
  611MPD2     H 9109   0.378   0.861  10.018 -2.6459  3.5606 -0.8588
  611MPD2    H1 9110   0.580   1.025  10.352  0.3766 -0.6162  1.2116
  611MPD2    H2 9111   0.167   0.883  10.372  0.7224 -1.3137  1.8651
  611MPD2    H3 9112   0.376   0.996  10.482  3.1060  0.9371 -1.1583
  611MPD2     N 9113   0.617   0.984  10.122  0.2688 -0.2571  0.1135
  611MPD2    H5 9114   0.679   1.037  10.183 -0.9669  0.9867  0.2716
  611MPD2    N1 9115   0.162   0.790  10.135 -0.6451  0.2231 -0.3223
  611MPD2    H7 9116   0.079   0.797  10.193  0.2750 -0.5049  1.0773
  612TMC3    C1 9117   0.760   1.044   9.946  0.0892  0.9398  0.9950
  612TMC3    C2 9118   0.857   1.079  10.038 -0.4162  0.6985  0.3193
  612TMC3    C3 9119   0.926   1.190  10.020  0.1643 -0.0088  0.3632
  612TMC3    C4 9120   0.745   1.108   9.825 -0.6272 -0.3716 -0.8015
  612TMC3    C5 9121   0.828   1.213   9.804  0.5195 -0.2149  0.2888
  612TMC3    C6 9122   0.913   1.260   9.899  0.7788  0.8312 -0.2180
  612TMC3     C 9123   0.655   0.959   9.986  0.2928 -1.3709 -0.0035
  612TMC3     O 9124   0.585   0.914   9.900  0.3287  0.3794  0.4905
  612TMC3     H 9125   0.869   1.019  10.127  2.6019  2.0160  0.8224
  612TMC3    H1 9126   0.672   1.080   9.750 -1.3594 -1.9807  0.5317
  612TMC3    H2 9127   0.964   1.354   9.879 -0.8151  1.7764  0.1384
  612TMC3    C7 9128   0.794   1.299   9.693  0.1215 -1.0676 -1.0822
  612TMC3    C8 9129   1.051   1.214  10.089  0.4531  0.7053  0.1484
  612TMC3    O1 9130   0.804   1.421   9.701  0.4576  0.0774 -0.5883
  612TMC3    O2 9131   1.122   1.303  10.044  0.1575 -0.5233  0.0756
  613MPD2     C 9132   0.052   3.043  16.563 -0.1435 -0.3213  0.0095
  613MPD2    C1 9133   4.651   3.071  16.585  0.1894 -0.0697  0.0721
  613MPD2    C2 9134   4.594   3.055  16.710 -0.1426  0.6011  0.1626
  613MPD2    C3 9135   4.682   2.999  16.806  0.4650  0.1761 -0.5475
  613MPD2    C4 9136   0.083   2.980  16.791  0.7324 -0.2971  0.0234
  613MPD2    C5 9137   0.133   3.004  16.667  0.7557 -0.0950 -0.8369
  613MPD2     H 9138   4.492   3.089  16.720  0.1376  1.0329  1.6645
  613MPD2    H1 9139   0.143   2.962  16.879  0.0453  0.4855  0.6540
  613MPD2    H2 9140   0.103   3.052  16.467 -3.1165 -1.1240 -1.6477
  613MPD2    H3 9141   0.238   2.981  16.656  1.4333  3.0880 -0.8659
  613MPD2     N 9142   4.635   2.966  16.937  0.1549  0.8255 -0.7501
  613MPD2    H5 9143   4.703   2.963  17.012  0.7156  2.2219 -1.1964
  613MPD2    N1 9144   4.582   3.114  16.471 -0.0112  0.8667 -0.2735
  613MPD2    H7 9145   4.625   3.105  16.379 -0.0335  0.7263 -0.2694
  614TMC3    C1 9146   4.400   3.103  16.338 -0.2993  0.0205  0.1368
  614TMC3    C2 9147   4.469   3.010  16.268 -0.0367 -0.3511 -0.3045
  614TMC3    C3 9148   4.404   2.948  16.159 -0.3072  0.0543 -0.0112
  614TMC3    C4 9149   4.274   3.136  16.291  0.4998 -0.0946 -0.3560
  614TMC3    C5 9150   4.219   3.078  16.185 -0.3235  0.2623  0.1542
  614TMC3    C6 9151   4.282   2.981  16.113  0.0003 -0.7625 -0.0647
  614TMC3     C 9152   4.449   3.146  16.469  0.0171 -0.6429  0.2454
  614TMC3     O 9153   4.382   3.198  16.555  0.1034 -0.0658 -0.1740
  614TMC3     H 9154   4.572   2.982  16.284 -0.0603 -0.7428 -0.8479
  614TMC3    H1 9155   4.226   3.221  16.338 -1.2683  0.0880 -2.4735
  614TMC3    H2 9156   4.232   2.922  16.037 -2.3227  1.0961  0.0517
  614TMC3    C7 9157   4.124   3.169  16.126  0.2209  0.5769  0.3065
  614TMC3    C8 9158   4.482   2.875  16.066  0.4130  0.0529 -0.9827
  614TMC3    O1 9159   4.050   3.247  16.192 -0.1347 -0.7981 -0.8029
  614TMC3    O2 9160   4.438   2.876  15.949 -0.2167 -0.2666 -0.3916
  615MPD2     C 9161   4.301   4.398  16.065  0.1225  0.1090 -0.5259
  615MPD2    C1 9162   4.191   4.483  16.079  0.4929  0.6486 -0.3050
  615MPD2    C2 9163   4.086   4.460  15.995 -0.3975 -0.1745  0.4920
  615MPD2    C3 9164   4.089   4.364  15.890  0.3904  0.1088  0.8109
  615MPD2    C4 9165   4.201   4.284  15.878 -0.6790 -0.1174 -0.1497
  615MPD2    C5 9166   4.300   4.300  15.971 -0.0111 -0.2333 -0.6896
  615MPD2     H 9167   4.000   4.524  16.008 -0.5643 -0.3313  0.1399
  615MPD2    H1 9168   4.203   4.206  15.803 -0.9536  0.0794 -0.3630
  615MPD2    H2 9169   4.387   4.407  16.131  1.6260  0.4134 -2.5349
  615MPD2    H3 9170   4.391   4.241  15.966 -0.6270 -1.2430  0.1903
  615MPD2     N 9171   3.991   4.364  15.794  0.0181  0.0799  0.1863
  615MPD2    H5 9172   3.992   4.305  15.711 -0.6559 -0.8238  0.8278
  615MPD2    N1 9173   4.177   4.573  16.187  0.1749  0.6192  0.1184
  615MPD2    H7 9174   4.086   4.614  16.207  0.5097  1.3981  0.0602
  616TMC3    C1 9175   4.230   4.682  16.389 -0.1633  0.6301  0.2105
  616TMC3    C2 9176   4.329   0.026  16.450 -0.5020 -0.6833  0.0218
  616TMC3    C3 9177   4.294   0.071  16.571 -0.6370  0.6743  0.0636
  616TMC3    C4 9178   4.117   4.640  16.451  0.4602  0.0188  0.3948
  616TMC3    C5 9179   4.097   4.687  16.578 -0.1242 -0.0180  0.4657
  616TMC3    C6 9180   4.185   0.033  16.639  0.0022  0.3281  0.7114
  616TMC3     C 9181   4.280   4.612  16.271  0.9006  0.3630 -0.5434
  616TMC3     O 9182   4.398   4.583  16.261  0.4330  0.0558 -0.4100
  616TMC3     H 9183   4.416   0.058  16.394 -1.6648  0.7623 -0.9590
  616TMC3    H1 9184   4.047   4.569  16.408  1.2145 -1.7332  2.1000
  616TMC3    H2 9185   4.152   0.059  16.739 -0.6515 -0.5617  0.7306
  616TMC3    C7 9186   3.976   4.640  16.648  0.4714  0.6660 -0.5547
  616TMC3    C8 9187   4.374   0.179  16.625 -0.1791  0.7670  0.9184
  616TMC3    O1 9188   3.966   4.642  16.770 -0.7435  0.0475  0.2747
  616TMC3    O2 9189   4.323   0.226  16.723  0.1384 -0.2276  0.3967
  617MPD2     C 9190   1.948   3.007  14.024 -0.3655  0.5577  0.1820
  617MPD2    C1 9191   2.005   2.898  14.087 -0.5588  0.3892 -0.0537
  617MPD2    C2 9192   1.915   2.809  14.143 -0.6624  0.8422  0.1738
  617MPD2    C3 9193   1.779   2.827  14.144  0.2543 -0.1907 -0.5658
  617MPD2    C4 9194   1.730   2.941  14.085  0.0414  0.6669  0.4840
  617MPD2    C5 9195   1.813   3.039  14.028 -0.0583 -0.3336  0.1597
  617MPD2     H 9196   1.965   2.733  14.202 -0.9276 -0.3241 -1.1163
  617MPD2    H1 9197   1.624   2.964  14.083 -0.0070  0.4514  0.6204
  617MPD2    H2 9198   2.011   3.081  13.976 -0.8807 -0.2924 -1.8305
  617MPD2    H3 9199   1.778   3.131  13.981  1.6344  0.4910  0.5199
  617MPD2     N 9200   1.682   2.728  14.182  0.0763 -0.4361  0.1223
  617MPD2    H5 9201   1.582   2.744  14.168  0.0519 -1.4129 -0.8193
  617MPD2    N1 9202   2.147   2.883  14.100  0.9079  0.2128 -0.1065
  617MPD2    H7 9203   2.202   2.958  14.059 -0.4142  0.5567 -1.2323
  618TMC3    C1 9204   2.356   2.792  14.159  0.3091 -0.5256 -0.5974
  618TMC3    C2 9205   2.433   2.677  14.178 -0.7315 -0.5950  0.2054
  618TMC3    C3 9206   2.564   2.688  14.217 -0.3292  0.1796  0.7170
  618TMC3    C4 9207   2.408   2.918  14.178  0.2657  0.3309 -0.0775
  618TMC3    C5 9208   2.539   2.922  14.209 -0.2853  0.0515 -0.1997
  618TMC3    C6 9209   2.614   2.808  14.236  0.6799 -0.5754  0.7913
  618TMC3     C 9210   2.203   2.766  14.144 -0.4739  0.3782  0.7741
  618TMC3     O 9211   2.161   2.654  14.153 -0.2401  0.5125  0.1926
  618TMC3     H 9212   2.390   2.577  14.176 -0.1155 -0.8530 -0.0374
  618TMC3    H1 9213   2.352   3.009  14.158  1.8143  0.9471 -1.6359
  618TMC3    H2 9214   2.718   2.802  14.266  0.7840  0.5200  0.6529
  618TMC3    C7 9215   2.591   3.056  14.233 -0.3705 -0.5119 -0.4338
  618TMC3    C8 9216   2.661   2.598  14.156 -0.6188  0.7225 -0.5417
  618TMC3    O1 9217   2.517   3.130  14.298 -0.5365  1.0668 -0.3865
  618TMC3    O2 9218   2.763   2.577  14.217 -0.2427  0.6303  0.3775
  619MPD2     C 9219   3.533   4.397  13.188  0.5143 -0.0295 -0.1472
  619MPD2    C1 9220   3.440   4.469  13.264  0.4822 -0.5384  0.2743
  619MPD2    C2 9221   3.329   4.399  13.309 -0.4420  0.4775 -0.0236
  619MPD2    C3 9222   3.301   4.271  13.260 -0.0364 -0.2047  0.1588
  619MPD2    C4 9223   3.377   4.206  13.165 -0.3855 -0.1649  0.1005
  619MPD2    C5 9224   3.500   4.269  13.142  0.1229 -0.0726  0.1079
  619MPD2     H 9225   3.265   4.448  13.381 -1.4784  2.4238 -2.2571
  619MPD2    H1 9226   3.353   4.115  13.112 -0.8422  1.4674 -2.5347
  619MPD2    H2 9227   3.634   4.433  13.173 -0.0525  1.7340  0.2330
  619MPD2    H3 9228   3.572   4.220  13.078 -0.3879  2.4187 -2.4005
  619MPD2     N 9229   3.181   4.203  13.305 -0.4415 -0.0172 -0.2989
  619MPD2    H5 9230   3.166   4.107  13.279  1.9607 -0.3765 -0.4055
  619MPD2    N1 9231   3.468   4.599  13.313  0.3664  0.0578  0.5618
  619MPD2    H7 9232   3.397   4.639  13.374 -0.0594  1.6496 -0.9512
  620TMC3    C1 9233   3.558   0.074  13.346 -0.2513  0.2108  0.1779
  620TMC3    C2 9234   3.451   0.140  13.285 -0.0973  0.0892 -0.1665
  620TMC3    C3 9235   3.431   0.272  13.325 -0.1792 -0.0884  0.0865
  620TMC3    C4 9236   3.644   0.132  13.430  0.1757 -0.1302  0.1298
  620TMC3    C5 9237   3.623   0.262  13.464 -0.5441  0.2145 -0.1597
  620TMC3    C6 9238   3.520   0.338  13.408  0.7388  0.1700 -0.9472
  620TMC3     C 9239   3.587   4.671  13.309  0.8537  0.0995  0.4573
  620TMC3     O 9240   3.699   4.631  13.279 -0.1077 -0.3366  0.4132
  620TMC3     H 9241   3.383   0.086  13.221  2.3226 -2.2877 -0.7541
  620TMC3    H1 9242   3.726   0.078  13.477  1.2932 -0.3949 -2.1084
  620TMC3    H2 9243   3.515   0.446  13.417  2.0041  0.1933 -0.5374
  620TMC3    C7 9244   3.621   0.273  13.603 -0.3451 -0.6475 -0.0386
  620TMC3    C8 9245   3.292   0.294  13.366 -0.0822  0.4271 -0.0052
  620TMC3    O1 9246   3.676   0.194  13.675 -0.7560 -0.1569 -0.5620
  620TMC3    O2 9247   3.274   0.353  13.473  0.0681 -1.0938 -0.9584
  621MPD2     C 9248   4.137   4.640   9.110 -0.2532 -0.5543  0.1674
  621MPD2    C1 9249   4.263   4.584   9.106  0.0349 -0.1115 -0.1331
  621MPD2    C2 9250   4.373   4.660   9.070 -0.1903  0.1147  0.8603
  621MPD2    C3 9251   4.358   0.058   9.039  0.3782  0.7225 -0.3431
  621MPD2    C4 9252   4.233   0.110   9.023  0.4904 -0.2527 -0.5003
  621MPD2    C5 9253   4.125   0.038   9.063  0.3795 -0.3439  0.2295
  621MPD2     H 9254   4.474   4.620   9.069 -1.0695 -2.1489  0.6663
  621MPD2    H1 9255   4.220   0.214   8.995 -0.2709  0.1829  1.4985
  621MPD2    H2 9256   4.051   4.587   9.149 -1.7190  0.2445 -1.9675
  621MPD2    H3 9257   4.023   0.071   9.048  0.6401  1.0976  1.6854
  621MPD2     N 9258   4.479   0.125   9.037 -0.4269  0.1485 -0.2213
  621MPD2    H5 9259   4.562   0.068   9.053 -0.2345  0.4214 -0.2458
  621MPD2    N1 9260   4.265   4.454   9.163  0.0431  0.3099  0.0083
  621MPD2    H7 9261   4.185   4.403   9.200 -1.0448  1.6477 -0.5049
  622TMC3    C1 9262   4.359   4.252   9.247  0.2873 -0.2121 -0.6742
  622TMC3    C2 9263   4.257   4.235   9.336  0.1519 -0.2236 -0.1854
  622TMC3    C3 9264   4.257   4.122   9.413 -0.1061 -0.3480  0.1145
  622TMC3    C4 9265   4.439   4.150   9.215  0.6733 -0.9599 -0.3412
  622TMC3    C5 9266   4.440   4.041   9.299  0.9825 -0.4046  0.1763
  622TMC3    C6 9267   4.356   4.030   9.405  0.1681 -0.2642  0.2358
  622TMC3     C 9268   4.376   4.379   9.179 -0.3259 -0.2699 -0.4254
  622TMC3     O 9269   4.488   4.402   9.137  0.0616 -0.4350  0.5587
  622TMC3     H 9270   4.198   4.321   9.365 -0.7543 -0.7867 -0.3667
  622TMC3    H1 9271   4.510   4.154   9.133  2.3780 -2.3910  1.0786
  622TMC3    H2 9272   4.347   3.940   9.463 -1.1813 -0.8152 -0.8216
  622TMC3    C7 9273   4.469   3.922   9.220  0.4324  0.1034  0.0015
  622TMC3    C8 9274   4.130   4.061   9.432 -0.4307  0.3684  0.1318
  622TMC3    O1 9275   4.533   3.939   9.116 -0.2289 -0.2110 -0.5538
  622TMC3    O2 9276   4.118   3.949   9.380 -0.7681 -0.3187  0.1223
  623MPD2     C 9277   2.560   4.677  15.750 -0.3974 -0.3835  0.5979
  623MPD2    C1 9278   2.483   4.692  15.862  0.4044  0.5588  0.0991
  623MPD2    C2 9279   2.544   4.727  15.978  0.2920 -0.7131 -0.2824
  623MPD2    C3 9280   2.688   4.730  15.989 -0.0938 -0.7059 -0.4424
  623MPD2    C4 9281   2.766   4.711  15.879  0.0429  0.0442  0.3959
  623MPD2    C5 9282   2.703   4.691  15.762 -0.5161 -0.2704  0.1027
  623MPD2     H 9283   2.491   0.004  16.072 -0.5911 -2.9163 -0.5366
  623MPD2    H1 9284   2.874   4.708  15.879  0.0576  0.4894  1.7854
  623MPD2    H2 9285   2.520   4.644  15.655 -0.5484  0.3290  0.4122
  623MPD2    H3 9286   2.758   4.678  15.669  0.7241 -1.4274  1.0041
  623MPD2     N 9287   2.741   0.020  16.118 -0.0077 -0.1314 -0.1365
  623MPD2    H5 9288   2.676   0.040  16.194  0.8066  2.4994 -0.1274
  623MPD2    N1 9289   2.341   4.675  15.848 -0.0614 -0.5470 -0.4299
  623MPD2    H7 9290   2.307   4.648  15.756 -1.5296 -2.5840  0.7101
  624TMC3    C1 9291   2.948   4.572  16.429  0.1259  0.0616 -0.0310
  624TMC3    C2 9292   2.831   4.559  16.487  0.7356 -0.0154  0.5327
  624TMC3    C3 9293   2.736   4.653  16.464 -0.3841  0.0886 -0.6684
  624TMC3    C4 9294   2.992   4.677  16.357  0.2016  0.4838  0.2232
  624TMC3    C5 9295   2.887   0.021  16.303 -0.0908  0.2874 -0.5406
  624TMC3    C6 9296   2.765   0.028  16.374 -0.1951 -1.1951  0.2668
  624TMC3     C 9297   3.045   4.467  16.466 -0.8137 -0.5750 -0.0853
  624TMC3     O 9298   3.159   4.505  16.496 -0.4169  0.1389 -0.0666
  624TMC3     H 9299   2.820   4.469  16.546 -2.5219 -0.3060 -0.5336
  624TMC3    H1 9300   3.089   4.675  16.307 -0.4612  1.1566 -1.0708
  624TMC3    H2 9301   2.682   0.095  16.352  0.3450 -0.0468  1.6872
  624TMC3    C7 9302   2.873   0.010  16.156  0.8396 -0.9193 -0.0177
  624TMC3    C8 9303   2.601   4.597  16.443 -0.3450 -0.0869 -0.1308
  624TMC3    O1 9304   2.967   4.695  16.095 -0.3524  0.5366  0.1920
  624TMC3    O2 9305   2.592   4.474  16.421  0.3863  0.3432 -0.0034
  625MPD2     C 9306   3.011   1.433   0.868 -0.1666  0.4578 -0.1294
  625MPD2    C1 9307   3.098   1.500   0.782  0.2174 -0.6562  0.8449
  625MPD2    C2 9308   3.234   1.484   0.787 -0.2943 -0.5963  0.1495
  625MPD2    C3 9309   3.283   1.387   0.871  0.3323  0.0693 -0.5991
  625MPD2    C4 9310   3.203   1.336   0.968 -0.0462  0.7760 -0.1257
  625MPD2    C5 9311   3.068   1.357   0.968  0.4159  0.5675  0.1714
  625MPD2     H 9312   3.300   1.536   0.718 -0.0156  1.1196  1.6892
  625MPD2    H1 9313   3.245   1.274   1.046  2.4334  0.5609 -1.6507
  625MPD2    H2 9314   2.903   1.435   0.859 -0.2410  1.4615  0.9032
  625MPD2    H3 9315   3.008   1.312   1.046  0.5406 -2.7144 -1.6030
  625MPD2     N 9316   3.410   1.322   0.845  0.1914 -0.4891  1.1622
  625MPD2    H5 9317   3.463   1.351   0.763 -1.9573 -1.4214 -0.5384
  625MPD2    N1 9318   3.057   1.583   0.669  0.1859  0.1288  0.0534
  625MPD2    H7 9319   3.130   1.627   0.614  0.5309 -1.7078 -0.9493
  626TMC3    C1 9320   2.927   1.723   0.539 -0.2374  0.6366 -0.2777
  626TMC3    C2 9321   2.857   1.685   0.436  0.9415  0.2441 -0.4655
  626TMC3    C3 9322   2.791   1.786   0.366 -0.3176  0.0631  0.2830
  626TMC3    C4 9323   2.943   1.853   0.580  0.1116  0.6004  1.1262
  626TMC3    C5 9324   2.860   1.943   0.520  0.6033  0.5551 -0.5594
  626TMC3    C6 9325   2.790   1.916   0.408  0.2712 -0.4691  0.1697
  626TMC3     C 9326   2.928   1.622   0.644  0.6690 -0.2429  0.1986
  626TMC3     O 9327   2.819   1.578   0.682 -0.4440  0.1837  0.3380
  626TMC3     H 9328   2.855   1.583   0.399 -1.1061 -0.9401  2.9660
  626TMC3    H1 9329   2.994   1.873   0.674  2.5640  1.8760 -0.4731
  626TMC3    H2 9330   2.732   1.985   0.348 -1.1801  0.3333  2.4655
  626TMC3    C7 9331   2.861   2.078   0.571  0.5167  0.2221 -0.0007
  626TMC3    C8 9332   2.726   1.761   0.245 -0.1847  1.0071  0.1257
  626TMC3    O1 9333   2.954   2.109   0.646  0.4083  0.4524  0.0975
  626TMC3    O2 9334   2.722   1.851   0.163 -0.6466  0.3918  0.6321
  627MPD2     C 9335   1.681   1.395  14.044 -0.2311 -0.4152 -0.1711
  627MPD2    C1 9336   1.697   1.361  14.181 -0.1428  0.4843  0.1486
  627MPD2    C2 9337   1.599   1.294  14.245 -0.5182  0.8907 -0.0061
  627MPD2    C3 9338   1.492   1.238  14.175 -0.3775  0.4100  0.3545
  627MPD2    C4 9339   1.481   1.268  14.043 -0.0555 -0.3833  0.0964
  627MPD2    C5 9340   1.576   1.344  13.979 -0.6780 -0.3400  0.2419
  627MPD2     H 9341   1.606   1.274  14.351 -1.2494 -2.2703 -0.5481
  627MPD2    H1 9342   1.401   1.223  13.985 -1.2438  1.1289  0.5923
  627MPD2    H2 9343   1.742   1.462  13.984  0.3810  1.1978  2.2550
  627MPD2    H3 9344   1.564   1.367  13.873 -0.7455 -3.8825 -0.5352
  627MPD2     N 9345   1.398   1.152  14.229 -0.0310 -0.4144  0.4249
  627MPD2    H5 9346   1.322   1.116  14.171  0.4224 -3.0817  1.4774
  627MPD2    N1 9347   1.792   1.418  14.256  0.3697  0.7268  0.1810
  627MPD2    H7 9348   1.786   1.413  14.358  0.8385 -0.6493  0.1385
  628TMC3    C1 9349   1.987   1.526  14.314 -0.0908 -0.0064  0.0623
  628TMC3    C2 9350   2.119   1.532  14.304 -0.1790 -0.0719 -0.3031
  628TMC3    C3 9351   2.190   1.594  14.405 -0.1099  0.1430 -0.7803
  628TMC3    C4 9352   1.924   1.603  14.416  1.1426 -0.4345  0.2775
  628TMC3    C5 9353   2.001   1.668  14.507  0.2945  0.0096  0.8205
  628TMC3    C6 9354   2.136   1.650  14.518  0.5819 -0.2732 -0.3588
  628TMC3     C 9355   1.909   1.467  14.208 -0.3798  0.2834  0.5517
  628TMC3     O 9356   1.973   1.427  14.110 -0.0215 -0.0022  0.0376
  628TMC3     H 9357   2.167   1.490  14.216  0.8692  0.3547  0.0658
  628TMC3    H1 9358   1.819   1.627  14.403  0.6322 -2.0861  1.4473
  628TMC3    H2 9359   2.193   1.726  14.569  0.8012  0.4256 -1.6364
  628TMC3    C7 9360   1.951   1.752  14.610 -0.5038  0.0450 -0.4728
  628TMC3    C8 9361   2.329   1.573  14.402 -0.5311  0.2716  0.5455
  628TMC3    O1 9362   2.005   1.760  14.719 -0.4243 -0.0607  0.2240
  628TMC3    O2 9363   2.397   1.642  14.329 -0.1987 -0.2184 -0.4955
  629MPD2     C 9364   0.066   0.433  16.682 -0.3148 -0.2424  0.0268
  629MPD2    C1 9365   0.097   0.330  16.606 -0.0321  0.1898 -0.0850
  629MPD2    C2 9366   0.004   0.235  16.586 -0.7601 -0.2794  0.5450
  629MPD2    C3 9367   4.609   0.261  16.630 -0.2685 -0.4115  0.3488
  629MPD2    C4 9368   4.580   0.364  16.718 -0.1049 -0.1908 -0.0496
  629MPD2    C5 9369   4.681   0.448  16.746 -0.2371 -0.3087  0.7525
  629MPD2     H 9370   0.011   0.147  16.522 -2.1333 -0.5659  0.7813
  629MPD2    H1 9371   4.482   0.379  16.762  0.0467 -0.1370  0.2740
  629MPD2    H2 9372   0.137   0.511  16.707  0.7852 -1.0410 -0.5811
  629MPD2    H3 9373   4.653   0.531  16.810 -1.2069  0.0832 -0.1848
  629MPD2     N 9374   4.504   0.184  16.574  0.2080  0.7845 -0.2922
  629MPD2    H5 9375   4.525   0.130  16.491 -0.5925  0.3328 -0.1943
  629MPD2    N1 9376   0.228   0.324  16.552 -0.6031  0.2231  0.2819
  629MPD2    H7 9377   0.296   0.396  16.570 -0.3239  0.8420 -3.3300
  630TMC3    C1 9378   0.422   0.228  16.459  0.5738 -0.0746 -0.5038
  630TMC3    C2 9379   0.462   0.319  16.361 -0.3535 -0.5522 -0.4692
  630TMC3    C3 9380   0.598   0.324  16.342  0.2001 -0.2773 -0.2600
  630TMC3    C4 9381   0.505   0.135  16.521 -0.1292  0.0087  0.1923
  630TMC3    C5 9382   0.640   0.157  16.505 -0.5627 -0.3650 -0.0167
  630TMC3    C6 9383   0.689   0.244  16.408  0.5806  0.1912 -0.1213
  630TMC3     C 9384   0.276   0.216  16.487  0.3659  0.0537  0.3571
  630TMC3     O 9385   0.239   0.098  16.478  0.3567 -0.2838 -0.6612
  630TMC3     H 9386   0.395   0.386  16.308  0.8154 -0.3715 -1.7208
  630TMC3    H1 9387   0.478   0.087  16.615 -1.2030  1.2884  0.5426
  630TMC3    H2 9388   0.796   0.250  16.391  0.5709  2.6274  0.7084
  630TMC3    C7 9389   0.727   0.108  16.610 -0.8238 -0.6004  0.1770
  630TMC3    C8 9390   0.659   0.424  16.255 -0.0141 -0.2576 -0.2569
  630TMC3    O1 9391   0.702   0.001  16.653 -0.3944 -0.6700 -1.3227
  630TMC3    O2 9392   0.775   0.446  16.276 -0.2919  0.1180 -0.1537
  631MPD2     C 9393   3.046   0.061  15.547 -1.0950  0.4447 -0.6468
  631MPD2    C1 9394   3.128   0.088  15.439 -0.1534  0.5395 -0.8921
  631MPD2    C2 9395   3.246   0.020  15.428 -0.1397 -0.0384  0.3948
  631MPD2    C3 9396   3.283   4.663  15.519  0.1259  0.0120  0.8073
  631MPD2    C4 9397   3.194   4.629  15.621 -0.1854 -0.3613  0.2991
  631MPD2    C5 9398   3.080   4.702  15.637  0.0726 -0.3938  0.8289
  631MPD2     H 9399   3.319   0.051  15.354  0.7917 -0.4637  1.1396
  631MPD2    H1 9400   3.217   4.554  15.695 -0.7124 -1.9152 -1.0880
  631MPD2    H2 9401   2.961   0.126  15.562 -0.7133  0.5854  0.9118
  631MPD2    H3 9402   3.018   4.679  15.723 -0.1559 -2.2788  0.1675
  631MPD2     N 9403   3.416   4.604  15.512  0.5174 -0.1237  0.5203
  631MPD2    H5 9404   3.465   4.638  15.430 -2.5195  1.2987 -0.7044
  631MPD2    N1 9405   3.094   0.197  15.360 -0.3228 -0.5347 -0.1830
  631MPD2    H7 9406   3.025   0.264  15.393 -0.1529 -1.4291  1.9955
  632TMC3    C1 9407   3.134   0.372  15.192 -0.0076  0.1168 -0.1594
  632TMC3    C2 9408   3.013   0.428  15.207  0.0758  0.3695  0.0012
  632TMC3    C3 9409   2.997   0.562  15.171  0.6157 -0.1265 -0.2230
  632TMC3    C4 9410   3.240   0.447  15.148 -0.0626 -0.1814  0.0417
  632TMC3    C5 9411   3.217   0.573  15.095 -0.0638 -0.3398 -0.1762
  632TMC3    C6 9412   3.098   0.638  15.120 -0.6354  0.3718 -1.1540
  632TMC3     C 9413   3.166   0.240  15.247 -0.2222  0.2344 -0.1427
  632TMC3     O 9414   3.261   0.190  15.190 -0.5489 -0.0197  0.2524
  632TMC3     H 9415   2.928   0.370  15.240  0.2533 -1.2189 -2.2632
  632TMC3    H1 9416   3.336   0.398  15.137  1.0396  1.8387  0.6116
  632TMC3    H2 9417   3.072   0.729  15.068  0.3953  1.4773  0.2598
  632TMC3    C7 9418   3.260   0.577  14.955  0.0241 -0.9707  0.4676
  632TMC3    C8 9419   2.895   0.625  15.253  0.4470 -0.4194 -0.2058
  632TMC3    O1 9420   3.183   0.617  14.869 -0.3802  0.2807 -0.0439
  632TMC3    O2 9421   2.804   0.554  15.294  0.0725  0.8076 -0.1121
  633MPD2     C 9422   3.049   3.089  17.178  0.2822 -0.0308  0.2701
  633MPD2    C1 9423   3.008   2.988  17.093  0.4661 -0.3948  0.2847
  633MPD2    C2 9424   3.021   2.855  17.130 -0.0401  0.2164 -0.6667
  633MPD2    C3 9425   3.077   2.821  17.250  0.3641  0.2169  0.5448
  633MPD2    C4 9426   3.111   2.919  17.341  0.0159  0.7819 -0.3466
  633MPD2    C5 9427   3.093   3.047  17.301  0.6336 -0.2362 -0.0911
  633MPD2     H 9428   3.001   2.783  17.052 -0.7718  0.6701 -0.9045
  633MPD2    H1 9429   3.163   2.903  17.435  0.5001  2.0518 -0.3982
  633MPD2    H2 9430   3.050   3.193  17.147 -0.4703 -0.0180  0.2890
  633MPD2    H3 9431   3.131   3.127  17.363  1.3258 -1.4883  1.0999
  633MPD2     N 9432   3.113   2.687  17.293  0.0280  0.8227  0.1538
  633MPD2    H5 9433   3.180   2.688  17.369  0.7128  1.7420 -0.4528
  633MPD2    N1 9434   2.970   3.019  16.960 -0.1871 -0.0470  0.0936
  633MPD2    H7 9435   2.950   2.937  16.903  1.4290 -0.2014 -0.2477
  634TMC3    C1 9436   2.907   3.147  16.766  0.1125 -0.9590  0.3393
  634TMC3    C2 9437   2.952   3.049  16.684 -0.3856 -0.5025 -0.1057
  634TMC3    C3 9438   2.961   3.074  16.550  0.3159  0.1141 -0.1764
  634TMC3    C4 9439   2.882   3.277  16.715  0.1455 -0.1236 -0.3798
  634TMC3    C5 9440   2.897   3.300  16.581  0.1582 -1.1819 -0.1882
  634TMC3    C6 9441   2.932   3.198  16.499  0.0409 -0.0422 -0.1446
  634TMC3     C 9442   2.926   3.142  16.909 -0.6230 -0.4132  1.2693
  634TMC3     O 9443   2.912   3.244  16.976 -0.1660 -0.5435 -1.4427
  634TMC3     H 9444   2.971   2.948  16.717 -0.8360  0.0018  1.6840
  634TMC3    H1 9445   2.831   3.342  16.785  1.0400 -1.6583  1.7021
  634TMC3    H2 9446   2.932   3.215  16.392 -2.5366  0.0499 -0.1269
  634TMC3    C7 9447   2.873   3.429  16.527 -0.4061  1.0235 -0.8638
  634TMC3    C8 9448   3.007   2.964  16.464  0.4810  0.3378 -0.1353
  634TMC3    O1 9449   2.862   3.433  16.404 -0.0031 -0.1766 -0.2939
  634TMC3    O2 9450   3.019   2.855  16.521 -0.1639  0.3386 -0.3354
  635TMC3    C1 9451   2.871   3.882   0.295  0.3355 -0.1842 -0.7023
  635TMC3    C2 9452   2.887   3.886   0.159 -0.9412  0.3515  0.5783
  635TMC3    C3 9453   2.922   3.771   0.097 -0.7814  1.1129 -0.4873
  635TMC3    C4 9454   2.891   3.770   0.368 -0.6184 -0.0695 -0.4528
  635TMC3    C5 9455   2.925   3.659   0.300  0.5976 -1.1546  0.0173
  635TMC3    C6 9456   2.945   3.652   0.161 -0.1800 -0.3276 -0.6624
  635TMC3     C 9457   2.826   4.003   0.356 -0.4023 -0.3416 -0.6029
  635TMC3     O 9458   2.779   4.091   0.284  0.1627 -0.1717 -0.3815
  635TMC3     H 9459   2.854   3.974   0.105 -0.3212 -1.1439 -2.2482
  635TMC3    H1 9460   2.884   3.775   0.476  0.1369 -0.2309 -0.3956
  635TMC3    H2 9461   2.972   3.561   0.110  0.2735 -0.0242 -0.9607
  635TMC3    C7 9462   2.925   3.526   0.368 -0.6916  0.7228 -0.1778
  635TMC3    C8 9463   2.942   3.773  17.691  0.5881 -0.2930  0.1061
  635TMC3    O1 9464   2.965   3.438   0.290 -0.3075  0.0754 -0.2867
  635TMC3    O2 9465   2.962   3.879  17.636 -0.4376  0.7994  0.3249
  636MPD2     C 9466   3.810   3.378  16.632  0.0488  0.3419  0.5120
  636MPD2    C1 9467   3.912   3.339  16.553 -0.0473  0.2979  0.0232
  636MPD2    C2 9468   3.976   3.217  16.575  0.2786 -0.5185 -0.4390
  636MPD2    C3 9469   3.942   3.144  16.684  0.1986  0.2519  0.7071
  636MPD2    C4 9470   3.845   3.189  16.771  0.2873  0.0637  0.0192
  636MPD2    C5 9471   3.781   3.303  16.746  0.4785  0.5247 -0.5472
  636MPD2     H 9472   4.071   3.185  16.532  2.0416  0.5254  2.7142
  636MPD2    H1 9473   3.830   3.151  16.871 -0.7782  0.8498  0.1667
  636MPD2    H2 9474   3.762   3.472  16.604  0.0548  0.7910  1.9800
  636MPD2    H3 9475   3.705   3.339  16.813 -0.4786 -1.3159 -0.6236
  636MPD2     N 9476   4.021   3.029  16.706  0.0924 -0.0411 -0.3327
  636MPD2    H5 9477   4.057   2.988  16.621  1.2575  2.3855 -1.0251
  636MPD2    N1 9478   3.959   3.410  16.446 -0.6278 -0.5014  0.4479
  636MPD2    H7 9479   4.022   3.360  16.385 -1.6410  0.8491 -1.6920
  637TMC3    C1 9480   4.174   2.902  16.829  1.0620 -0.1915 -0.0741
  637TMC3    C2 9481   4.269   2.953  16.913 -0.4045  0.2142 -0.4271
  637TMC3    C3 9482   4.399   2.914  16.894 -0.4846 -0.3786 -0.0304
  637TMC3    C4 9483   4.195   2.809  16.732  0.8801 -0.4528 -0.9414
  637TMC3    C5 9484   4.324   2.767  16.722  0.3455  0.4197  0.0014
  637TMC3    C6 9485   4.427   2.820  16.800  0.2969  0.1951  0.0823
  637TMC3     C 9486   4.044   2.975  16.828 -0.8389 -0.8233 -0.6753
  637TMC3     O 9487   4.007   3.014  16.938 -0.3912  0.5935  0.0084
  637TMC3     H 9488   4.250   3.019  16.997 -1.8211  0.8061 -1.2227
  637TMC3    H1 9489   4.121   2.794  16.654 -1.2797 -0.0682  1.0343
  637TMC3    H2 9490   4.530   2.789  16.788  0.6652  0.7956  1.6970
  637TMC3    C7 9491   4.357   2.713  16.593 -0.0087 -0.3416 -0.2409
  637TMC3    C8 9492   4.501   2.968  16.978  0.6738 -0.4418  0.1697
  637TMC3    O1 9493   4.276   2.709  16.499  0.2003  0.5468  0.9172
  637TMC3    O2 9494   4.453   2.979  17.092  0.6846 -0.2872 -0.4328
  638MPD2     C 9495   4.268   2.155  14.956  0.1936 -0.2533 -0.0049
  638MPD2    C1 9496   4.190   2.054  14.899 -0.3717 -0.2006  0.3792
  638MPD2    C2 9497   4.121   1.959  14.985 -0.0374 -0.0648  0.2002
  638MPD2    C3 9498   4.138   1.982  15.125 -0.1875 -0.1583 -0.4207
  638MPD2    C4 9499   4.208   2.087  15.177 -0.6295  0.2909 -0.2038
  638MPD2    C5 9500   4.269   2.175  15.091 -0.1397 -0.4940  0.6126
  638MPD2     H 9501   4.059   1.879  14.946 -0.5379  0.5739 -0.3194
  638MPD2    H1 9502   4.196   2.115  15.281  0.0043  2.5151 -0.7312
  638MPD2    H2 9503   4.321   2.226  14.893  0.4176 -1.0555 -0.7147
  638MPD2    H3 9504   4.326   2.260  15.127 -3.9556  2.2548  0.0603
  638MPD2     N 9505   4.070   1.892  15.208 -0.1021  0.8822 -0.2869
  638MPD2    H5 9506   3.989   1.840  15.175  0.5035  0.2780 -0.8386
  638MPD2    N1 9507   4.184   2.051  14.753  0.3907  0.7540  0.4226
  638MPD2    H7 9508   4.224   2.133  14.709  1.6694  0.6897  1.4558
  639TMC3    C1 9509   4.038   1.752  15.392 -0.2454  0.9042  0.2778
  639TMC3    C2 9510   3.933   1.700  15.325  0.8134 -0.3191  0.0834
  639TMC3    C3 9511   3.888   1.577  15.356  0.2311  0.4648 -0.3517
  639TMC3    C4 9512   4.096   1.685  15.496 -0.2603  0.1870  0.2490
  639TMC3    C5 9513   4.062   1.550  15.511 -0.2094  0.5865  0.0341
  639TMC3    C6 9514   3.961   1.498  15.442 -0.1499  0.2400  0.2944
  639TMC3     C 9515   4.108   1.868  15.335 -0.1082  1.0223 -0.0224
  639TMC3     O 9516   4.202   1.912  15.397 -0.2351 -0.2112  0.2413
  639TMC3     H 9517   3.875   1.745  15.246 -2.1020  2.0789  3.6121
  639TMC3    H1 9518   4.181   1.731  15.545  0.6542  1.1577 -2.2586
  639TMC3    H2 9519   3.929   1.396  15.461 -2.0566  0.5269 -1.3248
  639TMC3    C7 9520   4.179   1.472  15.539  0.7991  0.7637  0.9415
  639TMC3    C8 9521   3.787   1.509  15.280 -0.0340 -0.2421 -0.1626
  639TMC3    O1 9522   4.169   1.376  15.614 -0.1697 -0.3118  0.5403
  639TMC3    O2 9523   3.775   1.538  15.159  0.6890 -0.2515 -0.1152
  640MPD2     C 9524   4.538   0.912   9.712  0.3741  0.1473  0.5205
  640MPD2    C1 9525   4.467   0.937   9.602 -0.0268  0.7985 -0.4425
  640MPD2    C2 9526   4.331   0.968   9.605  0.5814  0.3499 -0.5197
  640MPD2    C3 9527   4.266   0.953   9.732  0.5563 -0.2466  0.0811
  640MPD2    C4 9528   4.336   0.918   9.843 -0.3396  0.0628 -0.1821
  640MPD2    C5 9529   4.472   0.896   9.833 -0.0720 -0.0856  0.2536
  640MPD2     H 9530   4.272   0.985   9.515 -1.1544 -0.5548  0.4375
  640MPD2    H1 9531   4.298   0.905   9.943  0.0312  3.4849  0.3954
  640MPD2    H2 9532   4.643   0.882   9.712  0.0421 -1.0279  0.1364
  640MPD2    H3 9533   4.542   0.885   9.915 -0.2448 -1.8479  0.1837
  640MPD2     N 9534   4.131   0.992   9.750  0.5924  0.7628  0.1676
  640MPD2    H5 9535   4.100   0.984   9.847 -2.2232  1.6670 -0.6482
  640MPD2    N1 9536   4.539   0.917   9.482  0.0375  0.1122 -0.3133
  640MPD2    H7 9537   4.637   0.889   9.485  0.5083  1.7640 -0.6404
  641TMC3    C1 9538   4.583   0.939   9.257  0.5943 -0.2296 -0.2341
  641TMC3    C2 9539   4.687   0.849   9.276  0.2847 -0.6849  0.1807
  641TMC3    C3 9540   0.034   0.834   9.167 -0.0757  0.3211  0.5909
  641TMC3    C4 9541   4.557   1.007   9.140 -0.5265 -0.0160  0.1277
  641TMC3    C5 9542   4.642   0.985   9.038  0.4808 -0.0094  0.2051
  641TMC3    C6 9543   0.013   0.896   9.053 -0.1029 -0.1519 -0.0614
  641TMC3     C 9544   4.487   0.951   9.360  0.7978 -0.3967  0.1249
  641TMC3     O 9545   4.374   0.988   9.324  0.4248 -0.3334  0.2627
  641TMC3     H 9546   4.708   0.794   9.368  3.3204  0.8769  0.3988
  641TMC3    H1 9547   4.461   1.054   9.123 -0.5381 -0.2521 -0.4670
  641TMC3    H2 9548   0.083   0.881   8.972 -1.2317  1.2351 -1.3022
  641TMC3    C7 9549   4.639   1.050   8.906  0.1294  0.5212  0.2692
  641TMC3    C8 9550   0.139   0.733   9.177  0.0499 -0.6297 -0.0265
  641TMC3    O1 9551   4.691   0.998   8.807  0.3240 -0.6716 -0.1083
  641TMC3    O2 9552   0.182   0.693   9.069 -0.4285 -0.2034 -0.0146
  642TMC3    C1 9553   0.692   1.737  12.103  0.6855  0.5688 -0.2675
  642TMC3    C2 9554   0.800   1.772  12.022  1.1263  0.0890 -0.4292
  642TMC3    C3 9555   0.819   1.703  11.903 -0.4188 -0.0465  0.4804
  642TMC3    C4 9556   0.615   1.630  12.078 -0.3684  0.9492 -0.1643
  642TMC3    C5 9557   0.634   1.564  11.965 -0.4230  0.4583  0.6424
  642TMC3    C6 9558   0.737   1.598  11.876  0.4379  0.5750 -0.0795
  642TMC3     C 9559   0.658   1.834  12.208 -0.2492  0.1408  0.1422
  642TMC3     O 9560   0.758   1.892  12.249 -0.1433 -0.0012 -0.3806
  642TMC3     H 9561   0.836   1.873  12.033 -1.2742  1.0828 -1.7843
  642TMC3    H1 9562   0.541   1.603  12.152 -0.5253  1.1733 -0.2370
  642TMC3    H2 9563   0.755   1.530  11.793  0.7593 -1.0297  1.3297
  642TMC3    C7 9564   0.567   1.435  11.957 -0.7844 -0.4611 -1.3592
  642TMC3    C8 9565   0.935   1.730  11.818  0.1410  0.7985  0.1061
  642TMC3    O1 9566   0.617   1.358  11.875  0.0123 -0.7322 -0.7222
  642TMC3    O2 9567   0.937   1.687  11.702  0.3163  0.0593 -0.1167
  643TMC3    C1 9568   0.051   0.895   0.210  0.1074 -0.7808  0.3895
  643TMC3    C2 9569   4.707   0.877   0.102  0.6855 -0.8032  0.1700
  643TMC3    C3 9570   4.724   0.786   0.003  0.1825  0.2761  0.1626
  643TMC3    C4 9571   0.163   0.808   0.223 -0.0394  0.4903 -0.0525
  643TMC3    C5 9572   0.187   0.715   0.127  0.2913 -0.2465 -0.3642
  643TMC3    C6 9573   0.097   0.702   0.020 -0.5345 -1.0276  0.3416
  643TMC3     C 9574   0.073   1.035   0.238 -0.0660 -0.1851 -0.2776
  643TMC3     O 9575   0.061   1.110   0.139  0.1869  0.3072  0.0463
  643TMC3     H 9576   4.634   0.955   0.084  2.8509  1.6764  2.0941
  643TMC3    H1 9577   0.249   0.837   0.282 -0.5500  1.7382  0.0850
  643TMC3    H2 9578   0.130   0.639  17.673 -0.1148 -0.4389  0.0561
  643TMC3    C7 9579   0.327   0.691   0.092  0.1060 -0.7185 -0.0398
  643TMC3    C8 9580   4.722   0.835  17.600  0.1370  0.5394  0.2448
  643TMC3    O1 9581   0.401   0.778   0.136 -0.1904 -0.1541  0.1501
  643TMC3    O2 9582   4.725   0.751  17.511  0.0906 -0.2303  0.3444
  644MPD2     C 9583   4.524   1.742   9.226  0.0748 -0.2280  1.0611
  644MPD2    C1 9584   4.526   1.606   9.214 -0.0748  0.1089  0.6565
  644MPD2    C2 9585   4.402   1.536   9.196  0.0286  0.4805 -0.0640
  644MPD2    C3 9586   4.286   1.608   9.200  0.0107 -1.0097  0.5675
  644MPD2    C4 9587   4.290   1.743   9.219  0.2136  0.1341  0.8600
  644MPD2    C5 9588   4.409   1.802   9.249 -0.2597 -0.0496  0.1876
  644MPD2     H 9589   4.404   1.429   9.174  0.9668  1.2157 -3.5540
  644MPD2    H1 9590   4.202   1.806   9.224 -1.1528 -1.6704 -0.5990
  644MPD2    H2 9591   4.611   1.799   9.257  0.4990  0.7828 -2.0061
  644MPD2    H3 9592   4.419   1.907   9.275  0.4671 -0.1122  0.1510
  644MPD2     N 9593   4.173   1.533   9.157  0.5443 -0.0400 -0.1685
  644MPD2    H5 9594   4.175   1.431   9.153 -1.1042 -0.0531 -0.4767
  644MPD2    N1 9595   4.655   1.552   9.190  0.5078  0.3345 -0.4492
  644MPD2    H7 9596   0.002   1.612   9.195  1.4859 -0.9277 -1.1673
  645TMC3    C1 9597   3.943   1.504   9.096  0.5385  0.2501  0.6464
  645TMC3    C2 9598   3.975   1.395   9.025 -0.2444  0.6561 -0.1713
  645TMC3    C3 9599   3.874   1.313   8.976 -0.4835 -0.2182  0.6157
  645TMC3    C4 9600   3.818   1.534   9.122 -0.3568 -0.1606 -0.3278
  645TMC3    C5 9601   3.718   1.448   9.086 -0.5040 -0.0593  0.0834
  645TMC3    C6 9602   3.742   1.325   9.017 -0.0154 -0.1115 -0.1530
  645TMC3     C 9603   4.048   1.592   9.147 -0.4958  0.1171  0.1079
  645TMC3     O 9604   4.011   1.695   9.198 -0.2592 -0.6608  0.2578
  645TMC3     H 9605   4.076   1.356   9.021  0.8018  3.5041 -1.2361
  645TMC3    H1 9606   3.787   1.625   9.173  1.7148 -0.2639  1.0951
  645TMC3    H2 9607   3.656   1.266   8.988 -0.9778  0.6599  1.1121
  645TMC3    C7 9608   3.591   1.457   9.150  0.9390  0.5254 -0.1399
  645TMC3    C8 9609   3.904   1.206   8.876 -0.0246 -0.2872 -0.2593
  645TMC3    O1 9610   3.523   1.358   9.179 -0.6663 -0.0470 -0.2354
  645TMC3    O2 9611   3.814   1.126   8.866  0.4420 -0.3642  0.3206
  646MPD2     C 9612   3.794   0.814  14.465  0.4525 -0.2146 -0.0934
  646MPD2    C1 9613   3.783   0.839  14.600  0.6698  0.2271  0.2993
  646MPD2    C2 9614   3.680   0.920  14.654  0.6592  0.3398 -0.1174
  646MPD2    C3 9615   3.593   0.982  14.557  0.5244 -0.2781 -0.5538
  646MPD2    C4 9616   3.602   0.949  14.423 -0.8611 -0.6883  0.3712
  646MPD2    C5 9617   3.695   0.862  14.372  0.0317 -0.1696 -0.1006
  646MPD2     H 9618   3.666   0.935  14.760 -0.1978 -0.0658 -0.1710
  646MPD2    H1 9619   3.544   0.990  14.341  1.2711 -0.4372 -1.0219
  646MPD2    H2 9620   3.874   0.750  14.429 -0.2039 -1.2598  0.2888
  646MPD2    H3 9621   3.700   0.859  14.264  0.5147 -0.5365 -0.0707
  646MPD2     N 9622   3.491   1.068  14.614  0.0346  0.2895  0.2895
  646MPD2    H5 9623   3.491   1.080  14.715 -2.6123 -1.9163  0.5557
  646MPD2    N1 9624   3.874   0.764  14.688  1.0432  0.0133 -0.1269
  646MPD2    H7 9625   3.943   0.703  14.643 -1.0337 -0.6474 -2.4299
  647TMC3    C1 9626   3.955   0.654  14.879 -0.7833  0.2478 -0.0410
  647TMC3    C2 9627   3.907   0.592  14.993 -0.3617  0.5857 -0.6743
  647TMC3    C3 9628   3.989   0.505  15.059  0.4068 -0.0269  0.5169
  647TMC3    C4 9629   4.083   0.637  14.837 -0.1044  0.6280 -0.3430
  647TMC3    C5 9630   4.167   0.543  14.902  0.4452  0.8322  0.0227
  647TMC3    C6 9631   4.114   0.475  15.006  0.6234 -0.7107 -0.0006
  647TMC3     C 9632   3.871   0.763  14.826  0.5504  0.3801  0.3500
  647TMC3     O 9633   3.803   0.821  14.907  0.2231  0.5643 -0.4934
  647TMC3     H 9634   3.806   0.620  15.023  0.9109  0.5959  3.6036
  647TMC3    H1 9635   4.129   0.717  14.781 -0.9570  1.0994 -0.3724
  647TMC3    H2 9636   4.173   0.393  15.046 -1.4989 -2.3974 -0.3142
  647TMC3    C7 9637   4.313   0.550  14.905  0.1150 -0.3052  0.6227
  647TMC3    C8 9638   3.928   0.468  15.183 -0.7857  0.0607  0.2808
  647TMC3    O1 9639   4.369   0.509  15.004  0.1918 -0.0039  0.2454
  647TMC3    O2 9640   3.827   0.531  15.222  0.5840  0.1510  0.4689
  648TMC3    C1 9641   3.383   3.074  15.915 -0.9185  0.3967 -0.2311
  648TMC3    C2 9642   3.459   2.971  15.857  0.0952  0.0224  0.1540
  648TMC3    C3 9643   3.421   2.926  15.733  0.2340 -0.6866 -0.2555
  648TMC3    C4 9644   3.295   3.143  15.844  0.1156  0.9077 -0.2034
  648TMC3    C5 9645   3.264   3.107  15.717  0.5308 -0.5378 -0.0344
  648TMC3    C6 9646   3.320   2.987  15.663  0.3076 -0.0031  0.7969
  648TMC3     C 9647   3.385   3.107  16.056 -0.5695 -0.2523  0.3417
  648TMC3     O 9648   3.348   3.224  16.083 -0.0364  0.6311 -0.1486
  648TMC3     H 9649   3.537   2.930  15.920 -0.6786  0.4068  1.3440
  648TMC3    H1 9650   3.248   3.233  15.883 -1.9809 -0.6595  0.8766
  648TMC3    H2 9651   3.290   2.947  15.567  1.2485  0.4183  0.3252
  648TMC3    C7 9652   3.135   3.142  15.656  0.0008 -0.3912  0.2057
  648TMC3    C8 9653   3.469   2.790  15.694  1.3896  0.0930 -0.3109
  648TMC3    O1 9654   3.077   3.059  15.588 -0.0643  0.5699  0.0062
  648TMC3    O2 9655   3.382   2.719  15.641  0.2414  0.7907  1.3217
  649TMC3    C1 9656   2.213   4.224  13.204 -0.4921  0.7313  0.0652
  649TMC3    C2 9657   2.297   4.135  13.137 -0.6680  0.6247  0.0107
  649TMC3    C3 9658   2.391   4.072  13.216  0.3465 -0.6473 -0.3592
  649TMC3    C4 9659   2.205   4.234  13.338 -0.3768  0.0107 -0.4958
  649TMC3    C5 9660   2.294   4.154  13.410  0.4992 -0.0944  0.0445
  649TMC3    C6 9661   2.388   4.073  13.353 -0.5206  0.3013 -0.0180
  649TMC3     C 9662   2.109   4.284  13.126 -0.2375 -0.6863  0.4337
  649TMC3     O 9663   2.007   4.317  13.180  0.6917 -0.1084  0.3418
  649TMC3     H 9664   2.290   4.121  13.030  0.1856  0.7781 -0.0635
  649TMC3    H1 9665   2.143   4.312  13.382 -0.4780 -0.8083  0.8069
  649TMC3    H2 9666   2.462   4.016  13.408 -0.1729 -1.5327 -2.3779
  649TMC3    C7 9667   2.251   4.127  13.547  0.3915  0.3650 -0.1341
  649TMC3    C8 9668   2.501   3.995  13.164  0.2693  0.0838 -0.5042
  649TMC3    O1 9669   2.154   4.190  13.589  0.6135 -0.7784 -0.6134
  649TMC3    O2 9670   2.604   3.993  13.234  0.0998 -0.1313  0.2390
  650TMC3    C1 9671   0.153   1.030  12.606 -0.1819  0.0718  0.2643
  650TMC3    C2 9672   0.067   1.136  12.616 -1.0897  0.1626 -0.4211
  650TMC3    C3 9673   4.691   1.138  12.548 -0.0169 -0.0040  0.6748
  650TMC3    C4 9674   0.122   0.927  12.514  0.4305 -0.2968 -0.2060
  650TMC3    C5 9675   0.008   0.940  12.447 -0.5506  0.1577 -0.1833
  650TMC3    C6 9676   4.664   1.049  12.449 -0.3420  0.0109 -0.1904
  650TMC3     C 9677   0.243   1.003  12.717  0.1129  0.0300  0.5211
  650TMC3     O 9678   0.270   1.103  12.785 -0.0406 -0.4771 -0.2681
  650TMC3     H 9679   0.083   1.216  12.687 -0.7502 -0.2598 -0.0241
  650TMC3    H1 9680   0.190   0.844  12.499  2.0050  0.6100  1.8224
  650TMC3    H2 9681   4.572   1.050  12.392 -0.3700 -0.6614 -0.1502
  650TMC3    C7 9682   4.730   0.859  12.323  0.1363 -0.8671  0.4838
  650TMC3    C8 9683   4.606   1.257  12.548  0.0999 -0.5640 -0.2094
  650TMC3    O1 9684   0.052   0.750  12.339  0.6955  0.2201  0.1105
  650TMC3    O2 9685   4.667   1.350  12.600 -0.5330  0.2851 -0.4548
  651MPD2     C 9686   3.632   3.008   9.967 -0.4587 -0.6670 -0.2628
  651MPD2    C1 9687   3.637   3.088  10.089  0.4012  0.3563 -0.0181
  651MPD2    C2 9688   3.762   3.136  10.125  0.3936  0.4407  0.0368
  651MPD2    C3 9689   3.877   3.107  10.053 -0.2578 -0.7405 -0.1018
  651MPD2    C4 9690   3.867   3.027   9.938  0.3414  0.1288 -0.3589
  651MPD2    C5 9691   3.744   2.980   9.898 -0.4102 -0.7696  0.4908
  651MPD2     H 9692   3.764   3.197  10.214 -0.9915  0.0337  0.3512
  651MPD2    H1 9693   3.951   2.996   9.877  1.0746 -1.5803  1.5485
  651MPD2    H2 9694   3.535   2.976   9.930 -1.0467  2.1852 -1.1293
  651MPD2    H3 9695   3.740   2.925   9.805 -1.3133 -1.0825  0.7081
  651MPD2     N 9696   3.998   3.152  10.108 -0.1164 -0.3040 -0.5148
  651MPD2    H5 9697   3.995   3.217  10.186  0.7052 -1.9796  0.8982
  651MPD2    N1 9698   3.530   3.142  10.166  0.3403 -0.0855  0.0940
  651MPD2    H7 9699   3.556   3.190  10.251 -3.7860  0.9147  0.7438
  652TMC3    C1 9700   4.442   3.293  10.141  0.4198 -0.5147 -0.5129
  652TMC3    C2 9701   4.354   3.181  10.141 -0.0589 -0.0106  0.0619
  652TMC3    C3 9702   4.222   3.221  10.131 -0.4202  0.2608  0.1122
  652TMC3    C4 9703   4.404   3.419  10.114 -0.5658 -0.6605  0.1985
  652TMC3    C5 9704   4.275   3.446  10.105 -0.5649 -0.0900  0.6920
  652TMC3    C6 9705   4.188   3.355  10.131 -0.3518 -0.9577  0.1349
  652TMC3     C 9706   4.574   3.264  10.190 -0.5219 -0.8927 -0.2353
  652TMC3     O 9707   4.598   3.178  10.275 -0.7376  0.2160 -0.3610
  652TMC3     H 9708   4.385   3.085  10.180 -0.2742  0.1520  0.6395
  652TMC3    H1 9709   4.479   3.495  10.097 -0.1688 -1.1546 -0.2356
  652TMC3    H2 9710   4.082   3.381  10.131  0.0803  0.7782 -0.3641
  652TMC3    C7 9711   4.231   3.538  10.004 -0.7830  0.5534 -0.1398
  652TMC3    C8 9712   4.127   3.138  10.062 -0.2593 -0.7968 -0.1816
  652TMC3    O1 9713   4.134   3.499   9.939  0.4540 -0.2123  0.6821
  652TMC3    O2 9714   4.169   3.054   9.983 -0.6130 -0.1354 -0.3675
  653MPD2     C 9715   2.711   3.148  17.324  0.4465 -0.1099 -0.4053
  653MPD2    C1 9716   2.606   3.219  17.273  0.7774 -0.1829  0.2620
  653MPD2    C2 9717   2.534   3.160  17.176  0.4017  0.2975 -0.3471
  653MPD2    C3 9718   2.557   3.039  17.123 -0.5741  0.0672 -0.2458
  653MPD2    C4 9719   2.672   2.975  17.164 -0.3091 -0.0718 -0.4334
  653MPD2    C5 9720   2.742   3.027  17.275 -0.2437  0.4502 -0.2502
  653MPD2     H 9721   2.449   3.210  17.130  0.8394  0.7114 -0.7096
  653MPD2    H1 9722   2.710   2.884  17.120 -0.2942  0.4361 -1.4826
  653MPD2    H2 9723   2.774   3.184  17.405  1.5463  0.2100 -1.3941
  653MPD2    H3 9724   2.828   2.973  17.313 -0.6438 -0.9816 -1.4127
  653MPD2     N 9725   2.473   2.984  17.024  0.2839  0.5369 -0.1693
  653MPD2    H5 9726   2.389   3.038  17.006  0.7956  0.7748 -1.9101
  653MPD2    N1 9727   2.568   3.348  17.308 -0.1297 -0.0966  0.4205
  653MPD2    H7 9728   2.504   3.394  17.245  0.3023 -0.1420 -0.0539
  654TMC3    C1 9729   2.401   2.836  16.845  0.1264  0.0200  0.3628
  654TMC3    C2 9730   2.332   2.942  16.786  0.7996  0.5308 -0.0539
  654TMC3    C3 9731   2.245   2.903  16.685  0.0811  0.3894  0.3261
  654TMC3    C4 9732   2.374   2.703  16.819  0.2945  0.0523  0.0237
  654TMC3    C5 9733   2.276   2.672  16.730 -0.0790  0.6159  0.0766
  654TMC3    C6 9734   2.217   2.770  16.657  0.1729  0.2621 -0.0024
  654TMC3     C 9735   2.503   2.872  16.945  0.4305  0.4637 -0.0916
  654TMC3     O 9736   2.591   2.788  16.960  0.0611  0.7465  0.5782
  654TMC3     H 9737   2.373   3.042  16.791  2.1495 -0.0309  0.1363
  654TMC3    H1 9738   2.420   2.630  16.884 -1.0901 -1.7736 -1.0242
  654TMC3    H2 9739   2.139   2.744  16.587 -1.5130 -0.3259  2.0956
  654TMC3    C7 9740   2.205   2.544  16.738 -0.1458 -0.0257  0.5349
  654TMC3    C8 9741   2.173   2.999  16.602  0.9389 -0.7144 -0.1680
  654TMC3    O1 9742   2.092   2.551  16.690 -0.0699 -0.1819 -0.3137
  654TMC3    O2 9743   2.135   3.103  16.657  0.4989  0.1237  0.2991
  655MPD2     C 9744   3.841   3.170  15.407  1.1888  0.0550 -0.2558
  655MPD2    C1 9745   3.786   3.291  15.378 -0.1850  0.1408  0.7117
  655MPD2    C2 9746   3.792   3.346  15.253  0.4258 -1.4465  0.0081
  655MPD2    C3 9747   3.845   3.281  15.147  0.1580 -0.9603 -0.3053
  655MPD2    C4 9748   3.895   3.155  15.172  1.1609 -0.0339  0.3643
  655MPD2    C5 9749   3.887   3.091  15.297 -0.4648  0.1266 -0.7475
  655MPD2     H 9750   3.737   3.438  15.236  0.3226 -1.4945  0.0812
  655MPD2    H1 9751   3.931   3.088  15.094  0.4288  1.6312 -1.4192
  655MPD2    H2 9752   3.857   3.130  15.507 -1.0599 -0.2963 -0.0438
  655MPD2    H3 9753   3.910   2.986  15.310  1.6640  0.6525 -0.3189
  655MPD2     N 9754   3.834   3.327  15.013  0.0992 -0.3883  0.4216
  655MPD2    H5 9755   3.847   3.256  14.941 -0.3984 -0.1849  0.1287
  655MPD2    N1 9756   3.718   3.374  15.477 -0.4996  0.3397  0.3434
  655MPD2    H7 9757   3.688   3.466  15.448 -1.2430 -0.1454 -0.4487
  656TMC3    C1 9758   3.636   3.464  15.667 -0.0932  1.1103  0.9275
  656TMC3    C2 9759   3.521   3.444  15.739  0.3193  0.4249  0.1590
  656TMC3    C3 9760   3.438   3.557  15.746 -0.4456 -0.0372 -0.4342
  656TMC3    C4 9761   3.678   3.582  15.617  0.6532 -0.2444 -0.2649
  656TMC3    C5 9762   3.585   3.684  15.625 -0.0986  0.7798 -1.0982
  656TMC3    C6 9763   3.462   3.679  15.687  0.3851 -0.9708 -0.5815
  656TMC3     C 9764   3.697   3.344  15.609  0.1990 -0.3125  0.2760
  656TMC3     O 9765   3.693   3.241  15.669  0.1190  0.0999 -0.1422
  656TMC3     H 9766   3.502   3.350  15.789 -1.2217  1.5334  1.6634
  656TMC3    H1 9767   3.782   3.585  15.583 -0.2004  0.8831 -2.7779
  656TMC3    H2 9768   3.390   3.759  15.672 -2.1071 -2.7063  1.9886
  656TMC3    C7 9769   3.618   3.801  15.543 -0.1342  0.0736 -0.3470
  656TMC3    C8 9770   3.329   3.540  15.831 -0.0241 -0.2287  0.2363
  656TMC3    O1 9771   3.708   3.794  15.461 -0.1087  0.2255  0.1751
  656TMC3    O2 9772   3.250   3.453  15.792  0.2583 -0.2338  0.0808
  657TMC3    C1 9773   2.409   2.375  15.119  0.6108 -0.7526 -0.1103
  657TMC3    C2 9774   2.510   2.442  15.178 -0.3425 -0.5802  0.1333
  657TMC3    C3 9775   2.498   2.580  15.175 -0.4638 -0.1026 -0.0376
  657TMC3    C4 9776   2.310   2.433  15.041  0.1386  0.0193  0.6061
  657TMC3    C5 9777   2.319   2.569  15.022 -0.1573 -0.1813 -0.1572
  657TMC3    C6 9778   2.410   2.642  15.087  1.4991  0.0882 -0.0136
  657TMC3     C 9779   2.434   2.232  15.105 -0.2658  0.6685  0.2248
  657TMC3     O 9780   2.339   2.156  15.113 -0.9163 -0.3947  0.2078
  657TMC3     H 9781   2.571   2.394  15.254 -1.1601  1.6834  2.2202
  657TMC3    H1 9782   2.223   2.378  15.009  0.3156  0.2799 -0.3267
  657TMC3    H2 9783   2.412   2.751  15.084 -1.0684  0.0954 -1.4561
  657TMC3    C7 9784   2.244   2.621  14.912 -0.1513  0.0460 -0.2477
  657TMC3    C8 9785   2.600   2.663  15.231  0.0497  0.1604 -0.0283
  657TMC3    O1 9786   2.196   2.536  14.837 -0.2159  0.8551  0.0587
  657TMC3    O2 9787   2.577   2.779  15.250  0.2005  0.8467  0.1634
  658MPD2     C 9788   4.190   3.171  14.564 -0.2549  0.3511  0.4210
  658MPD2    C1 9789   4.096   3.228  14.488  0.6680  0.5615 -0.0614
  658MPD2    C2 9790   4.115   3.265  14.359 -0.2236 -0.4975  0.1208
  658MPD2    C3 9791   4.237   3.251  14.293  0.0997  0.7692 -0.3833
  658MPD2    C4 9792   4.335   3.192  14.372  0.2099  0.1935  0.3845
  658MPD2    C5 9793   4.312   3.151  14.497  0.8342 -0.4579  0.1895
  658MPD2     H 9794   4.034   3.315  14.308 -0.9213  0.4461  2.1205
  658MPD2    H1 9795   4.435   3.172  14.335  0.7262  0.4250  1.6660
  658MPD2    H2 9796   4.173   3.122  14.659 -0.0640  1.2445  0.9112
  658MPD2    H3 9797   4.386   3.089  14.547 -0.3062 -2.9126 -1.1499
  658MPD2     N 9798   4.250   3.302  14.161 -0.6149  0.0145  0.1079
  658MPD2    H5 9799   4.166   3.331  14.112  0.1214  2.1092  0.1148
  658MPD2    N1 9800   3.973   3.251  14.554  0.2209  0.2164 -1.0842
  658MPD2    H7 9801   3.948   3.196  14.635 -2.7432  3.2201  0.0502
  659TMC3    C1 9802   3.780   3.357  14.617  0.4668  0.5786  0.4300
  659TMC3    C2 9803   3.846   3.384  14.735 -0.8705 -0.6781  0.9531
  659TMC3    C3 9804   3.779   3.459  14.824 -0.2835 -0.0288 -0.7798
  659TMC3    C4 9805   3.657   3.410  14.579 -0.2626 -0.1395  0.2493
  659TMC3    C5 9806   3.604   3.503  14.671 -0.2771  0.1909 -0.4593
  659TMC3    C6 9807   3.666   3.530  14.785 -0.3939 -0.2044 -0.4979
  659TMC3     C 9808   3.863   3.319  14.507 -0.5771  0.3413 -1.2315
  659TMC3     O 9809   3.843   3.372  14.396  0.0472 -0.0299 -0.9826
  659TMC3     H 9810   3.948   3.355  14.756 -0.2027  2.4271  2.0907
  659TMC3    H1 9811   3.605   3.378  14.490 -0.3965  0.9407 -0.0583
  659TMC3    H2 9812   3.615   3.599  14.852  2.2769  0.5367  0.7773
  659TMC3    C7 9813   3.462   3.470  14.684  0.3654 -0.3025  0.3413
  659TMC3    C8 9814   3.809   3.454  14.968  0.2273  0.6903  0.0034
  659TMC3    O1 9815   3.416   3.380  14.618 -0.5483 -0.2201  0.1734
  659TMC3    O2 9816   3.799   3.550  15.037 -0.1040 -0.5523 -0.3184
  660MPD2     C 9817   1.809   2.016  12.365  0.1475 -0.3878  0.3033
  660MPD2    C1 9818   1.676   2.027  12.388 -0.1714  0.8515 -0.0242
  660MPD2    C2 9819   1.613   1.984  12.507  1.2322  0.0718  0.2884
  660MPD2    C3 9820   1.690   1.926  12.604  0.1905  0.4444  0.6083
  660MPD2    C4 9821   1.827   1.916  12.584  0.4428 -1.2460 -0.0101
  660MPD2    C5 9822   1.883   1.964  12.465  0.5214 -0.3748  0.4703
  660MPD2     H 9823   1.506   1.977  12.526  0.9413  1.3966 -0.9184
  660MPD2    H1 9824   1.881   1.853  12.654  2.3007 -0.5632 -0.8280
  660MPD2    H2 9825   1.854   2.036  12.268 -1.4336  0.7148 -0.2119
  660MPD2    H3 9826   1.988   1.969  12.440  0.1457 -0.5218 -1.1348
  660MPD2     N 9827   1.639   1.868  12.721  0.4128 -0.3698  0.1085
  660MPD2    H5 9828   1.707   1.835  12.788 -0.7100 -0.0842  1.3965
  660MPD2    N1 9829   1.604   2.104  12.292 -0.2816 -0.1835 -0.3745
  660MPD2    H7 9830   1.666   2.133  12.216  1.5949  0.8582  1.5618
  661TMC3    C1 9831   1.423   2.191  12.174  0.1475 -0.3175 -0.6450
  661TMC3    C2 9832   1.502   2.194  12.067 -0.3963 -0.1456 -0.2816
  661TMC3    C3 9833   1.439   2.234  11.948  0.5404  0.8176 -1.0368
  661TMC3    C4 9834   1.287   2.203  12.167 -0.0343  0.1854 -0.4898
  661TMC3    C5 9835   1.229   2.228  12.043  0.1823 -0.5365  0.2225
  661TMC3    C6 9836   1.307   2.252  11.933  0.0629 -0.0651 -0.3793
  661TMC3     C 9837   1.475   2.125  12.295 -0.0159 -0.1569  0.6157
  661TMC3     O 9838   1.399   2.115  12.389 -0.1269 -0.4305  0.2503
  661TMC3     H 9839   1.609   2.176  12.068 -0.0780  1.6440 -1.7083
  661TMC3    H1 9840   1.232   2.205  12.261  0.2052  1.4863 -0.3689
  661TMC3    H2 9841   1.257   2.278  11.840  0.9208  0.1558 -0.7772
  661TMC3    C7 9842   1.082   2.233  12.041  0.0289  0.0711  0.6520
  661TMC3    C8 9843   1.525   2.225  11.831  0.4802  0.2210 -0.1644
  661TMC3    O1 9844   1.031   2.243  12.153  0.0452  0.1775  0.3187
  661TMC3    O2 9845   1.647   2.244  11.847 -0.1037  0.8547 -0.2463
  662MPD2     C 9846   2.235   1.145   0.446 -0.5019 -0.2430 -0.1506
  662MPD2    C1 9847   2.161   1.105   0.339 -0.0427  0.3988 -0.0037
  662MPD2    C2 9848   2.115   1.202   0.247 -0.0661  0.4010  0.0600
  662MPD2    C3 9849   2.136   1.336   0.271  0.4867 -0.0719  0.2515
  662MPD2    C4 9850   2.200   1.372   0.381  0.5450  0.0235 -0.1188
  662MPD2    C5 9851   2.242   1.280   0.476  0.2759  0.3569 -0.6925
  662MPD2     H 9852   2.054   1.174   0.162 -1.3114  1.0974  0.7235
  662MPD2    H1 9853   2.211   1.477   0.405  4.6442 -0.3518 -0.3786
  662MPD2    H2 9854   2.269   1.080   0.526 -1.0715 -1.5035 -0.9348
  662MPD2    H3 9855   2.285   1.319   0.567  0.2489  1.0698 -0.9852
  662MPD2     N 9856   2.098   1.434   0.180  0.2822  0.3031 -0.3257
  662MPD2    H5 9857   2.109   1.529   0.214 -1.9056  0.6504 -0.5750
  662MPD2    N1 9858   2.132   0.968   0.304  0.2841  0.5132  0.3614
  662MPD2    H7 9859   2.085   0.957   0.214  0.5265  2.2829  0.0328
  663TMC3    C1 9860   2.076   0.744   0.325 -0.0929 -0.3290  0.2150
  663TMC3    C2 9861   2.003   0.673   0.415  0.2460 -0.3495  0.5118
  663TMC3    C3 9862   1.918   0.578   0.364 -0.5590 -0.4841 -0.8622
  663TMC3    C4 9863   2.058   0.738   0.191 -0.2435  0.2719 -0.4155
  663TMC3    C5 9864   1.961   0.652   0.143 -0.5891 -0.4594  1.0609
  663TMC3    C6 9865   1.895   0.566   0.228  0.3477  0.3841 -0.2653
  663TMC3     C 9866   2.148   0.855   0.388  0.1271  0.3753  0.2309
  663TMC3     O 9867   2.175   0.845   0.510 -0.0982  0.8987  0.0780
  663TMC3     H 9868   2.032   0.677   0.520  1.8192 -1.2835  0.1195
  663TMC3    H1 9869   2.119   0.796   0.121  1.6052 -0.5746  0.4883
  663TMC3    H2 9870   1.814   0.502   0.196  1.1893 -1.6659  1.6579
  663TMC3    C7 9871   1.978   0.622   0.003  0.9447  0.3068  0.2692
  663TMC3    C8 9872   1.797   0.567   0.437  0.5001 -0.2531  1.0517
  663TMC3    O1 9873   2.058   0.693  17.682 -0.6877 -0.3906 -0.4019
  663TMC3    O2 9874   1.747   0.456   0.432 -0.1325  0.2717 -0.1583
  664MPD2     C 9875   0.713   4.414   0.015 -0.4235  0.3416 -0.0038
  664MPD2    C1 9876   0.714   4.554   0.005  0.5609 -0.7735  0.6758
  664MPD2    C2 9877   0.710   4.622   0.126 -0.2133  0.2438 -0.1107
  664MPD2    C3 9878   0.690   4.553   0.250 -0.0945  0.2614  0.3237
  664MPD2    C4 9879   0.709   4.416   0.255  0.7342  0.0445 -0.0252
  664MPD2    C5 9880   0.720   4.346   0.137 -0.0195  0.3010  0.1208
  664MPD2     H 9881   0.715   4.731   0.132 -0.4707  0.1180  2.5013
  664MPD2    H1 9882   0.715   4.350   0.340  0.1588 -0.2150 -0.1870
  664MPD2    H2 9883   0.720   4.349  17.664  0.0085  2.4676 -1.5738
  664MPD2    H3 9884   0.725   4.238   0.138 -0.2016  0.2906  0.0212
  664MPD2     N 9885   0.677   4.637   0.361  0.9337 -0.4275 -0.0186
  664MPD2    H5 9886   0.666   0.001   0.338  3.0287  0.1790  1.5483
  664MPD2    N1 9887   0.727   4.619  17.618 -0.9108 -0.0511 -0.5923
  664MPD2    H7 9888   0.719   4.720  17.616 -0.1272  0.0193 -0.3247
  665TMC3    C1 9889   0.579   4.697   0.556 -0.2644  0.3583 -0.6973
  665TMC3    C2 9890   0.442   4.673   0.556 -0.0656 -0.0083  0.5031
  665TMC3    C3 9891   0.356   0.052   0.563 -0.7416 -0.6507  0.7148
  665TMC3    C4 9892   0.626   0.098   0.538  0.5171  0.1504 -1.0818
  665TMC3    C5 9893   0.539   0.200   0.547  0.5739  0.0527  0.3748
  665TMC3    C6 9894   0.404   0.177   0.569  0.1334  0.1136  0.2170
  665TMC3     C 9895   0.643   4.592   0.484  0.1073 -0.4816  0.4228
  665TMC3     O 9896   0.618   4.479   0.516  0.3972 -0.4874  0.2427
  665TMC3     H 9897   0.409   4.570   0.548 -0.2329 -0.0005  1.1059
  665TMC3    H1 9898   0.733   0.106   0.525  0.3572 -1.0783 -3.1730
  665TMC3    H2 9899   0.328   0.255   0.570 -0.7640 -0.7435 -1.4242
  665TMC3    C7 9900   0.596   0.321   0.585 -0.1936  0.8107 -0.3350
  665TMC3    C8 9901   0.221   0.021   0.555  0.0019 -0.3409  0.1906
  665TMC3    O1 9902   0.713   0.338   0.554  0.7654  0.0025  0.3852
  665TMC3    O2 9903   0.146   0.107   0.608  1.1285  0.5395 -0.1265
  666TMC3    C1 9904   4.615   0.331   9.051 -0.5159 -0.3569 -0.0958
  666TMC3    C2 9905   4.690   0.258   9.142 -0.0367 -0.3566  0.3323
  666TMC3    C3 9906   0.001   0.329   9.257 -0.2969 -0.2696 -0.3920
  666TMC3    C4 9907   4.580   0.460   9.080 -0.5015  0.1475  0.7716
  666TMC3    C5 9908   4.600   0.510   9.203 -0.2273 -0.2191  0.2332
  666TMC3    C6 9909   4.690   0.459   9.284 -0.1245  0.8616  0.0451
  666TMC3     C 9910   4.501   0.259   8.988  0.2061  0.3631  0.4532
  666TMC3     O 9911   4.420   0.331   8.930  0.3099  0.6669 -0.6152
  666TMC3     H 9912   4.715   0.156   9.115  0.5152  0.3728 -1.9346
  666TMC3    H1 9913   4.523   0.511   9.003  1.2184  0.0086 -0.5922
  666TMC3    H2 9914   4.697   0.505   9.382 -1.8008 -0.4220  0.7711
  666TMC3    C7 9915   4.472   0.527   9.270  0.2245 -0.4509 -0.2286
  666TMC3    C8 9916   0.049   0.247   9.361  0.4968  0.0582  0.3862
  666TMC3    O1 9917   4.470   0.519   9.393 -0.0567  0.4705  0.5122
  666TMC3    O2 9918   0.053   0.125   9.348 -0.0858 -0.3107 -0.7658
  667MPD2     C 9919   1.210   0.186  14.485  0.3727  0.1081  0.2158
  667MPD2    C1 9920   1.201   0.128  14.609  0.1309  0.0153 -0.0446
  667MPD2    C2 9921   1.174   4.727  14.608  0.2254  0.2446 -0.2637
  667MPD2    C3 9922   1.166   4.650  14.490  0.4637 -0.7688 -0.5912
  667MPD2    C4 9923   1.169   4.715  14.373 -0.5235 -0.6679  0.1672
  667MPD2    C5 9924   1.204   0.112  14.376  0.6481 -0.1457 -0.3561
  667MPD2     H 9925   1.154   4.680  14.703 -0.7875 -1.1558 -1.1763
  667MPD2    H1 9926   1.160   4.677  14.272 -3.2124 -0.4273  0.3250
  667MPD2    H2 9927   1.238   0.287  14.457 -1.7931  0.8024  0.5257
  667MPD2    H3 9928   1.204   0.165  14.281 -1.4347  0.5559  0.0306
  667MPD2     N 9929   1.121   4.518  14.484 -0.6551 -0.5347  0.3736
  667MPD2    H5 9930   1.095   4.475  14.396 -0.5319 -0.7062  0.4196
  667MPD2    N1 9931   1.196   0.201  14.732  0.9825  0.0178  0.1760
  667MPD2    H7 9932   1.179   0.154  14.821  2.0024 -1.0763 -0.2063
  668TMC3    C1 9933   1.226   0.382  14.871 -0.4504  1.2823  0.4111
  668TMC3    C2 9934   1.333   0.454  14.905 -0.3484  0.0136 -0.5887
  668TMC3    C3 9935   1.337   0.487  15.034 -0.2114 -0.4083 -0.1386
  668TMC3    C4 9936   1.121   0.348  14.957  0.1267 -0.1612  0.2426
  668TMC3    C5 9937   1.140   0.380  15.087 -0.3110  0.0265  0.2394
  668TMC3    C6 9938   1.248   0.454  15.129 -0.4199 -0.0838  0.1403
  668TMC3     C 9939   1.224   0.330  14.737 -0.0521 -0.1232 -0.2700
  668TMC3     O 9940   1.267   0.407  14.651  0.2531  1.0649  0.4340
  668TMC3     H 9941   1.419   0.452  14.839 -0.5028  1.2918 -0.8301
  668TMC3    H1 9942   1.040   0.290  14.915  0.9801 -0.3615 -1.1182
  668TMC3    H2 9943   1.251   0.484  15.233 -1.0785  2.1134 -0.4750
  668TMC3    C7 9944   1.071   0.305  15.192  0.4161 -0.2044  0.0733
  668TMC3    C8 9945   1.419   0.595  15.071  0.6582 -0.7856 -0.6913
  668TMC3    O1 9946   1.107   0.306  15.308  0.2575 -0.3385  0.1987
  668TMC3    O2 9947   1.425   0.634  15.185 -0.0057 -0.6811  0.0555
  669TMC3    C1 9948   3.925   4.469  14.411  0.3671  0.0381  0.2836
  669TMC3    C2 9949   3.791   4.499  14.409 -0.9183 -0.3042 -0.1162
  669TMC3    C3 9950   3.754   4.625  14.376 -0.5814  0.2706  0.1955
  669TMC3    C4 9951   4.020   4.564  14.386 -0.0736  0.5213  0.2323
  669TMC3    C5 9952   3.978   4.688  14.358  0.2831 -0.2791 -0.5282
  669TMC3    C6 9953   3.850   4.728  14.364  0.5358 -1.0418 -0.3514
  669TMC3     C 9954   3.963   4.352  14.492  0.0284  0.3896 -0.2164
  669TMC3     O 9955   3.895   4.306  14.585 -0.1396 -0.5610  0.0890
  669TMC3     H 9956   3.728   4.414  14.432  0.0610 -1.1064 -0.4075
  669TMC3    H1 9957   4.127   4.547  14.375 -0.5186 -0.4505 -2.6317
  669TMC3    H2 9958   3.818   0.096  14.349 -0.2670 -1.0411  1.3246
  669TMC3    C7 9959   4.070   0.053  14.301 -0.6225 -0.3336  0.1203
  669TMC3    C8 9960   3.619   4.657  14.345  0.6556 -0.1790 -0.1398
  669TMC3    O1 9961   4.040   0.169  14.323 -0.5552  0.6325  0.5323
  669TMC3    O2 9962   3.540   4.566  14.339  0.1583 -0.0609 -0.1713
  670MPD2     C 9963   2.205   2.491  13.351  0.4842  0.1551  0.3772
  670MPD2    C1 9964   2.248   2.514  13.485  0.6063 -1.0066 -0.1105
  670MPD2    C2 9965   2.163   2.502  13.590  0.0199  0.7668  0.3392
  670MPD2    C3 9966   2.040   2.441  13.573 -0.9742  0.0449 -0.1908
  670MPD2    C4 9967   1.996   2.411  13.442 -0.8645 -0.0056  0.8609
  670MPD2    C5 9968   2.080   2.435  13.335 -0.8149  0.5127  0.3988
  670MPD2     H 9969   2.193   2.527  13.691  0.1044  1.6109  0.1046
  670MPD2    H1 9970   1.900   2.364  13.423 -1.1640  0.3850  1.4102
  670MPD2    H2 9971   2.262   2.521  13.264  1.1149  0.7679  0.9959
  670MPD2    H3 9972   2.042   2.424  13.234 -0.5251 -0.3321  0.3836
  670MPD2     N 9973   1.964   2.423  13.690  0.1062  0.4261 -0.4257
  670MPD2    H5 9974   2.000   2.450  13.781 -0.6692  1.3198 -0.3839
  670MPD2    N1 9975   2.382   2.565  13.508 -0.4146  0.0856 -0.9761
  670MPD2    H7 9976   2.399   2.592  13.605  2.5873 -1.4523 -1.0878
  671TMC3    C1 9977   1.796   2.344  13.843 -0.3838  0.5915 -0.3871
  671TMC3    C2 9978   1.884   2.383  13.943 -0.5270  0.1395 -0.0757
  671TMC3    C3 9979   1.872   2.326  14.073 -0.2189 -0.3154 -0.4128
  671TMC3    C4 9980   1.723   2.232  13.865 -0.0744  1.1097  0.4852
  671TMC3    C5 9981   1.712   2.177  13.990 -0.5359 -0.1688  0.5334
  671TMC3    C6 9982   1.777   2.230  14.094  0.4919 -0.1361 -0.3958
  671TMC3     C 9983   1.845   2.361  13.706  0.1242  0.4613 -0.0142
  671TMC3     O 9984   1.772   2.302  13.626  0.0095 -0.5043 -1.1910
  671TMC3     H 9985   1.949   2.468  13.930  3.3203 -2.4072  2.4164
  671TMC3    H1 9986   1.653   2.202  13.789 -1.1881  1.4498  1.3864
  671TMC3    H2 9987   1.785   2.174  14.187 -1.2887 -2.1996 -1.5141
  671TMC3    C7 9988   1.699   2.033  13.986  0.2632  0.4708  0.5565
  671TMC3    C8 9989   2.005   2.294  14.109  1.1598  0.0788  0.2303
  671TMC3    O1 9990   1.735   1.986  13.878 -0.3631 -0.3836 -0.4706
  671TMC3    O2 9991   2.091   2.293  14.022 -0.2593  0.0807 -0.0149
  672MPD2     C 9992   2.949   3.099  17.688  0.2711 -0.8849 -0.1496
  672MPD2    C1 9993   2.938   3.021   0.065 -1.2278 -0.6252 -0.6635
  672MPD2    C2 9994   3.012   3.045   0.177  0.2955 -0.6716  0.1451
  672MPD2    C3 9995   3.100   3.155   0.183 -0.3971  0.0926  0.7775
  672MPD2    C4 9996   3.110   3.237   0.073  0.8604  0.0998 -0.5050
  672MPD2    C5 9997   3.028   3.213  17.701  0.1453 -0.6126  0.7470
  672MPD2     H 9998   2.994   2.991   0.269  2.6631  0.1975  1.1079
  672MPD2    H1 9999   3.170   3.326   0.082  0.9115  0.2060 -1.9258
  672MPD2    H210000   2.906   3.077  17.591 -0.9738 -0.5131  0.3204
  672MPD2    H310001   3.036   3.281  17.617 -0.6227  0.0649  1.2285
  672MPD2     N10002   3.157   3.206   0.294  0.2002  0.4422 -0.2412
  672MPD2    H510003   3.203   3.297   0.292 -0.7632  0.9348  0.0481
  672MPD2    N110004   2.859   2.903   0.068  0.1584 -0.3574  1.1897
  672MPD2    H710005   2.874   2.835   0.142 -1.5921 -2.4213 -0.3660
  673TMC3    C110006   2.679   2.767   0.025 -0.4294 -0.2350 -0.4816
  673TMC3    C210007   2.742   2.653   0.078 -0.3119  0.1150  0.4090
  673TMC3    C310008   2.657   2.559   0.128  0.2199  0.5682 -0.6756
  673TMC3    C410009   2.551   2.794   0.058 -0.1865 -0.9722  0.2832
  673TMC3    C510010   2.477   2.699   0.122  0.6973  0.1298 -0.3407
  673TMC3    C610011   2.524   2.575   0.151  0.1019  0.1211 -0.0290
  673TMC3     C10012   2.757   2.879  17.713 -0.3244 -0.1185 -0.0163
  673TMC3     O10013   2.712   2.960  17.635  0.2529  0.4205 -0.1848
  673TMC3     H10014   2.838   2.622   0.038 -1.1675 -1.7357 -0.2164
  673TMC3    H110015   2.501   2.885   0.025  0.2256 -1.5596 -1.9593
  673TMC3    H210016   2.464   2.490   0.185  0.5195 -0.4704 -0.7758
  673TMC3    C710017   2.377   2.738   0.218  0.0522 -0.0064 -0.0280
  673TMC3    C810018   2.700   2.414   0.140 -0.4432 -0.3952  0.2470
  673TMC3    O110019   2.326   2.651   0.288  0.4254  0.3915  0.9284
  673TMC3    O210020   2.622   2.325   0.102 -1.1172 -0.1803 -0.0371
  674MPD2     C10021   2.367   2.811  17.513 -0.1392 -0.1513  0.0216
  674MPD2    C110022   2.342   2.676  17.517  0.1378  0.0022  0.1904
  674MPD2    C210023   2.243   2.631  17.603 -0.2798 -0.7323 -0.3072
  674MPD2    C310024   2.169   2.724  17.678 -0.5777 -0.1846 -0.7354
  674MPD2    C410025   2.195   2.862  17.670 -0.3444  0.4683  0.4462
  674MPD2    C510026   2.298   2.902  17.586 -0.6158  0.1060 -0.1787
  674MPD2     H10027   2.215   2.526  17.606  0.8116 -1.0135 -0.2309
  674MPD2    H110028   2.141   2.938  17.725  0.3793 -0.3316  2.2383
  674MPD2    H210029   2.450   2.856  17.460  2.5991 -4.7255  0.4401
  674MPD2    H310030   2.318   3.008  17.579 -1.9689  0.3580 -0.1591
  674MPD2     N10031   2.062   2.667   0.014 -0.0202  0.6129  0.5142
  674MPD2    H510032   2.039   2.568   0.003  1.9287  0.1739  0.4975
  674MPD2    N110033   2.428   2.589  17.441 -0.7030  0.1075  0.3168
  674MPD2    H710034   2.507   2.633  17.395 -1.4173  0.6096 -0.4457
  675TMC3    C110035   2.520   2.391  17.348  0.2663 -0.6328  0.3828
  675TMC3    C210036   2.481   2.267  17.302 -0.6100 -0.2587 -0.0612
  675TMC3    C310037   2.560   2.155  17.330 -0.0787 -0.5289  0.0170
  675TMC3    C410038   2.645   2.413  17.392  0.1918 -0.1324 -0.1274
  675TMC3    C510039   2.726   2.298  17.403 -0.6860 -0.0080  0.3707
  675TMC3    C610040   2.683   2.170  17.376 -0.2542  0.5386  0.0762
  675TMC3     C10041   2.404   2.461  17.413 -0.2321 -0.0063 -0.2003
  675TMC3     O10042   2.299   2.404  17.414  0.0149  0.3907  0.4569
  675TMC3     H10043   2.384   2.255  17.254  0.1200  2.2735 -2.1149
  675TMC3    H110044   2.677   2.516  17.406 -0.3045  0.0765 -0.5351
  675TMC3    H210045   2.754   2.089  17.387  0.1235  0.9348  0.5414
  675TMC3    C710046   2.863   2.316  17.449  0.3194  0.3370  0.6085
  675TMC3    C810047   2.489   2.052  17.401 -0.3580 -0.6030 -0.0866
  675TMC3    O110048   2.945   2.237  17.409  0.0255  0.1631 -0.0783
  675TMC3    O210049   2.540   1.943  17.417  0.2302  0.0164 -0.0604
  676MPD2     C10050   0.200   0.664  10.590  0.4771 -0.1833 -0.6587
  676MPD2    C110051   0.084   0.651  10.655  0.3748 -0.1679  0.0531
  676MPD2    C210052   4.727   0.564  10.604 -0.3123 -0.6739 -0.0158
  676MPD2    C310053   0.018   0.485  10.493  0.0317  0.4706 -0.8149
  676MPD2    C410054   0.135   0.498  10.429  0.3396  0.3099  0.4655
  676MPD2    C510055   0.221   0.595  10.477  1.2347  0.1874 -0.2820
  676MPD2     H10056   4.630   0.562  10.653 -0.7612  1.0353 -0.8535
  676MPD2    H110057   0.158   0.448  10.335  2.1120  0.5014  0.8072
  676MPD2    H210058   0.276   0.739  10.609  1.4920 -1.5844  0.8627
  676MPD2    H310059   0.309   0.616  10.417  3.0433 -2.1310  1.5809
  676MPD2     N10060   4.670   0.383  10.440  0.4321 -0.1049  0.3302
  676MPD2    H510061   4.700   0.329  10.360  0.8331  2.1769 -1.0545
  676MPD2    N110062   0.051   0.726  10.774  0.0391 -0.6227  0.0903
  676MPD2    H710063   4.689   0.727  10.806 -0.4679 -1.4992 -1.4140
  677TMC3    C110064   0.076   0.794  10.993 -0.2008  0.4887  0.0348
  677TMC3    C210065   4.696   0.727  11.024 -0.5654 -0.5600 -0.0581
  677TMC3    C310066   4.643   0.757  11.147 -0.0096  0.2594 -0.0246
  677TMC3    C410067   0.134   0.891  11.077  0.2506  0.6511 -0.3020
  677TMC3    C510068   0.078   0.911  11.199  0.0642  0.5249 -0.4909
  677TMC3    C610069   4.703   0.835  11.237 -0.2720 -0.1074  0.3350
  677TMC3     C10070   0.136   0.777  10.860  0.4870 -0.4618  0.2760
  677TMC3     O10071   0.253   0.799  10.846  0.6729  0.0266 -0.2241
  677TMC3     H10072   4.650   0.648  10.967 -2.5419 -0.5093  1.4584
  677TMC3    H110073   0.225   0.944  11.052  0.3822  0.4277 -0.2962
  677TMC3    H210074   4.663   0.847  11.338  0.7908  0.6459  0.6701
  677TMC3    C710075   0.100   1.019  11.288  0.3580  0.4296  0.6887
  677TMC3    C810076   4.598   0.636  11.223  0.4598 -0.0433 -0.1826
  677TMC3    O110077   0.064   1.006  11.408  0.6587  0.1252  0.5349
  677TMC3    O210078   4.495   0.575  11.194 -0.4071  0.0630 -0.4223
  678MPD2     C10079   1.184   1.789   1.137  0.3149  0.0591  0.1375
  678MPD2    C110080   1.206   1.693   1.232  0.9246  0.7703 -0.7720
  678MPD2    C210081   1.126   1.581   1.244  0.2356 -0.6902  0.5825
  678MPD2    C310082   1.019   1.568   1.156  0.2074  0.0431  0.4884
  678MPD2    C410083   0.999   1.665   1.057 -0.0710  0.0858  0.2207
  678MPD2    C510084   1.077   1.773   1.050 -0.0221  0.3215 -0.5356
  678MPD2     H10085   1.154   1.493   1.301  1.2314  0.3129  1.6283
  678MPD2    H110086   0.926   1.661   0.977 -0.0742 -1.5359  0.3048
  678MPD2    H210087   1.234   1.885   1.140  1.0027 -0.3116  0.3861
  678MPD2    H310088   1.058   1.851   0.977  0.0870  0.3519 -0.5316
  678MPD2     N10089   0.950   1.444   1.157 -0.0092 -0.8029  0.2957
  678MPD2    H510090   0.977   1.383   1.233 -1.9410 -1.3725  0.5299
  678MPD2    N110091   1.324   1.698   1.311 -0.0136  0.2257 -0.8303
  678MPD2    H710092   1.339   1.631   1.387  2.1078  1.4851 -0.1331
  679TMC3    C110093   1.714   1.585   1.343 -0.0632  0.0220 -0.0853
  679TMC3    C210094   1.638   1.692   1.296  0.0168  0.3530  0.0234
  679TMC3    C310095   1.544   1.745   1.380 -0.2364  0.4205 -0.2291
  679TMC3    C410096   1.684   1.523   1.462  0.4892 -0.4634  0.2295
  679TMC3    C510097   1.576   1.564   1.532 -0.3030  0.9782  0.8187
  679TMC3    C610098   1.506   1.671   1.489  0.1947 -0.1407 -0.1404
  679TMC3     C10099   1.775   1.503   1.244 -0.4280 -0.5734  0.9975
  679TMC3     O10100   1.840   1.413   1.291  0.4754  0.5350 -0.1576
  679TMC3     H10101   1.667   1.739   1.203 -3.9055  0.5691 -1.0790
  679TMC3    H110102   1.746   1.441   1.497 -0.3470 -0.3446  1.9852
  679TMC3    H210103   1.423   1.704   1.551  0.3424  0.7304 -0.4082
  679TMC3    C710104   1.543   1.510   1.664 -0.7742  0.7040  0.0215
  679TMC3    C810105   1.429   1.784   1.297  0.6231 -0.6606  0.3351
  679TMC3    O110106   1.514   1.587   1.752 -0.4913 -0.1352  0.2492
  679TMC3    O210107   1.459   1.870   1.214  0.7374  0.4813 -0.1470
  680MPD2     C10108   1.507   4.302  13.911 -0.0129 -0.9390  1.0853
  680MPD2    C110109   1.597   4.222  13.979 -0.0583 -0.1644 -0.1537
  680MPD2    C210110   1.708   4.282  14.032  0.3516  0.5086  0.3837
  680MPD2    C310111   1.718   4.415  14.036 -0.6163 -0.2178  1.1456
  680MPD2    C410112   1.628   4.500  13.984  0.1075 -0.6081  0.0739
  680MPD2    C510113   1.522   4.441  13.915  0.4869 -0.6413  0.4445
  680MPD2     H10114   1.788   4.217  14.066  0.7263  1.4775  1.3709
  680MPD2    H110115   1.637   4.607  13.996  0.4725 -0.7824  1.3271
  680MPD2    H210116   1.417   4.258  13.870  1.2113  1.4450 -4.1467
  680MPD2    H310117   1.454   4.511  13.869 -0.2440 -1.8136 -0.2464
  680MPD2     N10118   1.835   4.475  14.092  0.0874 -0.1712  0.2526
  680MPD2    H510119   1.850   4.574  14.074  1.1252 -0.4837 -0.6360
  680MPD2    N110120   1.593   4.080  13.990 -0.0956  0.0196 -0.0677
  680MPD2    H710121   1.656   4.048  14.063 -1.7725 -0.6285  1.0803
  681TMC3    C110122   1.571   3.862  13.944 -0.3737  0.1722 -0.2727
  681TMC3    C210123   1.498   3.747  13.919 -0.5894 -0.7114 -0.9122
  681TMC3    C310124   1.564   3.627  13.901 -0.0768 -0.7995 -0.6826
  681TMC3    C410125   1.706   3.845  13.958 -0.3090 -0.2650  0.5184
  681TMC3    C510126   1.771   3.731  13.941  0.0785 -0.3097  0.0091
  681TMC3    C610127   1.707   3.612  13.907 -0.7659 -0.2715  0.6147
  681TMC3     C10128   1.506   3.991  13.935 -0.3454 -1.0922  0.7876
  681TMC3     O10129   1.401   4.018  13.883 -0.1623 -0.1989 -0.3870
  681TMC3     H10130   1.391   3.757  13.905 -0.1165  1.2584 -3.0139
  681TMC3    H110131   1.772   3.929  13.979 -0.5463  0.8144 -2.9538
  681TMC3    H210132   1.764   3.530  13.866  0.8354  0.2289  1.8424
  681TMC3    C710133   1.910   3.723  13.939  0.4239 -0.3767  0.4244
  681TMC3    C810134   1.498   3.519  13.975  0.0638  0.6798  0.1408
  681TMC3    O110135   1.959   3.622  13.985  0.2337  0.2451 -0.0674
  681TMC3    O210136   1.375   3.520  13.982 -0.4364 -0.0821  0.1331
  682MPD2     C10137   4.080   0.753  10.207 -1.2865  0.2517 -0.2503
  682MPD2    C110138   3.963   0.689  10.191  0.3776  0.9167  0.2696
  682MPD2    C210139   3.863   0.722  10.270 -0.8572  0.8321 -0.4440
  682MPD2    C310140   3.883   0.801  10.382 -0.3884  0.4018 -0.2263
  682MPD2    C410141   4.002   0.860  10.399 -0.3251 -1.3927  0.1384
  682MPD2    C510142   4.100   0.842  10.308 -0.0791  1.1581  0.2553
  682MPD2     H10143   3.764   0.684  10.246 -1.7483  1.0713  2.7995
  682MPD2    H110144   4.026   0.897  10.498  0.2920 -1.7295  0.1126
  682MPD2    H210145   4.159   0.742  10.133  0.9641 -1.2074  2.3747
  682MPD2    H310146   4.196   0.890  10.322  0.8324  0.2758 -2.8780
  682MPD2     N10147   3.782   0.816  10.481  0.0334  0.3624  0.1391
  682MPD2    H510148   3.808   0.874  10.560  0.1824  0.0953  0.2881
  682MPD2    N110149   3.931   0.590  10.097 -0.4352  0.2055  0.9060
  682MPD2    H710150   3.855   0.525  10.110 -1.3286  1.0598 -0.0621
  683TMC3    C110151   3.583   0.768  10.843 -0.4815  0.5598  0.2644
  683TMC3    C210152   3.482   0.672  10.850  0.5669 -0.3973 -0.0997
  683TMC3    C310153   3.436   0.623  10.734 -0.0845  0.0570 -0.1342
  683TMC3    C410154   3.640   0.802  10.727  0.4816  0.0307  0.3449
  683TMC3    C510155   3.590   0.751  10.611 -0.0371  0.3882  0.3432
  683TMC3    C610156   3.483   0.670  10.617  0.8010 -0.1933  0.1209
  683TMC3     C10157   3.590   0.867  10.945 -0.0139 -0.1418 -0.4076
  683TMC3     O10158   3.634   0.976  10.908 -0.0616 -0.0975 -0.2418
  683TMC3     H10159   3.422   0.665  10.940 -0.0877 -1.1493 -0.6041
  683TMC3    H110160   3.721   0.873  10.718 -0.0028  0.6028  0.4655
  683TMC3    H210161   3.431   0.646  10.524  0.4492 -1.5267  0.6641
  683TMC3    C710162   3.673   0.730  10.497 -0.6903 -0.0221  0.2381
  683TMC3    C810163   3.352   0.505  10.723 -1.0357  0.5616  0.1762
  683TMC3    O110164   3.640   0.631  10.433  0.2658 -0.4836  0.0665
  683TMC3    O210165   3.310   0.475  10.610 -0.4585  0.3842  0.6045
  684MPD2     C10166   1.793   0.167  16.363 -0.7303 -0.8096 -0.4178
  684MPD2    C110167   1.824   0.232  16.245 -0.0734  0.5182  0.2117
  684MPD2    C210168   1.862   0.363  16.244  0.2845 -0.2306  0.5941
  684MPD2    C310169   1.860   0.434  16.359  0.7062  0.0338  0.2388
  684MPD2    C410170   1.816   0.377  16.476 -0.3422 -0.4159  0.2495
  684MPD2    C510171   1.792   0.241  16.481  0.3136 -0.0363 -0.6850
  684MPD2     H10172   1.900   0.403  16.150  0.3360 -0.7348  0.4030
  684MPD2    H110173   1.819   0.423  16.574  1.3091 -2.3744  1.1356
  684MPD2    H210174   1.766   0.062  16.368  1.0442 -1.2408  0.1982
  684MPD2    H310175   1.768   0.198  16.577  2.3762  0.0650 -0.1125
  684MPD2     N10176   1.926   0.558  16.355 -0.8698  0.0518 -0.1432
  684MPD2    H510177   1.970   0.582  16.267 -0.2514 -3.5132 -0.8389
  684MPD2    N110178   1.838   0.163  16.124  0.5138 -0.0024 -0.1241
  684MPD2    H710179   1.870   0.220  16.046 -1.7533  0.8810 -0.4204
  685TMC3    C110180   1.908   4.721  15.999 -0.0989  0.5987  0.1474
  685TMC3    C210181   1.862   0.027  15.876  0.0291 -0.1159  0.1804
  685TMC3    C310182   1.950   0.036  15.778 -0.5729 -0.4139  0.3152
  685TMC3    C410183   2.034   4.689  16.022  0.4361 -0.2953 -0.2309
  685TMC3    C510184   2.116   4.680  15.915  0.2309  0.0179  0.2596
  685TMC3    C610185   2.074   4.711  15.789  0.5653 -0.2056 -1.5063
  685TMC3     C10186   1.837   0.023  16.113 -0.7279  0.2891 -0.2513
  685TMC3     O10187   1.837   4.667  16.196  0.1386  0.2511  0.0515
  685TMC3     H10188   1.758   0.058  15.868  0.0881  0.9132  3.7202
  685TMC3    H110189   2.074   4.666  16.119 -0.9232  0.3377  0.4783
  685TMC3    H210190   2.136   4.708  15.699 -0.9639  2.8168 -2.6598
  685TMC3    C710191   2.253   4.687  15.954 -0.4644  0.5671  0.0275
  685TMC3    C810192   1.893   0.026  15.643 -0.3484  0.1706 -0.0223
  685TMC3    O110193   2.275   4.702  16.074 -0.1346  0.3809  1.2863
  685TMC3    O210194   1.950   4.694  15.554 -0.8551  0.6806  0.1977
  686MPD2     C10195   3.529   0.253  15.387 -0.1229  0.3079  0.1540
  686MPD2    C110196   3.577   0.174  15.488  1.2523 -1.1041 -0.0906
  686MPD2    C210197   3.676   0.079  15.459  0.8569 -0.4013  0.2546
  686MPD2    C310198   3.738   0.075  15.333  0.5599 -0.5522  0.4105
  686MPD2    C410199   3.692   0.156  15.229  0.6065 -0.2187  0.0558
  686MPD2    C510200   3.594   0.244  15.263 -0.1940  0.3432 -0.2482
  686MPD2     H10201   3.731   0.030  15.538  1.6842  1.5658  0.8887
  686MPD2    H110202   3.725   0.148  15.126 -2.9473 -1.8379 -0.9614
  686MPD2    H210203   3.455   0.332  15.386 -1.5707 -1.0594 -0.1420
  686MPD2    H310204   3.550   0.297  15.179 -0.4530 -0.1217 -0.4010
  686MPD2     N10205   3.840   4.713  15.302 -0.1876  0.6461  0.5298
  686MPD2    H510206   3.896   0.001  15.220 -1.7324  1.6111 -0.2622
  686MPD2    N110207   3.516   0.189  15.609  0.3659  0.0885  0.0975
  686MPD2    H710208   3.432   0.246  15.612 -0.8792 -1.8138  1.4547
  687TMC3    C110209   3.803   4.530  15.470  0.4489 -0.2861  0.4344
  687TMC3    C210210   3.667   4.509  15.450 -0.3707 -0.1689 -0.0862
  687TMC3    C310211   3.602   4.445  15.557  0.1586 -0.2376 -0.1097
  687TMC3    C410212   3.868   4.474  15.577  0.8403  0.4201 -0.0896
  687TMC3    C510213   3.802   4.409  15.676  0.2887 -0.5214 -1.0521
  687TMC3    C610214   3.669   4.396  15.669  0.1214 -0.6052  0.4195
  687TMC3     C10215   3.882   4.593  15.367  0.1582  0.0959 -0.2048
  687TMC3     O10216   3.997   4.543  15.355  0.4497  0.1816 -0.2031
  687TMC3     H10217   3.606   4.544  15.368  0.3736  1.8680  0.2527
  687TMC3    H110218   3.966   4.517  15.594  0.6760  0.7250  0.0916
  687TMC3    H210219   3.621   4.350  15.754  0.4931  1.5337  1.7969
  687TMC3    C710220   3.867   4.425  15.803  0.0660  0.0866  0.3775
  687TMC3    C810221   3.466   4.503  15.597 -0.5540  0.3856  0.5866
  687TMC3    O110222   3.801   4.474  15.895  0.2668 -0.1125  0.6316
  687TMC3    O210223   3.424   4.467  15.703  1.0635 -1.0433  0.1522
  688MPD2     C10224   2.889   3.987  17.066  0.2134  0.4155  0.1529
  688MPD2    C110225   2.870   3.848  17.084  0.2627 -0.3390 -0.8153
  688MPD2    C210226   2.952   3.768  17.009 -0.4053  0.8085 -0.9178
  688MPD2    C310227   3.055   3.817  16.933  0.1871  0.2424  0.3435
  688MPD2    C410228   3.070   3.953  16.911 -0.3587 -0.7614  0.2796
  688MPD2    C510229   2.988   4.037  16.987 -0.1389  0.7178 -0.0424
  688MPD2     H10230   2.939   3.662  17.029  0.7374  0.8576  0.0717
  688MPD2    H110231   3.144   3.993  16.842 -0.9674 -2.9978 -1.6909
  688MPD2    H210232   2.827   4.054  17.125  1.6419  1.3300  0.6220
  688MPD2    H310233   3.001   4.144  16.980 -0.4165  0.7540 -0.0207
  688MPD2     N10234   3.139   3.724  16.860 -0.5431 -0.3832  0.0232
  688MPD2    H510235   3.216   3.763  16.806 -0.1486 -0.1516  0.7570
  688MPD2    N110236   2.785   3.790  17.178  0.2506 -0.1266 -0.6566
  688MPD2    H710237   2.788   3.689  17.185 -0.8117  0.0282  1.9437
  689TMC3    C110238   2.640   3.761  17.370  0.4274  0.0029 -0.5065
  689TMC3    C210239   2.587   3.814  17.485 -0.8235 -0.2937 -0.1775
  689TMC3    C310240   2.553   3.723  17.575  0.5311 -0.0229  0.8168
  689TMC3    C410241   2.622   3.633  17.328  0.2699 -0.3135  0.3897
  689TMC3    C510242   2.567   3.545  17.420 -0.5973 -0.5172  0.6561
  689TMC3    C610243   2.527   3.593  17.546 -0.2863 -0.1110  0.3844
  689TMC3     C10244   2.717   3.852  17.278 -0.0725 -0.5464  0.1794
  689TMC3     O10245   2.706   3.973  17.306  0.7979  0.2653  0.5485
  689TMC3     H10246   2.601   3.919  17.509 -0.3385  0.0175 -1.8022
  689TMC3    H110247   2.633   3.592  17.228  2.1617  2.3252 -0.4758
  689TMC3    H210248   2.490   3.520  17.617 -0.2740 -0.5105 -0.0129
  689TMC3    C710249   2.614   3.409  17.413 -0.2725 -0.5360 -0.2880
  689TMC3    C810250   2.503   3.758  17.707 -0.3347  0.3620 -0.8465
  689TMC3    O110251   2.655   3.365  17.521  0.4008 -0.5344 -0.1081
  689TMC3    O210252   2.529   3.674   0.058  0.1245  0.1468  0.3414
  690MPD2     C10253   4.622   1.082  16.162 -0.2495  0.4955  0.0572
  690MPD2    C110254   4.680   0.958  16.150  0.2350  0.0374 -0.1047
  690MPD2    C210255   0.035   0.938  16.044 -0.2179  0.6061  0.5355
  690MPD2    C310256   0.043   1.039  15.940  0.0081  0.4300  0.3862
  690MPD2    C410257   4.705   1.157  15.956 -0.0203 -0.5868 -0.1318
  690MPD2    C510258   4.639   1.183  16.071  0.8274  0.0203 -0.0914
  690MPD2     H10259   0.092   0.846  16.036  0.6948  1.1108  1.1867
  690MPD2    H110260   4.688   1.235  15.882 -1.6570  0.3896  1.2695
  690MPD2    H210261   4.558   1.107  16.246 -0.7784  0.2028 -0.2559
  690MPD2    H310262   4.586   1.278  16.076 -1.9615 -1.4916 -0.6291
  690MPD2     N10263   0.125   1.014  15.826  0.1789 -0.1704  0.0175
  690MPD2    H510264   0.167   0.922  15.818 -0.8778 -0.5549 -1.0726
  690MPD2    N110265   4.658   0.859  16.243 -0.1332 -0.4385  1.1586
  690MPD2    H710266   4.726   0.784  16.249  1.6130  1.0533 -0.0837
  691TMC3    C110267   4.544   0.736  16.395 -0.0533  0.1741  0.0896
  691TMC3    C210268   4.444   0.760  16.493  0.0686 -0.2427 -0.3834
  691TMC3    C310269   4.363   0.655  16.528  0.0261  0.7159 -0.2741
  691TMC3    C410270   4.561   0.614  16.339  0.1597  0.3654  0.0921
  691TMC3    C510271   4.482   0.511  16.381  0.1672 -1.1021 -0.4389
  691TMC3    C610272   4.389   0.531  16.469 -0.1317  0.3443 -0.7196
  691TMC3     C10273   4.541   0.844  16.308  0.2983 -0.1381 -0.0658
  691TMC3     O10274   4.432   0.898  16.284  0.5545  0.4749  0.3565
  691TMC3     H10275   4.415   0.862  16.513 -1.8850 -0.2696 -3.0791
  691TMC3    H110276   4.610   0.612  16.242  2.0976  0.6908  1.0860
  691TMC3    H210277   4.330   0.447  16.503 -0.1675  0.6531 -0.0108
  691TMC3    C710278   4.485   0.386  16.310  0.0631  0.3930 -0.7966
  691TMC3    C810279   4.217   0.683  16.530  0.0222  0.0322 -0.7158
  691TMC3    O110280   4.382   0.322  16.311 -0.1244  0.3926  0.2544
  691TMC3    O210281   4.144   0.592  16.565 -0.0186  0.0842  0.2501
  692TMC3    C110282   1.792   1.623  15.825  0.5946 -0.0172  0.2922
  692TMC3    C210283   1.914   1.675  15.780  0.0137  0.9174  0.5208
  692TMC3    C310284   2.003   1.590  15.716 -0.5915  0.0277  0.9148
  692TMC3    C410285   1.740   1.509  15.781  0.2806 -0.1722  0.6681
  692TMC3    C510286   1.815   1.433  15.697 -0.1791  0.9916 -0.2167
  692TMC3    C610287   1.942   1.474  15.667  0.1901  0.0527  0.1907
  692TMC3     C10288   1.704   1.699  15.900 -0.3547  0.1948 -0.0606
  692TMC3     O10289   1.595   1.652  15.923 -0.0014  0.5514 -0.2590
  692TMC3     H10290   1.963   1.762  15.821  0.8994  1.4201 -1.6158
  692TMC3    H110291   1.637   1.480  15.799  0.8414 -2.2582  0.5741
  692TMC3    H210292   2.011   1.395  15.638 -0.2774 -1.0324  2.0405
  692TMC3    C710293   1.786   1.296  15.732 -0.3752 -0.2009 -1.1529
  692TMC3    C810294   2.122   1.544  15.783  0.1261 -0.2943 -0.3011
  692TMC3    O110295   1.719   1.275  15.835 -0.1681  0.4272 -0.0313
  692TMC3    O210296   2.185   1.453  15.736 -0.9345  0.0048 -0.5263
  693MPD2     C10297   1.192   0.014  10.719 -0.0429 -0.3491 -0.1204
  693MPD2    C110298   1.111   4.688  10.811 -0.0302  0.6347  0.0380
  693MPD2    C210299   1.164   4.660  10.938  0.1536  0.0883  0.5481
  693MPD2    C310300   1.297   4.696  10.967 -0.5262  0.7777  0.2680
  693MPD2    C410301   1.375   0.031  10.877 -0.0392 -0.2105 -0.0158
  693MPD2    C510302   1.320   0.058  10.752 -0.1868  0.5030  0.2394
  693MPD2     H10303   1.110   4.598  11.009  0.9560 -1.3083 -0.0888
  693MPD2    H110304   1.465   0.078  10.913 -1.2371  1.7288  0.4390
  693MPD2    H210305   1.161   0.054  10.622  3.1326  0.9610 -0.6036
  693MPD2    H310306   1.375   0.129  10.691  1.2766 -0.1494  0.7967
  693MPD2     N10307   1.354   4.663  11.094  0.3700 -0.3085  0.0776
  693MPD2    H510308   1.455   4.665  11.090  0.3500 -0.4599 -0.4886
  693MPD2    N110309   0.977   4.653  10.781 -0.2617  0.1883 -0.2939
  693MPD2    H710310   0.932   4.602  10.857 -1.5901  2.1550  0.2406
  694TMC3    C110311   0.776   4.603  10.666  0.6352 -0.0866 -0.0182
  694TMC3    C210312   0.729   4.527  10.565  0.6653  0.6313  0.7344
  694TMC3    C310313   0.604   4.475  10.576  0.5969  0.1525 -0.5631
  694TMC3    C410314   0.692   4.643  10.770  0.0759  0.2565  0.6685
  694TMC3    C510315   0.572   4.581  10.778  1.1821 -0.3441 -0.0739
  694TMC3    C610316   0.525   4.495  10.681 -0.5851  0.2984  0.1661
  694TMC3     C10317   0.918   4.650  10.662  0.1425  0.4240  0.1771
  694TMC3     O10318   0.958   4.697  10.556 -0.5570  0.1514 -0.0358
  694TMC3     H10319   0.801   4.502  10.487 -0.6538  0.8109 -0.5405
  694TMC3    H110320   0.720   4.722  10.838  1.1589 -2.0246  2.8858
  694TMC3    H210321   0.423   4.458  10.686 -0.9721  1.3306 -0.0882
  694TMC3    C710322   0.521   4.578  10.911  0.0950  0.0812  0.3586
  694TMC3    C810323   0.578   4.358  10.495 -0.4755 -0.1024 -0.0126
  694TMC3    O110324   0.524   4.670  10.988 -0.7102 -0.3308  0.8128
  694TMC3    O210325   0.508   4.276  10.551  0.2882 -0.2591 -0.1166
  695MPD2     C10326   2.307   1.714  13.408 -0.1601  0.7340 -0.0164
  695MPD2    C110327   2.244   1.659  13.518  0.2029  0.3101  0.1371
  695MPD2    C210328   2.111   1.649  13.518  0.3584 -0.0867 -0.0882
  695MPD2    C310329   2.038   1.695  13.411  0.1355 -0.4432 -0.0089
  695MPD2    C410330   2.094   1.748  13.303  0.3703 -0.0135  0.3351
  695MPD2    C510331   2.232   1.742  13.297  0.1829 -0.7449  0.3373
  695MPD2     H10332   2.068   1.610  13.610  0.3942 -1.3766 -0.6278
  695MPD2    H110333   2.034   1.773  13.216  0.0660 -0.6877  0.3504
  695MPD2    H210334   2.415   1.713  13.407 -0.1861 -0.4675 -0.4652
  695MPD2    H310335   2.284   1.765  13.205  0.2870 -0.3471  0.4953
  695MPD2     N10336   1.899   1.694  13.436  0.5248  0.2571  0.4222
  695MPD2    H510337   1.867   1.639  13.515  1.0658  0.1615  0.5790
  695MPD2    N110338   2.307   1.603  13.633 -0.5360  0.2452 -0.1149
  695MPD2    H710339   2.247   1.557  13.701 -1.5128 -1.7811 -2.3840
  696TMC3    C110340   1.670   1.725  13.401  0.6504 -0.6443 -0.0023
  696TMC3    C210341   1.645   1.629  13.493 -0.4368 -0.3508 -0.4696
  696TMC3    C310342   1.514   1.626  13.548 -1.0235 -0.1216  0.0172
  696TMC3    C410343   1.577   1.811  13.358 -0.2958 -0.2782  0.1399
  696TMC3    C510344   1.451   1.805  13.405  0.5824  0.3757 -0.1699
  696TMC3    C610345   1.422   1.725  13.513  0.8155 -0.4715  0.5211
  696TMC3     C10346   1.804   1.763  13.353  0.0395 -0.9611  0.0481
  696TMC3     O10347   1.813   1.837  13.257  0.0154 -0.0824 -0.0266
  696TMC3     H10348   1.721   1.561  13.530 -0.6295  0.0136  0.6152
  696TMC3    H110349   1.594   1.887  13.283  1.2771 -0.9673 -0.2145
  696TMC3    H210350   1.322   1.701  13.545  0.3923 -1.3580 -1.4332
  696TMC3    C710351   1.392   1.935  13.420  0.1145 -0.3877  0.1407
  696TMC3    C810352   1.521   1.601  13.694 -0.7510  0.0748 -0.1157
  696TMC3    O110353   1.375   2.001  13.321  0.2117  0.0502  0.0519
  696TMC3    O210354   1.631   1.587  13.744  0.4270 -0.1864  0.2161
  697MPD2     C10355   1.085   3.279  15.411  0.5804 -0.4232 -0.3301
  697MPD2    C110356   1.072   3.174  15.321 -0.1925  0.1032 -0.0074
  697MPD2    C210357   1.074   3.194  15.184  0.3375  0.3938  0.3508
  697MPD2    C310358   1.104   3.324  15.140 -0.5762  0.4826  0.1567
  697MPD2    C410359   1.108   3.437  15.225 -0.4383 -0.2437  0.3332
  697MPD2    C510360   1.104   3.413  15.362  0.6154  0.1804  0.1253
  697MPD2     H10361   1.067   3.115  15.110  0.5020  1.0419 -0.3617
  697MPD2    H110362   1.118   3.538  15.187  1.5196 -0.0461  1.3472
  697MPD2    H210363   1.092   3.253  15.516  1.5052  0.4551 -0.1684
  697MPD2    H310364   1.112   3.488  15.439  0.9278  0.7042 -0.4236
  697MPD2     N10365   1.108   3.341  15.003 -0.0830  0.5604  0.3566
  697MPD2    H510366   1.088   3.260  14.944  0.4831  1.2633 -0.7975
  697MPD2    N110367   1.075   3.033  15.361 -0.4785 -0.8805 -0.4561
  697MPD2    H710368   1.053   2.956  15.299  0.3121 -1.7267  0.3144
  698TMC3    C110369   1.168   3.412  14.789 -0.5475  0.2776 -0.0829
  698TMC3    C210370   1.279   3.451  14.722  0.3107  0.2671 -0.3480
  698TMC3    C310371   1.270   3.435  14.591  0.3975  0.1385 -0.3428
  698TMC3    C410372   1.062   3.336  14.735  0.0735 -0.3666 -0.5237
  698TMC3    C510373   1.062   3.329  14.600  1.3745  0.1960 -0.5444
  698TMC3    C610374   1.164   3.378  14.531 -0.0952  0.1237 -0.0907
  698TMC3     C10375   1.173   3.442  14.935 -0.0630  0.4437 -0.1556
  698TMC3     O10376   1.252   3.525  14.976  0.7947 -0.0598 -0.0405
  698TMC3     H10377   1.360   3.506  14.768 -0.4733 -0.0634  1.4232
  698TMC3    H110378   0.974   3.300  14.787 -0.0039 -0.1936 -0.5376
  698TMC3    H210379   1.165   3.371  14.423 -0.1502  2.0742 -0.2061
  698TMC3    C710380   0.937   3.350  14.527  0.4169 -0.0109  0.2224
  698TMC3    C810381   1.373   3.494  14.505  0.1038  0.0883 -0.6235
  698TMC3    O110382   0.947   3.337  14.406  0.3974  0.3309  0.0985
  698TMC3    O210383   1.348   3.510  14.386 -0.2617 -0.0256  0.2712
  699TMC3    C110384   1.497   1.807  12.896 -0.3703 -0.4722 -0.9490
  699TMC3    C210385   1.587   1.712  12.929  0.1622 -0.7113  0.2092
  699TMC3    C310386   1.546   1.635  13.033 -0.0273 -0.2545 -0.0291
  699TMC3    C410387   1.370   1.818  12.946  0.1305  0.1057  0.4044
  699TMC3    C510388   1.337   1.748  13.059 -0.5324  0.0182 -0.7549
  699TMC3    C610389   1.425   1.646  13.096 -0.2003 -0.3993  0.8441
  699TMC3     C10390   1.504   1.862  12.762  0.1437 -0.1765 -0.1611
  699TMC3     O10391   1.399   1.894  12.714  0.3607  0.5590 -0.2240
  699TMC3     H10392   1.686   1.693  12.887  0.7458 -1.3064  1.8547
  699TMC3    H110393   1.298   1.897  12.926  2.6399  1.9608 -1.3971
  699TMC3    H210394   1.397   1.586  13.182 -3.5772 -0.9545 -0.6668
  699TMC3    C710395   1.205   1.740  13.114 -0.0501 -0.2301  0.0163
  699TMC3    C810396   1.639   1.548  13.107 -0.2886 -0.4414 -0.3838
  699TMC3    O110397   1.188   1.681  13.220 -0.1076 -0.6216 -0.2613
  699TMC3    O210398   1.591   1.472  13.192 -0.2175 -0.5705 -1.0017
  700TMC3    C110399   0.597   3.874  17.028  0.3098 -0.2106  0.1018
  700TMC3    C210400   0.716   3.842  16.964 -0.2770 -0.0815 -0.2442
  700TMC3    C310401   0.816   3.781  17.031  0.0221  0.6622  0.1216
  700TMC3    C410402   0.580   3.856  17.161 -0.7166 -0.2568 -0.8470
  700TMC3    C510403   0.687   3.794  17.228  0.5352  0.2876  0.1722
  700TMC3    C610404   0.806   3.763  17.165  0.3563 -1.2328  0.2137
  700TMC3     C10405   0.527   3.987  16.975  0.2192  0.5992  0.1657
  700TMC3     O10406   0.413   4.011  17.010 -0.8726  0.1150  0.0381
  700TMC3     H10407   0.741   3.860  16.861  1.6302  0.7734  0.3780
  700TMC3    H110408   0.492   3.894  17.213  0.3339 -0.6002  1.1938
  700TMC3    H210409   0.862   3.683  17.212  0.1379 -1.1436  0.6320
  700TMC3    C710410   0.676   3.791  17.377  0.7768 -0.3250 -0.9855
  700TMC3    C810411   0.927   3.721  16.957 -0.1260 -0.4047  0.5415
  700TMC3    O110412   0.565   3.791  17.425  0.5074 -0.0487 -0.0602
  700TMC3    O210413   0.914   3.706  16.839 -0.7317  0.2407 -0.1268
  701TMC3    C110414   0.702   2.432  15.572  0.8552 -0.0204  0.0611
  701TMC3    C210415   0.769   2.354  15.484 -0.3569  0.1141  0.4821
  701TMC3    C310416   0.815   2.424  15.374  0.1623  0.4838  0.7721
  701TMC3    C410417   0.693   2.569  15.565 -0.3469 -0.8058  0.6018
  701TMC3    C510418   0.741   2.635  15.459  0.0168  0.0990 -0.0977
  701TMC3    C610419   0.802   2.563  15.360  0.0028  0.2150  0.4575
  701TMC3     C10420   0.623   2.370  15.680 -0.1975 -0.8594 -0.1688
  701TMC3     O10421   0.510   2.419  15.700  0.6483  0.0484  0.4280
  701TMC3     H10422   0.761   2.246  15.488  0.9935  0.1195  2.9378
  701TMC3    H110423   0.653   2.620  15.652  1.0720  2.9967 -0.9811
  701TMC3    H210424   0.855   2.609  15.277 -0.3086  2.4424  1.4814
  701TMC3    C710425   0.745   2.778  15.449  0.3764  0.8603 -0.3746
  701TMC3    C810426   0.865   2.343  15.260 -0.0117 -0.6842  0.8363
  701TMC3    O110427   0.799   2.826  15.350 -0.0236 -0.3573  0.1084
  701TMC3    O210428   0.939   2.253  15.283  0.7213 -0.3015  0.1357
  702MPD2     C10429   4.407   0.082   9.835  0.2754  0.4573  0.3594
  702MPD2    C110430   4.502   0.162   9.890  0.1307 -0.3301 -0.3923
  702MPD2    C210431   4.556   0.277   9.830  1.1134  0.3441  0.9417
  702MPD2    C310432   4.509   0.316   9.704 -0.7454  0.4271  0.0947
  702MPD2    C410433   4.408   0.240   9.652 -0.0491  0.9045  0.4958
  702MPD2    C510434   4.371   0.122   9.710 -0.5305  0.9268 -0.1529
  702MPD2     H10435   4.637   0.338   9.869  1.1666  1.2725 -0.5832
  702MPD2    H110436   4.365   0.269   9.557  2.4386  1.0450 -0.6041
  702MPD2    H210437   4.369   4.721   9.873 -1.3696  1.6513  1.7151
  702MPD2    H310438   4.315   0.046   9.657  0.9536 -0.1500 -0.1983
  702MPD2     N10439   4.531   0.441   9.640 -0.2639  0.2119  0.0894
  702MPD2    H510440   4.505   0.444   9.542 -3.0081 -1.9111  0.7412
  702MPD2    N110441   4.545   0.138  10.023 -0.3071  0.2934 -0.1399
  702MPD2    H710442   4.608   0.208  10.062  0.7790  0.1661 -1.6927
  703TMC3    C110443   4.631   0.570   9.818  0.3117  0.0529  0.7733
  703TMC3    C210444   4.522   0.590   9.897 -0.3693 -0.2316 -0.1499
  703TMC3    C310445   4.536   0.623  10.025  0.3949 -0.4867  0.1654
  703TMC3    C410446   0.016   0.620   9.856  0.1430  0.1133  0.3089
  703TMC3    C510447   0.027   0.649   9.992 -0.2122  0.2427  0.3298
  703TMC3    C610448   4.653   0.661  10.074  0.0924 -0.1144  0.1896
  703TMC3     C10449   4.624   0.531   9.679  0.0744 -0.4303  0.6427
  703TMC3     O10450   4.665   0.622   9.609  0.0276 -0.0366  0.9079
  703TMC3     H10451   4.424   0.574   9.853  0.1202 -0.0299 -1.3024
  703TMC3    H110452   0.104   0.608   9.795 -1.6937 -0.0389 -2.3390
  703TMC3    H210453   4.652   0.689  10.179  1.2189  0.1532  0.1261
  703TMC3    C710454   0.153   0.715  10.021 -0.4821  0.0172 -0.0107
  703TMC3    C810455   4.432   0.583  10.118  0.2910  0.1202 -0.1396
  703TMC3    O110456   0.239   0.696   9.935  0.4378  0.4263  0.4800
  703TMC3    O210457   4.423   0.630  10.235  0.1026  0.3409  0.0844
  704TMC3    C110458   2.477   3.593  12.717  0.5095  0.2191 -0.7463
  704TMC3    C210459   2.477   3.603  12.582 -0.1464 -0.0048  0.3684
  704TMC3    C310460   2.595   3.572  12.513  0.0500  0.0226  0.0520
  704TMC3    C410461   2.595   3.554  12.782 -0.0437  0.7777 -0.3126
  704TMC3    C510462   2.711   3.532  12.711 -0.7366  0.1638  0.3688
  704TMC3    C610463   2.717   3.530  12.572 -0.4025 -0.7385 -0.0997
  704TMC3     C10464   2.348   3.587  12.785  0.1994 -0.3594 -0.0926
  704TMC3     O10465   2.357   3.596  12.908 -0.0413  0.0592  0.0296
  704TMC3     H10466   2.398   3.651  12.526  0.4456 -0.9457 -1.2846
  704TMC3    H110467   2.599   3.516  12.884  0.9530  1.8561  0.0585
  704TMC3    H210468   2.804   3.488  12.522  0.6680  2.3656 -0.8470
  704TMC3    C710469   2.791   3.429  12.767  0.5462 -0.5402 -0.4584
  704TMC3    C810470   2.565   3.531  12.374 -0.1810 -0.6152 -0.1318
  704TMC3    O110471   2.740   3.322  12.805 -0.5132 -0.4372 -0.5577
  704TMC3    O210472   2.450   3.513  12.343 -0.7279 -0.4108 -0.5951
  705MPD2     C10473   2.688   1.582  16.590 -0.5519 -0.8334  0.3494
  705MPD2    C110474   2.577   1.637  16.524 -0.7430 -0.0542 -0.3174
  705MPD2    C210475   2.452   1.643  16.590 -0.2782 -0.0453 -0.5240
  705MPD2    C310476   2.441   1.591  16.719  0.0393 -0.2356  0.3077
  705MPD2    C410477   2.555   1.556  16.784 -0.2951 -0.5680  0.3101
  705MPD2    C510478   2.679   1.562  16.723 -0.4418 -0.6452  0.1823
  705MPD2     H10479   2.364   1.678  16.537 -0.7150  1.7596  1.4063
  705MPD2    H110480   2.558   1.521  16.887  1.1906 -1.8052 -0.1603
  705MPD2    H210481   2.786   1.563  16.547  0.2630  0.9218  1.4518
  705MPD2    H310482   2.754   1.518  16.787  1.2854  3.2690  0.8742
  705MPD2     N10483   2.317   1.590  16.777 -0.4221 -0.2736 -0.5572
  705MPD2    H510484   2.242   1.649  16.744 -0.4121  1.3546  2.4025
  705MPD2    N110485   2.589   1.669  16.382 -0.4788 -0.2656 -0.5882
  705MPD2    H710486   2.524   1.729  16.333 -1.9414 -1.7824 -0.4958
  706TMC3    C110487   2.682   1.549  15.956 -0.2033 -0.1401 -0.7699
  706TMC3    C210488   2.597   1.644  15.913  0.2083 -0.7374 -0.1622
  706TMC3    C310489   2.552   1.742  15.995  0.6588  0.7796  0.8938
  706TMC3    C410490   2.734   1.555  16.081  0.1438 -0.4489 -0.8526
  706TMC3    C510491   2.680   1.648  16.162  0.0220 -0.2763  0.0163
  706TMC3    C610492   2.594   1.749  16.121  0.6126  0.4013 -0.9258
  706TMC3     C10493   2.787   1.509  15.872 -0.1282 -0.7691 -0.0161
  706TMC3     O10494   2.901   1.534  15.904  0.2159  0.3320  0.1077
  706TMC3     H10495   2.569   1.648  15.808  0.3894 -0.5865 -0.2035
  706TMC3    H110496   2.810   1.484  16.110  0.1242  0.3017  1.0397
  706TMC3    H210497   2.548   1.810  16.198  0.4272  0.9382 -1.4644
  706TMC3    C710498   2.686   1.613  16.305  0.7683  0.3219 -0.0013
  706TMC3    C810499   2.481   1.855  15.939 -0.4052 -0.1150  0.2412
  706TMC3    O110500   2.764   1.521  16.326  0.1710 -0.6363 -0.2397
  706TMC3    O210501   2.440   1.835  15.826 -0.2268 -0.0572  0.0465
  707TMC3    C110502   3.262   0.129   0.757  0.3163  0.0001  0.3588
  707TMC3    C210503   3.300   0.103   0.630 -0.0707 -0.1387 -0.4219
  707TMC3    C310504   3.257   4.720   0.567 -0.0450 -0.5553 -0.2964
  707TMC3    C410505   3.190   0.042   0.832  0.4440 -0.1609 -0.1115
  707TMC3    C510506   3.162   4.655   0.774  0.5887  0.1614  1.0953
  707TMC3    C610507   3.190   4.628   0.644  0.0019  0.3801 -0.3924
  707TMC3     C10508   3.329   0.245   0.818  0.2058  0.0164 -0.0714
  707TMC3     O10509   3.429   0.285   0.760  0.2852 -0.8895  0.0055
  707TMC3     H10510   3.357   0.167   0.565 -0.1771 -0.1306 -0.5067
  707TMC3    H110511   3.147   0.067   0.929  0.1425  2.5091 -0.9203
  707TMC3    H210512   3.169   4.531   0.600 -3.6436  1.5402 -1.1836
  707TMC3    C710513   3.093   4.551   0.848 -0.5325 -0.1082  0.2649
  707TMC3    C810514   3.347   4.641   0.487  0.1004 -0.1584  0.2710
  707TMC3    O110515   3.016   4.480   0.784  0.0124 -0.3571  0.0938
  707TMC3    O210516   3.306   4.582   0.390 -0.4953  0.0257 -0.1789
  708MPD2     C10517   0.611   0.143  14.024 -0.6415 -0.2293 -0.3000
  708MPD2    C110518   0.514   0.151  14.117 -0.3042  0.0447  0.4380
  708MPD2    C210519   0.529   0.082  14.232  0.0539  0.0648 -0.3512
  708MPD2    C310520   0.638   0.000  14.251  0.3154 -0.1634 -0.5766
  708MPD2    C410521   0.735   4.720  14.156  0.1771  0.4756 -0.6511
  708MPD2    C510522   0.722   0.064  14.041 -0.1305  0.0763  0.2810
  708MPD2     H10523   0.464   0.098  14.317 -0.8026  0.9019 -1.1583
  708MPD2    H110524   0.821   4.656  14.169 -0.9993 -0.9295  0.2202
  708MPD2    H210525   0.615   0.219  13.947  0.3957  0.9394  0.8938
  708MPD2    H310526   0.783   0.067  13.951 -1.7575  0.0735 -0.8091
  708MPD2     N10527   0.645   4.671  14.374 -0.1101 -0.0201 -0.3314
  708MPD2    H510528   0.567   4.692  14.435  1.5354 -0.5402  1.9374
  708MPD2    N110529   0.408   0.240  14.101  0.8107  0.0360 -0.6285
  708MPD2    H710530   0.393   0.284  14.010 -3.8298 -2.6876 -1.1649
  709TMC3    C110531   0.213   0.360  14.163 -0.0168  0.1366  0.1907
  709TMC3    C210532   0.154   0.315  14.051  0.3547  0.2117 -0.1807
  709TMC3    C310533   0.021   0.286  14.053 -0.1746  0.7489 -0.2847
  709TMC3    C410534   0.142   0.408  14.267 -0.1852 -0.5465 -0.2125
  709TMC3    C510535   0.004   0.384  14.270  0.9435 -0.2300  0.1096
  709TMC3    C610536   4.674   0.323  14.164 -0.0153  0.3209 -0.3395
  709TMC3     C10537   0.329   0.282  14.206  0.4461 -0.5081  0.4979
  709TMC3     O10538   0.328   0.262  14.327 -0.3714  0.4458 -0.6330
  709TMC3     H10539   0.211   0.263  13.975 -0.8009 -1.9257  0.4185
  709TMC3    H110540   0.185   0.457  14.354  1.5899 -1.5869 -0.5023
  709TMC3    H210541   4.580   0.272  14.179  0.8566 -1.1685  0.0814
  709TMC3    C710542   4.700   0.320  14.392  0.0970 -0.0620 -0.6752
  709TMC3    C810543   4.714   0.169  13.984  0.7816 -0.2662  0.1479
  709TMC3    O110544   4.580   0.298  14.404 -0.1062  0.2861 -0.0273
  709TMC3    O210545   4.675   0.074  14.049 -0.5038 -0.0918 -0.3119
  710TMC3    C110546   1.402   1.396   0.842  0.4520  0.0899  0.2813
  710TMC3    C210547   1.454   1.284   0.770 -0.7245  0.2534  0.9754
  710TMC3    C310548   1.501   1.180   0.843  0.3680  0.8730  0.1292
  710TMC3    C410549   1.393   1.399   0.980 -0.1860 -0.0101 -0.2303
  710TMC3    C510550   1.439   1.286   1.049  0.1463  0.5429 -0.3384
  710TMC3    C610551   1.490   1.179   0.980 -0.3398 -0.1896  0.3550
  710TMC3     C10552   1.326   1.490   0.760  0.1926  0.3556  0.2516
  710TMC3     O10553   1.266   1.434   0.664  0.2165  0.6116  0.2501
  710TMC3     H10554   1.467   1.282   0.663  3.2443  0.1276  1.4696
  710TMC3    H110555   1.339   1.481   1.025  1.3772  0.1637  1.3430
  710TMC3    H210556   1.540   1.098   1.031 -1.3661 -2.1267 -1.7097
  710TMC3    C710557   1.445   1.284   1.189 -0.0867 -0.0573  0.3566
  710TMC3    C810558   1.565   1.070   0.774 -0.6425 -0.6530  0.1220
  710TMC3    O110559   1.422   1.396   1.239 -0.4116 -0.5645 -0.0764
  710TMC3    O210560   1.590   1.093   0.655 -0.4180  0.4869  0.2057
  711TMC3    C110561   0.973   1.736  15.055  0.3388 -0.3954  0.1140
  711TMC3    C210562   1.025   1.695  15.170 -0.2713 -0.8546 -0.3971
  711TMC3    C310563   1.072   1.796  15.248  0.4636  0.5423 -0.4263
  711TMC3    C410564   0.976   1.870  15.014 -0.4148  0.4609 -0.3238
  711TMC3    C510565   1.041   1.969  15.093  0.4018 -0.4445 -0.2193
  711TMC3    C610566   1.075   1.930  15.219 -0.6492 -0.1280 -0.1135
  711TMC3     C10567   0.936   1.638  14.948  0.2748  0.1479 -0.2021
  711TMC3     O10568   0.849   1.668  14.867  0.3535 -0.1816  0.1429
  711TMC3     H10569   1.024   1.591  15.200 -0.8387 -0.3713  1.3061
  711TMC3    H110570   0.939   1.908  14.920 -1.1672 -1.1343 -0.6723
  711TMC3    H210571   1.085   2.005  15.297 -0.9513 -1.3137  1.0745
  711TMC3    C710572   1.170   2.011  15.040  0.2468  0.2682 -0.2782
  711TMC3    C810573   1.164   1.753  15.356 -0.4996  0.0490 -0.0345
  711TMC3    O110574   1.246   2.053  15.127 -0.4410 -0.1750  0.3791
  711TMC3    O210575   1.136   1.647  15.409  0.0682 -0.6443 -0.1700
  712MPD2     C10576   3.166   3.383  13.397 -0.7520  0.3225  0.2567
  712MPD2    C110577   3.048   3.405  13.455 -0.6332 -0.2009 -0.3824
  712MPD2    C210578   2.994   3.530  13.442 -0.2402  0.0261 -0.2777
  712MPD2    C310579   3.057   3.640  13.374 -0.7638 -0.4330 -0.3866
  712MPD2    C410580   3.180   3.622  13.322 -0.2626 -0.0222 -0.3676
  712MPD2    C510581   3.230   3.491  13.335 -0.2628  0.7347  0.3274
  712MPD2     H10582   2.906   3.553  13.501  1.8645  0.3086  2.7351
  712MPD2    H110583   3.225   3.708  13.275 -0.4426 -0.6610 -1.7205
  712MPD2    H210584   3.200   3.281  13.388  0.2486  0.7765 -1.1325
  712MPD2    H310585   3.323   3.471  13.282  0.1707 -0.2536  1.4739
  712MPD2     N10586   3.015   3.771  13.375 -0.7623  0.4365 -0.7702
  712MPD2    H510587   3.076   3.846  13.344  1.4701 -0.8171  0.6078
  712MPD2    N110588   2.983   3.308  13.533 -0.3016  0.1105 -0.7104
  712MPD2    H710589   2.898   3.334  13.581  0.3625 -2.0738  1.6653
  713TMC3    C110590   2.900   3.952  13.453  0.2008 -0.2835  0.4170
  713TMC3    C210591   2.998   4.029  13.413  0.2722 -0.2174  0.5623
  713TMC3    C310592   2.982   4.167  13.439  0.2562 -0.3674 -0.0786
  713TMC3    C410593   2.794   3.999  13.535 -0.0927 -0.1449  0.2170
  713TMC3    C510594   2.784   4.132  13.549 -0.2626 -0.3906  0.3682
  713TMC3    C610595   2.878   4.222  13.510  0.0001 -0.1520  0.8288
  713TMC3     C10596   2.895   3.807  13.434  0.1748  0.3831 -0.2500
  713TMC3     O10597   2.800   3.745  13.483  0.3718  0.7591 -0.3600
  713TMC3     H10598   3.077   3.998  13.346  1.0747  1.2635  0.8331
  713TMC3    H110599   2.714   3.934  13.571 -1.2688  1.2569  0.1298
  713TMC3    H210600   2.864   4.329  13.517 -1.5995 -0.4790  2.6483
  713TMC3    C710601   2.672   4.179  13.621  0.2735  0.2954 -0.2238
  713TMC3    C810602   3.084   4.257  13.388 -0.0199  0.7682 -0.2144
  713TMC3    O110603   2.584   4.094  13.627 -0.2640  0.1801  0.0719
  713TMC3    O210604   3.077   4.371  13.432  0.0581  0.0394  0.3260
  714MPD2     C10605   4.673   2.376   1.225 -0.6471  0.7251  0.8768
  714MPD2    C110606   4.723   2.281   1.137 -0.4902  0.2512 -1.0454
  714MPD2    C210607   4.639   2.214   1.052 -0.6203  0.1048 -0.8001
  714MPD2    C310608   4.507   2.245   1.038 -0.5274 -0.4044  0.1869
  714MPD2    C410609   4.458   2.340   1.123  0.3194 -0.4818 -0.0537
  714MPD2    C510610   4.539   2.402   1.210 -0.2754 -0.6389 -0.9520
  714MPD2     H10611   4.674   2.131   0.992  0.5371  0.8397 -1.1475
  714MPD2    H110612   4.354   2.368   1.136 -0.1177 -1.7996 -0.7684
  714MPD2    H210613   0.001   2.422   1.302  3.2805  0.2039 -1.9717
  714MPD2    H310614   4.493   2.473   1.277  1.4440 -0.1550 -0.2723
  714MPD2     N10615   4.426   2.168   0.951  0.1841 -0.9119 -0.2711
  714MPD2    H510616   4.464   2.076   0.932 -1.5198 -1.9654  1.5439
  714MPD2    N110617   0.127   2.265   1.134 -0.1000  0.6307 -0.0686
  714MPD2    H710618   0.182   2.322   1.197  0.9077 -0.0845 -0.2959
  715TMC3    C110619   0.348   2.207   1.055 -0.2837  1.0989 -0.4569
  715TMC3    C210620   0.414   2.177   0.944 -0.5758 -0.0454  0.3228
  715TMC3    C310621   0.542   2.208   0.941 -0.8785 -0.2905  0.2963
  715TMC3    C410622   0.404   2.229   1.171  0.1759 -0.0774 -0.4201
  715TMC3    C510623   0.542   2.241   1.170 -0.5311 -0.3013 -1.2135
  715TMC3    C610624   0.610   2.238   1.061 -0.5184 -0.1465 -0.9138
  715TMC3     C10625   0.198   2.184   1.045  0.5050  0.2473 -0.4720
  715TMC3     O10626   0.164   2.120   0.947  0.3968  0.9587  0.1232
  715TMC3     H10627   0.361   2.143   0.856  0.7614 -0.5134 -0.3088
  715TMC3    H110628   0.344   2.232   1.261 -1.0639  0.9653 -1.2831
  715TMC3    H210629   0.714   2.266   1.050  0.3999 -2.8314  1.0224
  715TMC3    C710630   0.624   2.206   1.280 -0.1765 -0.2643  0.3621
  715TMC3    C810631   0.621   2.166   0.831  0.0212  0.0093  0.4282
  715TMC3    O110632   0.743   2.236   1.277  0.1768 -0.0276 -0.7696
  715TMC3    O210633   0.693   2.252   0.786 -0.0898  0.2321 -0.2987
  716MPD2     C10634   0.327   0.618   9.467 -0.0715  1.1787  0.0467
  716MPD2    C110635   0.286   0.620   9.339 -0.8022  0.3753  0.0971
  716MPD2    C210636   0.322   0.524   9.250 -0.6789 -0.0179 -0.3976
  716MPD2    C310637   0.384   0.416   9.291  0.0961  0.6283  0.4480
  716MPD2    C410638   0.437   0.414   9.419  0.1356 -0.1851 -0.3525
  716MPD2    C510639   0.399   0.509   9.506  0.0193  0.0676 -0.5625
  716MPD2     H10640   0.287   0.525   9.148 -2.4298  0.0646  0.2000
  716MPD2    H110641   0.493   0.333   9.464 -1.0608 -0.8152  0.0025
  716MPD2    H210642   0.302   0.688   9.546  1.9398  0.7467  1.0704
  716MPD2    H310643   0.433   0.506   9.608  3.7748 -0.6472 -1.8438
  716MPD2     N10644   0.389   0.303   9.210  0.1773  0.0797 -0.2387
  716MPD2    H510645   0.361   0.317   9.113 -0.8841 -1.5010 -0.1621
  716MPD2    N110646   0.189   0.721   9.303  0.1686  0.1426  0.1513
  716MPD2    H710647   0.160   0.788   9.373  0.1027  0.5642 -0.2733
  717TMC3    C110648   0.446   0.078   9.137  0.4985 -0.5661 -0.2607
  717TMC3    C210649   0.334   0.084   9.055 -0.5698 -0.2145 -0.0365
  717TMC3    C310650   0.309   4.705   8.980 -1.0167 -0.1521  1.0000
  717TMC3    C410651   0.508   4.697   9.173 -0.3973 -0.0567  0.0300
  717TMC3    C510652   0.474   4.590   9.091 -0.4617  0.4853  0.1307
  717TMC3    C610653   0.375   4.591   8.998  0.3684  0.0992 -0.4770
  717TMC3     C10654   0.463   0.187   9.230 -0.7675  0.7131  0.0080
  717TMC3     O10655   0.536   0.161   9.318 -0.1502  0.0588 -0.3014
  717TMC3     H10656   0.256   0.159   9.060  0.6929  1.0712  0.5028
  717TMC3    H110657   0.593   4.701   9.240 -0.7596 -0.1112  0.4907
  717TMC3    H210658   0.352   4.504   8.938  1.0643  0.1239 -0.7893
  717TMC3    C710659   0.552   4.472   9.110  0.2329 -0.5379  0.2296
  717TMC3    C810660   0.203   4.720   8.874 -0.1541 -0.4808 -0.1255
  717TMC3    O110661   0.564   4.392   9.019 -0.3486  0.4778  0.6544
  717TMC3    O210662   0.162   4.618   8.826 -0.7164  0.0667 -0.2078
  718MPD2     C10663   4.607   3.431  12.420  0.0783  0.4502 -0.2489
  718MPD2    C110664   4.493   3.467  12.487  1.2544 -0.4020  0.4231
  718MPD2    C210665   4.381   3.381  12.473 -0.2894  0.4546 -0.3153
  718MPD2    C310666   4.387   3.270  12.391 -0.0625  0.1376  0.2016
  718MPD2    C410667   4.503   3.227  12.342  0.3625  0.6251  0.6178
  718MPD2    C510668   4.614   3.315  12.355 -0.2043 -0.0369 -0.8581
  718MPD2     H10669   4.289   3.415  12.520  0.0473  2.0794 -0.8370
  718MPD2    H110670   4.516   3.134  12.286  0.1378  0.7023  0.4388
  718MPD2    H210671   4.700   3.487  12.417 -0.4524  1.3610  0.5143
  718MPD2    H310672   4.709   3.280  12.316  0.0006 -1.2506  0.7317
  718MPD2     N10673   4.265   3.205  12.376  0.1027 -0.6277  0.2959
  718MPD2    H510674   4.192   3.237  12.438 -1.1497 -0.3406 -1.3220
  718MPD2    N110675   4.500   3.582  12.559 -0.2706  0.0208  1.1175
  718MPD2    H710676   4.584   3.636  12.542  0.5953 -1.4548  0.7566
  719TMC3    C110677   4.395   3.773  12.660 -0.3054  0.2204  0.1220
  719TMC3    C210678   4.269   3.814  12.707  0.2709  0.4660 -0.1168
  719TMC3    C310679   4.234   3.938  12.647  0.8889  0.2060  0.1217
  719TMC3    C410680   4.482   3.843  12.589  0.3671  0.1665 -0.3467
  719TMC3    C510681   4.439   3.965  12.544 -0.1222  0.4226 -0.4245
  719TMC3    C610682   4.314   4.013  12.561 -0.4767  0.0484  0.6059
  719TMC3     C10683   4.398   3.629  12.643 -0.1047  0.9895 -0.0225
  719TMC3     O10684   4.303   3.564  12.679 -0.5260 -0.0622 -0.0058
  719TMC3     H10685   4.201   3.759  12.771  2.0576 -2.7840 -1.0610
  719TMC3    H110686   4.585   3.819  12.567  1.2686  1.8380  2.0805
  719TMC3    H210687   4.283   4.107  12.517 -0.4097  0.2310  0.9496
  719TMC3    C710688   4.534   4.049  12.465  0.4447 -0.3296  0.1200
  719TMC3    C810689   4.101   3.920  12.587  0.1724  0.3184  0.2170
  719TMC3    O110690   4.631   3.993  12.419  0.2576 -0.2926 -0.2056
  719TMC3    O210691   4.042   4.017  12.542  0.4262 -0.3976  0.3493
  720MPD2     C10692   2.743   0.954  13.867 -0.6765  0.0823  0.6292
  720MPD2    C110693   2.838   0.931  13.770 -0.5786  0.3550 -0.2089
  720MPD2    C210694   2.971   0.908  13.804 -0.5230  0.5880 -0.0062
  720MPD2    C310695   3.005   0.886  13.933  0.6016 -0.2041 -0.1989
  720MPD2    C410696   2.910   0.893  14.028 -0.7140  0.1564 -0.0217
  720MPD2    C510697   2.785   0.934  13.998  0.2323  0.3754  0.4723
  720MPD2     H10698   3.039   0.898  13.720  2.2229 -0.7269  2.3976
  720MPD2    H110699   2.929   0.870  14.132 -3.1554  0.4914  0.5019
  720MPD2    H210700   2.645   0.996  13.851 -0.3634  0.3848 -0.4829
  720MPD2    H310701   2.705   0.954  14.069  2.5931  1.5530  2.7735
  720MPD2     N10702   3.137   0.848  13.960  0.7898 -0.1349  0.4572
  720MPD2    H510703   3.200   0.838  13.881 -0.7091 -3.7186 -0.2769
  720MPD2    N110704   2.785   0.933  13.639 -0.0429  0.1595 -0.4574
  720MPD2    H710705   2.685   0.942  13.633 -0.2140  0.9268  3.1790
  721TMC3    C110706   3.314   0.751  14.075 -0.5249 -0.4838  0.0046
  721TMC3    C210707   3.352   0.696  14.199  0.4297  0.4557  0.2562
  721TMC3    C310708   3.475   0.625  14.203 -0.1128 -0.6909 -0.0352
  721TMC3    C410709   3.399   0.746  13.967  0.8096  0.1620  0.2044
  721TMC3    C510710   3.519   0.681  13.980  0.1200  0.2351 -0.2798
  721TMC3    C610711   3.565   0.616  14.094  0.2498 -0.4961 -0.1085
  721TMC3     C10712   3.195   0.833  14.081  0.5043  0.2263 -0.0593
  721TMC3     O10713   3.157   0.870  14.191  0.1010  0.0222  0.2783
  721TMC3     H10714   3.294   0.708  14.289  0.5431  0.4054  0.3358
  721TMC3    H110715   3.384   0.800  13.874 -1.0732  0.6085  0.7467
  721TMC3    H210716   3.665   0.578  14.114 -0.5572 -0.7143  3.4910
  721TMC3    C710717   3.613   0.693  13.865 -0.6867 -0.7168  0.6132
  721TMC3    C810718   3.528   0.568  14.329  0.6817  0.0120 -0.8447
  721TMC3    O110719   3.599   0.781  13.785  0.3139  0.4760  0.2696
  721TMC3    O210720   3.625   0.492  14.312  0.4730  0.0664 -0.5912
  722MPD2     C10721   1.648   3.891  13.605 -0.0216 -0.1037 -0.3096
  722MPD2    C110722   1.642   4.012  13.549 -0.4164 -0.9085  0.1117
  722MPD2    C210723   1.552   4.036  13.451  0.3235  0.9555  0.4305
  722MPD2    C310724   1.453   3.943  13.417  0.8469  1.3611 -0.2459
  722MPD2    C410725   1.445   3.822  13.482 -0.5261 -0.1294  0.5159
  722MPD2    C510726   1.551   3.800  13.570  0.8076 -0.2301  0.0257
  722MPD2     H10727   1.555   4.136  13.410  0.9896 -0.3426 -2.7440
  722MPD2    H110728   1.371   3.742  13.481  0.6525 -1.2111 -0.2427
  722MPD2    H210729   1.729   3.861  13.670 -1.1368 -3.4308 -0.4382
  722MPD2    H310730   1.567   3.699  13.606  1.0299 -0.3454 -0.3911
  722MPD2     N10731   1.349   3.982  13.329  0.0298  0.7256  0.1299
  722MPD2    H510732   1.346   4.071  13.281  2.1657  1.6240  1.6868
  722MPD2    N110733   1.720   4.123  13.587  0.2016  0.3857  0.2016
  722MPD2    H710734   1.709   4.201  13.523  1.6037  0.3063 -0.1256
  723TMC3    C110735   1.150   3.977  13.210  0.4364  0.6599  0.1540
  723TMC3    C210736   1.079   3.917  13.109 -0.4812 -0.2670 -0.5826
  723TMC3    C310737   1.024   3.991  13.008 -0.7858  0.5520  0.0498
  723TMC3    C410738   1.151   4.118  13.210  0.0595  0.1895 -0.4643
  723TMC3    C510739   1.082   4.198  13.111  0.1414  0.5943 -0.2915
  723TMC3    C610740   1.028   4.131  13.000 -0.1353 -0.3140 -0.1630
  723TMC3     C10741   1.239   3.904  13.296 -0.0663 -0.1253 -0.4577
  723TMC3     O10742   1.225   3.781  13.295 -0.4476  0.2742  0.5347
  723TMC3     H10743   1.077   3.809  13.105  2.5498 -0.2723 -1.7377
  723TMC3    H110744   1.195   4.165  13.297  0.6644 -0.0116 -0.6622
  723TMC3    H210745   0.987   4.181  12.913 -2.0381 -1.4164  0.1006
  723TMC3    C710746   1.105   4.341  13.111  0.0466 -0.7297  0.5998
  723TMC3    C810747   0.971   3.917  12.891 -0.2714  0.7744  0.5893
  723TMC3    O110748   1.185   4.386  13.192 -0.3157  0.0983 -0.4406
  723TMC3    O210749   0.883   3.969  12.821 -0.0055  0.7337 -0.3379
  724TMC3    C110750   2.023   1.828  10.372  0.1572  0.8232  0.0634
  724TMC3    C210751   1.924   1.878  10.292 -0.1639  0.7338 -0.2070
  724TMC3    C310752   1.938   1.999  10.236  0.1591 -0.6260  0.5506
  724TMC3    C410753   2.144   1.888  10.377 -0.2122  0.0287 -0.0433
  724TMC3    C510754   2.153   2.004  10.307  0.0027  0.1144 -0.1223
  724TMC3    C610755   2.057   2.061  10.228  0.5239 -0.4706 -0.1062
  724TMC3     C10756   2.002   1.700  10.440  0.0168 -0.3965 -0.2269
  724TMC3     O10757   2.108   1.645  10.461 -0.3803  0.0270 -0.2056
  724TMC3     H10758   1.834   1.820  10.276  2.3669 -3.2354  0.1773
  724TMC3    H110759   2.227   1.846  10.431  0.1114 -1.1015 -1.4131
  724TMC3    H210760   2.074   2.157  10.181 -1.6631 -1.0951 -2.1804
  724TMC3    C710761   2.281   2.077  10.305 -0.4708 -0.1421 -0.4845
  724TMC3    C810762   1.822   2.064  10.180  0.2150 -0.3264  0.1646
  724TMC3    O110763   2.378   2.007  10.325  0.1917 -0.3931  0.0771
  724TMC3    O210764   1.739   1.985  10.141  0.0708  0.0390  0.2793
  725TMC3    C110765   3.349   1.073  12.475 -0.0027  0.1497  0.8255
  725TMC3    C210766   3.405   1.094  12.350  0.0898 -0.4860 -0.2356
  725TMC3    C310767   3.417   0.983  12.272  0.5242 -0.0993 -0.2775
  725TMC3    C410768   3.308   0.949  12.517 -0.2315 -0.3492 -0.3347
  725TMC3    C510769   3.315   0.849  12.421  0.4715 -0.5298  0.1199
  725TMC3    C610770   3.377   0.860  12.298 -0.1670 -0.2961 -0.4461
  725TMC3     C10771   3.332   1.193  12.560  0.2032  0.4826 -0.0243
  725TMC3     O10772   3.353   1.298  12.503 -0.1998 -0.2769  0.3110
  725TMC3     H10773   3.447   1.190  12.324  2.4085 -1.6797 -0.8885
  725TMC3    H110774   3.270   0.929  12.617 -0.8644 -1.4804 -0.8002
  725TMC3    H210775   3.384   0.778  12.227  0.5093 -1.6060  1.1165
  725TMC3    C710776   3.290   0.714  12.464  0.8025 -0.3792  0.4028
  725TMC3    C810777   3.461   0.994  12.133  0.9829 -0.4892 -0.7391
  725TMC3    O110778   3.339   0.624  12.397  0.1605 -0.0482  0.1334
  725TMC3    O210779   3.516   0.895  12.083 -0.0840  0.0876 -0.4719
  726MPD2     C10780   1.121   2.702   9.714 -0.6812 -0.3769  0.4724
  726MPD2    C110781   1.028   2.732   9.812  0.0461 -0.1807  0.1420
  726MPD2    C210782   0.952   2.631   9.855  0.3097  0.4465 -0.3405
  726MPD2    C310783   0.966   2.504   9.798  0.0814 -0.9311  0.3425
  726MPD2    C410784   1.053   2.472   9.699  0.0362  0.2716 -0.1614
  726MPD2    C510785   1.132   2.577   9.660 -0.2540  0.1626  0.3518
  726MPD2     H10786   0.873   2.651   9.927  2.1756  0.1018  1.8106
  726MPD2    H110787   1.061   2.377   9.648 -0.9554  0.8386 -1.3905
  726MPD2    H210788   1.187   2.775   9.668 -0.4914 -1.2970 -0.7190
  726MPD2    H310789   1.216   2.562   9.593 -0.7244 -0.9857  0.0255
  726MPD2     N10790   0.887   2.386   9.839  0.0820 -0.4562 -0.1004
  726MPD2    H510791   0.901   2.297   9.793 -1.4131 -0.7461  0.0361
  726MPD2    N110792   0.999   2.863   9.852 -0.1898  0.0749 -0.4545
  726MPD2    H710793   0.931   2.880   9.925 -1.0086  1.3643 -1.5149
  727TMC3    C110794   1.014   3.090   9.875 -1.0348  0.5346  0.0671
  727TMC3    C210795   1.051   3.111  10.012 -0.0938 -0.6673  0.4153
  727TMC3    C310796   1.027   3.238  10.059 -0.5401  0.0464  0.3794
  727TMC3    C410797   0.991   3.200   9.792  0.3605 -0.1152  0.6615
  727TMC3    C510798   0.953   3.313   9.851  0.0416  0.1867  0.1339
  727TMC3    C610799   0.966   3.331   9.981  0.1610  0.1640  0.4644
  727TMC3     C10800   1.062   2.972   9.806  0.1257  0.2310  0.2530
  727TMC3     O10801   1.123   2.995   9.702 -0.3470  0.1272 -0.0492
  727TMC3     H10802   1.089   3.036  10.079 -1.1296 -1.7655 -0.2303
  727TMC3    H110803   0.997   3.183   9.685 -0.6363  0.4241  0.5209
  727TMC3    H210804   0.934   3.422  10.030  2.2675  0.6030  1.0270
  727TMC3    C710805   0.875   3.421   9.790 -0.0262  0.5207  0.3614
  727TMC3    C810806   1.100   3.281  10.179 -0.4024  0.4562 -0.4535
  727TMC3    O110807   0.843   3.518   9.861 -0.0838 -0.3180 -0.2574
  727TMC3    O210808   1.176   3.198  10.225  0.0240 -0.3937 -0.2288
  728TMC3    C110809   0.183   1.038  15.602  0.4721  0.3770  0.0700
  728TMC3    C210810   0.309   1.002  15.600  0.2447 -0.3447 -0.1861
  728TMC3    C310811   0.377   1.000  15.481  0.1565  0.2158 -0.0705
  728TMC3    C410812   0.125   1.078  15.488 -0.5799 -0.4144 -0.2157
  728TMC3    C510813   0.189   1.074  15.374 -0.2757 -0.0672  1.2480
  728TMC3    C610814   0.318   1.040  15.359 -0.5421 -0.4826 -0.4918
  728TMC3     C10815   0.136   1.103  15.723  0.6419  0.2582  0.6622
  728TMC3     O10816   0.117   1.224  15.724 -0.3832  0.4214  0.3263
  728TMC3     H10817   0.344   0.961  15.694  1.2488 -2.1991 -1.3610
  728TMC3    H110818   0.020   1.102  15.502 -0.1112  1.3010  0.4193
  728TMC3    H210819   0.369   1.037  15.263  1.0472  0.3158  0.3270
  728TMC3    C710820   0.115   1.121  15.258  0.0765  0.6021  0.0334
  728TMC3    C810821   0.524   0.976  15.482  0.0954 -0.7560  0.2350
  728TMC3    O110822   4.729   1.134  15.286 -0.5299 -0.0490 -0.3684
  728TMC3    O210823   0.567   0.934  15.591  0.4674  0.9172  0.4412
  729MPD2     C10824   2.921   2.153  16.590 -0.4771 -0.7922 -0.4763
  729MPD2    C110825   3.056   2.168  16.603  0.1020  0.5629 -0.5203
  729MPD2    C210826   3.113   2.164  16.730  0.0902  0.7599  0.2671
  729MPD2    C310827   3.046   2.161  16.848 -0.2563  0.4663 -0.6238
  729MPD2    C410828   2.911   2.146  16.839  0.0647 -0.2345 -0.6903
  729MPD2    C510829   2.853   2.138  16.711  0.4286  0.9384 -0.5125
  729MPD2     H10830   3.221   2.173  16.727  0.3061 -0.9246  2.6672
  729MPD2    H110831   2.847   2.154  16.926  1.4080 -0.5313  0.3285
  729MPD2    H210832   2.871   2.160  16.494 -0.3179 -0.9767 -0.5713
  729MPD2    H310833   2.745   2.123  16.707  0.3570  0.9683  1.7679
  729MPD2     N10834   3.104   2.186  16.978 -0.1499  0.2518  0.5006
  729MPD2    H510835   3.042   2.171  17.056  1.4814  0.5788  1.8694
  729MPD2    N110836   3.126   2.184  16.480  0.1507 -0.1386 -0.2544
  729MPD2    H710837   3.074   2.192  16.394  0.4408  0.3823 -0.3787
  730TMC3    C110838   3.258   2.288  17.134  0.3151  0.2034  0.3193
  730TMC3    C210839   3.387   2.331  17.151 -0.4578 -0.1303 -0.1985
  730TMC3    C310840   3.401   2.438  17.234 -0.0899 -0.3449 -0.1683
  730TMC3    C410841   3.149   2.344  17.191  0.5807  0.3225  0.4195
  730TMC3    C510842   3.170   2.456  17.274  0.7994  0.4811 -0.3592
  730TMC3    C610843   3.299   2.491  17.315  1.0338  0.4529 -0.4029
  730TMC3     C10844   3.238   2.230  17.001  0.1427 -0.4403  0.4115
  730TMC3     O10845   3.330   2.239  16.922  0.0599  0.1574 -0.0637
  730TMC3     H10846   3.477   2.286  17.111 -1.0205 -0.6752 -0.8448
  730TMC3    H110847   3.046   2.314  17.177  0.1450  1.1104  1.9571
  730TMC3    H210848   3.314   2.579  17.377 -0.8796  0.3122  0.2493
  730TMC3    C710849   3.086   2.571  17.231  0.3381 -0.7182 -0.2283
  730TMC3    C810850   3.482   2.541  17.177  0.1130  0.0333  0.1567
  730TMC3    O110851   3.007   2.555  17.141 -0.1850 -0.2538 -0.3565
  730TMC3    O210852   3.544   2.509  17.075 -0.2717 -0.0378 -0.1127
  731MPD2     C10853   2.527   4.296  12.735  0.7940 -0.4799  0.3471
  731MPD2    C110854   2.447   4.388  12.674  0.7467 -0.6286 -0.7724
  731MPD2    C210855   2.385   4.491  12.750 -0.3536 -0.4744 -0.0100
  731MPD2    C310856   2.413   4.498  12.889  0.6643  0.1683  0.0098
  731MPD2    C410857   2.491   4.402  12.948  0.0246 -0.3131 -0.2408
  731MPD2    C510858   2.554   4.305  12.874  0.3274  0.4056 -0.6006
  731MPD2     H10859   2.343   4.576  12.698  2.3682  0.8089 -0.1304
  731MPD2    H110860   2.528   4.395  13.050  0.3065  0.3104 -0.3018
  731MPD2    H210861   2.570   4.209  12.688  1.8231 -0.0627  0.5279
  731MPD2    H310862   2.615   4.228  12.920  0.4133  0.6888 -0.2472
  731MPD2     N10863   2.375   4.614  12.962  0.1362  0.2629 -0.0529
  731MPD2    H510864   2.337   4.694  12.912 -3.1034 -2.0633 -1.3661
  731MPD2    N110865   2.422   4.365  12.530 -0.8032 -0.3384 -0.3036
  731MPD2    H710866   2.454   4.272  12.503  0.5055 -0.2225  0.8707
  732TMC3    C110867   2.313   4.380  12.313  0.7504 -0.2726  0.2103
  732TMC3    C210868   2.204   4.420  12.239 -0.3947  0.2222 -0.1477
  732TMC3    C310869   2.203   4.387  12.100 -0.5299  1.1423  0.2786
  732TMC3    C410870   2.412   4.299  12.255  0.8715  0.3751  0.0360
  732TMC3    C510871   2.402   4.271  12.119  0.2324  0.1711  0.1127
  732TMC3    C610872   2.300   4.320  12.042 -0.4717  0.3314 -0.3951
  732TMC3     C10873   2.318   4.415  12.455 -0.8218  0.1917  0.1161
  732TMC3     O10874   2.240   4.500  12.490  0.2951  0.1502 -0.0428
  732TMC3     H10875   2.118   4.466  12.286  0.2084  1.0597  0.1438
  732TMC3    H110876   2.494   4.262  12.315 -0.2443  0.3926  1.5883
  732TMC3    H210877   2.301   4.307  11.934  1.1595  0.9403 -0.4528
  732TMC3    C710878   2.518   4.237  12.050 -0.0782 -0.4167 -0.0220
  732TMC3    C810879   2.088   4.424  12.028  0.2469 -0.0516  0.5399
  732TMC3    O110880   2.514   4.200  11.933  0.0929  0.1794  0.0724
  732TMC3    O210881   2.065   4.354  11.927 -0.1741  0.2711  0.1293
  733TMC3    C110882   3.892   3.009  12.314  0.3413 -0.3733  0.2962
  733TMC3    C210883   4.024   3.008  12.340 -0.4791 -0.0048  1.0844
  733TMC3    C310884   4.105   3.094  12.265 -0.2256  0.3283  0.4253
  733TMC3    C410885   3.850   3.112  12.230 -0.1000 -0.1202 -0.5729
  733TMC3    C510886   3.928   3.207  12.170 -0.1622  0.4620  0.3052
  733TMC3    C610887   4.061   3.202  12.194 -0.2928 -0.0350 -0.1656
  733TMC3     C10888   3.803   3.012  12.433  0.3664  0.0097 -0.2433
  733TMC3     O10889   3.699   3.076  12.416  0.9186  0.1180  0.0875
  733TMC3     H10890   4.066   2.934  12.407  1.6168 -1.8831 -2.3079
  733TMC3    H110891   3.749   3.132  12.196 -0.3016 -0.5925 -0.2427
  733TMC3    H210892   4.127   3.278  12.153 -0.6388 -0.3564 -1.3256
  733TMC3    C710893   3.872   3.336  12.202 -0.2197 -0.2198 -1.1823
  733TMC3    C810894   4.244   3.090  12.303 -0.0177 -0.6707 -0.3756
  733TMC3    O110895   3.766   3.360  12.147 -0.2888 -0.6607  0.1198
  733TMC3    O210896   4.314   3.008  12.248  0.5327 -0.2507  0.2689
  734MPD2     C10897   0.892   1.590  12.392  0.6352  0.5014 -0.1116
  734MPD2    C110898   0.836   1.468  12.373 -0.3978  0.4622  0.3584
  734MPD2    C210899   0.866   1.400  12.255  0.4825  0.0131  0.1627
  734MPD2    C310900   0.962   1.448  12.166 -0.0356 -0.1040  0.4518
  734MPD2    C410901   1.029   1.573  12.185  0.5871  0.3110 -0.6580
  734MPD2    C510902   0.983   1.642  12.298 -0.7822 -0.2309 -0.6595
  734MPD2     H10903   0.822   1.301  12.242 -0.8061  0.8469 -1.7594
  734MPD2    H110904   1.110   1.606  12.121  1.3051 -0.6282 -0.2223
  734MPD2    H210905   0.883   1.663  12.471 -1.4281 -2.3160  2.2326
  734MPD2    H310906   1.025   1.740  12.319 -1.3016 -0.3925  1.1922
  734MPD2     N10907   0.982   1.368  12.054  0.4719  0.5270  0.0584
  734MPD2    H510908   0.942   1.275  12.058 -0.4459  0.9928  1.5412
  734MPD2    N110909   0.743   1.411  12.465  0.1703 -0.3056  0.4472
  734MPD2    H710910   0.751   1.449  12.559 -1.8274 -0.5596  0.7019
  735TMC3    C110911   0.616   1.243  12.564 -0.9432  0.1494  1.0860
  735TMC3    C210912   0.518   1.145  12.527  0.2741  0.3865  0.0903
  735TMC3    C310913   0.542   1.008  12.555  1.1252 -0.2679 -0.0622
  735TMC3    C410914   0.731   1.203  12.640 -0.7521 -0.1211 -0.0172
  735TMC3    C510915   0.737   1.068  12.663  0.0794  0.0851  0.4543
  735TMC3    C610916   0.642   0.971  12.637  0.2572 -0.6370 -0.2037
  735TMC3     C10917   0.657   1.312  12.443 -0.5972  0.5456  0.2858
  735TMC3     O10918   0.624   1.247  12.347  0.5101  0.5097 -0.0670
  735TMC3     H10919   0.446   1.183  12.456  2.4073  0.9984 -1.7323
  735TMC3    H110920   0.813   1.271  12.661 -2.2061  0.7726  2.8399
  735TMC3    H210921   0.674   0.868  12.641  1.1076 -0.2164  3.3535
  735TMC3    C710922   0.878   1.027  12.653 -0.7151  0.3467  0.2972
  735TMC3    C810923   0.515   0.925  12.442  0.4502  0.1714  0.0483
  735TMC3    O110924   0.958   1.107  12.611 -0.4457  0.4252  0.0309
  735TMC3    O210925   0.491   0.809  12.457 -0.8137  0.2017  0.0055
  736MPD2     C10926   1.058   0.725  12.751  0.5769  0.5553  0.6021
  736MPD2    C110927   1.015   0.831  12.669  0.0295  0.4379 -0.6056
  736MPD2    C210928   1.083   0.856  12.547 -1.1102 -0.0383  0.2692
  736MPD2    C310929   1.200   0.796  12.516  0.4002  0.2620 -0.2996
  736MPD2    C410930   1.250   0.702  12.603  0.0925 -0.1495  0.6130
  736MPD2    C510931   1.183   0.662  12.715  0.9624 -1.1473  0.1193
  736MPD2     H10932   1.033   0.923  12.479  0.7440  1.6047  0.5255
  736MPD2    H110933   1.343   0.650  12.585  0.9603  1.4929  0.3744
  736MPD2    H210934   0.996   0.682  12.829 -1.3019 -1.6302 -2.0713
  736MPD2    H310935   1.223   0.588  12.784  1.0004 -0.3607  0.9456
  736MPD2     N10936   1.268   0.817  12.394  0.5914 -0.2770  0.2204
  736MPD2    H510937   1.352   0.760  12.390  0.1338 -0.7573 -2.2949
  736MPD2    N110938   0.907   0.905  12.710 -0.0087  0.3972 -0.1871
  736MPD2    H710939   0.839   0.867  12.775  0.8702 -2.0172 -0.6467
  737TMC3    C110940   1.324   0.919  12.188  0.8950  0.2106 -0.6191
  737TMC3    C210941   1.278   1.003  12.088  0.0484 -0.1487 -0.7618
  737TMC3    C310942   1.336   0.990  11.964  0.5008  1.0011 -0.1308
  737TMC3    C410943   1.430   0.842  12.174  0.5933  0.5081 -0.0910
  737TMC3    C510944   1.491   0.842  12.050  0.4073 -0.4342  0.1279
  737TMC3    C610945   1.442   0.908  11.940 -0.2037 -0.1279  0.2895
  737TMC3     C10946   1.240   0.921  12.307  0.5290 -0.1159 -0.8628
  737TMC3     O10947   1.151   1.003  12.316 -0.0752 -0.4295 -0.2897
  737TMC3     H10948   1.219   1.091  12.112 -0.9690 -0.2544 -2.8060
  737TMC3    H110949   1.482   0.792  12.256 -0.0150  1.5422  0.9231
  737TMC3    H210950   1.478   0.904  11.837  0.2709 -0.8247  0.4786
  737TMC3    C710951   1.567   0.728  12.020  0.0798  0.8884  0.0755
  737TMC3    C810952   1.310   1.098  11.867  0.0378  0.0231 -0.3727
  737TMC3    O110953   1.520   0.625  12.067 -0.0338  0.4034  0.0951
  737TMC3    O210954   1.300   1.214  11.907  0.6556 -0.7396  0.0272
  738MPD2     C10955   1.616   3.598  14.385 -0.3190 -0.0618 -0.1664
  738MPD2    C110956   1.604   3.567  14.517  1.0358 -0.2163 -0.3628
  738MPD2    C210957   1.708   3.590  14.601  0.8713 -0.0589  0.2078
  738MPD2    C310958   1.828   3.629  14.552  0.0352 -0.3348  0.6847
  738MPD2    C410959   1.842   3.660  14.419 -0.1798 -0.1568  0.6985
  738MPD2    C510960   1.739   3.641  14.335  0.0954  0.1366  0.5391
  738MPD2     H10961   1.694   3.584  14.708 -0.1601  0.6423  0.1176
  738MPD2    H110962   1.934   3.702  14.382  0.2860 -0.9352  0.9826
  738MPD2    H210963   1.534   3.593  14.314 -0.8446 -1.9209  0.5618
  738MPD2    H310964   1.754   3.675  14.233  1.1820  1.2414  1.0663
  738MPD2     N10965   1.929   3.684  14.643 -0.0908  0.9513 -0.2547
  738MPD2    H510966   1.978   3.766  14.607 -0.1025  1.0297 -0.0905
  738MPD2    N110967   1.491   3.515  14.569 -0.2655  0.3870 -0.2835
  738MPD2    H710968   1.485   3.486  14.667  0.9315 -0.8308 -0.5688
  739TMC3    C110969   2.042   3.702  14.848  0.9617 -0.1838 -0.1420
  739TMC3    C210970   2.117   3.799  14.786 -0.2013  0.7191 -0.2778
  739TMC3    C310971   2.179   3.886  14.865 -0.3665 -0.3518  0.0467
  739TMC3    C410972   2.024   3.697  14.986 -0.0972  0.0877 -0.7500
  739TMC3    C510973   2.103   3.786  15.056 -0.0237 -0.0008 -0.3195
  739TMC3    C610974   2.178   3.884  14.997  0.4302 -0.3248  0.0856
  739TMC3     C10975   1.951   3.625  14.765  0.1305 -0.2867  0.2913
  739TMC3     O10976   1.893   3.530  14.820  0.2665 -0.3458 -0.8778
  739TMC3     H10977   2.133   3.802  14.679  2.2793 -0.1011  0.0488
  739TMC3    H110978   1.951   3.630  15.028 -0.2621  0.0789 -1.0487
  739TMC3    H210979   2.250   3.940  15.055  0.6451 -1.4492  0.9091
  739TMC3    C710980   2.123   3.756  15.196  0.0795 -0.1445  0.6195
  739TMC3    C810981   2.242   4.001  14.803  0.0680 -0.2413  0.0655
  739TMC3    O110982   2.071   3.655  15.237 -0.5391 -0.1196  0.1274
  739TMC3    O210983   2.243   3.992  14.679  0.4196  0.8083 -0.2655
  740TMC3    C110984   2.648   1.041  14.421 -0.3685 -0.8020  0.2695
  740TMC3    C210985   2.706   0.984  14.531 -0.1656 -0.0101 -0.4805
  740TMC3    C310986   2.833   1.017  14.568  0.0959  0.8442 -0.1420
  740TMC3    C410987   2.721   1.131  14.347 -0.4402  0.6507  0.6781
  740TMC3    C510988   2.848   1.160  14.376 -0.5830 -0.4881  0.2533
  740TMC3    C610989   2.908   1.102  14.488  0.0220  0.6064 -0.3642
  740TMC3     C10990   2.526   0.979  14.377  0.2663  0.0891  0.0343
  740TMC3     O10991   2.536   0.954  14.257 -0.5045 -0.4355 -0.0243
  740TMC3     H10992   2.655   0.907  14.588  2.8408 -2.6765 -1.4001
  740TMC3    H110993   2.678   1.168  14.255  1.8541  1.0707 -0.2388
  740TMC3    H210994   3.012   1.126  14.507 -0.2093  1.7695 -0.5738
  740TMC3    C710995   2.954   1.208  14.285  0.4624 -0.2244  0.5062
  740TMC3    C810996   2.889   0.961  14.692  0.1760  0.4887 -0.1543
  740TMC3    O110997   3.067   1.236  14.321  0.2930 -0.4632  0.1059
  740TMC3    O210998   2.808   0.931  14.779 -0.7553  0.4340 -0.5474
  741TMC3    C110999   1.854   4.656  14.484 -0.3087  0.2600 -0.6086
  741TMC3    C211000   1.759   4.627  14.393  1.0452 -0.8629  0.0608
  741TMC3    C311001   1.693   4.509  14.393  0.6642 -0.1955 -0.6659
  741TMC3    C411002   1.888   4.570  14.584 -0.6873  0.0916  1.0744
  741TMC3    C511003   1.825   4.449  14.587 -0.1222  0.5602 -0.6134
  741TMC3    C611004   1.731   4.414  14.487 -0.0543  0.0176 -0.7826
  741TMC3     C11005   1.925   0.050  14.467 -0.4788  0.1122  0.7591
  741TMC3     O11006   1.909   0.118  14.363 -0.2220 -0.0087 -0.0533
  741TMC3     H11007   1.738   4.695  14.312  2.1461  1.0084  1.3602
  741TMC3    H111008   1.964   4.595  14.657 -0.8666  2.1582  0.5621
  741TMC3    H211009   1.682   4.318  14.475  1.6772 -1.1108  1.3024
  741TMC3    C711010   1.853   4.355  14.697  0.3039  0.6469  0.1546
  741TMC3    C811011   1.566   4.513  14.330  0.4625 -0.6137  1.0793
  741TMC3    O111012   1.922   4.402  14.790 -0.9060  0.6764 -0.4730
  741TMC3    O211013   1.524   4.621  14.294  0.2379 -0.5133  0.1220
  742TMC3    C111014   1.989   2.929  15.639 -0.2072 -0.0132 -0.0488
  742TMC3    C211015   1.857   2.949  15.608 -0.1211 -0.0108  0.3273
  742TMC3    C311016   1.825   3.065  15.541  0.2207 -0.0567  0.3747
  742TMC3    C411017   2.089   3.011  15.598  0.3472  0.0589  0.3026
  742TMC3    C511018   2.048   3.126  15.536 -0.8267  0.2962 -0.0386
  742TMC3    C611019   1.916   3.160  15.505  0.7400  0.0050 -0.0151
  742TMC3     C11020   2.030   2.827  15.735 -0.4017 -0.0591  0.3506
  742TMC3     O11021   2.144   2.814  15.773  0.4828 -0.2941  0.2916
  742TMC3     H11022   1.784   2.869  15.612  1.1969 -1.2265 -0.2715
  742TMC3    H111023   2.190   2.987  15.629 -0.1964 -1.6493  0.7473
  742TMC3    H211024   1.893   3.257  15.461  0.8229  0.2288  0.4370
  742TMC3    C711025   2.145   3.221  15.477  0.1393  0.1198  0.3185
  742TMC3    C811026   1.719   3.043  15.452  1.2040 -0.0428 -0.1276
  742TMC3    O111027   2.105   3.334  15.472  0.1672  0.3246  0.1692
  742TMC3    O211028   1.679   2.931  15.420 -0.0567 -0.0536 -0.0099
  743MPD2     C11029   4.021   0.280   1.251 -0.1078 -0.1020 -0.0481
  743MPD2    C111030   4.139   0.282   1.184 -0.6833 -0.2736 -0.0586
  743MPD2    C211031   4.256   0.313   1.251 -0.1974 -0.2666  0.0930
  743MPD2    C311032   4.255   0.352   1.382 -0.5739  0.7894  1.1326
  743MPD2    C411033   4.133   0.349   1.451 -0.2429 -0.2839  0.1620
  743MPD2    C511034   4.018   0.318   1.384 -0.1445  0.0253  0.6194
  743MPD2     H11035   4.351   0.306   1.199 -0.8124 -1.6812 -0.8352
  743MPD2    H111036   4.124   0.377   1.556  0.7550 -0.8374  0.3893
  743MPD2    H211037   3.930   0.262   1.194 -1.0388  2.3817  0.6736
  743MPD2    H311038   3.924   0.326   1.438 -0.5722  2.7287 -0.5284
  743MPD2     N11039   4.378   0.382   1.442 -0.5624 -0.5143  0.1856
  743MPD2    H511040   4.461   0.376   1.384 -0.6309  0.7778 -0.0329
  743MPD2    N111041   4.140   0.238   1.048  0.2425  0.5884  0.0262
  743MPD2    H711042   4.049   0.209   1.016  0.5453  0.2830 -0.5564
  744TMC3    C111043   4.221   0.152   0.834 -0.3524  0.1692 -0.1144
  744TMC3    C211044   4.117   0.071   0.814 -0.0761  0.4983  0.0001
  744TMC3    C311045   4.111   0.001   0.701  1.2123  0.7131 -0.2723
  744TMC3    C411046   4.318   0.166   0.740 -1.1918  0.4304  0.3181
  744TMC3    C511047   4.315   0.099   0.622 -0.0192  0.1491 -0.4704
  744TMC3    C611048   4.214   0.012   0.607 -1.3541 -0.9621 -0.1547
  744TMC3     C11049   4.245   0.229   0.962 -0.0710  0.1961 -0.0194
  744TMC3     O11050   4.358   0.283   0.964 -0.5714 -0.0783  0.1174
  744TMC3     H11051   4.039   0.074   0.889  0.8795 -0.0674  1.0129
  744TMC3    H111052   4.397   0.239   0.753 -0.6285 -0.0681 -0.2833
  744TMC3    H211053   4.198   4.714   0.504 -0.2546  0.8455 -0.8811
  744TMC3    C711054   4.443   0.063   0.560 -0.0775 -0.4203  0.7158
  744TMC3    C811055   3.986   4.669   0.668  0.1053  0.1490 -0.1162
  744TMC3    O111056   4.535   0.137   0.600 -0.7817 -0.2244  0.5344
  744TMC3    O211057   3.910   4.662   0.764  0.2785 -0.3674  0.5131
  745TMC3    C111058   2.899   3.097  13.587  0.5259  0.5634 -0.0271
  745TMC3    C211059   2.809   3.166  13.665  0.1887 -0.5062  0.0085
  745TMC3    C311060   2.674   3.170  13.627 -0.0421 -0.2508  0.3017
  745TMC3    C411061   2.850   3.023  13.477  0.3640  0.1030  0.0528
  745TMC3    C511062   2.724   3.050  13.427  0.2622  0.0437 -0.2889
  745TMC3    C611063   2.634   3.123  13.507  0.1746 -0.3043 -0.0201
  745TMC3     C11064   3.015   3.172  13.545  0.4591 -0.6527  0.4579
  745TMC3     O11065   3.108   3.111  13.498  0.1703  0.1246  0.2063
  745TMC3     H11066   2.848   3.214  13.755 -1.2194  1.1436 -0.2542
  745TMC3    H111067   2.916   2.970  13.410 -0.8995 -2.2507  0.6682
  745TMC3    H211068   2.536   3.138  13.463  0.5303 -0.6118 -0.9221
  745TMC3    C711069   2.739   3.124  13.302  0.4452 -0.3213 -0.1718
  745TMC3    C811070   2.572   3.197  13.730  0.2942  0.3508 -0.0796
  745TMC3    O111071   2.815   3.070  13.225  0.3560 -0.2149 -0.5012
  745TMC3    O211072   2.461   3.154  13.700  0.5784 -0.2029  0.9020
  746TMC3    C111073   4.485   0.245  10.415  0.1081 -0.3176  0.4776
  746TMC3    C211074   4.519   0.211  10.288  0.7956  0.3728  0.0061
  746TMC3    C311075   4.498   0.084  10.251 -0.1740  0.5806 -0.1967
  746TMC3    C411076   4.426   0.158  10.506  0.0586 -0.2218 -0.0177
  746TMC3    C511077   4.396   0.029  10.462 -0.0218  0.2852 -0.8313
  746TMC3    C611078   4.449   4.725  10.343  0.3709 -0.2231 -0.1305
  746TMC3     C11079   4.542   0.362  10.479 -0.6384  0.2321  0.2194
  746TMC3     O11080   4.481   0.403  10.576 -0.2448  0.2983  0.1138
  746TMC3     H11081   4.565   0.283  10.222 -0.7682 -2.7050 -4.4607
  746TMC3    H111082   4.381   0.197  10.596 -0.3140  0.6229 -0.5704
  746TMC3    H211083   4.431   4.623  10.311 -0.8050  0.8112 -2.7404
  746TMC3    C711084   4.312   4.670  10.536 -0.0053 -0.7347  0.0796
  746TMC3    C811085   4.495   0.041  10.109  0.7168  0.4655  0.4618
  746TMC3    O111086   4.315   4.559  10.492 -0.3459  1.1916  1.0435
  746TMC3    O211087   4.439   4.670  10.083 -0.1261 -0.6318 -0.1657
  747TMC3    C111088   2.259   0.709  11.258  0.1306  0.1592 -0.4755
  747TMC3    C211089   2.222   0.617  11.354  0.3267  0.9046 -0.7358
  747TMC3    C311090   2.205   0.680  11.477 -0.4262 -0.0060  0.0024
  747TMC3    C411091   2.260   0.843  11.279  0.4772 -0.1606  0.0811
  747TMC3    C511092   2.250   0.891  11.407  0.3788 -0.5002  0.5414
  747TMC3    C611093   2.221   0.809  11.511 -0.8220  0.3816 -1.1611
  747TMC3     C11094   2.303   0.666  11.133 -0.0189  0.1046  0.1842
  747TMC3     O11095   2.383   0.733  11.072  0.2424  0.0034  0.5100
  747TMC3     H11096   2.218   0.510  11.337 -0.6432  1.3402 -3.1927
  747TMC3    H111097   2.298   0.903  11.197 -1.7280  0.1260 -0.7509
  747TMC3    H211098   2.229   0.853  11.609  1.9610 -2.6309 -0.0403
  747TMC3    C711099   2.241   1.036  11.433 -0.4102 -0.2667 -0.6319
  747TMC3    C811100   2.150   0.599  11.585  0.0569 -0.5346 -0.8956
  747TMC3    O111101   2.179   1.068  11.538  0.0858 -0.1930  0.2314
  747TMC3    O211102   2.184   0.479  11.582 -0.3848 -0.1379  0.3544
  748MPD2     C11103   3.648   0.227   0.161 -0.2564 -0.1019  0.2505
  748MPD2    C111104   3.609   0.319   0.258 -0.0490 -0.7952  0.0033
  748MPD2    C211105   3.704   0.415   0.300 -0.6160 -0.3673  0.1321
  748MPD2    C311106   3.829   0.422   0.239 -0.1548  0.6528 -0.0581
  748MPD2    C411107   3.862   0.327   0.146 -0.5955  0.6412 -0.4585
  748MPD2    C511108   3.775   0.222   0.116 -0.1469 -0.1740  0.1506
  748MPD2     H11109   3.678   0.474   0.386  0.4654 -2.2499  1.7533
  748MPD2    H111110   3.958   0.316   0.097 -0.0302  1.9026  0.3449
  748MPD2    H211111   3.577   0.150   0.135 -0.3513 -0.3110  1.1378
  748MPD2    H311112   3.805   0.133   0.062 -1.4418 -0.8388  0.5253
  748MPD2     N11113   3.912   0.527   0.277  0.4210 -0.4670 -0.3533
  748MPD2    H511114   3.876   0.601   0.337 -3.3782 -2.3639 -0.3231
  748MPD2    N111115   3.480   0.326   0.306 -0.5569  0.6945 -0.4961
  748MPD2    H711116   3.412   0.271   0.254  1.5314 -1.7594 -0.6164
  749TMC3    C111117   4.097   0.684   0.278  0.0239  0.0223 -0.9050
  749TMC3    C211118   4.074   0.713   0.413  1.1748  0.0153  0.4683
  749TMC3    C311119   4.150   0.814   0.466  0.5872 -0.4876 -0.2547
  749TMC3    C411120   4.195   0.743   0.207  0.0194  0.6473 -0.4799
  749TMC3    C511121   4.264   0.844   0.270 -0.3277  0.4851  0.0964
  749TMC3    C611122   4.245   0.892   0.394  0.2790 -0.1736 -0.4940
  749TMC3     C11123   4.034   0.566   0.219 -0.1318  0.5498 -0.0319
  749TMC3     O11124   4.082   0.522   0.112 -0.0528  0.0962 -0.7280
  749TMC3     H11125   4.006   0.669   0.485 -0.2375  0.1055 -0.8251
  749TMC3    H111126   4.221   0.715   0.105  0.0680  1.1149 -0.6005
  749TMC3    H211127   4.281   0.988   0.429  0.0571 -0.5930  0.9010
  749TMC3    C711128   4.339   0.934   0.183  0.3379 -0.0969  0.8567
  749TMC3    C811129   4.110   0.851   0.599  0.2481 -0.1062 -0.0614
  749TMC3    O111130   4.349   1.045   0.233  0.0263 -0.0153 -0.1212
  749TMC3    O211131   3.997   0.838   0.636  1.0360 -0.4353  0.1721
  750MPD2     C11132   4.651   2.106  11.082  0.3913 -0.2181 -0.5047
  750MPD2    C111133   4.529   2.048  11.124  0.7150  0.4265  0.1909
  750MPD2    C211134   4.473   1.952  11.045  0.9034  0.3757 -0.8301
  750MPD2    C311135   4.537   1.910  10.934 -0.0559 -0.5719  0.2015
  750MPD2    C411136   4.657   1.960  10.894  0.3053 -0.0546 -0.0673
  750MPD2    C511137   4.711   2.065  10.970  0.3316 -0.3165  0.8195
  750MPD2     H11138   4.373   1.917  11.067 -0.4297  4.8474  0.1510
  750MPD2    H111139   4.709   1.929  10.804 -1.1190 -2.9377  0.0915
  750MPD2    H211140   4.693   2.188  11.139 -0.7731  0.1779 -0.2038
  750MPD2    H311141   0.056   2.124  10.926  0.0448 -0.1693  0.5008
  750MPD2     N11142   4.481   1.807  10.857 -0.1816  0.5881 -0.0799
  750MPD2    H511143   4.529   1.772  10.775 -1.7366 -0.2169 -0.6658
  750MPD2    N111144   4.470   2.102  11.241 -0.0888  0.1309 -0.0105
  750MPD2    H711145   4.504   2.189  11.279 -1.1438  0.1089  0.9955
  751TMC3    C111146   4.348   1.628  10.808 -0.0768  0.2083  0.6780
  751TMC3    C211147   4.256   1.535  10.858 -0.1734  0.5095 -0.1885
  751TMC3    C311148   4.262   1.416  10.803  0.1064  0.3557  0.1058
  751TMC3    C411149   4.417   1.612  10.694  0.1204 -0.6881 -0.3079
  751TMC3    C511150   4.410   1.486  10.638 -0.7137 -0.0590 -0.6138
  751TMC3    C611151   4.333   1.387  10.689 -0.2930 -0.0251 -0.5689
  751TMC3     C11152   4.361   1.748  10.887  0.0129 -0.6287  0.5858
  751TMC3     O11153   4.268   1.762  10.965  0.3587  0.6962  0.3657
  751TMC3     H11154   4.191   1.553  10.943  0.2468  0.3218  0.1729
  751TMC3    H111155   4.474   1.694  10.653 -2.1681  1.8807  1.6609
  751TMC3    H211156   4.338   1.283  10.659  2.4194  0.7378 -2.7623
  751TMC3    C711157   4.447   1.475  10.499 -0.6653 -0.2262 -0.1962
  751TMC3    C811158   4.184   1.302  10.840 -0.0287  0.5819 -0.0375
  751TMC3    O111159   4.519   1.561  10.452  0.5445 -0.8673 -0.2761
  751TMC3    O211160   4.135   1.227  10.754  0.2559  0.9229  0.1779
  752TMC3    C111161   4.183   1.747  16.547 -0.5769 -0.3953  0.0546
  752TMC3    C211162   4.295   1.676  16.532  0.8424  0.6169 -0.0242
  752TMC3    C311163   4.289   1.548  16.580 -0.1248  0.4182  0.2952
  752TMC3    C411164   4.073   1.705  16.617 -0.3355 -0.6281 -0.0213
  752TMC3    C511165   4.071   1.576  16.660  0.1049 -0.3350 -0.5198
  752TMC3    C611166   4.179   1.495  16.653  0.3456 -0.3546  0.1149
  752TMC3     C11167   4.177   1.862  16.458 -0.0344 -0.1820  0.0048
  752TMC3     O11168   4.270   1.873  16.380 -0.8506  0.9966  0.0441
  752TMC3     H11169   4.383   1.701  16.475  0.9023  3.4927  1.3406
  752TMC3    H111170   3.986   1.769  16.628  0.3507  0.2893  0.0056
  752TMC3    H211171   4.167   1.388  16.665 -1.7297 -0.3560 -1.8400
  752TMC3    C711172   3.961   1.539  16.749  0.1011 -0.1390  1.1332
  752TMC3    C811173   4.394   1.459  16.549  0.5201 -0.9026  0.5752
  752TMC3    O111174   3.881   1.627  16.775 -0.0296 -0.2076 -0.2053
  752TMC3    O211175   4.469   1.493  16.458  0.4825 -0.0798 -0.0342
  753TMC3    C111176   0.874   3.120  13.114 -0.2798 -0.2085  0.2743
  753TMC3    C211177   0.934   3.146  13.236 -0.1817  0.5115  0.0694
  753TMC3    C311178   0.992   3.040  13.305  0.1534 -0.8726  0.2924
  753TMC3    C411179   0.860   2.997  13.059 -0.3658  0.0162  0.2303
  753TMC3    C511180   0.914   2.891  13.129  0.6259 -0.1967  0.3135
  753TMC3    C611181   0.976   2.914  13.253  0.1986 -0.1192  0.3488
  753TMC3     C11182   0.825   3.233  13.035 -0.6652  0.2003  0.2244
  753TMC3     O11183   0.789   3.211  12.919 -0.4289  0.7943 -0.6122
  753TMC3     H11184   0.973   3.244  13.259 -0.1210  0.2830  0.9787
  753TMC3    H111185   0.805   2.984  12.966  0.9853 -0.4194 -0.5022
  753TMC3    H211186   1.013   2.827  13.305  0.8855 -2.1021 -3.4573
  753TMC3    C711187   0.907   2.756  13.070  0.1839  0.2924  0.6018
  753TMC3    C811188   1.035   3.063  13.447  0.8662  0.1484  1.1941
  753TMC3    O111189   0.855   2.739  12.959 -0.2069 -0.2655  0.1725
  753TMC3    O211190   1.092   2.976  13.513  0.2702 -0.2080  0.5611
  754MPD2     C11191   3.798   2.414  13.095  0.0311  0.8302  0.3504
  754MPD2    C111192   3.785   2.282  13.135 -0.1622  0.3133  0.2810
  754MPD2    C211193   3.691   2.202  13.076 -0.2656 -0.6768  0.1757
  754MPD2    C311194   3.604   2.254  12.983 -0.3229 -0.3199 -0.0656
  754MPD2    C411195   3.621   2.386  12.943 -0.1547  0.0851  0.0104
  754MPD2    C511196   3.709   2.465  13.006 -0.5070 -0.6476 -0.2648
  754MPD2     H11197   3.669   2.099  13.100  0.2758 -1.0137 -0.7788
  754MPD2    H111198   3.546   2.426  12.875 -0.6850 -0.7993  0.0679
  754MPD2    H211199   3.878   2.478  13.129  1.1931 -0.3724 -0.1334
  754MPD2    H311200   3.721   2.569  12.975  0.6893 -0.8404 -0.4233
  754MPD2     N11201   3.493   2.187  12.923  0.6834  0.5902 -0.8835
  754MPD2    H511202   3.434   2.246  12.865 -0.7258  0.1231  0.0815
  754MPD2    N111203   3.866   2.242  13.251  0.3101  0.6920 -1.0976
  754MPD2    H711204   3.937   2.305  13.287 -1.6235  2.3936 -0.1981
  755MPD2     C11205   2.719   2.472  13.013  0.2618 -1.0473  0.1192
  755MPD2    C111206   2.712   2.342  13.054 -0.6904  0.2739 -0.3472
  755MPD2    C211207   2.796   2.247  12.996 -0.0023  0.2390 -0.2268
  755MPD2    C311208   2.912   2.302  12.928  0.2806  0.3371 -0.5602
  755MPD2    C411209   2.934   2.435  12.924  0.2270  0.2342  0.1577
  755MPD2    C511210   2.836   2.519  12.969 -0.2289 -0.8888  0.2969
  755MPD2     H11211   2.781   2.141  13.006 -0.7393  0.4761  1.1643
  755MPD2    H111212   3.029   2.467  12.884  0.0770  1.2940  0.6285
  755MPD2    H211213   2.638   2.533  13.052  1.5801  0.1932  0.9414
  755MPD2    H311214   2.847   2.625  12.951  0.4044 -0.7819  1.3535
  755MPD2     N11215   3.016   2.224  12.885 -0.0304  0.2408 -0.0105
  755MPD2    H511216   3.107   2.261  12.862  0.1363 -1.2804 -1.8234
  755MPD2    N111217   2.608   2.314  13.140  0.3674 -0.5746 -0.2737
  755MPD2    H711218   2.556   2.392  13.180  1.5415 -0.2016  0.5060
  756MPD2     C11219   3.848   2.411   9.275 -0.2277 -0.1841 -0.5638
  756MPD2    C111220   3.802   2.412   9.406 -0.5285  0.4310  0.4516
  756MPD2    C211221   3.667   2.428   9.432  0.4201 -0.3120 -0.2119
  756MPD2    C311222   3.573   2.438   9.331 -1.0552  0.0339 -0.2727
  756MPD2    C411223   3.613   2.436   9.200 -0.0519 -0.1651 -0.0849
  756MPD2    C511224   3.748   2.417   9.175 -0.2803  0.1628  0.1390
  756MPD2     H11225   3.640   2.436   9.537  1.5060  1.9857 -0.1113
  756MPD2    H111226   3.545   2.444   9.116 -1.0077  0.5406  0.7425
  756MPD2    H211227   3.954   2.401   9.251 -0.8885 -1.7612 -2.8603
  756MPD2    H311228   3.790   2.407   9.076  0.3480  1.2054  0.2909
  756MPD2     N11229   3.440   2.445   9.367  0.2851 -0.4716 -0.1043
  756MPD2    H511230   3.423   2.431   9.466  2.5356  0.7200  0.4592
  756MPD2    N111231   3.886   2.405   9.519  0.1524 -0.1397  0.1366
  756MPD2    H711232   3.849   2.412   9.613 -1.3959  1.6158 -0.6073
  757MPD2     C11233   3.246   1.761   9.727 -0.0601  0.3458 -0.1497
  757MPD2    C111234   3.346   1.841   9.682 -0.2085  0.3010 -0.0483
  757MPD2    C211235   3.315   1.974   9.671  1.4535  0.4023 -0.2282
  757MPD2    C311236   3.190   2.025   9.677  0.1304 -0.1180  0.0027
  757MPD2    C411237   3.086   1.943   9.708  0.9300  0.9308 -0.2439
  757MPD2    C511238   3.123   1.815   9.739 -0.0136  0.1470 -0.1795
  757MPD2     H11239   3.394   2.039   9.636  0.8085  1.2172 -0.1870
  757MPD2    H111240   2.982   1.974   9.717  0.4785 -0.4563 -0.6709
  757MPD2    H211241   3.272   1.659   9.750 -0.1151  0.0559 -1.3447
  757MPD2    H311242   3.043   1.744   9.759 -0.9568  1.6222  1.2891
  757MPD2     N11243   3.169   2.156   9.624  0.1903 -0.1674 -0.1720
  757MPD2    H511244   3.257   2.208   9.622  1.1832 -1.7812  1.8633
  757MPD2    N111245   3.467   1.780   9.653 -0.0346  0.1395 -0.3101
  757MPD2    H711246   3.472   1.679   9.661  0.0838  0.1520 -0.2254
  758MPD2     C11247   0.058   1.485  15.964 -1.0564  0.5098  0.2217
  758MPD2    C111248   0.150   1.409  16.041  0.3180  0.1221  0.6466
  758MPD2    C211249   0.134   1.400  16.178 -0.2361  0.1035 -0.2895
  758MPD2    C311250   0.041   1.478  16.245 -0.2463  0.0474  0.2748
  758MPD2    C411251   4.683   1.545  16.168 -0.1704  0.4106 -0.2616
  758MPD2    C511252   4.691   1.538  16.031 -0.1329  0.1873 -0.1667
  758MPD2     H11253   0.193   1.334  16.240  4.5471  2.0104 -2.8423
  758MPD2    H111254   4.620   1.620  16.214 -0.7660  0.5918 -1.3885
  758MPD2    H211255   0.055   1.489  15.856  1.0539  0.9281  0.1702
  758MPD2    H311256   4.627   1.605  15.974  0.7504  0.0712 -1.2747
  758MPD2     N11257   0.032   1.483  16.384  0.4663 -0.4948 -0.3722
  758MPD2    H511258   4.687   1.532  16.423  2.6054  1.9070  0.9365
  758MPD2    N111259   0.248   1.338  15.968 -0.2677 -0.0474  0.4340
  758MPD2    H711260   0.237   1.338  15.867 -0.5599 -0.1810  0.4674
  759MPD2     C11261   3.278   0.209   9.748  0.1364  0.0186 -0.0822
  759MPD2    C111262   3.395   0.153   9.741  0.7743  0.0351 -0.4982
  759MPD2    C211263   3.489   0.203   9.651 -0.4451  0.5993 -0.6238
  759MPD2    C311264   3.465   0.305   9.563 -0.2072  0.3654 -0.5035
  759MPD2    C411265   3.339   0.359   9.566 -0.5182  0.1347  0.0454
  759MPD2    C511266   3.255   0.320   9.669  0.8530  0.4517  0.5115
  759MPD2     H11267   3.587   0.158   9.649  0.2846  2.1577 -0.1302
  759MPD2    H111268   3.308   0.440   9.502  0.8559  0.5388 -0.0929
  759MPD2    H211269   3.205   0.184   9.823  0.6421 -1.0147  0.0694
  759MPD2    H311270   3.162   0.373   9.687  1.6030  1.6370  0.8788
  759MPD2     N11271   3.571   0.363   9.487  0.0351  0.2032  0.0040
  759MPD2    H511272   3.667   0.344   9.514  0.0343  0.7938  0.4359
  759MPD2    N111273   3.432   0.034   9.805 -0.2271 -0.0431  0.3382
  759MPD2    H711274   3.522   4.727   9.780 -1.9110 -1.9104 -2.5665
  760MPD2     C11275   2.462   1.988  11.413  0.6749 -0.3451 -0.2054
  760MPD2    C111276   2.582   1.993  11.485 -0.0026  0.4649  0.4090
  760MPD2    C211277   2.654   1.886  11.511  0.0698 -0.7779 -0.1520
  760MPD2    C311278   2.607   1.763  11.472 -0.2439  0.3814  0.4438
  760MPD2    C411279   2.495   1.748  11.401  0.1273 -0.4040 -0.6491
  760MPD2    C511280   2.428   1.858  11.371  0.2263  0.6347 -0.1342
  760MPD2     H11281   2.748   1.900  11.563 -0.4557 -0.8155  0.8085
  760MPD2    H111282   2.466   1.650  11.364 -2.9744  0.3145 -0.0954
  760MPD2    H211283   2.395   2.070  11.389  1.1304  0.7083  2.1043
  760MPD2    H311284   2.343   1.832  11.309  2.1916 -2.9029 -1.3491
  760MPD2     N11285   2.692   1.648  11.494  0.0574  0.4435 -0.1612
  760MPD2    H511286   2.675   1.566  11.437 -0.2300 -0.8063  1.7087
  760MPD2    N111287   2.629   2.115  11.533  0.4724 -0.4431  0.1200
  760MPD2    H711288   2.720   2.118  11.577  0.0470 -1.4151  1.0548
  761MPD2     C11289   4.018   0.973  11.185  0.4103 -0.2575 -0.0974
  761MPD2    C111290   4.023   0.957  11.048  1.3277 -0.4389  0.4102
  761MPD2    C211291   4.076   1.066  10.982 -0.0515 -0.3801 -0.2030
  761MPD2    C311292   4.113   1.188  11.045  0.5437 -0.0848  0.2308
  761MPD2    C411293   4.092   1.200  11.181 -0.7857 -0.2854 -0.7010
  761MPD2    C511294   4.036   1.094  11.249 -0.1180  0.4872  0.1746
  761MPD2     H11295   4.084   1.055  10.875  0.0330  0.4510 -0.2871
  761MPD2    H111296   4.109   1.285  11.246 -0.9354 -0.6029 -0.2545
  761MPD2    H211297   3.971   0.895  11.243 -3.3917  0.3629 -2.3773
  761MPD2    H311298   4.017   1.099  11.355  4.5334  0.5699  1.0073
  761MPD2     N11299   4.166   1.297  10.976  0.2751 -1.0288 -0.0605
  761MPD2    H511300   4.201   1.370  11.038  2.2044  0.0226 -2.4145
  761MPD2    N111301   3.981   0.840  10.982  0.2449 -0.0112 -0.6374
  761MPD2    H711302   3.958   0.760  11.041 -1.6562  0.3550 -0.8810
  762MPD2     C11303   4.083   0.234  10.271 -0.3443 -0.6152 -0.0260
  762MPD2    C111304   4.104   0.359  10.319 -0.1779  0.2335 -0.2440
  762MPD2    C211305   4.200   0.443  10.254  0.0461 -0.2758  0.1105
  762MPD2    C311306   4.272   0.395  10.144  0.0177 -0.9490  0.0552
  762MPD2    C411307   4.238   0.270  10.097  0.0720  0.9213  0.3072
  762MPD2    C511308   4.154   0.187  10.169 -0.7149 -0.2784  0.5431
  762MPD2     H11309   4.217   0.547  10.281  1.5557 -0.0084 -1.8902
  762MPD2    H111310   4.270   0.230  10.002 -1.1760 -0.8748  0.6412
  762MPD2    H211311   4.002   0.170  10.304 -0.0416 -0.4283  1.0891
  762MPD2    H311312   4.145   0.091  10.119  0.3649 -0.4123  0.6064
  762MPD2     N11313   4.378   0.468  10.080 -0.1836  0.0557 -0.9107
  762MPD2    H511314   4.422   0.420  10.002 -0.2920 -0.1484 -0.8475
  762MPD2    N111315   4.036   0.403  10.441 -0.2842 -0.0604  0.1326
  762MPD2    H711316   3.955   0.347  10.466 -2.8845  3.5809 -0.1252
  763MPD2     C11317   1.606   0.930  16.524  0.3434 -0.6104  0.2902
  763MPD2    C111318   1.638   0.999  16.411  0.5196  0.1157  0.9509
  763MPD2    C211319   1.678   1.131  16.429  0.3534 -0.3314  0.0587
  763MPD2    C311320   1.684   1.190  16.550  0.5274 -0.0338  0.1616
  763MPD2    C411321   1.636   1.126  16.661  0.6759  0.1234 -0.7504
  763MPD2    C511322   1.595   0.994  16.652 -0.0523  0.6913 -0.4516
  763MPD2     H11323   1.713   1.186  16.342 -0.0525 -0.0953  0.0442
  763MPD2    H111324   1.630   1.175  16.758 -2.0131 -1.2377 -0.2115
  763MPD2    H211325   1.572   0.827  16.526  0.5383 -0.6736  0.3679
  763MPD2    H311326   1.570   0.930  16.736 -0.3384  1.6806  0.2063
  763MPD2     N11327   1.741   1.321  16.556  0.4167 -0.2984  0.1041
  763MPD2    H511328   1.787   1.349  16.470  1.4883 -1.8329  0.1904
  763MPD2    N111329   1.614   0.957  16.277 -0.3380 -0.1135 -0.2898
  763MPD2    H711330   1.625   1.033  16.210  1.4280 -0.4418 -0.3524
  764MPD2     C11331   4.023   2.722   0.041 -0.0979  0.4945 -0.6172
  764MPD2    C111332   3.957   2.840   0.009  0.4051  0.1506 -0.3851
  764MPD2    C211333   3.944   2.940   0.102  0.1875  0.2894 -0.1865
  764MPD2    C311334   3.996   2.931   0.231 -0.7729 -0.3773  0.1233
  764MPD2    C411335   4.068   2.819   0.261  0.5266  0.1434 -0.1994
  764MPD2    C511336   4.078   2.719   0.167  0.2911  0.1532 -0.1759
  764MPD2     H11337   3.883   3.025   0.075 -1.5799 -0.4351  1.5233
  764MPD2    H111338   4.116   2.796   0.355 -1.1429 -1.1982  0.3291
  764MPD2    H211339   4.043   2.632  17.720 -1.1386 -0.5863  0.7584
  764MPD2    H311340   4.126   2.626   0.194 -0.9057 -1.0980 -2.3562
  764MPD2     N11341   3.965   3.036   0.317  0.2706  0.2887  0.3492
  764MPD2    H511342   3.905   3.115   0.294 -1.0454 -1.4196 -2.0948
  764MPD2    N111343   3.891   2.854  17.624  0.2183 -0.5804  0.3323
  764MPD2    H711344   3.828   2.933  17.614  1.6154  0.7856  2.3078
  765MPD2     C11345   3.811   0.855  16.269 -0.0616 -0.6469  0.5755
  765MPD2    C111346   3.915   0.936  16.232 -0.6062  0.1119 -0.4413
  765MPD2    C211347   4.036   0.914  16.295 -0.1693 -0.5468 -0.4674
  765MPD2    C311348   4.053   0.807  16.387 -0.1675  0.2176  0.4565
  765MPD2    C411349   3.942   0.719  16.406 -0.1605 -0.4810 -1.0506
  765MPD2    C511350   3.818   0.742  16.348  0.1293  0.3026 -0.2058
  765MPD2     H11351   4.115   0.983  16.269 -0.3656  1.1383  3.3977
  765MPD2    H111352   3.936   0.640  16.480 -0.6020 -2.9100 -3.6872
  765MPD2    H211353   3.716   0.877  16.221  1.3204  0.8011 -1.4875
  765MPD2    H311354   3.732   0.679  16.366  1.4488 -1.2703  0.6552
  765MPD2     N11355   4.183   0.788  16.446  0.4669  0.5330  0.6049
  765MPD2    H511356   4.255   0.853  16.417  0.8484 -0.8674 -1.5814
  765MPD2    N111357   3.897   1.037  16.136 -0.0286  0.0288 -0.4271
  765MPD2    H711358   3.800   1.061  16.122 -0.7941 -2.6524  0.3005
  766MPD2     C11359   3.534   0.971  15.601  0.0263 -0.7875  0.0050
  766MPD2    C111360   3.650   1.048  15.595 -0.5144  0.3143 -0.2915
  766MPD2    C211361   3.721   1.054  15.478 -0.0081 -0.6957  0.6227
  766MPD2    C311362   3.668   0.991  15.361 -0.0506 -0.3261 -0.5756
  766MPD2    C411363   3.559   0.915  15.380 -0.3292  0.0306  0.1150
  766MPD2    C511364   3.490   0.900  15.494  0.4242  0.1217  0.4455
  766MPD2     H11365   3.810   1.117  15.475 -0.6249  0.2871  2.9629
  766MPD2    H111366   3.522   0.853  15.299  1.6238 -1.2707  0.2179
  766MPD2    H211367   3.470   0.969  15.688 -0.0554 -3.7596 -0.1293
  766MPD2    H311368   3.401   0.838  15.488 -1.3555  2.5670  1.7011
  766MPD2     N11369   3.711   1.016  15.231  0.4647 -0.6270  0.1145
  766MPD2    H511370   3.654   0.973  15.160 -2.0669 -0.4327  2.0254
  766MPD2    N111371   3.692   1.122  15.705 -0.6074  0.4950  0.1402
  766MPD2    H711372   3.661   1.096  15.798  1.1054 -0.3989  0.4585
  767MPD2     C11373   3.501   1.321  15.418  0.7655  0.7344  0.5837
  767MPD2    C111374   3.582   1.373  15.314 -0.2007  0.1917  0.0172
  767MPD2    C211375   3.544   1.365  15.181  0.2668  0.0988  0.0287
  767MPD2    C311376   3.420   1.320  15.151 -0.3287 -0.4332 -0.7726
  767MPD2    C411377   3.336   1.285  15.248  0.3964 -0.4527  0.6362
  767MPD2    C511378   3.372   1.288  15.383  0.8300 -1.0257 -0.2853
  767MPD2     H11379   3.605   1.413  15.106  0.4566 -0.7618 -0.3640
  767MPD2    H111380   3.230   1.273  15.230  0.3941  0.8141 -0.2009
  767MPD2    H211381   3.536   1.325  15.520  0.0910 -1.8139  0.9119
  767MPD2    H311382   3.312   1.242  15.460 -0.2491  2.7910  1.1562
  767MPD2     N11383   3.377   1.326  15.014 -0.4537  0.0961  0.0380
  767MPD2    H511384   3.449   1.325  14.944 -1.0648 -1.4227 -0.5658
  767MPD2    N111385   3.703   1.433  15.357  0.6453 -0.5061  0.5336
  767MPD2    H711386   3.723   1.421  15.456  1.5521  1.0885  0.5438
  768MPD2     C11387   4.280   3.925  10.342 -0.2737 -0.6011 -0.5177
  768MPD2    C111388   4.229   3.970  10.464  0.0618  0.4815  0.5082
  768MPD2    C211389   4.317   3.969  10.565  0.7569  0.5411  0.0733
  768MPD2    C311390   4.453   3.952  10.546 -0.2554  0.1505 -0.2345
  768MPD2    C411391   4.494   3.910  10.420 -0.0309  0.1146  0.7173
  768MPD2    C511392   4.410   3.890  10.317  0.6879 -0.0045  0.5280
  768MPD2     H11393   4.282   4.005  10.661 -0.5627  0.5024 -0.3944
  768MPD2    H111394   4.600   3.900  10.396 -0.4952 -0.3421 -1.1172
  768MPD2    H211395   4.211   3.923  10.259  1.2725 -2.4559 -1.7647
  768MPD2    H311396   4.444   3.872  10.216 -0.8440  1.9643 -0.3369
  768MPD2     N11397   4.555   3.970  10.636 -0.0211  0.6838  0.1870
  768MPD2    H511398   4.649   3.955  10.602  0.2564  0.5483  1.0088
  768MPD2    N111399   4.104   4.029  10.476 -0.8706  0.5544 -0.5640
  768MPD2    H711400   4.074   4.071  10.564  0.3191  0.9589 -0.3570
  769MPD2     C11401   0.862   2.301  14.749 -0.1427  0.3084  0.0417
  769MPD2    C111402   0.747   2.375  14.777  0.2634 -0.3141 -1.1880
  769MPD2    C211403   0.732   2.404  14.914  0.2890 -0.0757 -0.6261
  769MPD2    C311404   0.809   2.347  15.018  0.2046 -0.1068 -0.2506
  769MPD2    C411405   0.917   2.276  14.984  0.1126  0.3984 -0.1279
  769MPD2    C511406   0.939   2.253  14.854 -0.1804  0.3545  0.9337
  769MPD2     H11407   0.652   2.470  14.944  1.5038  1.9156 -1.7918
  769MPD2    H111408   0.995   2.243  15.051 -2.3114 -0.2203  2.3937
  769MPD2    H211409   0.903   2.283  14.650  0.2219  0.1490  0.2232
  769MPD2    H311410   1.033   2.206  14.828  0.6978  1.9686  1.1874
  769MPD2     N11411   0.798   2.388  15.148 -0.1855 -0.2848  0.9549
  769MPD2    H511412   0.717   2.442  15.176 -2.3780 -3.3079  0.4402
  769MPD2    N111413   0.651   2.413  14.675 -0.5054  0.0946  0.6396
  769MPD2    H711414   0.680   2.376  14.585 -0.8895 -1.1053  1.0054
  770MPD2     C11415   4.579   2.064  14.729 -0.2818 -0.2573  0.2827
  770MPD2    C111416   4.711   2.035  14.735  0.6503  0.5495  0.2771
  770MPD2    C211417   0.066   2.142  14.711 -1.1450 -0.2665  0.4250
  770MPD2    C311418   0.023   2.266  14.676  0.4649 -0.4950 -0.1964
  770MPD2    C411419   4.625   2.292  14.677  0.3112  0.3743  0.7534
  770MPD2    C511420   4.542   2.194  14.707 -0.0045 -0.2351 -0.2548
  770MPD2     H11421   0.172   2.122  14.703 -1.2819 -1.6503  2.2368
  770MPD2    H111422   4.593   2.392  14.652  1.5475 -0.0187 -2.4911
  770MPD2    H211423   4.501   1.989  14.736 -0.3908 -0.3914 -2.6273
  770MPD2    H311424   4.435   2.216  14.710  0.0766  0.4414 -2.4671
  770MPD2     N11425   0.125   2.364  14.657 -0.6507 -1.0502 -0.0274
  770MPD2    H511426   0.217   2.323  14.658  0.6267  1.7995 -1.0573
  770MPD2    N111427   0.013   1.902  14.755 -0.2812 -0.1818 -0.0332
  770MPD2    H711428   4.671   1.835  14.760 -0.3275 -0.2959 -2.3607
  771MPD2     C11429   1.752   0.546  13.707 -0.5338  0.4738  0.0916
  771MPD2    C111430   1.680   0.638  13.638 -0.1498  0.2121  0.3053
  771MPD2    C211431   1.556   0.597  13.595 -0.4636  0.1278 -0.2391
  771MPD2    C311432   1.492   0.476  13.626  0.6030 -0.5354  0.1929
  771MPD2    C411433   1.563   0.389  13.710 -0.2607 -0.2538 -0.1659
  771MPD2    C511434   1.694   0.421  13.743  0.7133  0.3143 -0.6916
  771MPD2     H11435   1.503   0.658  13.523 -1.2698 -0.4985 -0.1869
  771MPD2    H111436   1.513   0.296  13.735 -2.9500  0.9351 -1.0308
  771MPD2    H211437   1.853   0.565  13.741 -0.3483 -1.0576  0.3712
  771MPD2    H311438   1.742   0.341  13.799 -0.5092 -1.0914 -1.6458
  771MPD2     N11439   1.369   0.445  13.564  0.1368 -0.9019 -0.0007
  771MPD2    H511440   1.336   0.513  13.497  2.4598 -0.8283 -1.0864
  771MPD2    N111441   1.715   0.775  13.625  0.4239 -0.4274  0.1494
  771MPD2    H711442   1.642   0.818  13.569  1.0705  1.1249  0.4989
  772MPD2     C11443   1.377   1.356  13.446  0.0224 -0.1595  0.4978
  772MPD2    C111444   1.364   1.265  13.546  0.3041  0.0525 -1.0113
  772MPD2    C211445   1.240   1.229  13.595  0.1702  0.4125  0.5773
  772MPD2    C311446   1.119   1.290  13.546 -0.1089  0.2800 -0.3049
  772MPD2    C411447   1.136   1.374  13.438 -0.3777  0.9177  0.4064
  772MPD2    C511448   1.259   1.414  13.397 -0.6961 -0.7304 -0.5414
  772MPD2     H11449   1.224   1.174  13.687  1.0464 -0.2052  0.3524
  772MPD2    H111450   1.060   1.419  13.376 -1.9784 -2.5251 -0.1294
  772MPD2    H211451   1.471   1.379  13.397 -0.3099 -1.4869 -0.7944
  772MPD2    H311452   1.273   1.484  13.316 -0.3721  1.2360  1.2018
  772MPD2     N11453   0.985   1.268  13.591  0.2119 -0.4262  0.0701
  772MPD2    H511454   0.904   1.314  13.550  0.3664 -1.0388 -0.9120
  772MPD2    N111455   1.477   1.198  13.606 -0.2534  0.0050 -0.4429
  772MPD2    H711456   1.464   1.127  13.678 -0.4441  1.9508  1.4621
  773MPD2     C11457   0.487   1.708   0.188  0.6243 -0.1700 -0.4701
  773MPD2    C111458   0.467   1.611   0.097  0.6604  0.1834  0.0428
  773MPD2    C211459   0.520   1.485   0.116 -0.0643  0.4226  0.6130
  773MPD2    C311460   0.576   1.457   0.243 -0.2896  0.5990 -0.0821
  773MPD2    C411461   0.590   1.551   0.336 -0.3386  0.1521  0.7952
  773MPD2    C511462   0.547   1.674   0.303  0.4560 -0.5201  0.1299
  773MPD2     H11463   0.521   1.403   0.045  3.0561  0.7173  0.3136
  773MPD2    H111464   0.654   1.542   0.423  1.7012  0.0382 -0.7378
  773MPD2    H211465   0.443   1.807   0.177 -0.1908 -0.6684 -1.6773
  773MPD2    H311466   0.575   1.759   0.364  1.2674 -0.1708 -0.7296
  773MPD2     N11467   0.621   1.320   0.262 -0.5532 -0.8987 -0.1127
  773MPD2    H511468   0.593   1.249   0.195 -1.5751 -0.6799  0.0807
  773MPD2    N111469   0.400   1.635  17.709 -0.2580  0.5929  0.1789
  773MPD2    H711470   0.392   1.551  17.653  2.4277  1.1488 -1.0422
  774MPD2     C11471   3.855   1.362  13.759  0.0905 -0.3514 -0.5686
  774MPD2    C111472   3.974   1.393  13.692  0.5869 -0.1755 -0.2933
  774MPD2    C211473   3.989   1.523  13.647 -0.2368  0.6260  0.4665
  774MPD2    C311474   3.901   1.621  13.685 -0.0355 -0.8238 -0.8381
  774MPD2    C411475   3.786   1.591  13.764  0.3442  0.0344  0.0509
  774MPD2    C511476   3.772   1.466  13.800  0.0452 -0.7092  0.7807
  774MPD2     H11477   4.074   1.549  13.585  0.0798 -0.7960  0.2887
  774MPD2    H111478   3.727   1.674  13.801 -0.2101  0.6418 -2.1984
  774MPD2    H211479   3.827   1.268  13.805  0.4265  0.0184  0.4173
  774MPD2    H311480   3.690   1.435  13.864  0.4513 -2.1366  0.6207
  774MPD2     N11481   3.937   1.746  13.641 -0.0425  0.3762 -0.2307
  774MPD2    H511482   4.010   1.756  13.571 -0.8109  5.3078 -0.3578
  774MPD2    N111483   4.069   1.285  13.681  0.2016 -0.0197  0.4732
  774MPD2    H711484   4.038   1.196  13.718  1.2417  0.5417  2.6809
  775MPD2     C11485   0.971   2.174  16.056  0.3785 -0.0365  0.1926
  775MPD2    C111486   0.892   2.286  16.038  0.4422  0.6594 -0.6928
  775MPD2    C211487   0.923   2.381  15.942 -0.1674 -0.1379  0.4696
  775MPD2    C311488   1.027   2.357  15.853 -0.4191  0.2188 -0.6045
  775MPD2    C411489   1.101   2.240  15.868  0.2737  0.2879  0.5265
  775MPD2    C511490   1.083   2.154  15.974  0.0104  0.4618  0.3570
  775MPD2     H11491   0.863   2.471  15.943  2.3396  1.5706 -1.7733
  775MPD2    H111492   1.189   2.223  15.807 -0.3585 -0.8569 -0.0721
  775MPD2    H211493   0.957   2.109  16.142  0.8301 -1.1427 -0.5665
  775MPD2    H311494   1.146   2.066  15.983 -0.2493  0.2062 -0.3537
  775MPD2     N11495   1.063   2.456  15.756  0.3754 -0.2901 -0.1372
  775MPD2    H511496   1.142   2.429  15.698 -0.4570 -1.1856 -0.8593
  775MPD2    N111497   0.779   2.294  16.125 -0.0653  0.3530 -0.2208
  775MPD2    H711498   0.764   2.215  16.186  0.2066 -0.4440 -1.1787
  776MPD2     C11499   3.899   2.644  11.521 -0.1376 -0.2531  0.6549
  776MPD2    C111500   4.039   2.626  11.518  0.6083  0.3992 -0.0929
  776MPD2    C211501   4.118   2.739  11.515  0.2672  0.4866 -0.3025
  776MPD2    C311502   4.061   2.868  11.529 -0.3405 -0.2148  0.4522
  776MPD2    C411503   3.926   2.876  11.536 -0.2707 -0.1877  0.4809
  776MPD2    C511504   3.843   2.766  11.530 -0.3189 -0.1805 -0.1493
  776MPD2     H11505   4.224   2.718  11.523  0.0309 -0.3237  0.5693
  776MPD2    H111506   3.885   2.976  11.552  1.1534  0.3243  0.9727
  776MPD2    H211507   3.840   2.553  11.528  0.6929 -0.9188 -0.9215
  776MPD2    H311508   3.737   2.773  11.550 -0.3218 -0.5485 -0.0338
  776MPD2     N11509   4.126   2.993  11.538 -0.0714  0.2576  0.0969
  776MPD2    H511510   4.072   3.076  11.560  1.1442  1.1649 -0.3973
  776MPD2    N111511   4.083   2.489  11.512  0.3499  0.1315  0.4746
  776MPD2    H711512   4.017   2.412  11.523  1.5438 -0.9620  0.0001
  777MPD2     C11513   0.557   0.771   0.828  0.3113 -0.1010  0.5353
  777MPD2    C111514   0.454   0.692   0.867 -0.2217  0.1511 -0.2600
  777MPD2    C211515   0.443   0.564   0.817  0.7142 -0.3772 -0.2502
  777MPD2    C311516   0.532   0.515   0.724  0.2916  0.5394 -0.9745
  777MPD2    C411517   0.641   0.597   0.687 -0.2614  0.2369  0.1016
  777MPD2    C511518   0.652   0.724   0.739 -0.4225 -0.5324  0.7505
  777MPD2     H11519   0.368   0.493   0.851  0.4557 -1.3001 -2.8001
  777MPD2    H111520   0.711   0.562   0.613  0.3594 -0.4469  1.0049
  777MPD2    H211521   0.562   0.876   0.856  2.1696 -1.1962  4.3695
  777MPD2    H311522   0.729   0.795   0.711 -1.9058 -0.2990 -2.7723
  777MPD2     N11523   0.506   0.385   0.670 -0.4316 -0.3622 -0.9631
  777MPD2    H511524   0.416   0.342   0.687  0.0551 -1.1204 -0.2723
  777MPD2    N111525   0.355   0.752   0.950 -0.5949 -0.0893 -0.6488
  777MPD2    H711526   0.364   0.852   0.965 -0.4309 -0.2733  0.4663
  778MPD2     C11527   1.600   0.829  15.066  0.4122  0.8974  0.1340
  778MPD2    C111528   1.573   0.752  14.956  0.3037 -0.1874 -0.4461
  778MPD2    C211529   1.605   0.799  14.832 -0.7358  0.8514 -0.0110
  778MPD2    C311530   1.688   0.911  14.821 -0.2110 -0.5234 -0.2804
  778MPD2    C411531   1.721   0.984  14.934  0.7684  0.3582  0.1375
  778MPD2    C511532   1.680   0.937  15.056 -0.2993  0.0379  0.1703
  778MPD2     H11533   1.579   0.729  14.753  1.1726  3.0769 -2.6079
  778MPD2    H111534   1.784   1.073  14.935 -0.3820  1.1509  2.0426
  778MPD2    H211535   1.575   0.806  15.169  0.0692 -0.8057 -0.3238
  778MPD2    H311536   1.697   0.996  15.145 -0.3635  0.5265 -0.1428
  778MPD2     N11537   1.734   0.951  14.686 -0.0210  1.0293  0.5605
  778MPD2    H511538   1.702   0.892  14.610 -1.3700 -1.2524  2.8808
  778MPD2    N111539   1.480   0.646  14.959  0.4433 -0.2084 -0.1272
  778MPD2    H711540   1.441   0.619  14.869  0.7065  0.3385 -0.4047
  779MPD2     C11541   0.479   4.210  13.610  0.0211  0.1304  0.6599
  779MPD2    C111542   0.589   4.173  13.679  0.1782 -0.0573  0.6105
  779MPD2    C211543   0.689   4.257  13.709  0.2535  0.6151  0.4770
  779MPD2    C311544   0.686   4.386  13.661  0.1411 -0.7750 -0.1490
  779MPD2    C411545   0.571   4.427  13.586  0.2407 -0.1966  0.9941
  779MPD2    C511546   0.463   4.337  13.566  0.3525 -0.1268  0.6866
  779MPD2     H11547   0.770   4.226  13.775  0.0971 -0.2339  0.2605
  779MPD2    H111548   0.554   4.529  13.554  0.5772 -0.7031 -0.8334
  779MPD2    H211549   0.395   4.145  13.590  2.2954 -1.2018 -4.6565
  779MPD2    H311550   0.371   4.360  13.512  2.4275  1.3814 -2.2121
  779MPD2     N11551   0.798   4.460  13.692 -0.1607  0.2441 -0.7486
  779MPD2    H511552   0.863   4.419  13.758 -2.5742 -1.8775  0.3130
  779MPD2    N111553   0.614   4.042  13.736  0.3046  0.2097  0.3509
  779MPD2    H711554   0.711   4.020  13.754 -0.7383 -3.7750  1.1193
  780MPD2     C11555   4.667   3.653   0.523 -0.2787 -0.0035  0.2986
  780MPD2    C111556   4.680   3.556   0.429 -0.3277  0.3950 -0.4364
  780MPD2    C211557   0.065   3.524   0.375  0.0063 -0.5217 -0.6023
  780MPD2    C311558   0.177   3.581   0.427 -0.1685 -0.1424  0.4389
  780MPD2    C411559   0.166   3.666   0.530  0.1288  0.4378  0.2915
  780MPD2    C511560   0.048   3.714   0.566  0.1538  0.2470  0.6743
  780MPD2     H11561   0.062   3.458   0.289 -0.0707  1.0234 -1.7734
  780MPD2    H111562   0.251   3.691   0.593 -0.2252 -0.2926  1.0672
  780MPD2    H211563   4.575   3.692   0.565  1.0167  1.1992  2.0529
  780MPD2    H311564   0.036   3.786   0.646 -0.4960 -0.5398  1.2910
  780MPD2     N11565   0.312   3.536   0.398  0.1359  0.6536  0.4513
  780MPD2    H511566   0.392   3.590   0.431  0.1091  1.6147 -1.0122
  780MPD2    N111567   4.563   3.500   0.378  0.2515  0.5053  0.3459
  780MPD2    H711568   4.489   3.484   0.445  1.3515 -1.4677  1.1094
  781MPD2     C11569   1.890   1.228  12.211  0.6394 -0.8091 -0.1708
  781MPD2    C111570   2.010   1.281  12.250  0.8826  0.2021 -0.0857
  781MPD2    C211571   2.050   1.398  12.186 -0.3204  0.1613  0.0464
  781MPD2    C311572   1.984   1.441  12.069 -0.3354  0.0958 -0.0974
  781MPD2    C411573   1.861   1.392  12.042  0.1820 -0.2590  0.5395
  781MPD2    C511574   1.806   1.294  12.120 -0.0947 -0.3386  0.3093
  781MPD2     H11575   2.140   1.443  12.226 -1.6870  1.6955  1.3850
  781MPD2    H111576   1.800   1.424  11.959  0.0793  1.2154  1.1898
  781MPD2    H211577   1.855   1.137  12.258  1.2793 -0.3458  1.2336
  781MPD2    H311578   1.706   1.262  12.096  0.3473  0.4210 -2.4708
  781MPD2     N11579   2.028   1.545  11.986 -0.1992 -0.4871 -0.1537
  781MPD2    H511580   1.973   1.551  11.900 -0.5212  1.9290  0.2251
  781MPD2    N111581   2.067   1.212  12.357 -0.0747 -0.0407 -0.1493
  781MPD2    H711582   2.003   1.146  12.399  1.2998 -0.8694  0.6262
  782MPD2     C11583   0.451   1.557   9.556 -0.4475 -0.3000 -0.1824
  782MPD2    C111584   0.481   1.545   9.691  0.3181 -0.0841  0.0642
  782MPD2    C211585   0.557   1.642   9.741  0.0862  1.0847  0.5376
  782MPD2    C311586   0.576   1.763   9.677 -0.5239 -0.1118 -1.0274
  782MPD2    C411587   0.522   1.781   9.555  0.5703 -0.0038  0.5570
  782MPD2    C511588   0.461   1.678   9.490  0.5340  0.2232  0.1719
  782MPD2     H11589   0.589   1.625   9.843  0.1977 -4.0259 -0.3564
  782MPD2    H111590   0.518   1.877   9.504 -0.9620 -0.3740 -0.0331
  782MPD2    H211591   0.411   1.478   9.495 -2.3970  0.9270 -0.4697
  782MPD2    H311592   0.414   1.689   9.393  0.0159 -0.4256  0.3453
  782MPD2     N11593   0.650   1.862   9.749  0.2537 -0.2781  0.0203
  782MPD2    H511594   0.675   1.848   9.846  0.7806 -0.5539 -0.1555
  782MPD2    N111595   0.467   1.431   9.774  0.9414 -0.1601 -0.1803
  782MPD2    H711596   0.506   1.435   9.867 -0.4059  0.0914  0.3627
  783MPD2     C11597   4.339   1.201  10.273  0.7168  0.3617 -0.0776
  783MPD2    C111598   4.418   1.301  10.325 -0.2298  0.3873  0.6480
  783MPD2    C211599   4.550   1.320  10.270  0.3165  0.1764  0.1792
  783MPD2    C311600   4.598   1.244  10.166 -0.2841 -0.8679  0.3867
  783MPD2    C411601   4.513   1.140  10.123  0.3581 -0.0921 -0.7844
  783MPD2    C511602   4.389   1.124  10.175 -0.0095 -0.3411 -0.3647
  783MPD2     H11603   4.614   1.402  10.301  0.6684 -0.9517  2.4166
  783MPD2    H111604   4.532   1.075  10.039 -0.1842 -1.3008  0.0432
  783MPD2    H211605   4.237   1.184  10.307  0.8460  0.0642  0.1672
  783MPD2    H311606   4.315   1.062  10.125 -1.5673 -1.9997  3.9871
  783MPD2     N11607   4.732   1.257  10.124  0.0311  0.2325  0.8332
  783MPD2    H511608   0.037   1.341  10.165  0.3304 -0.4366  1.9261
  783MPD2    N111609   4.371   1.375  10.436  0.4484  0.0859 -0.5306
  783MPD2    H711610   4.286   1.349  10.483  1.1043  2.5750  1.9674
  784MPD2     C11611   3.071   2.081   0.253  0.2459 -0.1106 -0.2775
  784MPD2    C111612   3.089   2.192   0.333  0.0439  0.6471 -0.3414
  784MPD2    C211613   2.996   2.298   0.324 -0.0524 -0.4829  1.0620
  784MPD2    C311614   2.893   2.296   0.231  0.3684 -0.6355  0.5763
  784MPD2    C411615   2.866   2.179   0.159 -0.1402  0.3267 -0.6105
  784MPD2    C511616   2.962   2.082   0.172  0.1926  0.0157  0.1227
  784MPD2     H11617   3.012   2.384   0.387 -0.6093  1.5116 -1.5023
  784MPD2    H111618   2.792   2.185   0.080  1.0875 -1.1113 -1.8420
  784MPD2    H211619   3.138   1.996   0.244 -0.6586 -0.8869  0.3034
  784MPD2    H311620   2.956   1.998   0.103  1.3399 -0.3051  0.4098
  784MPD2     N11621   2.822   2.416   0.205  0.2292 -0.0322  0.2533
  784MPD2    H511622   2.870   2.501   0.229  1.0051 -0.7403  1.2072
  784MPD2    N111623   3.196   2.198   0.426  0.1869 -0.1355  0.3575
  784MPD2    H711624   3.214   2.284   0.477  1.7367 -0.3116  0.0860
  785MPD2     C11625   3.277   0.646  11.206  0.3477  0.4772  0.7837
  785MPD2    C111626   3.165   0.709  11.159  0.8201  0.1320 -0.1319
  785MPD2    C211627   3.055   0.629  11.130  0.6849 -0.2013  0.9501
  785MPD2    C311628   3.056   0.490  11.142 -0.2553 -0.5253 -0.2403
  785MPD2    C411629   3.175   0.437  11.188 -0.5521 -0.3811  0.4796
  785MPD2    C511630   3.278   0.514  11.212 -0.8837 -0.4574  0.5373
  785MPD2     H11631   2.961   0.676  11.103 -1.1325 -3.2732  1.9316
  785MPD2    H111632   3.195   0.331  11.198  0.3918 -0.5282 -2.7806
  785MPD2    H211633   3.357   0.717  11.225  1.6449 -1.1672  1.3908
  785MPD2    H311634   3.373   0.467  11.236  0.0087  0.9913 -0.1699
  785MPD2     N11635   2.945   0.420  11.078 -0.1730  0.1385 -0.5425
  785MPD2    H511636   2.866   0.464  11.032 -0.1040  1.5281  0.6712
  785MPD2    N111637   3.145   0.845  11.132 -0.2269 -0.5881 -0.0787
  785MPD2    H711638   3.067   0.878  11.076  1.5831  0.6993 -1.8429
  786MPD2     C11639   1.424   3.229  15.082  0.6419 -0.3485  0.2228
  786MPD2    C111640   1.492   3.111  15.076  0.2999  0.0758 -0.6345
  786MPD2    C211641   1.572   3.085  15.190  1.0445 -0.3825  0.0910
  786MPD2    C311642   1.586   3.181  15.288 -0.0512 -0.3823  0.5043
  786MPD2    C411643   1.524   3.301  15.284  0.4001  0.3901  0.4572
  786MPD2    C511644   1.443   3.319  15.178 -0.0956 -0.4986 -0.9162
  786MPD2     H11645   1.625   2.990  15.186 -0.4114 -1.1511 -0.8095
  786MPD2    H111646   1.550   3.385  15.348  3.3668  0.7014 -1.1654
  786MPD2    H211647   1.358   3.257  15.000  1.4482  2.0131  0.3834
  786MPD2    H311648   1.399   3.418  15.172  0.1697 -0.2591  0.9169
  786MPD2     N11649   1.669   3.164  15.408 -0.7222  0.2995 -0.1261
  786MPD2    H511650   1.697   3.249  15.455  0.9509 -0.2981 -0.0551
  786MPD2    N111651   1.486   3.021  14.973 -0.5119 -0.4945 -0.3677
  786MPD2    H711652   1.536   2.935  14.993  0.5643  0.4317  0.8919
  787MPD2     C11653   1.769   2.490  15.068  0.6050  0.0587  0.3412
  787MPD2    C111654   1.786   2.518  14.936 -0.4343  0.1751 -0.2469
  787MPD2    C211655   1.885   2.447  14.868  0.0914 -0.1408  0.4299
  787MPD2    C311656   1.956   2.347  14.931 -0.3858  0.8789  0.2778
  787MPD2    C411657   1.927   2.312  15.070  0.4105  0.0471 -0.9670
  787MPD2    C511658   1.837   2.389  15.134 -0.0125  0.0316 -0.0390
  787MPD2     H11659   1.900   2.475  14.764  2.3313  1.3315  1.1577
  787MPD2    H111660   1.982   2.238  15.127 -2.0470  0.2228  1.6299
  787MPD2    H211661   1.697   2.552  15.120 -0.4733 -0.6407 -0.3352
  787MPD2    H311662   1.807   2.360  15.234  0.7188 -0.5501  0.0044
  787MPD2     N11663   2.050   2.268  14.861 -0.2482  0.4570  0.1353
  787MPD2    H511664   2.082   2.307  14.773 -0.0924 -1.8876 -0.8321
  787MPD2    N111665   1.697   2.608  14.872 -0.7551 -0.0763  0.0160
  787MPD2    H711666   1.629   2.650  14.935  0.4038  0.8320  0.6544
  788MPD2     C11667   4.088   1.584   0.702 -0.4569 -0.7667  0.4487
  788MPD2    C111668   3.957   1.559   0.661 -0.0833  0.0764  0.4438
  788MPD2    C211669   3.903   1.645   0.572  0.6054  0.1250 -0.5728
  788MPD2    C311670   3.970   1.750   0.516 -0.2146 -0.7168  0.1100
  788MPD2    C411671   4.103   1.764   0.553 -0.0790  0.9873  0.2836
  788MPD2    C511672   4.160   1.681   0.642 -0.0517 -0.6331  0.2902
  788MPD2     H11673   3.803   1.627   0.533  0.0482 -0.7420  1.2741
  788MPD2    H111674   4.157   1.843   0.502 -0.2472 -0.9651 -2.9101
  788MPD2    H211675   4.133   1.516   0.773 -0.4455 -0.1002  1.0810
  788MPD2    H311676   4.264   1.693   0.669 -0.1677  1.5062 -0.2826
  788MPD2     N11677   3.913   1.827   0.414  0.6801  0.2220 -0.2057
  788MPD2    H511678   3.973   1.895   0.370  0.0477 -0.6405 -2.4069
  788MPD2    N111679   3.876   1.450   0.710 -0.4105  0.1937 -0.5898
  788MPD2    H711680   3.782   1.447   0.671 -0.0985 -2.0722 -1.1120
  789MPD2     C11681   4.029   1.279  16.436 -1.0948  0.3141  0.2637
  789MPD2    C111682   3.930   1.217  16.506  0.3471  0.4173 -0.0895
  789MPD2    C211683   3.807   1.284  16.517  0.8188 -0.3340 -0.4504
  789MPD2    C311684   3.779   1.395  16.439  0.2477  0.3131 -0.1122
  789MPD2    C411685   3.880   1.435  16.357  0.3567  0.4821  0.5977
  789MPD2    C511686   4.002   1.384  16.360  0.4764  0.0919 -0.8666
  789MPD2     H11687   3.739   1.244  16.592 -0.1136 -0.1340 -1.1935
  789MPD2    H111688   3.863   1.518  16.290  0.3813  1.9270  2.3846
  789MPD2    H211689   4.127   1.231  16.431 -2.1350 -2.0180  2.0797
  789MPD2    H311690   4.086   1.424  16.304  0.4758  2.9752  1.2264
  789MPD2     N11691   3.655   1.466  16.455  0.7275 -0.7865 -0.7291
  789MPD2    H511692   3.654   1.555  16.406 -0.6237  1.4534  3.3373
  789MPD2    N111693   3.946   1.100  16.580 -0.2791  0.4130  0.2873
  789MPD2    H711694   3.865   1.054  16.618 -0.4241 -0.5688 -1.2153
  790MPD2     C11695   0.596   2.851  13.295 -0.1390  0.4246  0.1082
  790MPD2    C111696   0.569   2.737  13.227 -0.3439 -0.1913 -0.1348
  790MPD2    C211697   0.526   2.744  13.094  0.4431 -0.3416  0.0788
  790MPD2    C311698   0.492   2.866  13.034  0.3375 -0.4225 -0.2952
  790MPD2    C411699   0.522   2.979  13.109 -0.4907 -0.2070  0.0539
  790MPD2    C511700   0.568   2.971  13.239  0.5556  0.2972 -0.1545
  790MPD2     H11701   0.507   2.655  13.035  1.7064 -1.2448  1.0326
  790MPD2    H111702   0.508   3.082  13.076 -1.5632  0.3782  2.3514
  790MPD2    H211703   0.637   2.850  13.395 -0.5337 -0.4243  0.2673
  790MPD2    H311704   0.583   3.064  13.293 -0.0257  0.0420  0.4423
  790MPD2     N11705   0.442   2.871  12.902  0.5752  0.4855 -0.6593
  790MPD2    H511706   0.427   2.787  12.846  0.5866 -1.3704  2.1276
  790MPD2    N111707   0.584   2.608  13.298  0.4500  0.2447 -0.1435
  790MPD2    H711708   0.627   2.607  13.390 -1.5448  2.2456  0.8016
  791MPD2     C11709   4.477   3.034  12.657 -0.5030  0.9814  0.3844
  791MPD2    C111710   4.551   2.924  12.610 -0.0361 -0.5477  0.3055
  791MPD2    C211711   4.476   2.804  12.596  0.1151 -0.3380  0.6221
  791MPD2    C311712   4.334   2.807  12.610 -0.5333  0.3410  0.7856
  791MPD2    C411713   4.267   2.926  12.637 -0.1412  0.2260 -0.3178
  791MPD2    C511714   4.340   3.037  12.674 -0.1659 -0.5157  0.0561
  791MPD2     H11715   4.523   2.712  12.564 -0.3222 -0.6927  1.0013
  791MPD2    H111716   4.161   2.931  12.659  0.4939 -0.3508  2.8228
  791MPD2    H211717   4.532   3.124  12.682  3.4167 -1.7214  1.3563
  791MPD2    H311718   4.295   3.127  12.714 -0.1489  0.0911 -1.2997
  791MPD2     N11719   4.264   2.682  12.600 -0.2276 -0.2365 -0.1439
  791MPD2    H511720   4.328   2.603  12.600 -0.1076 -0.1493 -1.3883
  791MPD2    N111721   4.689   2.929  12.605  0.4468 -0.3369 -0.7851
  791MPD2    H711722   4.729   3.016  12.639  1.8211 -1.1582 -0.2889
  792MPD2     C11723   4.725   3.101  11.273 -0.0708  0.5180 -0.2713
  792MPD2    C111724   4.723   3.118  11.132  0.7387  0.4094  0.5126
  792MPD2    C211725   4.612   3.070  11.067  0.2288  0.2907 -0.5816
  792MPD2    C311726   4.527   2.982  11.121 -0.1144  0.5035  0.3625
  792MPD2    C411727   4.534   2.961  11.258 -0.5475  0.3653  0.4060
  792MPD2    C511728   4.628   3.024  11.333  0.2764  0.3675  0.7293
  792MPD2     H11729   4.601   3.092  10.961 -1.0470  0.6495 -0.3767
  792MPD2    H111730   4.480   2.883  11.311  0.8070  1.0771  2.8324
  792MPD2    H211731   0.076   3.138  11.329  0.8389 -1.3868 -0.4215
  792MPD2    H311732   4.641   3.012  11.440  1.5526 -2.2715  0.2798
  792MPD2     N11733   4.429   2.911  11.041  0.0663  0.3852 -0.4525
  792MPD2    H511734   4.384   2.831  11.084  0.4135  0.6102  0.3303
  792MPD2    N111735   0.100   3.184  11.069 -0.4451 -0.3171 -0.0521
  792MPD2    H711736   0.176   3.208  11.132 -1.1135 -0.5160  0.8281
  793MPD2     C11737   3.859   2.733  10.154  0.7698  0.1316 -0.4345
  793MPD2    C111738   3.969   2.658  10.168  0.0099  0.1733 -0.0169
  793MPD2    C211739   4.011   2.640  10.302  0.0742 -0.7212 -0.0356
  793MPD2    C311740   3.962   2.722  10.406 -1.0695  0.1908  0.1038
  793MPD2    C411741   3.844   2.792  10.381  0.6047 -0.4111 -0.0760
  793MPD2    C511742   3.801   2.796  10.262  0.4154 -0.3028  0.0707
  793MPD2     H11743   4.099   2.579  10.319  0.6695  0.2637  0.3813
  793MPD2    H111744   3.792   2.838  10.464  0.9989 -0.2674  0.0922
  793MPD2    H211745   3.821   2.772  10.060  2.4644  1.0907 -0.7261
  793MPD2    H311746   3.713   2.855  10.240 -0.1189  0.4030  4.2104
  793MPD2     N11747   4.016   2.700  10.536  0.4466  0.8483  0.4350
  793MPD2    H511748   4.095   2.636  10.544 -1.8826 -2.0997 -0.2315
  793MPD2    N111749   4.036   2.593  10.056 -0.1403 -0.5013 -0.0552
  793MPD2    H711750   4.098   2.519  10.090  1.3436  1.5164  1.6210
  794MPD2     C11751   0.294   2.076  16.966  0.3700  0.4404  0.2491
  794MPD2    C111752   0.170   2.027  17.009  0.6232 -0.8275 -0.5251
  794MPD2    C211753   0.056   2.055  16.938  0.1431 -0.2415  0.4134
  794MPD2    C311754   0.055   2.121  16.820  0.2193  0.3328 -1.5519
  794MPD2    C411755   0.184   2.162  16.771  0.0492 -0.4195  1.0028
  794MPD2    C511756   0.301   2.149  16.850 -0.3764 -0.0305 -0.3415
  794MPD2     H11757   4.697   2.004  16.964 -0.9734  0.5738 -2.0533
  794MPD2    H111758   0.193   2.216  16.677 -0.2291 -0.8660  0.7224
  794MPD2    H211759   0.391   2.050  17.007  0.7471 -1.6428 -2.0401
  794MPD2    H311760   0.394   2.187  16.808 -0.0007 -0.2777  0.2717
  794MPD2     N11761   4.673   2.160  16.747  0.2080  0.8368  0.0312
  794MPD2    H511762   4.690   2.216  16.664  1.8823 -1.8759 -1.4798
  794MPD2    N111763   0.161   1.956  17.130 -0.4652  0.3957 -0.6369
  794MPD2    H711764   0.064   1.934  17.152 -0.5989 -0.2987 -1.8774
  795MPD2     C11765   2.400   4.456  13.947 -0.2854  0.1743 -0.5340
  795MPD2    C111766   2.367   4.377  13.841 -0.0921  0.2963 -0.1718
  795MPD2    C211767   2.461   4.321  13.760  0.2122 -0.2307 -0.2908
  795MPD2    C311768   2.593   4.339  13.780  0.1148  0.4082  0.1179
  795MPD2    C411769   2.623   4.440  13.876 -0.1960  0.5323  0.2849
  795MPD2    C511770   2.522   4.500  13.959 -0.0922 -0.3416  0.2251
  795MPD2     H11771   2.419   4.265  13.677  2.3333  1.9735 -2.8425
  795MPD2    H111772   2.724   4.476  13.893  0.1296  0.2400 -1.0234
  795MPD2    H211773   2.329   4.493  14.020  1.0690  0.7154  0.5120
  795MPD2    H311774   2.552   4.570  14.036 -0.8439 -0.0691  0.2743
  795MPD2     N11775   2.684   4.293  13.690  0.8308  0.6703 -0.0258
  795MPD2    H511776   2.778   4.332  13.699  1.0191 -0.0727  1.2296
  795MPD2    N111777   2.231   4.361  13.805 -0.4670  0.7634  0.0861
  795MPD2    H711778   2.202   4.296  13.732  0.8312  2.5386 -1.9914
  796MPD2     C11779   1.997   0.828  15.786 -0.5444  0.3537 -0.0310
  796MPD2    C111780   1.950   0.922  15.878 -0.3970 -0.8023 -0.1050
  796MPD2    C211781   1.896   1.042  15.834 -0.3835 -0.2214 -0.8008
  796MPD2    C311782   1.895   1.074  15.699  0.1085 -0.4556 -0.1117
  796MPD2    C411783   1.942   0.986  15.610  0.0048 -0.0596 -0.7343
  796MPD2    C511784   1.997   0.867  15.652 -0.0330 -0.8190  0.5899
  796MPD2     H11785   1.846   1.105  15.906 -0.1538 -0.2135 -0.6461
  796MPD2    H111786   1.946   1.014  15.506 -0.0926  0.8234 -0.4985
  796MPD2    H211787   2.052   0.737  15.806 -2.6288 -0.7650  0.5542
  796MPD2    H311788   2.034   0.789  15.587 -1.9940 -0.4349 -0.9814
  796MPD2     N11789   1.852   1.203  15.654 -0.1587  0.3298 -0.1928
  796MPD2    H511790   1.878   1.229  15.559 -1.8011 -1.1906 -1.0728
  796MPD2    N111791   1.965   0.890  16.017  0.2773 -0.0564 -0.6889
  796MPD2    H711792   1.982   0.791  16.034  0.5067  0.2738  0.9894
  797MPD2     C11793   2.519   0.643  17.436  0.1750 -0.7099 -0.1542
  797MPD2    C111794   2.606   0.739  17.471 -0.2797 -0.3646  0.3275
  797MPD2    C211795   2.604   0.861  17.416 -0.4928 -0.3078  0.3177
  797MPD2    C311796   2.512   0.895  17.316 -1.2450 -0.9477 -0.2996
  797MPD2    C411797   2.425   0.796  17.282 -0.6238  0.0582  0.4574
  797MPD2    C511798   2.426   0.673  17.338 -0.7157  0.2256 -0.2030
  797MPD2     H11799   2.674   0.929  17.463  0.3207 -0.4610 -0.6586
  797MPD2    H111800   2.351   0.812  17.205  0.9995  3.7962 -0.3496
  797MPD2    H211801   2.516   0.540  17.469 -1.8133 -2.0480 -4.5092
  797MPD2    H311802   2.344   0.609  17.311  0.5806 -2.2175  1.6860
  797MPD2     N11803   2.516   1.020  17.247  0.1235 -0.3672 -0.4048
  797MPD2    H511804   2.455   1.029  17.167  0.8302 -0.5592 -0.9617
  797MPD2    N111805   2.706   0.718  17.565  0.0848  0.1073  0.4515
  797MPD2    H711806   2.761   0.802  17.580 -0.6618  0.4847  1.1266
  798MPD2     C11807   3.080   1.337  17.503 -0.0140 -0.6385 -0.0903
  798MPD2    C111808   2.988   1.248  17.455 -0.4083  0.2155  0.4298
  798MPD2    C211809   2.974   1.125  17.520 -0.3203  0.2376  0.6313
  798MPD2    C311810   3.037   1.087  17.635 -0.7793 -0.1690 -0.0773
  798MPD2    C411811   3.124   1.185  17.690  0.6961 -0.1136  0.0274
  798MPD2    C511812   3.142   1.305  17.618  0.2351 -0.4544 -0.2540
  798MPD2     H11813   2.893   1.067  17.478  0.2906 -1.6408  2.0071
  798MPD2    H111814   3.175   1.178   0.051 -1.3587  0.3252  1.1432
  798MPD2    H211815   3.077   1.439  17.468 -0.4755 -0.7320 -0.3173
  798MPD2    H311816   3.214   1.381  17.646 -0.0753  0.3046 -1.5165
  798MPD2     N11817   3.000   0.966  17.680  0.7124  0.1297  0.3857
  798MPD2    H511818   2.935   0.908  17.628  1.0121 -0.3024  0.4945
  798MPD2    N111819   2.896   1.277  17.349 -0.0492 -0.6410  0.5926
  798MPD2    H711820   2.828   1.202  17.340 -0.8962  0.3419 -1.1329
  799MPD2     C11821   1.811   1.983  14.738 -0.9544  0.3362  0.1889
  799MPD2    C111822   1.792   1.945  14.616  0.1860  0.0393 -0.5713
  799MPD2    C211823   1.703   2.018  14.530 -0.2481  1.1380  0.5476
  799MPD2    C311824   1.650   2.135  14.579 -0.0828 -0.0969 -0.1208
  799MPD2    C411825   1.673   2.173  14.705  0.3520 -0.1532 -0.3152
  799MPD2    C511826   1.765   2.105  14.783 -0.6012  0.3062  0.6262
  799MPD2     H11827   1.684   1.993  14.426 -1.4814  1.7474  0.6151
  799MPD2    H111828   1.623   2.259  14.748 -0.6918  0.4690 -2.7772
  799MPD2    H211829   1.883   1.927  14.797  2.1791  1.6171 -2.3940
  799MPD2    H311830   1.797   2.137  14.881  1.4348  0.5623 -0.1133
  799MPD2     N11831   1.566   2.218  14.503  0.0382 -0.2050 -0.0278
  799MPD2    H511832   1.528   2.305  14.540 -0.4236 -0.9704  1.2821
  799MPD2    N111833   1.850   1.833  14.555 -0.1404 -0.6267  0.4944
  799MPD2    H711834   1.824   1.816  14.458  0.1342  0.2795  0.2683
  800MPD2     C11835   2.376   3.479  14.109 -0.5901 -0.6672 -0.5307
  800MPD2    C111836   2.513   3.510  14.093  0.1473 -0.4075 -0.3598
  800MPD2    C211837   2.588   3.441  14.006 -0.7179 -0.0311 -0.0203
  800MPD2    C311838   2.530   3.351  13.922  0.3423 -0.4931 -0.3930
  800MPD2    C411839   2.397   3.323  13.932 -0.6318  0.7826 -0.3965
  800MPD2    C511840   2.325   3.384  14.028  0.4629 -0.3239 -0.1674
  800MPD2     H11841   2.695   3.456  13.993 -0.5044 -0.2743  1.4421
  800MPD2    H111842   2.345   3.245  13.878  1.6525 -0.8848 -0.1530
  800MPD2    H211843   2.310   3.521  14.184 -0.6818  1.2127 -1.6715
  800MPD2    H311844   2.220   3.357  14.027  0.3859  0.0025 -0.7195
  800MPD2     N11845   2.616   3.282  13.829  0.5534 -0.8335  0.1960
  800MPD2    H511846   2.710   3.316  13.819  0.7227 -1.3316  0.0795
  800MPD2    N111847   2.571   3.605  14.175 -0.5096  0.3890 -0.3276
  800MPD2    H711848   2.507   3.631  14.250 -0.6958 -2.0728  0.3634
  801MPD2     C11849   2.452   3.671  14.877 -0.1095  0.7004  0.1281
  801MPD2    C111850   2.429   3.621  14.748  0.3443  0.6624 -0.2895
  801MPD2    C211851   2.338   3.517  14.725  0.2208  0.5934  0.7683
  801MPD2    C311852   2.274   3.465  14.835  0.0447 -0.2491 -0.0366
  801MPD2    C411853   2.313   3.503  14.965  0.0894 -0.1495 -0.1554
  801MPD2    C511854   2.403   3.607  14.984  0.6139 -0.2840 -0.0787
  801MPD2     H11855   2.319   3.492  14.622  5.4430 -1.6901  0.3687
  801MPD2    H111856   2.265   3.465  15.054  1.0623 -1.2209 -0.0905
  801MPD2    H211857   2.527   3.747  14.897  2.4352 -1.7016 -0.1910
  801MPD2    H311858   2.432   3.644  15.082  0.5675 -2.3755  0.7357
  801MPD2     N11859   2.177   3.365  14.825 -0.0411  0.4877  0.3401
  801MPD2    H511860   2.147   3.323  14.913  1.2966 -0.7247  0.2184
  801MPD2    N111861   2.496   3.675  14.636 -0.5209  0.3604  0.1050
  801MPD2    H711862   2.460   3.636  14.549 -0.0351  0.4443 -0.1306
  802MPD2     C11863   1.422   4.188  17.297 -0.0697 -0.0644  0.2938
  802MPD2    C111864   1.447   4.072  17.374 -0.1609 -0.6886  0.2563
  802MPD2    C211865   1.482   3.956  17.310  0.3267  0.2386  1.1208
  802MPD2    C311866   1.482   3.955  17.172  0.8121  0.1872  0.1743
  802MPD2    C411867   1.461   4.070  17.095  0.8939  0.3569  0.1019
  802MPD2    C511868   1.436   4.187  17.161 -0.0083  0.5383 -1.0764
  802MPD2     H11869   1.495   3.863  17.364 -1.0593 -1.8103 -2.0593
  802MPD2    H111870   1.473   4.085  16.988  0.7599 -0.3407 -0.0127
  802MPD2    H211871   1.397   4.283  17.343  1.2594 -0.1121  1.0924
  802MPD2    H311872   1.431   4.281  17.108  2.9395  1.3160  0.0195
  802MPD2     N11873   1.521   3.834  17.111  0.0997  0.4305 -0.3682
  802MPD2    H511874   1.508   3.751  17.169  1.8688  2.3978  2.8094
  802MPD2    N111875   1.433   4.070  17.516 -0.1651  1.1202  0.5021
  802MPD2    H711876   1.443   3.981  17.565 -2.7329 -0.5275 -1.9625
  803MPD2     C11877   2.233   2.696  12.368  0.2619  0.1737  0.2131
  803MPD2    C111878   2.326   2.770  12.304 -0.5367  0.4899 -0.5223
  803MPD2    C211879   2.454   2.780  12.360 -0.8082 -1.1318 -0.1489
  803MPD2    C311880   2.492   2.709  12.470  0.2410 -0.6404 -0.1772
  803MPD2    C411881   2.396   2.632  12.532 -0.0738  0.0347  0.3554
  803MPD2    C511882   2.268   2.626  12.482 -0.0925 -0.3685  0.1390
  803MPD2     H11883   2.531   2.839  12.313 -3.1242 -0.0790 -2.6376
  803MPD2    H111884   2.418   2.558  12.608  1.1570 -0.4633 -0.4786
  803MPD2    H211885   2.136   2.679  12.322  0.8024  0.2106 -0.9311
  803MPD2    H311886   2.193   2.565  12.531  0.2856 -1.5083 -0.6895
  803MPD2     N11887   2.629   2.705  12.503 -0.3741 -0.4914  0.2738
  803MPD2    H511888   2.696   2.760  12.450 -0.1274 -1.1748 -0.1118
  803MPD2    N111889   2.304   2.820  12.173 -0.2136 -0.0826 -0.0156
  803MPD2    H711890   2.387   2.861  12.131  0.3652 -0.9695  0.2774
  804MPD2     C11891   2.564   4.480  16.788 -0.1539  0.6965  0.0535
  804MPD2    C111892   2.597   4.398  16.891 -0.4650 -0.0047  0.0736
  804MPD2    C211893   2.687   4.443  16.988 -0.0958  0.2330 -0.2273
  804MPD2    C311894   2.748   4.571  16.991 -0.4191 -0.1006 -0.3749
  804MPD2    C411895   2.703   4.659  16.889  0.4914  0.4277  0.0592
  804MPD2    C511896   2.607   4.611  16.796 -0.2187 -0.3214  0.2213
  804MPD2     H11897   2.727   4.370  17.058 -1.4511 -1.6802 -1.4381
  804MPD2    H111898   2.732   0.029  16.881 -0.5192  0.6664 -0.4810
  804MPD2    H211899   2.487   4.458  16.715 -1.2504 -0.3477  1.5334
  804MPD2    H311900   2.560   4.685  16.732  1.1481  0.4849  0.1714
  804MPD2     N11901   2.849   4.597  17.083 -0.4642  0.1150 -0.2933
  804MPD2    H511902   2.895   4.521  17.133  0.6668  1.7798  1.1778
  804MPD2    N111903   2.537   4.273  16.909 -0.1994 -0.4590  0.3079
  804MPD2    H711904   2.555   4.228  16.998  2.5386 -0.1854 -0.1116
  805MPD2     C11905   1.422   1.690  15.488  0.1517 -0.8271  0.3201
  805MPD2    C111906   1.397   1.814  15.422  0.4597 -1.0243 -0.0145
  805MPD2    C211907   1.494   1.911  15.424 -0.6268  0.0107 -0.9230
  805MPD2    C311908   1.605   1.897  15.501 -0.3332  0.0263 -0.0037
  805MPD2    C411909   1.627   1.778  15.567  0.3951  0.1071 -0.5077
  805MPD2    C511910   1.541   1.675  15.549 -0.3825 -0.0788 -0.1859
  805MPD2     H11911   1.467   2.001  15.368  2.3093  0.5654 -1.4782
  805MPD2    H111912   1.725   1.762  15.610  1.0045  1.2331 -1.4968
  805MPD2    H211913   1.350   1.609  15.494 -0.3713 -0.3702  0.2419
  805MPD2    H311914   1.555   1.582  15.602 -0.9915  0.2747  0.5945
  805MPD2     N11915   1.692   2.009  15.508  0.2849 -0.4781 -1.2018
  805MPD2    H511916   1.662   2.091  15.457 -2.0302  0.1947  1.2421
  805MPD2    N111917   1.274   1.840  15.365 -0.2918 -0.3378  0.0885
  805MPD2    H711918   1.267   1.914  15.295  2.5464  0.3173  0.4978
  806MPD2     C11919   2.149   1.923   0.029  0.3008 -0.8576  0.2192
  806MPD2    C111920   2.156   2.063   0.024 -0.5940  0.1092 -0.4544
  806MPD2    C211921   2.240   2.121  17.659  1.1692 -0.0139 -0.2674
  806MPD2    C311922   2.319   2.049  17.578  0.1448  0.5408 -0.5849
  806MPD2    C411923   2.314   1.907  17.587 -0.4473 -0.3704 -0.3781
  806MPD2    C511924   2.232   1.851  17.682  0.3656  0.1557  0.5966
  806MPD2     H11925   2.246   2.228  17.640  0.1076 -0.0955 -1.1198
  806MPD2    H111926   2.362   1.846  17.511 -0.2239  0.0132 -0.5428
  806MPD2    H211927   2.079   1.870   0.094 -1.1240  0.4820 -0.2353
  806MPD2    H311928   2.230   1.743  17.690 -1.6816  0.0305 -1.7913
  806MPD2     N11929   2.404   2.119  17.487  0.2257 -0.0039 -0.2971
  806MPD2    H511930   2.409   2.220  17.495 -2.8684  0.2622 -1.8096
  806MPD2    N111931   2.074   2.139   0.113  0.2125 -0.0710 -0.8332
  806MPD2    H711932   2.025   2.083   0.182 -1.3556  0.9329 -1.1411
  807MPD2     C11933   1.703   2.059   0.752  0.3556  0.2644 -0.4743
  807MPD2    C111934   1.762   2.193   0.762  0.1678  0.9597 -0.2097
  807MPD2    C211935   1.764   2.255   0.892 -0.0145 -0.1349  0.0872
  807MPD2    C311936   1.701   2.181   0.992  0.5410  0.6658  0.1280
  807MPD2    C411937   1.650   2.053   0.977  0.3718 -0.1436 -0.2985
  807MPD2    C511938   1.652   1.989   0.857  1.2473 -0.1536 -0.3346
  807MPD2     H11939   1.812   2.349   0.916  0.7760 -0.6581  0.5519
  807MPD2    H111940   1.606   2.004   1.063  1.3319  1.2211  0.9705
  807MPD2    H211941   1.703   2.010   0.655 -0.1537 -1.7261  0.5305
  807MPD2    H311942   1.622   1.885   0.850  1.9188 -0.3768  0.0143
  807MPD2     N11943   1.668   2.239   1.116  0.3965  0.0612 -0.0633
  807MPD2    H511944   1.645   2.172   1.189 -2.7604  2.3164  0.9959
  807MPD2    N111945   1.821   2.262   0.656 -0.1460  0.4149 -0.2582
  807MPD2    H711946   1.872   2.347   0.677 -0.5592  0.7677 -0.6892
  808MPD2     C11947   2.472   3.199  10.185  0.4491 -0.0395  0.0282
  808MPD2    C111948   2.433   3.214  10.046 -0.1482  0.3582  0.3059
  808MPD2    C211949   2.509   3.293   9.962 -0.1641  0.0448 -0.6925
  808MPD2    C311950   2.616   3.360  10.016  0.6849 -0.2016 -0.6652
  808MPD2    C411951   2.638   3.357  10.153  0.0262 -0.4669  0.4427
  808MPD2    C511952   2.571   3.271  10.235 -0.0665  0.2762  0.2675
  808MPD2     H11953   2.487   3.291   9.856  4.3740  1.9324 -1.6560
  808MPD2    H111954   2.725   3.405  10.195  0.3627 -0.6796 -0.0079
  808MPD2    H211955   2.416   3.131  10.249  1.8935 -2.4533 -1.2807
  808MPD2    H311956   2.602   3.273  10.339  0.3567 -3.4894  0.1925
  808MPD2     N11957   2.699   3.452   9.938 -0.2414 -0.1004  0.5126
  808MPD2    H511958   2.750   3.526   9.987  0.2522  0.6039 -1.0824
  808MPD2    N111959   2.333   3.131   9.984 -0.8204  0.4072 -0.1545
  808MPD2    H711960   2.328   3.123   9.883  0.0065 -1.8561 -0.0267
  809MPD2     C11961   3.292   3.295   9.137  0.5310  0.2386  0.5208
  809MPD2    C111962   3.344   3.281   9.264 -0.1524 -0.7210  0.5591
  809MPD2    C211963   3.269   3.316   9.374  0.5617 -0.3611 -0.0136
  809MPD2    C311964   3.144   3.372   9.356  0.0044  0.7899 -0.2541
  809MPD2    C411965   3.099   3.400   9.228  0.2033 -0.1042 -0.1554
  809MPD2    C511966   3.169   3.349   9.121  0.0659  0.9777 -0.5577
  809MPD2     H11967   3.328   3.324   9.464  2.2558  1.1359 -1.2669
  809MPD2    H111968   2.999   3.437   9.208 -0.5716 -2.0797 -0.0096
  809MPD2    H211969   3.351   3.278   9.048 -0.5769  0.4008 -0.2431
  809MPD2    H311970   3.129   3.376   9.024 -0.5473 -2.1157 -1.1509
  809MPD2     N11971   3.072   3.419   9.469  0.4790 -0.5330  0.1707
  809MPD2    H511972   2.982   3.463   9.453 -0.2140 -1.8436  0.5093
  809MPD2    N111973   3.488   3.272   9.284  0.1790  1.1942 -0.2412
  809MPD2    H711974   3.523   3.259   9.378 -0.6246 -0.3984 -0.1681
  810MPD2     C11975   1.656   2.632  10.988 -0.2426 -0.3503  0.0481
  810MPD2    C111976   1.701   2.668  10.863 -0.3882  0.5603 -0.1961
  810MPD2    C211977   1.719   2.802  10.844 -0.4781 -0.1205 -0.0095
  810MPD2    C311978   1.690   2.893  10.941  0.4407  0.0486  0.4344
  810MPD2    C411979   1.665   2.856  11.067  0.0025  0.8819 -0.1212
  810MPD2    C511980   1.646   2.721  11.096  0.2455 -0.1022 -0.6151
  810MPD2     H11981   1.729   2.833  10.740 -0.5451  1.1236  0.3562
  810MPD2    H111982   1.646   2.916  11.155  1.1371 -1.1764  1.5451
  810MPD2    H211983   1.640   2.528  11.014  1.0182 -0.1394  1.6852
  810MPD2    H311984   1.630   2.687  11.198 -2.3438 -0.1900 -1.0666
  810MPD2     N11985   1.695   3.029  10.905 -0.1874 -0.0125 -0.3170
  810MPD2    H511986   1.720   3.090  10.981 -2.6792  1.3986 -0.6197
  810MPD2    N111987   1.730   2.587  10.751  0.3091  0.4553 -0.5064
  810MPD2    H711988   1.756   2.642  10.670  2.7562  1.7484  1.1641
  811MPD2     C11989   1.400   2.710  10.058 -0.2557  0.5192 -0.1487
  811MPD2    C111990   1.487   2.741  10.153  1.1561 -0.2950 -0.7547
  811MPD2    C211991   1.525   2.871  10.175  0.6527  0.2002  0.4165
  811MPD2    C311992   1.467   2.968  10.093  0.1512 -0.4868 -0.5267
  811MPD2    C411993   1.380   2.937   9.990  0.5657 -0.3868  0.3526
  811MPD2    C511994   1.342   2.808   9.986  0.3578  0.3644  0.3966
  811MPD2     H11995   1.607   2.890  10.243 -0.3427  0.0865  1.6388
  811MPD2    H111996   1.346   3.005   9.913  1.3391  0.6858  0.9667
  811MPD2    H211997   1.357   2.613  10.036 -2.2269  1.3993 -0.2355
  811MPD2    H311998   1.263   2.789   9.914  1.6500 -1.0869 -0.6432
  811MPD2     N11999   1.496   3.101  10.124  0.7481 -0.3671  0.4186
  811MPD2    H512000   1.547   3.114  10.211  1.4536  0.8144 -0.1705
  811MPD2    N112001   1.536   2.632  10.230  0.2220  0.3360  0.3061
  811MPD2    H712002   1.493   2.542  10.213  0.1022  0.3764  0.4021
  812MPD2     C12003   0.515   2.431  12.108 -0.4404 -0.3648 -0.1333
  812MPD2    C112004   0.630   2.475  12.052  0.2325  0.3976 -1.0457
  812MPD2    C212005   0.742   2.476  12.133 -0.3332 -0.2681 -0.2388
  812MPD2    C312006   0.733   2.460  12.269 -0.9510 -0.5945  0.3486
  812MPD2    C412007   0.616   2.418  12.324  0.5663 -1.1169 -0.1532
  812MPD2    C512008   0.509   2.396  12.241 -0.9149 -0.5030 -0.6391
  812MPD2     H12009   0.839   2.501  12.090 -0.1986 -0.1861  0.1061
  812MPD2    H112010   0.604   2.399  12.430  0.1242 -0.4001 -0.0751
  812MPD2    H212011   0.431   2.419  12.042 -0.5218  0.8671 -0.2685
  812MPD2    H312012   0.419   2.360  12.289 -2.6231  1.2564 -2.4735
  812MPD2     N12013   0.854   2.472  12.337  0.0798 -0.2672 -0.5616
  812MPD2    H512014   0.933   2.499  12.279  0.3418  0.7960  0.2834
  812MPD2    N112015   0.631   2.507  11.910 -0.1441 -0.4888 -0.1095
  812MPD2    H712016   0.548   2.493  11.854  0.0128 -1.5101 -0.0977
  813MPD2     C12017   4.567   4.692  12.665  0.2743 -0.1746  0.1112
  813MPD2    C112018   4.575   4.672  12.802 -0.4257 -0.7699 -0.0487
  813MPD2    C212019   4.455   4.656  12.868 -0.0837  0.3246  1.0855
  813MPD2    C312020   4.337   4.651  12.799  0.2709  0.0794  0.7346
  813MPD2    C412021   4.340   4.671  12.665 -0.0341  0.1330 -0.3737
  813MPD2    C512022   4.446   4.696  12.596  0.2986 -0.2346  0.2298
  813MPD2     H12023   4.455   4.653  12.976 -0.9424 -2.7919  1.0212
  813MPD2    H112024   4.249   4.672  12.606 -0.6041 -2.0496  0.4762
  813MPD2    H212025   4.656   4.709  12.606 -0.4647 -2.0612 -1.5483
  813MPD2    H312026   4.435   4.715  12.490  0.5726  3.0510  0.7918
  813MPD2     N12027   4.218   4.636  12.878  0.4398 -0.0540 -0.3621
  813MPD2    H512028   4.225   4.627  12.979 -0.8909 -0.2721 -0.2920
  813MPD2    N112029   4.695   4.711  12.866  0.1037  0.1617 -0.3861
  813MPD2    H712030   0.039   4.734  12.805  2.4994 -1.9623  1.8506
  814MPD2     C12031   0.252   1.059  12.118  0.7616 -0.9864  0.8713
  814MPD2    C112032   0.323   1.070  11.998 -0.3680  0.3466 -0.1080
  814MPD2    C212033   0.376   1.193  11.965 -0.1463  0.5315  0.3074
  814MPD2    C312034   0.378   1.297  12.057 -0.0458  0.0270  0.3667
  814MPD2    C412035   0.307   1.284  12.172  0.7241 -0.2708  0.2695
  814MPD2    C512036   0.232   1.171  12.196  0.1993  0.1774  0.2905
  814MPD2     H12037   0.423   1.210  11.869 -4.0207  0.2307 -1.6276
  814MPD2    H112038   0.303   1.364  12.246  0.7347  1.3253 -1.4475
  814MPD2    H212039   0.205   0.970  12.159 -1.6421  0.5672  1.5467
  814MPD2    H312040   0.169   1.156  12.283 -0.9171 -0.1248 -0.5700
  814MPD2     N12041   0.467   1.413  12.051 -0.1834  0.0584  0.2136
  814MPD2    H512042   0.462   1.465  12.137 -0.2468 -2.3335  1.6484
  814MPD2    N112043   0.337   0.972  11.901 -0.3321  0.5352 -0.5647
  814MPD2    H712044   0.386   0.993  11.815 -0.3208  0.2562 -0.6260
  815MPD2     C12045   0.895   4.657  11.457  0.4809  0.2346 -0.5693
  815MPD2    C112046   0.901   4.520  11.455 -1.0618 -0.2652 -0.2017
  815MPD2    C212047   0.797   4.445  11.513  0.4139  0.3842 -0.4070
  815MPD2    C312048   0.705   4.507  11.600 -0.7491 -0.3049  0.3728
  815MPD2    C412049   0.706   4.646  11.607  0.3893 -0.8084 -0.4566
  815MPD2    C512050   0.798   4.717  11.536 -0.1131  0.3542 -0.0885
  815MPD2     H12051   0.802   4.337  11.519  0.3530  0.3271 -1.4653
  815MPD2    H112052   0.640   4.715  11.659 -1.5476 -2.3098 -0.9127
  815MPD2    H212053   0.963   4.718  11.399  0.4276  1.8115  1.0080
  815MPD2    H312054   0.789   0.091  11.543 -0.6714  0.2914  0.1246
  815MPD2     N12055   0.605   4.432  11.669  0.2377 -0.1368 -0.0356
  815MPD2    H512056   0.596   4.332  11.655  0.8771  0.1153 -2.2007
  815MPD2    N112057   1.010   4.462  11.384 -0.9569 -0.1616  0.6277
  815MPD2    H712058   1.074   4.515  11.326  0.0533 -3.1622 -0.9614
  816MPD2     C12059   1.230   3.575  17.098 -0.3124  0.8493  0.7367
  816MPD2    C112060   1.153   3.621  16.993 -0.0940 -0.0136  0.3031
  816MPD2    C212061   1.180   3.588  16.869 -0.8706 -0.2423 -0.2987
  816MPD2    C312062   1.300   3.515  16.840  0.4990 -0.3102  0.7313
  816MPD2    C412063   1.378   3.457  16.943  0.3688  0.7747 -0.1338
  816MPD2    C512064   1.335   3.489  17.075 -0.1452 -0.1926 -0.6180
  816MPD2     H12065   1.121   3.635  16.791 -0.7843  0.5856  0.1363
  816MPD2    H112066   1.454   3.381  16.932 -0.1044  0.3371 -0.3790
  816MPD2    H212067   1.195   3.594  17.199  0.0248 -3.4967  1.6663
  816MPD2    H312068   1.383   3.437  17.157  1.6789  2.0011 -0.3099
  816MPD2     N12069   1.336   3.489  16.712 -0.3416 -0.5259 -0.2089
  816MPD2    H512070   1.270   3.522  16.642 -0.7956 -2.1458 -0.5253
  816MPD2    N112071   1.039   3.695  17.035  0.0095 -0.0759 -0.1381
  816MPD2    H712072   1.039   3.728  17.131 -0.0191  2.8001 -1.1250
  817MPD2     C12073   0.556   0.835   9.561 -0.4111 -1.0494  0.1365
  817MPD2    C112074   0.595   0.817   9.427 -0.4756  0.1166  0.4169
  817MPD2    C212075   0.544   0.902   9.335  0.4457  0.3816 -0.8307
  817MPD2    C312076   0.443   0.993   9.368  0.4104 -0.0166  0.5575
  817MPD2    C412077   0.414   1.015   9.501  0.2956  0.0501 -0.0829
  817MPD2    C512078   0.474   0.938   9.593  0.1049  0.9655  0.1508
  817MPD2     H12079   0.560   0.879   9.230 -0.0751  0.5903 -0.9566
  817MPD2    H112080   0.352   1.094   9.540 -0.0707  0.1530 -0.8792
  817MPD2    H212081   0.592   0.769   9.639 -0.8824 -1.2315  0.1982
  817MPD2    H312082   0.449   0.956   9.697 -0.4844 -2.1790  0.5317
  817MPD2     N12083   0.387   1.073   9.264  0.3207  0.1169 -0.0584
  817MPD2    H512084   0.416   1.049   9.170  0.6922  0.6368 -0.0795
  817MPD2    N112085   0.685   0.714   9.390 -0.1466 -0.1570 -0.1055
  817MPD2    H712086   0.694   0.685   9.293  1.4678 -1.5432  0.4600
  818MPD2     C12087   3.993   0.350   9.297 -0.5129 -0.0954 -0.3153
  818MPD2    C112088   4.077   0.394   9.397 -0.5847  0.2757 -0.6747
  818MPD2    C212089   4.192   0.454   9.359 -1.0988 -0.4771  0.1065
  818MPD2    C312090   4.240   0.463   9.232  0.9532  0.6867 -0.4055
  818MPD2    C412091   4.152   0.425   9.135 -0.6496  0.0104  0.5058
  818MPD2    C512092   4.037   0.363   9.168  0.1389  0.1125  0.2567
  818MPD2     H12093   4.257   0.495   9.435 -1.7434  1.3483 -0.3135
  818MPD2    H112094   4.180   0.437   9.031 -0.1700 -0.8451  0.5357
  818MPD2    H212095   3.902   0.292   9.308 -2.2098  2.4849 -0.6410
  818MPD2    H312096   3.979   0.325   9.084 -0.4316  1.3624  0.0793
  818MPD2     N12097   4.360   0.517   9.186  0.5206 -0.1834 -0.3141
  818MPD2    H512098   4.367   0.532   9.086 -2.5438  3.2950  0.0028
  818MPD2    N112099   4.045   0.381   9.534  0.2972 -0.5922 -0.1520
  818MPD2    H712100   4.116   0.403   9.604 -1.8762  0.9103  1.5714
  819MPD2     C12101   2.232   2.249  15.395  0.0847 -0.4779 -0.3132
  819MPD2    C112102   2.234   2.114  15.419  0.5462 -0.5112 -0.1425
  819MPD2    C212103   2.341   2.056  15.485  0.0368  0.1153  0.1571
  819MPD2    C312104   2.443   2.132  15.530 -0.8108 -0.0429  0.0560
  819MPD2    C412105   2.439   2.269  15.508  0.1140  0.2162 -0.2825
  819MPD2    C512106   2.331   2.328  15.442 -0.0974  0.0301 -0.2658
  819MPD2     H12107   2.347   1.951  15.512  1.2745 -0.0791 -0.8771
  819MPD2    H112108   2.518   2.337  15.539  0.3500 -0.5731  0.8532
  819MPD2    H212109   2.148   2.293  15.343 -0.1623 -0.0819  0.4369
  819MPD2    H312110   2.323   2.436  15.437 -1.1776  0.0142  0.9822
  819MPD2     N12111   2.542   2.065  15.607  0.0038 -0.1824  0.0340
  819MPD2    H512112   2.531   1.964  15.613  0.6556 -0.1791  1.4298
  819MPD2    N112113   2.129   2.038  15.369  0.3047 -1.0830 -0.4159
  819MPD2    H712114   2.064   2.097  15.318 -0.2322  0.8351  2.4609
  820MPD2     C12115   1.337   1.849  14.749 -0.4332  0.0688  0.5563
  820MPD2    C112116   1.326   1.898  14.879  0.2953  0.6371 -0.0745
  820MPD2    C212117   1.433   1.894  14.964  0.2399 -0.7128 -0.1155
  820MPD2    C312118   1.552   1.837  14.921  0.9158  0.1262 -0.3513
  820MPD2    C412119   1.562   1.784  14.797  0.0281  0.2306 -0.0075
  820MPD2    C512120   1.459   1.796  14.711  0.6746  0.2794 -0.1562
  820MPD2     H12121   1.427   1.945  15.059  3.3886 -0.1690 -0.2095
  820MPD2    H112122   1.653   1.734  14.765  0.3602  0.3331  0.7562
  820MPD2    H212123   1.252   1.863  14.684 -0.9382  1.5569  1.5478
  820MPD2    H312124   1.469   1.775  14.606 -1.5629 -0.4395 -0.2182
  820MPD2     N12125   1.662   1.813  15.010 -0.8250  0.6228 -0.6865
  820MPD2    H512126   1.730   1.740  14.992 -1.1303  0.2720 -0.3993
  820MPD2    N112127   1.198   1.952  14.917 -0.2948 -0.2171  0.1995
  820MPD2    H712128   1.124   1.930  14.851 -1.5342 -3.5083  2.6881
  821MPD2     C12129   2.650   3.455  13.190  0.0515  0.3653 -0.0568
  821MPD2    C112130   2.728   3.347  13.214 -0.1148 -0.0445  0.3691
  821MPD2    C212131   2.855   3.352  13.159  0.0660  0.2872 -0.2335
  821MPD2    C312132   2.903   3.470  13.092 -0.2104 -0.8677  0.4906
  821MPD2    C412133   2.827   3.581  13.079 -1.0414 -0.2932  0.3635
  821MPD2    C512134   2.696   3.566  13.114  0.4297  0.1446  0.3896
  821MPD2     H12135   2.923   3.270  13.177  0.4584  0.4744 -0.8583
  821MPD2    H112136   2.852   3.672  13.025 -2.1892  0.6469  1.3890
  821MPD2    H212137   2.549   3.461  13.230  0.3876  0.3138  0.7992
  821MPD2    H312138   2.639   3.655  13.093 -0.5443 -0.7880 -0.8761
  821MPD2     N12139   3.036   3.478  13.042  0.1457  0.4559  0.3529
  821MPD2    H512140   3.067   3.573  13.027  1.9172 -0.1768 -0.0216
  821MPD2    N112141   2.683   3.244  13.291  0.3651 -0.0567  0.4504
  821MPD2    H712142   2.606   3.264  13.355 -0.3368 -0.4561 -0.2749
  822MPD2     C12143   2.849   3.233  15.632  0.1704 -0.3260 -0.4484
  822MPD2    C112144   2.953   3.305  15.689 -0.4642  0.0569  0.3570
  822MPD2    C212145   2.918   3.431  15.742  0.6316 -0.2319  0.3301
  822MPD2    C312146   2.791   3.470  15.749  0.7964 -0.9748 -0.0025
  822MPD2    C412147   2.693   3.387  15.697 -0.4267  0.3853  0.0331
  822MPD2    C512148   2.719   3.271  15.629  0.4161  0.9504 -0.3359
  822MPD2     H12149   2.999   3.493  15.779 -0.3382  1.1622  0.1312
  822MPD2    H112150   2.591   3.423  15.688 -0.8255 -0.5171  0.8472
  822MPD2    H212151   2.875   3.148  15.570 -1.6707  0.1009 -1.8320
  822MPD2    H312152   2.642   3.218  15.574  2.0852  0.8958 -2.6045
  822MPD2     N12153   2.770   3.602  15.804 -0.0063  0.1550  0.1574
  822MPD2    H512154   2.855   3.653  15.825 -0.4565  0.7834  0.4662
  822MPD2    N112155   3.088   3.267  15.686  0.0541 -0.3445  0.5693
  822MPD2    H712156   3.155   3.331  15.728  0.2543 -0.7046  0.7918
  823MPD2     C12157   2.732   3.919  16.567 -0.1263 -1.0358  0.0911
  823MPD2    C112158   2.722   3.836  16.460  0.1303 -0.4026  0.1047
  823MPD2    C212159   2.754   3.705  16.474 -0.1331 -0.0484 -0.4354
  823MPD2    C312160   2.803   3.657  16.593 -0.2533  0.2095  0.0142
  823MPD2    C412161   2.808   3.741  16.701 -0.8993  0.0701  0.2179
  823MPD2    C512162   2.778   3.873  16.685  0.2770 -1.1140  0.1902
  823MPD2     H12163   2.737   3.638  16.391 -2.1925  0.8363 -0.7216
  823MPD2    H112164   2.837   3.712  16.801  0.0652 -1.1472 -0.4192
  823MPD2    H212165   2.732   4.026  16.545  1.1473 -1.5819 -2.5952
  823MPD2    H312166   2.794   3.946  16.764 -1.1604  0.8419 -1.3107
  823MPD2     N12167   2.844   3.524  16.628  0.6518  0.3228 -0.6157
  823MPD2    H512168   2.872   3.507  16.724 -0.0063  1.1211 -0.2879
  823MPD2    N112169   2.673   3.888  16.339 -0.0554  0.2428  0.7016
  823MPD2    H712170   2.652   3.988  16.334 -2.2278 -0.2677 -0.6253
  824MPD2     C12171   3.570   2.501  15.727  0.3985  0.4959 -0.4133
  824MPD2    C112172   3.648   2.618  15.728  0.3901  0.2602 -0.0484
  824MPD2    C212173   3.785   2.604  15.742  0.1150  0.0939 -0.2254
  824MPD2    C312174   3.844   2.484  15.769 -0.0896  0.0649 -0.6767
  824MPD2    C412175   3.760   2.372  15.769 -0.3953  0.0625 -0.3983
  824MPD2    C512176   3.628   2.381  15.743 -0.5256 -0.0906 -0.5164
  824MPD2     H12177   3.841   2.697  15.734  1.5938 -0.7853 -0.0457
  824MPD2    H112178   3.801   2.274  15.792  1.2093  0.7777 -0.2046
  824MPD2    H212179   3.461   2.505  15.729  0.3561 -0.5235 -0.5887
  824MPD2    H312180   3.566   2.292  15.744 -1.9093  0.8757 -1.2492
  824MPD2     N12181   3.985   2.477  15.775 -0.6132  0.0783 -0.5279
  824MPD2    H512182   4.038   2.563  15.763  0.0247 -0.0712  1.2743
  824MPD2    N112183   3.598   2.756  15.725 -0.4914 -0.4773 -0.2560
  824MPD2    H712184   3.653   2.834  15.761  1.0643 -1.2527 -0.9661
  825MPD2     C12185   4.486   2.511  15.089 -0.1657 -0.1978  0.3217
  825MPD2    C112186   4.404   2.548  15.193 -0.1822 -0.2221 -0.3664
  825MPD2    C212187   4.344   2.676  15.186  0.5115  0.0432  0.7121
  825MPD2    C312188   4.385   2.762  15.079 -0.4022 -0.4940 -0.0364
  825MPD2    C412189   4.470   2.718  14.981  0.6408  0.2123 -0.4428
  825MPD2    C512190   4.512   2.591  14.984  0.4100 -0.1572  0.9104
  825MPD2     H12191   4.272   2.704  15.263  0.3835 -0.4901  0.7844
  825MPD2    H112192   4.512   2.793  14.915 -1.7758  1.5235 -0.4802
  825MPD2    H212193   4.532   2.413  15.084  1.5446  0.4303  4.5330
  825MPD2    H312194   4.581   2.553  14.910  0.8421 -0.2296  1.3475
  825MPD2     N12195   4.342   2.898  15.081 -0.8922  0.1566 -0.1875
  825MPD2    H512196   4.386   2.944  15.002  1.2066 -1.1057  0.2649
  825MPD2    N112197   4.387   2.464  15.307 -0.5890  0.5250 -0.3574
  825MPD2    H712198   4.459   2.395  15.325 -1.3291 -0.4722 -1.2537
  826MPD2     C12199   3.125   3.230  13.924 -0.2370  0.5851 -0.2676
  826MPD2    C112200   3.197   3.313  13.839  0.1376  0.6617  0.1881
  826MPD2    C212201   3.158   3.444  13.833  0.8612  0.2028 -0.2222
  826MPD2    C312202   3.054   3.497  13.913  0.0313 -0.9310 -0.4478
  826MPD2    C412203   2.992   3.414  14.001 -0.0857 -0.3175 -0.3864
  826MPD2    C512204   3.021   3.281  14.001  0.7693  0.3317 -0.2141
  826MPD2     H12205   3.206   3.506  13.759  0.2964  0.9834  0.0671
  826MPD2    H112206   2.913   3.449  14.067  1.3807  2.7931 -0.2938
  826MPD2    H212207   3.157   3.127  13.918 -0.0765  0.7670 -2.7406
  826MPD2    H312208   2.956   3.222  14.064  0.4402  1.7115  0.7375
  826MPD2     N12209   3.003   3.625  13.918  0.3897 -0.1824 -0.6819
  826MPD2    H512210   2.911   3.621  13.961  0.8740  0.5414  0.4275
  826MPD2    N112211   3.297   3.259  13.759  0.0865 -0.0441  0.1256
  826MPD2    H712212   3.307   3.158  13.763 -3.3187 -0.2371  3.7812
  827MPD2     C12213   4.708   3.916   9.729 -0.5168 -0.6753  0.4343
  827MPD2    C112214   4.683   3.825   9.821  0.0672  0.0095 -0.1228
  827MPD2    C212215   4.609   3.714   9.790  0.1393 -0.9214 -0.1027
  827MPD2    C312216   4.540   3.710   9.674  0.1741 -0.3924 -1.0794
  827MPD2    C412217   4.560   3.805   9.580  0.1212 -0.5433 -0.0418
  827MPD2    C512218   4.641   3.912   9.607  0.2724  0.5238 -0.1239
  827MPD2     H12219   4.582   3.629   9.852  0.2125 -0.6695  0.2737
  827MPD2    H112220   4.523   3.793   9.480 -1.9815 -1.6112  0.8787
  827MPD2    H212221   0.055   3.988   9.736 -0.6759 -0.4457 -0.0907
  827MPD2    H312222   4.663   3.981   9.527 -2.5279  1.9232  0.2917
  827MPD2     N12223   4.458   3.601   9.635 -0.0035 -0.0242 -1.1117
  827MPD2    H512224   4.455   3.518   9.693  1.9946  0.1490 -0.7897
  827MPD2    N112225   0.005   3.837   9.951  0.3333 -0.9308  0.1041
  827MPD2    H712226   0.058   3.923   9.966  2.3337 -1.6190 -3.1073
  828MPD2     C12227   2.580   3.986  12.264 -0.1627  0.3866 -0.2232
  828MPD2    C112228   2.456   3.934  12.220 -0.2128  0.2618  0.6436
  828MPD2    C212229   2.460   3.857  12.109  0.1734  0.2015 -0.1581
  828MPD2    C312230   2.577   3.810  12.052  0.7366  0.1450  0.5241
  828MPD2    C412231   2.698   3.864  12.091 -0.3750 -0.3328  0.7608
  828MPD2    C512232   2.701   3.958  12.197  0.8464  0.3632  0.4813
  828MPD2     H12233   2.368   3.817  12.066 -0.3162 -0.4608  1.5186
  828MPD2    H112234   2.794   3.817  12.072 -0.4202  0.0439 -0.4316
  828MPD2    H212235   2.587   4.037  12.359 -1.6758  2.0665 -0.9995
  828MPD2    H312236   2.796   3.982  12.243  0.8413 -0.4357  0.9104
  828MPD2     N12237   2.575   3.710  11.947 -0.2079 -0.5317  0.3513
  828MPD2    H512238   2.668   3.678  11.922 -0.7683 -1.3515 -0.6745
  828MPD2    N112239   2.337   3.948  12.293 -0.1298 -0.0954  0.7134
  828MPD2    H712240   2.262   3.892  12.253  0.1143  1.3681 -1.8360
  829MPD2     C12241   1.508   3.690  12.118 -0.6185  0.4177  0.0505
  829MPD2    C112242   1.493   3.743  12.245 -0.2544 -0.0113 -0.0873
  829MPD2    C212243   1.604   3.784  12.312 -0.5230 -0.7220 -0.0406
  829MPD2    C312244   1.733   3.757  12.264 -0.2279 -0.3851  0.2888
  829MPD2    C412245   1.738   3.700  12.132  0.4413 -0.2744 -0.0713
  829MPD2    C512246   1.629   3.663  12.064 -0.2684 -0.0101  0.2719
  829MPD2     H12247   1.590   3.827  12.411  2.0809 -0.4905  0.2362
  829MPD2    H112248   1.829   3.701  12.073 -0.2843 -2.1485 -1.2304
  829MPD2    H212249   1.420   3.662  12.062 -2.2874  3.0348  1.3708
  829MPD2    H312250   1.641   3.613  11.968  1.9544  1.2573 -0.1049
  829MPD2     N12251   1.847   3.791  12.328 -0.1691 -0.2004  0.4608
  829MPD2    H512252   1.930   3.739  12.300 -1.1157 -1.0076 -0.8436
  829MPD2    N112253   1.368   3.790  12.284 -0.7663 -0.4796 -0.2734
  829MPD2    H712254   1.293   3.781  12.217  0.0948 -2.2884 -0.9760
  830MPD2     C12255   3.296   1.641  15.618  0.3907 -0.5106  0.2464
  830MPD2    C112256   3.185   1.701  15.559 -0.7859  0.8802  0.0323
  830MPD2    C212257   3.200   1.743  15.429  0.5489 -0.2195  0.4307
  830MPD2    C312258   3.313   1.716  15.353 -0.1705 -0.0937  0.0646
  830MPD2    C412259   3.417   1.648  15.414  0.2493 -0.0732 -0.3406
  830MPD2    C512260   3.416   1.615  15.547  0.1081 -0.4079  0.0293
  830MPD2     H12261   3.124   1.810  15.392 -0.0398 -1.3145 -0.3586
  830MPD2    H112262   3.503   1.614  15.356  0.6221 -2.8088  1.8538
  830MPD2    H212263   3.271   1.589  15.709 -1.1960 -1.2108 -0.5773
  830MPD2    H312264   3.490   1.552  15.595  0.6997  0.2421 -0.0245
  830MPD2     N12265   3.321   1.758  15.220  0.4229  0.1647  0.2753
  830MPD2    H512266   3.407   1.749  15.167  1.1346  2.2632  1.0815
  830MPD2    N112267   3.078   1.732  15.644 -0.8593 -0.7307 -0.1630
  830MPD2    H712268   3.095   1.729  15.744  0.1397 -0.1636 -0.3170
  831MPD2     C12269   3.210   3.747  16.104  0.1795 -0.3331 -0.3603
  831MPD2    C112270   3.216   3.637  16.023  0.3637  0.4640  0.3162
  831MPD2    C212271   3.106   3.554  16.018  0.0394 -0.0109 -0.6462
  831MPD2    C312272   2.996   3.569  16.101  0.7217  0.1381 -0.3289
  831MPD2    C412273   2.994   3.686  16.176  0.5476 -0.7023  0.0236
  831MPD2    C512274   3.100   3.774  16.172  0.2652  0.3229  0.2305
  831MPD2     H12275   3.099   3.468  15.953 -1.0299  0.2227 -0.8394
  831MPD2    H112276   2.916   3.711  16.247  0.6834  0.2566 -0.1692
  831MPD2    H212277   3.284   3.825  16.113 -0.8244  0.7765 -1.7515
  831MPD2    H312278   3.098   3.853  16.247 -1.5821  0.3651  0.1424
  831MPD2     N12279   2.888   3.475  16.115 -0.2252 -0.7302  0.2064
  831MPD2    H512280   2.814   3.494  16.181 -1.6717 -2.4757 -0.9066
  831MPD2    N112281   3.314   3.639  15.922 -0.3461  0.7813 -0.1574
  831MPD2    H712282   3.394   3.702  15.932  0.0660  0.3298 -0.6295
  832MPD2     C12283   1.690   4.289  16.832 -0.1494 -0.1948 -0.5202
  832MPD2    C112284   1.645   4.403  16.895 -0.0858 -0.2047 -0.2112
  832MPD2    C212285   1.541   4.473  16.826 -0.3692  0.6933 -0.7275
  832MPD2    C312286   1.483   4.421  16.713  0.2757  0.9250 -0.4223
  832MPD2    C412287   1.520   4.298  16.665 -0.3815 -0.0335  0.2455
  832MPD2    C512288   1.630   4.235  16.722 -0.0812 -0.2552  0.0798
  832MPD2     H12289   1.495   4.563  16.866  1.1099  0.0786  2.3072
  832MPD2    H112290   1.484   4.255  16.573  0.9865 -0.3477 -0.1421
  832MPD2    H212291   1.766   4.225  16.874  0.7239  1.3197  0.1886
  832MPD2    H312292   1.669   4.143  16.680 -0.4234  0.7979 -2.5526
  832MPD2     N12293   1.374   4.475  16.651 -0.0769 -0.0079 -0.0715
  832MPD2    H512294   1.308   4.414  16.604 -1.9718  1.6095  0.5116
  832MPD2    N112295   1.688   4.429  17.030  0.2154 -0.5684 -0.5369
  832MPD2    H712296   1.770   4.389  17.073 -0.0119 -1.3700 -0.8448
  833MPD2     C12297   3.473   1.573  12.058 -0.4914  0.4921 -0.0195
  833MPD2    C112298   3.447   1.669  11.957  0.3454  0.1090  0.0161
  833MPD2    C212299   3.525   1.668  11.839 -0.2420 -0.2952 -0.3534
  833MPD2    C312300   3.622   1.570  11.820  0.2357  0.0727  0.9593
  833MPD2    C412301   3.632   1.470  11.910 -0.2624  0.1884  0.6193
  833MPD2    C512302   3.565   1.478  12.029 -0.1385 -0.0874 -0.3155
  833MPD2     H12303   3.516   1.745  11.763  1.3482  0.0326 -0.2051
  833MPD2    H112304   3.700   1.387  11.896  0.7015  1.0123  0.4170
  833MPD2    H212305   3.422   1.573  12.154  0.0744  0.9560  0.2769
  833MPD2    H312306   3.575   1.404  12.108  0.8091 -0.1278 -0.4690
  833MPD2     N12307   3.705   1.575  11.707 -0.1656  0.0943  0.5102
  833MPD2    H512308   3.736   1.486  11.671  3.1188  1.2241  0.5833
  833MPD2    N112309   3.345   1.766  11.988 -0.0429 -0.5850  0.7498
  833MPD2    H712310   3.319   1.767  12.086 -1.3637 -2.7666  0.3977
  834MPD2     C12311   3.621   0.789  11.298 -0.1435 -0.1472  0.4621
  834MPD2    C112312   3.620   0.869  11.188  0.7766  0.0643 -0.7694
  834MPD2    C212313   3.652   1.003  11.199  0.3348  0.1328  0.1225
  834MPD2    C312314   3.699   1.054  11.316  0.4008 -0.3950 -0.3913
  834MPD2    C412315   3.707   0.969  11.426  0.5277  0.0123 -0.4924
  834MPD2    C512316   3.667   0.835  11.416  0.2680  0.8982 -0.2501
  834MPD2     H12317   3.635   1.069  11.114 -1.4167 -0.7365 -0.1877
  834MPD2    H112318   3.741   0.999  11.524 -1.6361  0.4786  0.1312
  834MPD2    H212319   3.599   0.683  11.300  2.7327 -0.7789 -1.8659
  834MPD2    H312320   3.688   0.763  11.494 -3.5263 -1.2551 -1.2412
  834MPD2     N12321   3.704   1.195  11.328 -0.0876  0.3039  0.2208
  834MPD2    H512322   3.685   1.256  11.249  0.2307  0.8660  0.5758
  834MPD2    N112323   3.578   0.806  11.070  0.5696  0.4560  0.0045
  834MPD2    H712324   3.569   0.705  11.073 -1.4369  0.6237 -0.1397
  835MPD2     C12325   3.959   3.872  11.079 -0.0983  0.2760  0.8355
  835MPD2    C112326   3.843   3.925  11.136  0.0672  0.5391 -0.1003
  835MPD2    C212327   3.828   3.899  11.272  0.0463  0.9248 -0.1499
  835MPD2    C312328   3.918   3.819  11.338  0.0330  0.2137  0.2504
  835MPD2    C412329   4.032   3.776  11.280  0.2110 -0.0716 -0.3523
  835MPD2    C512330   4.049   3.804  11.148  0.2610  0.1749 -0.4485
  835MPD2     H12331   3.740   3.941  11.320  0.5331  1.3351  0.3837
  835MPD2    H112332   4.108   3.725  11.338  1.1339  0.7630 -0.8307
  835MPD2    H212333   3.995   3.883  10.978 -1.7408 -1.0268  0.1067
  835MPD2    H312334   4.133   3.772  11.088  0.1390 -0.0633 -0.4938
  835MPD2     N12335   3.894   3.782  11.469 -0.2393 -0.1975  0.9359
  835MPD2    H512336   3.977   3.756  11.522  1.2419 -1.2877 -1.9119
  835MPD2    N112337   3.749   4.001  11.062  0.4689  0.2132 -1.1490
  835MPD2    H712338   3.673   4.036  11.118  0.2650 -2.8550  0.4594
  836MPD2     C12339   3.496   3.563  12.289  0.4057 -0.2957 -0.2648
  836MPD2    C112340   3.477   3.655  12.190 -0.2332  0.6871  0.1113
  836MPD2    C212341   3.413   3.772  12.213 -0.0643  0.0744 -0.1301
  836MPD2    C312342   3.373   3.813  12.334  0.2714 -0.2659 -0.1843
  836MPD2    C412343   3.393   3.721  12.436  0.3593 -0.3940 -0.0921
  836MPD2    C512344   3.459   3.602  12.417 -0.0938  0.2107 -0.1367
  836MPD2     H12345   3.399   3.846  12.135  0.3680 -1.0932 -1.3022
  836MPD2    H112346   3.356   3.742  12.536  0.2186 -2.3947  0.2807
  836MPD2    H212347   3.547   3.469  12.270  1.2840  0.5769 -2.2030
  836MPD2    H312348   3.469   3.533  12.500 -0.9067  0.2883  0.0279
  836MPD2     N12349   3.303   3.930  12.357  0.5317  0.0591 -0.1897
  836MPD2    H512350   3.317   3.979  12.445  0.6203  1.0000 -0.7291
  836MPD2    N112351   3.535   3.627  12.062  0.2304 -0.2961 -0.9059
  836MPD2    H712352   3.579   3.535  12.058 -1.2993 -1.0354 -0.6711
  837MPD2     C12353   1.906   3.632  10.535 -0.0234  0.0498 -0.1377
  837MPD2    C112354   1.789   3.668  10.473  0.6596  0.0351 -0.1248
  837MPD2    C212355   1.732   3.786  10.506  0.2242  0.2206  0.6721
  837MPD2    C312356   1.788   3.870  10.602 -0.1126 -0.0331  0.3678
  837MPD2    C412357   1.901   3.828  10.667  0.8488  0.3643 -0.2095
  837MPD2    C512358   1.965   3.719  10.630  0.6813  0.3872  0.9470
  837MPD2     H12359   1.644   3.825  10.458  1.5175  1.5229 -0.6257
  837MPD2    H112360   1.955   3.900  10.728  0.5304  1.7460 -1.5483
  837MPD2    H212361   1.966   3.545  10.510 -2.5311 -1.6193 -0.3104
  837MPD2    H312362   2.058   3.684  10.674  0.9920 -0.8367 -0.6677
  837MPD2     N12363   1.730   3.995  10.622 -0.1618  0.2765 -0.0711
  837MPD2    H512364   1.633   4.008  10.592  0.3607  3.7358 -0.1641
  837MPD2    N112365   1.725   3.587  10.376 -0.3478 -0.2252 -1.4316
  837MPD2    H712366   1.641   3.634  10.343 -1.3581 -1.7642 -1.0329
  838MPD2     C12367   4.621   1.232  10.819  0.2808 -0.5603  0.7205
  838MPD2    C112368   4.633   1.342  10.902 -0.4319 -0.3746 -0.5496
  838MPD2    C212369   4.579   1.318  11.027 -0.1217 -0.6497 -0.3188
  838MPD2    C312370   4.531   1.197  11.076  0.2183  0.1505 -0.3320
  838MPD2    C412371   4.524   1.091  10.988  0.7312 -0.7903 -0.1359
  838MPD2    C512372   4.571   1.110  10.857 -0.6987 -0.4847 -0.3674
  838MPD2     H12373   4.572   1.403  11.094  0.1373  0.6737 -1.9658
  838MPD2    H112374   4.482   0.997  11.021  0.5143 -0.1677  1.3426
  838MPD2    H212375   4.653   1.235  10.716  0.6800 -0.3146  0.8493
  838MPD2    H312376   4.563   1.040  10.775  1.2154  0.3126 -1.2219
  838MPD2     N12377   4.481   1.196  11.206 -0.3733  0.1524  0.1450
  838MPD2    H512378   4.502   1.282  11.255  1.4660 -1.7701  2.7143
  838MPD2    N112379   4.684   1.467  10.861 -0.1072 -0.4399 -0.4344
  838MPD2    H712380   4.687   1.540  10.932 -1.4255 -2.7895  2.0360
  839MPD2     C12381   0.126   1.288  11.401 -0.3239 -0.3217 -0.3852
  839MPD2    C112382   0.176   1.253  11.280 -0.1788  0.1298 -0.6174
  839MPD2    C212383   0.247   1.344  11.199  0.1325 -0.1398  0.0102
  839MPD2    C312384   0.249   1.471  11.235 -0.8648 -0.3966  0.1569
  839MPD2    C412385   0.179   1.509  11.352 -0.5184  0.0900 -0.2161
  839MPD2    C512386   0.129   1.414  11.439 -0.2191 -0.8429  0.1917
  839MPD2     H12387   0.288   1.314  11.103  0.6956 -0.1311  0.2499
  839MPD2    H112388   0.183   1.612  11.386  2.4335 -0.7050  1.8493
  839MPD2    H212389   0.065   1.218  11.459 -2.6875  1.8321 -0.2859
  839MPD2    H312390   0.085   1.446  11.532 -1.2786  1.9342 -1.2585
  839MPD2     N12391   0.286   1.575  11.147 -0.1832 -0.0306 -0.4712
  839MPD2    H512392   0.239   1.663  11.162  0.9592  0.3161  1.1218
  839MPD2    N112393   0.168   1.121  11.229 -0.5175 -1.3398  0.2946
  839MPD2    H712394   0.193   1.113  11.131 -2.1679  0.4901 -0.2879
  840MPD2     C12395   0.555   4.105  10.046  0.0605 -0.2653 -0.0822
  840MPD2    C112396   0.500   4.072  10.170 -0.1946  0.0241  0.8620
  840MPD2    C212397   0.513   4.163  10.270 -0.1389 -0.0935 -0.3565
  840MPD2    C312398   0.596   4.278  10.255  0.3672 -0.1943 -0.2191
  840MPD2    C412399   0.655   4.305  10.134 -0.5707 -0.1941 -0.1234
  840MPD2    C512400   0.639   4.220  10.033 -0.0940 -0.1207  0.2676
  840MPD2     H12401   0.456   4.156  10.362 -0.2056 -1.7392 -0.5279
  840MPD2    H112402   0.722   4.389  10.120  1.5803 -1.5667  1.9253
  840MPD2    H212403   0.521   4.047   9.961  0.6024 -0.7153  0.0117
  840MPD2    H312404   0.675   4.247   9.934 -0.0349  0.5895  0.4796
  840MPD2     N12405   0.624   4.364  10.368  0.7624 -0.1062  0.1863
  840MPD2    H512406   0.663   4.453  10.339 -1.8794  1.0254  0.1675
  840MPD2    N112407   0.410   3.969  10.174 -0.4558 -0.3280  0.4486
  840MPD2    H712408   0.388   3.927  10.084  1.3047  1.3561 -0.7719
  841MPD2     C12409   0.320   4.139  14.072  0.2178  0.7661 -0.2208
  841MPD2    C112410   0.352   4.027  14.149 -0.2330  0.7627  0.3818
  841MPD2    C212411   0.470   4.026  14.217  0.6481 -0.1209  0.0954
  841MPD2    C312412   0.554   4.136  14.220 -0.4839 -0.1541  0.2947
  841MPD2    C412413   0.521   4.242  14.147  0.1372 -0.1192 -0.1012
  841MPD2    C512414   0.410   4.241  14.068 -0.6142 -1.3120 -0.1495
  841MPD2     H12415   0.479   3.935  14.276  1.0152  1.0787  1.8979
  841MPD2    H112416   0.576   4.336  14.146  0.2825 -0.2411 -3.0541
  841MPD2    H212417   0.227   4.139  14.017 -0.0674  0.3805  0.2588
  841MPD2    H312418   0.396   4.323  13.998  3.2561 -1.2661 -0.8913
  841MPD2     N12419   0.673   4.130  14.302  0.3106  0.6114  0.1316
  841MPD2    H512420   0.673   4.069  14.383 -0.0756  1.3079  0.6546
  841MPD2    N112421   0.267   3.912  14.148 -0.2113 -0.1084 -0.5643
  841MPD2    H712422   0.318   3.830  14.181 -0.5859  0.2464  0.9101
  842MPD2     C12423   1.062   0.232  16.671  0.6373 -0.1563 -0.3531
  842MPD2    C112424   0.946   0.159  16.699  0.6164  0.5990 -0.3242
  842MPD2    C212425   0.954   0.060  16.794 -0.8573 -0.5889 -0.1902
  842MPD2    C312426   1.055   0.059  16.892  0.3445 -0.1830 -0.4114
  842MPD2    C412427   1.164   0.136  16.863 -0.4982  0.4565  0.4990
  842MPD2    C512428   1.172   0.211  16.750 -0.7594 -0.1478  0.3312
  842MPD2     H12429   0.862   0.011  16.823  0.3379 -1.4990  2.0120
  842MPD2    H112430   1.249   0.139  16.930 -2.3546  2.0506  2.7786
  842MPD2    H212431   1.061   0.301  16.587 -0.6947  0.9543  0.5618
  842MPD2    H312432   1.263   0.270  16.738  0.1510 -1.4054  1.0495
  842MPD2     N12433   1.048   0.005  17.025 -0.0393  0.2682 -0.1765
  842MPD2    H512434   1.116   0.038  17.091 -1.8364  0.5847  1.5147
  842MPD2    N112435   0.837   0.190  16.621 -0.1721 -0.5083 -0.4517
  842MPD2    H712436   0.839   0.278  16.571 -0.7126  0.1445  0.6546
  843MPD2     C12437   2.289   0.982  17.585  0.1510  0.2197  0.8866
  843MPD2    C112438   2.380   0.926  17.679 -0.6566 -0.8551  0.1213
  843MPD2    C212439   2.473   1.004  17.731  0.4151 -0.3857 -0.6623
  843MPD2    C312440   2.504   1.128  17.677 -0.5280  0.5767  0.7147
  843MPD2    C412441   2.423   1.183  17.582 -0.1306  0.0860 -0.2297
  843MPD2    C512442   2.312   1.115  17.544  0.4035 -0.1224 -0.1137
  843MPD2     H12443   2.529   0.965   0.080  1.4607 -0.6104 -1.4754
  843MPD2    H112444   2.441   1.282  17.540 -0.7040  1.4038  2.6378
  843MPD2    H212445   2.201   0.934  17.544  0.0499  0.4073  0.8865
  843MPD2    H312446   2.234   1.167  17.489 -0.6791  0.6074  2.1021
  843MPD2     N12447   2.615   1.204  17.727  0.3368 -0.0159 -0.3171
  843MPD2    H512448   2.625   1.297  17.690 -1.6202  0.5093  0.4744
  843MPD2    N112449   2.343   0.791  17.720 -0.3426 -0.9356  0.0408
  843MPD2    H712450   2.260   0.757  17.673 -1.9615  3.2850 -0.1603
  844MPD2     C12451   1.164   4.456  16.006 -0.3399  0.8322  0.1555
  844MPD2    C112452   1.280   4.388  15.986  0.2620  0.3442 -0.2620
  844MPD2    C212453   1.396   4.433  16.047 -0.1799 -0.4677  0.2924
  844MPD2    C312454   1.397   4.526  16.143  0.0062 -0.2279  0.8501
  844MPD2    C412455   1.285   4.600  16.169 -0.1273 -0.5243 -0.3931
  844MPD2    C512456   1.170   4.562  16.095  0.2593  0.4724  0.9014
  844MPD2     H12457   1.486   4.375  16.033  1.4850  1.7491  1.7894
  844MPD2    H112458   1.284   4.679  16.243 -0.7782 -2.3744  1.5790
  844MPD2    H212459   1.070   4.449  15.953  0.8023  0.7379 -1.9046
  844MPD2    H312460   1.082   4.623  16.111 -0.7205 -0.2006 -1.9299
  844MPD2     N12461   1.513   4.539  16.215  0.1483 -0.1213  0.6930
  844MPD2    H512462   1.588   4.484  16.175  0.2494  0.4030  0.1655
  844MPD2    N112463   1.286   4.276  15.901  0.3609  0.6250  0.0407
  844MPD2    H712464   1.380   4.240  15.885  0.3451  0.2396  0.8201
  845MPD2     C12465   1.770   0.256  17.073  0.7631 -0.4973  0.0903
  845MPD2    C112466   1.673   0.271  16.979  0.0141  0.2476  0.0096
  845MPD2    C212467   1.682   0.199  16.861  0.1110 -0.1606 -0.1471
  845MPD2    C312468   1.785   0.108  16.840  0.9971 -1.2543 -0.6089
  845MPD2    C412469   1.896   0.108  16.916 -0.6003  0.4888 -0.2954
  845MPD2    C512470   1.883   0.182  17.032  0.0418 -0.6240 -0.3903
  845MPD2     H12471   1.600   0.214  16.792  0.8328  0.7658 -0.8033
  845MPD2    H112472   1.971   0.032  16.897 -0.3370  0.8840 -0.8022
  845MPD2    H212473   1.764   0.298  17.174  0.3723  2.5430 -1.1855
  845MPD2    H312474   1.973   0.176  17.091  0.0474  3.1944 -0.0012
  845MPD2     N12475   1.765   0.020  16.740 -0.0061 -0.4224 -0.0235
  845MPD2    H512476   1.680   0.036  16.687 -0.6104 -1.0626  0.7363
  845MPD2    N112477   1.567   0.361  17.005 -0.1332 -0.0925 -0.6721
  845MPD2    H712478   1.566   0.416  17.090 -1.1240  0.2386 -0.9022
  846MPD2     C12479   3.112   1.261  13.794  0.0871 -0.8031  0.2574
  846MPD2    C112480   2.974   1.264  13.794 -0.7031  0.9260 -0.2420
  846MPD2    C212481   2.906   1.247  13.914 -0.0227 -0.0032  0.5739
  846MPD2    C312482   2.974   1.237  14.037 -0.4146 -0.1271 -0.2684
  846MPD2    C412483   3.108   1.241  14.029  0.5693 -0.1468  0.3652
  846MPD2    C512484   3.173   1.262  13.913  0.5443 -0.2610 -0.0258
  846MPD2     H12485   2.798   1.242  13.904  0.0190 -1.5604  0.7794
  846MPD2    H112486   3.167   1.228  14.119  0.6362  1.4318  0.5459
  846MPD2    H212487   3.169   1.269  13.703 -1.1978  2.6287 -0.2559
  846MPD2    H312488   3.279   1.243  13.921  1.2734  2.8712 -1.9375
  846MPD2     N12489   2.898   1.219  14.157 -0.2387  0.0247  0.2750
  846MPD2    H512490   2.798   1.216  14.144  0.0707 -2.7817 -1.5237
  846MPD2    N112491   2.893   1.289  13.676 -0.6217 -0.7394 -0.7096
  846MPD2    H712492   2.796   1.315  13.686 -0.3723  0.3995 -1.2463
  847MPD2     C12493   3.289   2.131  14.524 -0.5277  0.0274  0.0715
  847MPD2    C112494   3.343   2.239  14.578 -0.6533  0.3092 -0.3101
  847MPD2    C212495   3.456   2.224  14.649  0.3521 -0.0610  0.3920
  847MPD2    C312496   3.526   2.103  14.651  0.6286  0.5082  0.7879
  847MPD2    C412497   3.464   1.993  14.595  0.1902  0.2155  0.8764
  847MPD2    C512498   3.352   2.008  14.522 -0.1379 -1.2827 -0.7462
  847MPD2     H12499   3.488   2.310  14.706 -1.3779  0.3521  0.7347
  847MPD2    H112500   3.497   1.891  14.609 -1.2111  0.0254  2.6606
  847MPD2    H212501   3.191   2.128  14.478 -0.0109  0.8109 -1.0757
  847MPD2    H312502   3.307   1.923  14.471 -0.8902 -1.2344 -0.1640
  847MPD2     N12503   3.639   2.087  14.731  0.6825  0.1719  0.4384
  847MPD2    H512504   3.679   1.995  14.750  1.7558  0.3234 -1.0394
  847MPD2    N112505   3.284   2.370  14.575 -0.2391 -0.4719 -0.2729
  847MPD2    H712506   3.334   2.445  14.621 -0.4220  0.6973 -2.0110
  848MPD2     C12507   0.912   0.133  16.090  0.4651 -0.8900 -0.3129
  848MPD2    C112508   1.016   0.174  16.173  0.2450  0.8454 -0.3106
  848MPD2    C212509   1.085   0.290  16.151 -0.6343 -0.0702 -0.2864
  848MPD2    C312510   1.055   0.365  16.035  0.0538  0.6468 -0.9467
  848MPD2    C412511   0.950   0.327  15.957 -0.3956  0.1146  0.7202
  848MPD2    C512512   0.884   0.211  15.979  0.4088  0.2768 -0.4750
  848MPD2     H12513   1.159   0.319  16.225 -0.0114 -2.4745  0.0269
  848MPD2    H112514   0.913   0.384  15.873 -1.2006  0.3689  1.2387
  848MPD2    H212515   0.842   0.053  16.116  0.4712 -0.6062  0.5821
  848MPD2    H312516   0.812   0.173  15.907  0.2112  0.1616 -0.2155
  848MPD2     N12517   1.109   0.492  15.989 -0.2654  0.5244  0.5725
  848MPD2    H512518   1.068   0.542  15.911 -2.2925 -1.4258  0.4166
  848MPD2    N112519   1.044   0.103  16.298  0.2258  0.5676 -0.2420
  848MPD2    H712520   1.111   0.138  16.366 -0.9521 -0.4630  1.4454
  849MPD2     C12521   4.701   0.210  14.671  0.0933 -0.8061  1.0038
  849MPD2    C112522   0.072   0.203  14.578  0.5972  0.5698  0.5034
  849MPD2    C212523   0.195   0.155  14.609  0.8977  0.4427  0.2602
  849MPD2    C312524   0.216   0.097  14.735 -0.2121 -0.6486  0.1509
  849MPD2    C412525   0.117   0.107  14.829 -0.3164 -0.4056  0.2523
  849MPD2    C512526   4.730   0.164  14.798 -0.5744  0.0560  0.2185
  849MPD2     H12527   0.269   0.152  14.530  0.2874  1.4619 -0.3552
  849MPD2    H112528   0.134   0.070  14.930 -0.5661  1.0377  0.8200
  849MPD2    H212529   4.606   0.259  14.652  0.7873 -0.1140 -0.7163
  849MPD2    H312530   4.650   0.185  14.868 -2.5360 -0.7329 -1.7711
  849MPD2     N12531   0.338   0.031  14.762  0.3894  0.3250 -0.2077
  849MPD2    H512532   0.378   0.027  14.855  3.5493  2.3846 -1.4843
  849MPD2    N112533   0.072   0.256  14.448 -0.3994 -0.4383 -1.2734
  849MPD2    H712534   0.160   0.262  14.396 -0.5739  0.6761 -1.4371
  850MPD2     C12535   3.036   3.523  14.966 -1.0744  0.2584 -0.6311
  850MPD2    C112536   3.072   3.429  14.874  0.4821 -0.2121  0.2244
  850MPD2    C212537   3.181   3.440  14.791 -0.0665 -0.5254  0.3089
  850MPD2    C312538   3.266   3.551  14.827  0.5755  0.4545 -0.4241
  850MPD2    C412539   3.217   3.654  14.911 -0.0556  0.1678  0.5022
  850MPD2    C512540   3.107   3.642  14.987 -0.2686 -0.2680 -0.5801
  850MPD2     H12541   3.202   3.366  14.714 -0.1052 -0.8556  0.6168
  850MPD2    H112542   3.272   3.747  14.916 -1.4899  0.8604  3.0558
  850MPD2    H212543   2.940   3.512  15.016 -0.0684  0.0799  1.2497
  850MPD2    H312544   3.063   3.721  15.047  0.2962  0.5093 -1.1809
  850MPD2     N12545   3.396   3.560  14.772  0.1799 -0.1920  0.3578
  850MPD2    H512546   3.454   3.636  14.806 -0.7704  1.4425 -1.7292
  850MPD2    N112547   2.998   3.307  14.869 -0.2143  0.6089 -0.0000
  850MPD2    H712548   2.914   3.300  14.925 -0.6857  0.4472 -0.7165
  851MPD2     C12549   3.327   2.698  15.039 -0.0679 -0.4655 -0.1448
  851MPD2    C112550   3.209   2.652  14.993 -1.0067 -0.3479 -0.2024
  851MPD2    C212551   3.189   2.522  14.955  0.1321  0.4182 -0.1728
  851MPD2    C312552   3.292   2.424  14.963 -0.2067 -0.2328  0.1720
  851MPD2    C412553   3.405   2.468  15.024 -0.2478 -0.3132  0.3266
  851MPD2    C512554   3.423   2.602  15.059 -0.3604  0.4067  0.4443
  851MPD2     H12555   3.086   2.496  14.930  0.7509 -1.2036 -1.0219
  851MPD2    H112556   3.493   2.409  15.044  1.4138  1.2668 -2.3185
  851MPD2    H212557   3.336   2.805  15.056 -0.7123 -0.1396 -1.8905
  851MPD2    H312558   3.520   2.627  15.100  0.5874 -0.3318 -1.3389
  851MPD2     N12559   3.266   2.290  14.943  0.4938 -0.0096  0.0144
  851MPD2    H512560   3.170   2.266  14.921  0.7616  0.4340 -1.6219
  851MPD2    N112561   3.113   2.753  14.972  0.1663  0.5161  0.1648
  851MPD2    H712562   3.136   2.851  14.987 -1.4172  0.6349  1.8289
  852MPD2     C12563   3.028   0.146  10.337 -0.2794  0.4161  0.1364
  852MPD2    C112564   3.014   0.270  10.407  0.6845  0.3334  0.0777
  852MPD2    C212565   3.057   0.383  10.335  0.1245  0.3273 -0.2476
  852MPD2    C312566   3.099   0.381  10.206 -0.3840  0.1930 -0.5148
  852MPD2    C412567   3.109   0.262  10.140  0.0375  0.4441 -0.3609
  852MPD2    C512568   3.073   0.144  10.207 -0.9311  0.0794 -0.1353
  852MPD2     H12569   3.052   0.478  10.387 -1.0377 -0.2146  0.6381
  852MPD2    H112570   3.138   0.257  10.035 -1.5755 -1.5785 -0.7146
  852MPD2    H212571   2.998   0.052  10.383  0.5493 -0.8231 -1.8236
  852MPD2    H312572   3.071   0.052  10.151  0.2552 -0.6404  1.0063
  852MPD2     N12573   3.127   0.504  10.139  0.3266  0.4440 -0.4729
  852MPD2    H512574   3.136   0.586  10.199  0.9937  1.5817 -2.1033
  852MPD2    N112575   2.963   0.283  10.540  0.4021  0.4615 -0.0827
  852MPD2    H712576   2.960   0.380  10.569 -2.1689  0.2225  0.4470
  853MPD2     C12577   4.663   0.226  12.192 -0.5455  0.7892  0.8318
  853MPD2    C112578   4.550   0.272  12.120  0.0701 -0.6084  0.8702
  853MPD2    C212579   4.513   0.214  12.000  0.0219  0.1826  0.5032
  853MPD2    C312580   4.593   0.115  11.947 -0.6368 -1.2909 -0.2725
  853MPD2    C412581   4.710   0.080  12.011 -0.2812 -0.0264 -0.5159
  853MPD2    C512582   0.008   0.135  12.130  0.0302  0.4817 -0.2921
  853MPD2     H12583   4.427   0.248  11.943 -0.8089 -0.2388  1.5234
  853MPD2    H112584   0.039   4.733  11.975  0.3474 -0.3892  1.4392
  853MPD2    H212585   4.692   0.253  12.293  0.9535 -0.7917  0.8271
  853MPD2    H312586   0.092   0.092  12.183 -0.3417  0.2866  0.1349
  853MPD2     N12587   4.570   0.061  11.820  0.1266  0.0040  0.3305
  853MPD2    H512588   4.653   0.019  11.780 -0.3603 -1.2572  0.6297
  853MPD2    N112589   4.484   0.377  12.178 -0.1406  0.5042 -0.2742
  853MPD2    H712590   4.524   0.405  12.267 -2.5757 -0.4940  1.1370
  854MPD2     C12591   1.755   1.030  13.211  0.3421  0.6339 -0.4049
  854MPD2    C112592   1.656   0.937  13.202  0.1939  0.4217  0.2798
  854MPD2    C212593   1.683   0.811  13.252  0.4686  0.2781 -0.2297
  854MPD2    C312594   1.811   0.790  13.306 -0.1130 -0.3239 -0.4805
  854MPD2    C412595   1.902   0.888  13.316 -0.1890  0.1717  0.4227
  854MPD2    C512596   1.875   1.010  13.268 -0.0896  0.3472 -0.3027
  854MPD2     H12597   1.612   0.729  13.249  2.4398 -1.4729  0.5114
  854MPD2    H112598   2.000   0.863  13.355 -0.6202 -0.9551  0.7851
  854MPD2    H212599   1.749   1.129  13.167 -1.5805  0.5663 -0.2984
  854MPD2    H312600   1.948   1.089  13.277 -1.2943  1.7837 -3.0753
  854MPD2     N12601   1.854   0.661  13.344 -0.0031  0.0358  0.3832
  854MPD2    H512602   1.946   0.650  13.383 -1.0004  0.7108  2.9142
  854MPD2    N112603   1.537   0.973  13.129 -0.1102 -0.4341 -0.1585
  854MPD2    H712604   1.531   1.058  13.074 -0.5354 -0.4586 -0.1541
  855MPD2     C12605   2.216   0.356  14.078 -0.0257  0.8959  0.1341
  855MPD2    C112606   2.152   0.241  14.026 -0.0163  0.1815  0.2246
  855MPD2    C212607   2.099   0.236  13.896  0.7669  0.0447 -0.0885
  855MPD2    C312608   2.114   0.350  13.813 -0.4782  0.2572  0.2525
  855MPD2    C412609   2.173   0.463  13.868  0.2254  0.1121 -0.6644
  855MPD2    C512610   2.218   0.466  13.996 -0.2487 -0.6665  0.1717
  855MPD2     H12611   2.045   0.148  13.864  1.0584  0.0978 -0.7198
  855MPD2    H112612   2.185   0.541  13.794 -0.4616  1.0607  0.2221
  855MPD2    H212613   2.250   0.369  14.180  0.6091 -1.3059  0.2041
  855MPD2    H312614   2.263   0.555  14.040  1.6074 -1.7631  0.4742
  855MPD2     N12615   2.068   0.359  13.680  0.0685  0.7784 -0.3875
  855MPD2    H512616   2.080   0.447  13.630 -1.0417  0.9645 -0.3325
  855MPD2    N112617   2.141   0.119  14.092  0.0785  0.2251 -0.4196
  855MPD2    H712618   2.082   0.051  14.044 -0.8883 -0.0622  1.1538
  856MPD2     C12619   3.521   1.389  14.169  0.2671  0.7368  0.3205
  856MPD2    C112620   3.609   1.498  14.140  0.2448 -0.2116 -0.5238
  856MPD2    C212621   3.560   1.627  14.115  0.9488  0.8401 -0.4832
  856MPD2    C312622   3.427   1.649  14.127 -0.0038  0.6907  0.3345
  856MPD2    C412623   3.342   1.541  14.148  0.7228  0.0060  0.3502
  856MPD2    C512624   3.388   1.414  14.177  0.0106 -0.8700  0.2591
  856MPD2     H12625   3.627   1.709  14.093  1.6830  0.6762  1.1206
  856MPD2    H112626   3.234   1.552  14.144  0.6104 -1.1116  0.2370
  856MPD2    H212627   3.557   1.287  14.177  2.1070  1.4963  1.6780
  856MPD2    H312628   3.314   1.344  14.215 -0.4933 -0.4653  0.0179
  856MPD2     N12629   3.368   1.772  14.111 -0.2074 -0.3365  0.2743
  856MPD2    H512630   3.269   1.774  14.087 -0.5287 -0.6974  1.5490
  856MPD2    N112631   3.747   1.481  14.137 -0.1782 -0.8923  0.2065
  856MPD2    H712632   3.794   1.569  14.118  0.7773 -1.1707  1.3134
  857MPD2     C12633   1.057   3.579  12.517 -0.5961  0.3518  0.7954
  857MPD2    C112634   1.122   3.535  12.633 -0.0092 -0.1096 -0.5325
  857MPD2    C212635   1.116   3.607  12.750  0.2804  0.0510  0.2848
  857MPD2    C312636   1.043   3.725  12.748 -0.6207  0.2900  0.0873
  857MPD2    C412637   0.986   3.771  12.632 -1.1678  0.7080 -0.0939
  857MPD2    C512638   0.995   3.701  12.516  0.1600 -0.3006  0.2273
  857MPD2     H12639   1.157   3.577  12.846 -0.0254 -5.1541 -1.2559
  857MPD2    H112640   0.941   3.869  12.627 -0.6857  1.0469  2.1536
  857MPD2    H212641   1.060   3.525  12.423  0.7053 -0.5978  1.3749
  857MPD2    H312642   0.961   3.749  12.426  0.0828 -1.9227 -0.6045
  857MPD2     N12643   1.037   3.798  12.873  0.2848  0.1269 -0.4326
  857MPD2    H512644   1.103   3.768  12.944  0.2264  1.1867  0.0688
  857MPD2    N112645   1.191   3.413  12.624  0.2308  0.2755  0.2359
  857MPD2    H712646   1.194   3.372  12.531  1.5068  0.9469 -0.0201
  858MPD2     C12647   1.524   1.968  16.932  0.0945  0.4825 -0.2301
  858MPD2    C112648   1.621   1.999  16.844  0.4659  0.6884  0.3990
  858MPD2    C212649   1.674   2.126  16.825 -0.0737 -0.1069 -0.7502
  858MPD2    C312650   1.636   2.218  16.924  0.3513 -0.6353 -0.2122
  858MPD2    C412651   1.534   2.190  17.021 -0.3345 -0.3657 -0.2458
  858MPD2    C512652   1.479   2.067  17.019 -0.4114  0.0975 -0.0930
  858MPD2     H12653   1.752   2.144  16.752  2.4776 -0.5668  1.8648
  858MPD2    H112654   1.504   2.262  17.096  0.9943 -0.0324 -0.0363
  858MPD2    H212655   1.491   1.865  16.934  0.2827  0.3866 -1.5720
  858MPD2    H312656   1.394   2.037  17.080  0.7036 -1.0263  0.9293
  858MPD2     N12657   1.684   2.348  16.923 -0.0279 -0.1965 -0.2295
  858MPD2    H512658   1.654   2.410  16.998  0.9638 -1.9182  1.6203
  858MPD2    N112659   1.671   1.887  16.770 -0.7308  0.2740 -0.7993
  858MPD2    H712660   1.623   1.799  16.788  0.4348  0.3741  2.8050
  859MPD2     C12661   0.058   4.682  15.405  0.3414  0.6550  0.3796
  859MPD2    C112662   0.191   4.682  15.367  0.1375 -0.8767 -0.7511
  859MPD2    C212663   0.273   4.581  15.395  0.6362  0.5648 -0.8100
  859MPD2    C312664   0.232   4.470  15.463  0.1771  0.3654 -0.3388
  859MPD2    C412665   0.098   4.472  15.508 -0.6883  0.1615 -0.2396
  859MPD2    C512666   0.014   4.583  15.485 -0.1412 -0.1168 -0.7780
  859MPD2     H12667   0.377   4.596  15.368  1.0818 -0.5895  0.3046
  859MPD2    H112668   0.046   4.390  15.556 -2.4659  0.2752 -1.9857
  859MPD2    H212669   4.718   0.024  15.379 -0.0722  0.5422  1.2023
  859MPD2    H312670   4.644   4.594  15.514 -0.4722 -2.9098 -0.9214
  859MPD2     N12671   0.312   4.350  15.487 -0.3147  0.2774 -0.1631
  859MPD2    H512672   0.268   4.277  15.541 -0.1308 -0.6272 -1.2324
  859MPD2    N112673   0.249   0.064  15.299 -0.4374 -0.1064 -0.3894
  859MPD2    H712674   0.347   0.048  15.277 -0.5347 -1.4752  0.1488
  860MPD2     C12675   1.836   4.548  11.919 -0.4949 -0.1024  0.0804
  860MPD2    C112676   1.904   4.590  12.033  0.2503  0.1566  0.2069
  860MPD2    C212677   1.851   4.692  12.110 -0.1534  0.2197 -0.2362
  860MPD2    C312678   1.736   0.022  12.069  0.1229 -0.0332 -0.3329
  860MPD2    C412679   1.669   4.721  11.956  0.0683 -0.6377  0.3259
  860MPD2    C512680   1.718   4.617  11.878  0.0785  0.5670 -0.3283
  860MPD2     H12681   1.910   4.731  12.193 -0.1894  0.8272 -0.4918
  860MPD2    H112682   1.589   0.051  11.919 -0.5543 -1.4157  0.3341
  860MPD2    H212683   1.879   4.471  11.856 -0.5621  0.2007 -0.3363
  860MPD2    H312684   1.662   4.584  11.791 -0.5188  0.2126  0.1932
  860MPD2     N12685   1.694   0.127  12.155 -1.4358  0.3266 -0.3729
  860MPD2    H512686   1.738   0.137  12.246  1.5811  1.0137 -1.8958
  860MPD2    N112687   2.025   4.533  12.080 -0.4952  0.1088 -0.0419
  860MPD2    H712688   2.072   4.568  12.162 -1.3352 -0.2118  0.5808
  861MPD2     C12689   1.273   2.854  10.878  1.1312 -0.0341  0.4684
  861MPD2    C112690   1.293   2.981  10.929 -0.6319 -0.1147 -0.0719
  861MPD2    C212691   1.224   3.086  10.867 -0.0552 -0.0341 -0.2717
  861MPD2    C312692   1.158   3.067  10.749 -0.2554  0.3053 -0.0276
  861MPD2    C412693   1.145   2.937  10.700 -0.3847  0.4364 -0.5392
  861MPD2    C512694   1.195   2.834  10.770 -0.7293 -0.7106 -0.5937
  861MPD2     H12695   1.223   3.184  10.913 -1.2294  0.1207 -0.6345
  861MPD2    H112696   1.088   2.914  10.611 -0.0522 -2.9092  0.1084
  861MPD2    H212697   1.324   2.776  10.934 -0.0263 -1.8380 -0.9789
  861MPD2    H312698   1.192   2.745  10.708 -1.3110  0.0682 -1.6891
  861MPD2     N12699   1.080   3.177  10.693 -0.3162  0.1490 -0.1488
  861MPD2    H512700   1.090   3.262  10.748 -1.0507  1.5082 -2.1188
  861MPD2    N112701   1.356   3.001  11.056  0.0724 -0.3528  0.3423
  861MPD2    H712702   1.396   2.922  11.106 -1.0723 -0.9265  0.3499
  862MPD2     C12703   0.575   3.322  10.038 -0.5663  0.4875 -0.1713
  862MPD2    C112704   0.578   3.255  10.160 -0.4342 -0.4420  0.2372
  862MPD2    C212705   0.539   3.124  10.169  0.1219 -0.1735 -0.1756
  862MPD2    C312706   0.493   3.054  10.054 -0.2334 -0.0629 -0.2080
  862MPD2    C412707   0.506   3.119   9.933 -0.2120  0.1470 -0.1307
  862MPD2    C512708   0.545   3.248   9.926 -0.0290 -0.3220  0.4776
  862MPD2     H12709   0.548   3.071  10.263  0.1994  0.4505  0.1734
  862MPD2    H112710   0.478   3.072   9.839 -1.2222 -0.2302  0.3538
  862MPD2    H212711   0.619   3.419  10.017 -0.5991  0.1290 -1.8831
  862MPD2    H312712   0.542   3.302   9.832 -1.2231  0.2149  0.8157
  862MPD2     N12713   0.457   2.920  10.066 -0.4483 -0.5046 -0.6305
  862MPD2    H512714   0.445   2.871   9.978  1.7334 -1.6702 -0.2765
  862MPD2    N112715   0.634   3.309  10.278 -0.1056 -0.5398  0.5415
  862MPD2    H712716   0.608   3.254  10.360 -0.9803  1.8987  1.9088
  863MPD2     C12717   0.191   0.901  16.905 -0.7891  0.1538 -0.2296
  863MPD2    C112718   0.226   1.032  16.931  0.2497  0.1854 -0.3864
  863MPD2    C212719   0.347   1.060  16.992  0.3170  0.3940  0.0423
  863MPD2    C312720   0.428   0.951  17.022  0.4775  1.0056 -0.0715
  863MPD2    C412721   0.400   0.822  16.987 -0.2787  0.2616 -0.6176
  863MPD2    C512722   0.276   0.798  16.939  0.1236 -0.4661 -0.0168
  863MPD2     H12723   0.374   1.162  17.016  1.1022  0.4825 -1.2515
  863MPD2    H112724   0.468   0.740  17.005 -0.0835  0.8687  1.4022
  863MPD2    H212725   0.094   0.868  16.870 -0.5489 -1.9190  1.0499
  863MPD2    H312726   0.241   0.698  16.918 -0.7805  0.1189 -1.3219
  863MPD2     N12727   0.554   0.959  17.090  0.4443  0.2315  0.4925
  863MPD2    H512728   0.575   0.878  17.147  0.2018 -0.4756 -0.4166
  863MPD2    N112729   0.139   1.136  16.890 -0.0633 -0.1995 -0.1537
  863MPD2    H712730   0.056   1.107  16.839  0.8153 -2.4108 -0.2940
  864MPD2     C12731   0.648   2.027  17.645 -0.2633 -0.0715 -0.6877
  864MPD2    C112732   0.669   2.007  17.510 -1.4600  0.5997 -0.2057
  864MPD2    C212733   0.708   2.112  17.428 -0.2623 -0.1873  0.2226
  864MPD2    C312734   0.716   2.242  17.480 -0.2749  0.1206 -0.3126
  864MPD2    C412735   0.688   2.262  17.615  0.3454 -0.1849 -0.6280
  864MPD2    C512736   0.660   2.150  17.695 -0.2263 -0.3034 -0.0860
  864MPD2     H12737   0.730   2.101  17.323 -1.7021  0.3832 -0.1461
  864MPD2    H112738   0.691   2.360  17.663 -0.8300 -0.4935  0.0664
  864MPD2    H212739   0.625   1.952  17.720 -2.7270  1.0454 -0.3360
  864MPD2    H312740   0.635   2.168   0.064 -1.6696  1.7315 -0.7912
  864MPD2     N12741   0.758   2.353  17.403 -0.3540 -0.2468  0.0310
  864MPD2    H512742   0.754   2.445  17.447  2.6513 -0.1968  0.1993
  864MPD2    N112743   0.658   1.878  17.461  0.1303 -0.0257 -0.5320
  864MPD2    H712744   0.609   1.812  17.521 -2.2187  1.7000 -0.5717
  865MPD2     C12745   0.237   2.642  16.783  0.8827  0.4215 -0.2644
  865MPD2    C112746   0.366   2.623  16.726 -0.4138  0.5220 -0.0720
  865MPD2    C212747   0.474   2.664  16.803 -0.4767  0.3504 -0.7485
  865MPD2    C312748   0.461   2.710  16.932  0.1082  0.7040  0.3621
  865MPD2    C412749   0.338   2.730  16.983  0.0713 -0.3157 -0.3647
  865MPD2    C512750   0.226   2.702  16.905 -0.1485 -0.4405 -0.1163
  865MPD2     H12751   0.568   2.641  16.755 -0.0125 -0.3375  0.4955
  865MPD2    H112752   0.321   2.778  17.078 -0.4699  1.2763 -1.2473
  865MPD2    H212753   0.156   2.602  16.723  1.6023 -0.9729 -0.3033
  865MPD2    H312754   0.128   2.715  16.949 -0.0823 -0.7422  0.1187
  865MPD2     N12755   0.579   2.720  17.004  0.2225  0.4639  0.1457
  865MPD2    H512756   0.672   2.715  16.962  0.7780 -0.1261  1.4532
  865MPD2    N112757   0.381   2.549  16.605  0.2425  0.1332  0.0906
  865MPD2    H712758   0.303   2.497  16.566  0.1277  0.0694  0.4006
  866MPD2     C12759   2.057   3.644  11.382  0.1647 -0.8773 -0.7421
  866MPD2    C112760   2.014   3.543  11.312 -0.1999  0.4947 -0.2307
  866MPD2    C212761   1.893   3.548  11.251 -0.1765  0.5901 -0.3842
  866MPD2    C312762   1.812   3.653  11.273  0.4091 -0.2110  0.4609
  866MPD2    C412763   1.847   3.749  11.359 -1.0531 -0.0427  0.1056
  866MPD2    C512764   1.976   3.746  11.413 -0.3592 -0.1062  0.0757
  866MPD2     H12765   1.855   3.474  11.182  3.3150 -1.3083 -0.2597
  866MPD2    H112766   1.788   3.840  11.367 -0.0457  0.7025 -0.8923
  866MPD2    H212767   2.151   3.631  11.434  0.5228  1.6161 -0.7467
  866MPD2    H312768   2.007   3.827  11.479 -0.8090 -1.6987  2.2679
  866MPD2     N12769   1.695   3.666  11.196 -0.8786 -0.0016  0.2648
  866MPD2    H512770   1.661   3.581  11.152  0.5543 -0.2156 -0.4212
  866MPD2    N112771   2.113   3.453  11.268  0.2821  0.1619 -0.0639
  866MPD2    H712772   2.209   3.485  11.280 -0.1746  1.8077 -0.7719
  867MPD2     C12773   3.905   2.617  16.557 -0.3538 -0.6307 -0.1981
  867MPD2    C112774   3.978   2.557  16.657 -0.6873  0.3441 -0.0275
  867MPD2    C212775   3.937   2.593  16.784  0.5837  0.3572 -0.1193
  867MPD2    C312776   3.845   2.700  16.807  0.0159  0.9728 -0.7025
  867MPD2    C412777   3.775   2.755  16.705 -0.1120 -0.4747 -0.1558
  867MPD2    C512778   3.806   2.710  16.582  0.0458  0.3883  0.0559
  867MPD2     H12779   3.983   2.547  16.870 -0.8368 -0.7905  0.0235
  867MPD2    H112780   3.697   2.829  16.720 -1.6090 -1.8248 -1.3855
  867MPD2    H212781   3.930   2.588  16.455  0.0796 -1.4121  0.1313
  867MPD2    H312782   3.757   2.752  16.495  0.8331  0.0061 -0.5757
  867MPD2     N12783   3.816   2.759  16.934 -0.3562 -0.3316  0.0279
  867MPD2    H512784   3.764   2.846  16.946 -0.0329  0.2249 -2.5489
  867MPD2    N112785   4.065   2.448  16.628 -0.4363  0.0443 -0.0627
  867MPD2    H712786   4.077   2.428  16.529 -0.0081 -0.0872  0.0181
  868MPD2     C12787   0.889   1.881  12.975 -0.2754 -0.1466 -0.1961
  868MPD2    C112788   0.970   1.810  13.056  0.3286  0.2295  0.1355
  868MPD2    C212789   0.902   1.745  13.161 -0.3243 -0.6141 -0.7734
  868MPD2    C312790   0.767   1.750  13.182 -0.2493 -0.2182  0.3637
  868MPD2    C412791   0.693   1.833  13.099  0.2887  0.3771 -0.7963
  868MPD2    C512792   0.754   1.894  12.989 -0.5048 -0.3041  0.0640
  868MPD2     H12793   0.951   1.679  13.232 -2.1248  0.5539  1.6024
  868MPD2    H112794   0.585   1.830  13.099  0.3167 -0.6340 -0.5414
  868MPD2    H212795   0.932   1.945  12.898  0.9745 -1.8070 -0.8741
  868MPD2    H312796   0.694   1.933  12.908  0.5972  1.1367 -0.0589
  868MPD2     N12797   0.708   1.686  13.293 -0.5993 -0.0025 -0.0540
  868MPD2    H512798   0.771   1.634  13.354 -2.7695 -0.7372  1.5548
  868MPD2    N112799   1.111   1.808  13.035  0.6450 -0.5499 -0.0029
  868MPD2    H712800   1.151   1.841  12.947 -1.9355  1.3959 -0.4634
  869MPD2     C12801   1.704   0.695   1.797 -0.4885  0.6050  0.1886
  869MPD2    C112802   1.640   0.628   1.692 -1.0490  0.0364 -0.5627
  869MPD2    C212803   1.693   0.612   1.572  0.3614  0.7111 -0.0388
  869MPD2    C312804   1.814   0.669   1.543  0.1344 -1.0402  0.4011
  869MPD2    C412805   1.882   0.738   1.645  0.2031 -0.1815  0.1764
  869MPD2    C512806   1.828   0.752   1.769  0.7337  0.1226 -0.2761
  869MPD2     H12807   1.635   0.564   1.494 -0.6539 -0.7962  1.6415
  869MPD2    H112808   1.979   0.782   1.625  1.1386 -1.9198  0.8069
  869MPD2    H212809   1.656   0.706   1.893 -0.7543 -0.4323  0.1713
  869MPD2    H312810   1.887   0.805   1.843 -0.9746  0.8786  0.5782
  869MPD2     N12811   1.870   0.685   1.415  0.0587 -0.2559  0.8753
  869MPD2    H512812   1.951   0.746   1.407  0.2763 -0.7037 -0.2663
  869MPD2    N112813   1.510   0.577   1.728  0.2755 -0.2222  0.3587
  869MPD2    H712814   1.483   0.591   1.824  0.3314 -0.7777  0.4564
  870MPD2     C12815   1.338   3.116   1.181 -0.5963  0.3247  0.3212
  870MPD2    C112816   1.357   3.191   1.295 -0.4480  0.8794  0.0261
  870MPD2    C212817   1.391   3.327   1.281  0.6215 -0.7061  0.4162
  870MPD2    C312818   1.409   3.388   1.159 -0.2354  0.3314 -0.7294
  870MPD2    C412819   1.388   3.301   1.043  0.0029 -0.5638  0.5707
  870MPD2    C512820   1.364   3.171   1.059 -0.2667 -0.1693 -0.9841
  870MPD2     H12821   1.383   3.402   1.359  4.4379  1.6129 -1.4020
  870MPD2    H112822   1.405   3.334   0.941 -0.4702  2.3893  1.4631
  870MPD2    H212823   1.303   3.014   1.187  1.7447 -0.3628  2.2368
  870MPD2    H312824   1.340   3.103   0.978  0.0162 -0.3056 -0.9518
  870MPD2     N12825   1.445   3.525   1.153 -0.3920 -0.8245  0.5575
  870MPD2    H512826   1.455   3.575   1.241 -2.4892  1.1057 -0.2870
  870MPD2    N112827   1.319   3.130   1.420  0.2605  0.1105 -0.0803
  870MPD2    H712828   1.267   3.043   1.413  1.8737 -0.6880 -1.9773
  871MPD2     C12829   3.052   2.954  16.102 -0.4285  0.1630  0.3475
  871MPD2    C112830   3.059   2.912  16.230  0.1860 -0.3228 -0.8515
  871MPD2    C212831   3.106   2.782  16.259 -1.2100 -0.0607 -0.0681
  871MPD2    C312832   3.152   2.701  16.160 -0.6611 -0.1337 -0.1126
  871MPD2    C412833   3.142   2.745  16.030  0.5523 -0.3097 -0.2570
  871MPD2    C512834   3.094   2.869  16.003  0.6270  0.2590  0.4893
  871MPD2     H12835   3.126   2.748  16.360 -0.9557 -1.6203 -0.6468
  871MPD2    H112836   3.168   2.687  15.942 -0.1902 -1.0403  0.0023
  871MPD2    H212837   3.018   3.054  16.079 -0.8544  0.4652  2.2866
  871MPD2    H312838   3.074   2.901  15.902 -0.4520 -1.7329  0.0688
  871MPD2     N12839   3.204   2.575  16.184 -0.0820 -0.8140  0.0860
  871MPD2    H512840   3.207   2.550  16.283  2.3324  0.4212  0.3333
  871MPD2    N112841   3.019   2.998  16.333 -0.5483  0.0925 -0.2691
  871MPD2    H712842   3.016   3.097  16.311 -0.6015 -0.0343 -0.8405
  872MPD2     C12843   4.103   0.574  13.764  0.2709  0.3880  0.1098
  872MPD2    C112844   4.036   0.689  13.734  0.5774 -0.3094  0.1359
  872MPD2    C212845   3.893   0.688  13.753 -0.3025 -0.3705  0.0624
  872MPD2    C312846   3.839   0.590  13.832  0.2638 -0.0147  0.0750
  872MPD2    C412847   3.913   0.478  13.867 -0.0281 -0.0143  0.5420
  872MPD2    C512848   4.046   0.470  13.836 -0.2423 -0.6481  0.1397
  872MPD2     H12849   3.833   0.775  13.728  1.0260  0.2412 -1.0362
  872MPD2    H112850   3.864   0.406  13.932  0.8616 -1.8028 -0.7621
  872MPD2    H212851   4.208   0.561  13.740 -0.2242 -0.8312 -1.3783
  872MPD2    H312852   4.098   0.380  13.864  0.9649  0.3893  1.2282
  872MPD2     N12853   3.704   0.589  13.875  0.1815 -0.1872  0.0010
  872MPD2    H512854   3.677   0.514  13.938 -3.0578  0.4095 -0.6367
  872MPD2    N112855   4.102   0.807  13.677 -0.5475 -0.3778 -0.3257
  872MPD2    H712856   4.039   0.885  13.665  0.0985  0.2131  0.0993
  873MPD2     C12857   1.163   0.870   1.375  0.9156 -0.1605  0.1524
  873MPD2    C112858   1.039   0.842   1.322 -0.0446 -0.5388 -0.0097
  873MPD2    C212859   1.000   0.706   1.311  0.2229 -0.3070  1.0213
  873MPD2    C312860   1.088   0.600   1.337  0.1559  0.5251 -0.1095
  873MPD2    C412861   1.206   0.638   1.393  0.1962  0.1538 -0.5975
  873MPD2    C512862   1.246   0.760   1.412 -0.0012 -1.1243 -1.4296
  873MPD2     H12863   0.903   0.684   1.269  0.0804 -0.4253  1.4114
  873MPD2    H112864   1.287   0.566   1.397 -0.9908 -1.1819 -0.1855
  873MPD2    H212865   1.204   0.970   1.385  1.7258 -0.1892 -2.9617
  873MPD2    H312866   1.346   0.776   1.449  0.3919 -1.2717 -2.4256
  873MPD2     N12867   1.064   0.464   1.312 -0.1374  0.2214 -0.2041
  873MPD2    H512868   1.143   0.402   1.323  0.6155  1.1193 -0.5599
  873MPD2    N112869   0.959   0.951   1.275 -0.1269 -0.0527 -0.2147
  873MPD2    H712870   0.989   1.040   1.313 -1.5402  0.3587 -0.0517
  874MPD2     C12871   0.526   0.622  15.965 -0.3348 -0.8237  0.1952
  874MPD2    C112872   0.613   0.582  16.059 -0.3308  0.5042  0.3902
  874MPD2    C212873   0.746   0.626  16.041  0.3045 -0.6344  0.7415
  874MPD2    C312874   0.784   0.718  15.945  0.3276  0.4853  0.0354
  874MPD2    C412875   0.687   0.769  15.859  0.4414 -0.1657 -0.5171
  874MPD2    C512876   0.558   0.720  15.871 -0.0125 -0.1696  0.6152
  874MPD2     H12877   0.828   0.586  16.099  1.5250  0.3387 -0.3255
  874MPD2    H112878   0.709   0.852  15.792  1.1321 -1.4930 -1.9483
  874MPD2    H212879   0.423   0.590  15.962 -0.7304  0.2809  1.8718
  874MPD2    H312880   0.479   0.753  15.805  0.8384  0.2888 -0.1905
  874MPD2     N12881   0.913   0.754  15.946  0.4002  0.1916  0.3327
  874MPD2    H512882   0.978   0.706  16.007  1.3556  0.7432 -0.2359
  874MPD2    N112883   0.572   0.481  16.157  0.3494 -0.1300  0.2958
  874MPD2    H712884   0.479   0.441  16.145  0.5927 -0.6042 -0.0167
  875MPD2     C12885   0.517   3.599  14.440 -0.6394  0.0589  0.2900
  875MPD2    C112886   0.614   3.559  14.358  0.2487 -0.3203  0.0801
  875MPD2    C212887   0.709   3.481  14.410 -0.1290 -0.5655  0.3761
  875MPD2    C312888   0.713   3.451  14.544 -0.8017  0.2161  0.4842
  875MPD2    C412889   0.601   3.475  14.620  0.5506  0.6312  0.2241
  875MPD2    C512890   0.515   3.566  14.569  0.2733  0.7308  0.0070
  875MPD2     H12891   0.777   3.446  14.333  2.4443 -0.3173  2.5451
  875MPD2    H112892   0.593   3.451  14.725 -1.0614 -0.4391 -0.1456
  875MPD2    H212893   0.433   3.654  14.400 -1.6493 -3.1971 -1.9759
  875MPD2    H312894   0.422   3.581  14.621  1.1237  3.4290  0.7695
  875MPD2     N12895   0.826   3.387  14.606  0.5643  0.5371  0.5374
  875MPD2    H512896   0.839   3.383  14.707  2.5527  1.0466  0.2929
  875MPD2    N112897   0.620   3.570  14.215  0.1853 -0.0226  0.5240
  875MPD2    H712898   0.699   3.537  14.161 -0.1130  0.6261 -0.3114
  876MPD2     C12899   0.226   0.115  15.682  0.3385  0.2124 -0.3421
  876MPD2    C112900   0.362   0.117  15.698  0.3666 -0.2278  0.5876
  876MPD2    C212901   0.420   0.009  15.745  0.0966  0.5403 -0.4207
  876MPD2    C312902   0.356   4.631  15.792 -0.2297  0.4437 -0.4164
  876MPD2    C412903   0.215   4.636  15.795 -0.2159 -0.2567  0.3524
  876MPD2    C512904   0.156   0.010  15.733  0.1648 -0.3421  0.1092
  876MPD2     H12905   0.528   0.001  15.750  0.0460 -1.4101 -2.4948
  876MPD2    H112906   0.148   4.565  15.842  0.3189 -0.4240  0.8646
  876MPD2    H212907   0.158   0.192  15.645  0.2808  0.5238  0.4074
  876MPD2    H312908   0.048   0.013  15.739  0.0249 -0.2893 -2.5202
  876MPD2     N12909   0.435   4.518  15.825  0.2958  0.2391 -1.0654
  876MPD2    H512910   0.535   4.530  15.837  0.2041  0.3831 -0.4455
  876MPD2    N112911   0.426   0.237  15.660  0.3829 -0.3308 -0.5869
  876MPD2    H712912   0.362   0.297  15.610  0.3695  0.4189  0.3424
  877MPD2     C12913   0.262   0.714  15.264 -1.0132  0.2865 -0.6157
  877MPD2    C112914   0.401   0.714  15.249 -0.1749  0.4956 -0.8198
  877MPD2    C212915   0.448   0.753  15.129  0.4179 -0.0780  1.0465
  877MPD2    C312916   0.367   0.810  15.034  0.3638 -0.1695 -0.4256
  877MPD2    C412917   0.230   0.791  15.047 -0.0505  0.2856 -0.9211
  877MPD2    C512918   0.182   0.755  15.163  0.7605  0.6288  0.3842
  877MPD2     H12919   0.554   0.743  15.111  0.8235  1.9915  2.2778
  877MPD2    H112920   0.165   0.823  14.966 -0.6841  0.7466 -0.2289
  877MPD2    H212921   0.208   0.681  15.352 -1.3046 -0.6987 -1.1732
  877MPD2    H312922   0.075   0.759  15.179  0.6162  0.3979 -0.5587
  877MPD2     N12923   0.412   0.853  14.909 -0.0051  0.7432  0.1505
  877MPD2    H512924   0.351   0.873  14.831  1.1875 -0.4098 -1.0874
  877MPD2    N112925   0.486   0.674  15.354 -0.5549  0.1645  0.2321
  877MPD2    H712926   0.585   0.678  15.332 -0.6429 -1.8776 -0.5348
  878MPD2     C12927   4.728   4.615  13.558 -0.8950 -0.7494  0.9086
  878MPD2    C112928   0.037   0.007  13.533 -0.4904  0.1411 -0.1757
  878MPD2    C212929   0.053   0.092  13.636 -0.5037  0.1658 -0.1689
  878MPD2    C312930   0.010   0.058  13.757  0.9107 -0.4123 -0.2675
  878MPD2    C412931   4.709   4.663  13.793 -0.5193 -0.3317 -0.0520
  878MPD2    C512932   4.707   4.574  13.687  0.2632  0.1015 -0.7449
  878MPD2     H12933   0.109   0.184  13.620 -1.2102  0.7823  0.9027
  878MPD2    H112934   4.674   4.640  13.893 -2.6690  0.0457 -0.7259
  878MPD2    H212935   4.717   4.536  13.485 -0.2391  1.4355 -1.5753
  878MPD2    H312936   4.664   4.477  13.706 -0.8649  0.4757 -1.3986
  878MPD2     N12937   0.017   0.167  13.851  0.3463  0.4012  0.2960
  878MPD2    H512938   0.041   0.258  13.813  2.5855 -0.6444 -0.8215
  878MPD2    N112939   0.078   0.040  13.400  0.2374 -0.3024 -0.4279
  878MPD2    H712940   0.039   4.710  13.332 -0.2819 -0.2947 -0.1444
  879MPD2     C12941   1.358   1.316  17.234 -0.6949 -0.1338 -0.0582
  879MPD2    C112942   1.309   1.189  17.253  1.0511 -0.6939  0.7229
  879MPD2    C212943   1.194   1.145  17.183  0.1179 -0.0959  0.3039
  879MPD2    C312944   1.146   1.223  17.076 -0.8325  0.4115  0.4380
  879MPD2    C412945   1.194   1.347  17.057  0.1964  0.4258  0.0100
  879MPD2    C512946   1.297   1.392  17.137 -0.1620 -0.1360 -0.1200
  879MPD2     H12947   1.155   1.046  17.201 -2.4476  0.2093 -3.5198
  879MPD2    H112948   1.153   1.412  16.981  0.5260 -0.3144 -0.8000
  879MPD2    H212949   1.443   1.353  17.290 -1.4994 -0.3564  1.3064
  879MPD2    H312950   1.320   1.498  17.137 -1.0414  0.0705  1.8294
  879MPD2     N12951   1.046   1.176  16.991 -0.9442 -0.1786  1.0538
  879MPD2    H512952   1.027   1.232  16.909 -1.6869 -0.8285  0.7860
  879MPD2    N112953   1.378   1.105  17.342  0.5328  0.2445 -1.1641
  879MPD2    H712954   1.474   1.126  17.370  0.2415 -1.5868  1.2447
  880MPD2     C12955   2.083   3.107   0.441  0.7540  0.3645  0.2383
  880MPD2    C112956   2.147   3.162   0.332  0.1291 -0.3139  0.6242
  880MPD2    C212957   2.230   3.079   0.257  0.2157  1.3514 -0.1515
  880MPD2    C312958   2.257   2.946   0.287  0.6620 -0.6672 -0.8094
  880MPD2    C412959   2.188   2.893   0.398 -0.2399 -0.1616 -1.5225
  880MPD2    C512960   2.101   2.976   0.469 -0.5627 -0.6950  0.0526
  880MPD2     H12961   2.278   3.126   0.172  4.0067 -1.8388  0.1986
  880MPD2    H112962   2.205   2.793   0.437  0.8898  0.6146 -0.0497
  880MPD2    H212963   1.997   3.152   0.490 -0.0115 -2.2317  1.2881
  880MPD2    H312964   2.047   2.936   0.555 -1.4701  4.0291  1.6934
  880MPD2     N12965   2.356   2.871   0.218  0.2149 -0.1847 -0.0462
  880MPD2    H512966   2.418   2.919   0.153  0.1351  1.6359  1.2086
  880MPD2    N112967   2.107   3.294   0.294  0.0209  0.1134 -0.3310
  880MPD2    H712968   2.044   3.341   0.359 -0.4442 -0.0491 -0.6677
  881MPD2     C12969   2.191   4.193  17.414  0.0062 -0.3277  0.0568
  881MPD2    C112970   2.249   4.067  17.375  0.7014  0.1328  0.6838
  881MPD2    C212971   2.229   3.961  17.464 -0.6659  0.0680  0.0255
  881MPD2    C312972   2.162   3.982  17.585 -0.8331  0.2254 -0.5780
  881MPD2    C412973   2.128   4.109  17.626 -0.3408 -0.1517  0.9009
  881MPD2    C512974   2.144   4.219  17.539 -0.1184  0.4055 -0.3814
  881MPD2     H12975   2.273   3.863  17.450 -1.2838 -0.3773  1.1674
  881MPD2    H112976   2.066   4.127  17.713  1.4413  0.2901  2.0558
  881MPD2    H212977   2.201   4.275  17.344  0.4604  0.1628  0.7048
  881MPD2    H312978   2.110   4.320  17.556  0.5612  0.8767 -1.8393
  881MPD2     N12979   2.135   3.883  17.673  0.0907 -0.2579  0.0832
  881MPD2    H512980   2.084   3.914   0.020 -0.8136 -1.0806 -0.1674
  881MPD2    N112981   2.307   4.056  17.246  0.2204 -0.9420  0.7786
  881MPD2    H712982   2.348   4.135  17.197  0.3661 -2.4796 -1.6174
  882MPD2     C12983   0.442   0.640  14.094 -0.2461 -0.1593  0.3014
  882MPD2    C112984   0.364   0.674  14.202 -0.2649  0.2663 -0.5372
  882MPD2    C212985   0.228   0.700  14.191 -0.3094  0.4843 -0.6576
  882MPD2    C312986   0.171   0.703  14.063  0.1462 -0.0646 -0.6410
  882MPD2    C412987   0.250   0.673  13.955  0.2444  0.0178 -0.4218
  882MPD2    C512988   0.384   0.637  13.966  1.6409  0.0798 -0.4458
  882MPD2     H12989   0.169   0.722  14.280  0.2088  1.8537 -0.6629
  882MPD2    H112990   0.197   0.665  13.861 -0.3911  3.3077 -0.3593
  882MPD2    H212991   0.549   0.633  14.110  0.1134  0.0221 -2.1063
  882MPD2    H312992   0.438   0.611  13.875 -0.1537 -2.7209 -0.7038
  882MPD2     N12993   0.049   0.757  14.042 -0.0554 -0.0293  0.0532
  882MPD2    H512994   0.013   0.759  13.947 -0.8533 -0.5766  0.3431
  882MPD2    N112995   0.437   0.692  14.326 -0.0088 -1.1987  0.1615
  882MPD2    H712996   0.520   0.633  14.333  0.7272 -0.0022  1.4472
  883MPD2     C12997   2.327   0.670  16.471 -1.4266 -0.5897  0.3251
  883MPD2    C112998   2.436   0.708  16.401  0.0293  0.0109  0.1460
  883MPD2    C212999   2.531   0.781  16.464 -0.7639 -0.0269  0.1876
  883MPD2    C313000   2.538   0.788  16.605 -0.3231  0.0801 -0.3171
  883MPD2    C413001   2.423   0.758  16.674  0.3544  0.4589 -0.1326
  883MPD2    C513002   2.317   0.705  16.606 -0.0325 -0.4027  0.1341
  883MPD2     H13003   2.608   0.812  16.396 -0.7576 -1.6604 -0.5586
  883MPD2    H113004   2.407   0.777  16.779  1.3996 -1.0699  0.2953
  883MPD2    H213005   2.240   0.624  16.427 -3.0903  1.1270  1.8273
  883MPD2    H313006   2.233   0.668  16.663 -1.3748 -1.1390 -2.3277
  883MPD2     N13007   2.656   0.846  16.663 -0.0962 -0.3284  0.0762
  883MPD2    H513008   2.731   0.877  16.602 -1.6093  0.6096 -1.3143
  883MPD2    N113009   2.441   0.695  16.259 -0.0534 -0.2272  0.3198
  883MPD2    H713010   2.519   0.742  16.214  0.4279 -2.6742 -1.4029
  884MPD2     C13011   4.670   1.399  15.416 -0.1535 -0.2521  0.0107
  884MPD2    C113012   4.618   1.484  15.320  0.2850  0.1755  1.0410
  884MPD2    C213013   4.489   1.518  15.339  0.5670 -0.3981 -0.6791
  884MPD2    C313014   4.407   1.469  15.444  0.3110 -0.1108 -0.0827
  884MPD2    C413015   4.459   1.401  15.539 -0.5111  0.0937 -0.1975
  884MPD2    C513016   4.590   1.367  15.525 -0.7255  0.1592  0.0560
  884MPD2     H13017   4.438   1.582  15.268  1.1943 -0.6098 -1.3153
  884MPD2    H113018   4.409   1.363  15.628  1.1168  2.9173  1.9483
  884MPD2    H213019   0.035   1.355  15.409  0.6810  1.6336  0.0875
  884MPD2    H313020   4.640   1.298  15.592  1.0393  0.2993 -1.1194
  884MPD2     N13021   4.270   1.501  15.443  0.4981  0.3117  0.0272
  884MPD2    H513022   4.241   1.553  15.361 -0.6466  0.8752  0.7902
  884MPD2    N113023   4.705   1.524  15.215 -0.0499 -0.8023  0.6726
  884MPD2    H713024   0.069   1.498  15.216  0.6066  1.6254 -1.0056
  885MPD2     C13025   2.497   1.490   0.170  0.4448  0.2723  0.5909
  885MPD2    C113026   2.581   1.598   0.140  0.4566  0.0262 -0.0953
  885MPD2    C213027   2.598   1.639   0.002 -1.5034 -0.4509 -0.1684
  885MPD2    C313028   2.519   1.583  17.639  0.3004 -0.3877 -0.2528
  885MPD2    C413029   2.425   1.488  17.683  0.3010 -0.8021 -0.0380
  885MPD2    C513030   2.412   1.447   0.073 -0.4630  0.3216  0.1553
  885MPD2     H13031   2.657   1.725  17.707  1.1999 -2.7774 -1.5410
  885MPD2    H113032   2.351   1.447  17.616  1.1758  0.6212 -1.8614
  885MPD2    H213033   2.493   1.435   0.263 -0.0359 -0.5109  0.1003
  885MPD2    H313034   2.333   1.378   0.100  0.1895  0.4755  2.4999
  885MPD2     N13035   2.530   1.641  17.512 -0.2154  0.3488 -0.4541
  885MPD2    H513036   2.602   1.712  17.508 -0.3989  0.3841 -3.3064
  885MPD2    N113037   2.655   1.643   0.245 -0.1997 -0.1258 -0.6312
  885MPD2    H713038   2.658   1.579   0.325  0.3080 -0.4267 -0.8922
  886MPD2     C13039   3.944   0.222  15.630  0.2535 -0.1658 -0.3039
  886MPD2    C113040   4.037   0.163  15.546  0.2052 -0.2927  0.1786
  886MPD2    C213041   4.059   0.213  15.421 -0.3844 -0.1678 -0.3813
  886MPD2    C313042   3.982   0.322  15.375  0.5466 -0.2656 -0.3004
  886MPD2    C413043   3.883   0.371  15.452  0.5007 -0.5197  0.2881
  886MPD2    C513044   3.869   0.324  15.578  0.1755 -0.0123 -0.0991
  886MPD2     H13045   4.136   0.177  15.354 -0.2077  0.3288 -0.4450
  886MPD2    H113046   3.811   0.437  15.406  0.1794 -0.9952  0.1072
  886MPD2    H213047   3.914   0.187  15.728 -1.6767 -0.5635 -1.0462
  886MPD2    H313048   3.789   0.367  15.637 -1.5487 -3.0486 -0.2122
  886MPD2     N13049   4.002   0.374  15.247  0.3731  0.3945 -0.1966
  886MPD2    H513050   4.078   0.331  15.195 -0.8459 -3.5248  1.3098
  886MPD2    N113051   4.114   0.051  15.583  0.4993 -0.2150 -0.7321
  886MPD2    H713052   4.183   0.023  15.513 -0.3361 -0.7002 -1.3708
  887MPD2     C13053   0.005   0.012  16.068 -0.2240  0.1336 -0.6721
  887MPD2    C113054   4.609   0.059  16.055  0.2678  0.0191 -0.2586
  887MPD2    C213055   4.563   0.169  16.131  0.6746 -0.4180 -0.9927
  887MPD2    C313056   4.657   0.238  16.214 -0.6717 -0.6261  0.4612
  887MPD2    C413057   0.055   0.192  16.219  0.2975 -0.4331  0.0592
  887MPD2    C513058   0.093   0.082  16.140  0.0571 -0.2140 -0.5934
  887MPD2     H13059   4.461   0.204  16.130  0.6216 -0.5506 -0.4191
  887MPD2    H113060   0.130   0.241  16.281  0.9502 -0.9100 -0.3511
  887MPD2    H213061   0.045   4.660  16.017  3.1769  1.5833 -0.4450
  887MPD2    H313062   0.196   0.049  16.136 -0.2250 -1.1645  0.1553
  887MPD2     N13063   4.620   0.350  16.284 -0.1646 -0.0970 -0.1968
  887MPD2    H513064   4.695   0.394  16.336 -1.1435  0.6403  0.6028
  887MPD2    N113065   4.509   0.003  15.975 -0.3449  0.1405  0.1713
  887MPD2    H713066   4.424   0.056  15.962 -1.6062 -2.5132 -2.2394
  888MPD2     C13067   1.538   4.684  14.628 -0.7210  0.4992 -0.0363
  888MPD2    C113068   1.582   4.665  14.760  0.3495  0.0923  0.2895
  888MPD2    C213069   1.648   0.034  14.825  0.8746  0.2263  0.2509
  888MPD2    C313070   1.656   0.161  14.766  0.0105 -0.2537 -0.4198
  888MPD2    C413071   1.609   0.179  14.639 -0.2380 -0.5905 -0.1211
  888MPD2    C513072   1.545   0.077  14.573  0.3727  0.2621 -0.0456
  888MPD2     H13073   1.687   0.022  14.925  2.3688  1.8297 -0.1493
  888MPD2    H113074   1.610   0.275  14.590  1.1509 -1.6955 -2.2566
  888MPD2    H213075   1.475   4.609  14.581  1.7732 -1.7126  0.1371
  888MPD2    H313076   1.499   0.098  14.477  0.0560 -2.5279 -0.4959
  888MPD2     N13077   1.713   0.262  14.837 -0.0087  0.6560  0.4366
  888MPD2    H513078   1.747   0.243  14.930 -0.0323  0.0501  0.3244
  888MPD2    N113079   1.555   4.539  14.811 -0.4545  0.1333 -0.1408
  888MPD2    H713080   1.512   4.469  14.752  2.7347 -1.5320 -0.4983
  889MPD2     C13081   0.934   4.588  12.911  1.0849  0.1320  0.6321
  889MPD2    C113082   1.016   4.547  13.012 -0.3772  0.8211  0.4491
  889MPD2    C213083   1.040   4.630  13.116 -0.8720 -0.8919 -0.2424
  889MPD2    C313084   0.990   0.027  13.112  0.8090  0.0820  0.2451
  889MPD2    C413085   0.923   0.079  13.004 -0.2865 -0.5663 -0.0139
  889MPD2    C513086   0.894   4.720  12.912 -0.8826 -0.0498  0.0281
  889MPD2     H13087   1.086   4.585  13.204 -0.4697  0.3434  0.1712
  889MPD2    H113088   0.896   0.183  12.990  0.7899 -0.2714  0.1376
  889MPD2    H213089   0.932   4.523  12.824  0.6831  1.8868 -0.6774
  889MPD2    H313090   0.827   0.018  12.832  0.3318 -1.8196 -1.7043
  889MPD2     N13091   1.023   0.101  13.227  0.2445 -0.0911 -0.5165
  889MPD2    H513092   1.084   0.057  13.295  0.6802 -0.5724 -1.2260
  889MPD2    N113093   1.036   4.408  13.009  0.2334  0.2815  0.0522
  889MPD2    H713094   0.989   4.353  12.938 -0.6947  1.6482 -0.4018
  890MPD2     C13095   0.043   1.292  14.782 -0.5907 -0.3916 -0.6625
  890MPD2    C113096   0.175   1.256  14.797 -0.3818 -0.6072 -0.0024
  890MPD2    C213097   0.208   1.212  14.924 -0.0184  0.4115 -0.1963
  890MPD2    C313098   0.125   1.196  15.025 -0.2711  0.2399  0.2498
  890MPD2    C413099   0.003   1.249  15.007  0.2367  0.1950  0.0863
  890MPD2    C513100   4.691   1.293  14.889  0.5686  0.5808  0.0150
  890MPD2     H13101   0.307   1.173  14.942  0.9421  2.2130 -1.6693
  890MPD2    H113102   4.666   1.243  15.088  0.3112  2.3792  0.3246
  890MPD2    H213103   0.004   1.329  14.688 -0.5378  0.4083 -0.3772
  890MPD2    H313104   4.588   1.317  14.866  1.0647  3.5719  0.9374
  890MPD2     N13105   0.183   1.146  15.144 -0.2011 -0.2031 -0.2736
  890MPD2    H513106   0.279   1.115  15.135  0.0563  0.9028 -1.2816
  890MPD2    N113107   0.261   1.254  14.686  0.1318  0.1767 -0.5488
  890MPD2    H713108   0.223   1.298  14.603  0.4316  0.6698 -0.4296
  891MPD2     C13109   2.995   4.103  16.450  0.2659 -0.5377  0.4537
  891MPD2    C113110   3.061   4.218  16.482  0.0509  0.6620 -0.3958
  891MPD2    C213111   3.181   4.208  16.553  0.1150 -0.4130  0.0526
  891MPD2    C313112   3.230   4.082  16.590 -0.1827 -0.2911 -0.3495
  891MPD2    C413113   3.161   3.966  16.550 -0.5511 -0.0483  0.0292
  891MPD2    C513114   3.045   3.975  16.481  0.4890 -0.0856  0.5680
  891MPD2     H13115   3.235   4.294  16.592 -0.9543 -0.3937  1.4969
  891MPD2    H113116   3.193   3.866  16.573  1.5265  0.8379  0.9737
  891MPD2    H213117   2.904   4.094  16.390  1.7495  0.2412 -1.9084
  891MPD2    H313118   2.994   3.884  16.450 -0.3112  0.6771 -0.3409
  891MPD2     N13119   3.354   4.084  16.660 -0.1967  0.1905  0.4805
  891MPD2    H513120   3.398   4.173  16.677 -0.4460  0.6815 -1.4378
  891MPD2    N113121   3.000   4.341  16.440 -0.2493 -0.3529  0.3377
  891MPD2    H713122   2.910   4.325  16.398 -0.1915  3.5325 -1.2530
  892MPD2     C13123   4.431   0.966  14.840  0.0059 -0.2168  0.1500
  892MPD2    C113124   4.312   0.963  14.765 -0.0338 -0.1812 -0.0069
  892MPD2    C213125   4.313   0.922  14.633  0.4316 -0.2346 -1.1506
  892MPD2    C313126   4.432   0.910  14.570 -0.3668 -0.4137  0.0783
  892MPD2    C413127   4.546   0.914  14.636  0.2783  0.0570  0.3502
  892MPD2    C513128   4.549   0.951  14.766  0.1944 -0.1826 -0.4446
  892MPD2     H13129   4.217   0.906  14.586 -0.8805  1.0432  1.1416
  892MPD2    H113130   4.633   0.919  14.572 -0.9353 -0.5658 -1.3325
  892MPD2    H213131   4.441   0.995  14.944 -1.2442  1.4478 -0.1897
  892MPD2    H313132   4.642   0.970  14.819  0.3766  0.7149 -1.0935
  892MPD2     N13133   4.437   0.854  14.439  0.1528  0.9494 -0.2183
  892MPD2    H513134   4.523   0.846  14.386 -0.4082  1.7569 -1.2482
  892MPD2    N113135   4.200   1.005  14.840  0.2383  0.7434 -0.3449
  892MPD2    H713136   4.215   1.021  14.939 -0.3056  0.3667 -0.2041
  893MPD2     C13137   1.528   4.070   0.678 -0.6014  0.0429  0.0239
  893MPD2    C113138   1.447   4.075   0.786  0.3242  0.1072 -0.7599
  893MPD2    C213139   1.360   3.972   0.813  0.2615  0.3937 -0.1923
  893MPD2    C313140   1.370   3.857   0.741 -0.3321  0.1546 -0.4909
  893MPD2    C413141   1.453   3.848   0.629 -0.2036  0.3907 -0.3745
  893MPD2    C513142   1.531   3.958   0.599 -0.1939  0.3310 -0.7093
  893MPD2     H13143   1.306   3.967   0.906 -1.9117  1.3375 -1.4037
  893MPD2    H113144   1.444   3.766   0.558 -1.3413  1.9200 -2.0006
  893MPD2    H213145   1.600   4.147   0.652 -2.7029  2.1932  0.4983
  893MPD2    H313146   1.604   3.959   0.519 -0.4603 -1.0025 -0.9792
  893MPD2     N13147   1.292   3.747   0.769 -0.3382  0.5046 -0.2782
  893MPD2    H513148   1.315   3.667   0.712 -1.6635  1.2668 -1.8874
  893MPD2    N113149   1.456   4.193   0.862 -0.3965 -0.5738 -0.1635
  893MPD2    H713150   1.531   4.259   0.845 -0.3323 -0.1744  1.6489
  894MPD2     C13151   3.894   1.362   1.150  0.1983  0.3070  0.0995
  894MPD2    C113152   3.790   1.451   1.126  0.8352 -0.0603  0.0015
  894MPD2    C213153   3.824   1.574   1.067 -0.1885 -0.2751 -0.6154
  894MPD2    C313154   3.961   1.608   1.040  0.1820 -0.2183  0.3918
  894MPD2    C413155   4.054   1.510   1.075  0.1570  0.4169  0.2569
  894MPD2    C513156   4.026   1.389   1.129 -0.5422 -0.4886  0.4764
  894MPD2     H13157   3.754   1.654   1.050  0.7975  0.5353 -0.8863
  894MPD2    H113158   4.160   1.530   1.061  0.6782 -2.3299  0.3824
  894MPD2    H213159   3.878   1.263   1.191  0.5298 -0.2153 -1.0192
  894MPD2    H313160   4.101   1.318   1.163 -1.3808 -2.0922 -1.0655
  894MPD2     N13161   3.982   1.736   0.987 -0.4170  0.5685  0.6516
  894MPD2    H513162   3.899   1.788   0.959 -1.6424 -1.1767  0.9739
  894MPD2    N113163   3.654   1.433   1.169 -0.1107  0.3392  0.1213
  894MPD2    H713164   3.594   1.514   1.157 -1.0828 -0.3046  0.6045
  895MPD2     C13165   3.296   0.371  13.985  0.2886  0.1287  0.3187
  895MPD2    C113166   3.247   0.440  13.874  0.7828 -0.0264  0.1446
  895MPD2    C213167   3.330   0.440  13.764 -0.3196 -0.2765  0.0513
  895MPD2    C313168   3.445   0.364  13.761 -0.1774 -0.3219 -0.1880
  895MPD2    C413169   3.494   0.302  13.877  0.2722 -0.0818 -0.1038
  895MPD2    C513170   3.417   0.306  13.989  0.1690  0.3654 -0.4999
  895MPD2     H13171   3.298   0.498  13.678  1.4811  0.0939 -0.3740
  895MPD2    H113172   3.580   0.237  13.888  1.1899  1.0125 -0.7746
  895MPD2    H213173   3.244   0.363  14.080  1.7379  1.6923  1.2400
  895MPD2    H313174   3.455   0.250  14.074 -1.7676 -0.5299 -0.2166
  895MPD2     N13175   3.516   0.358  13.638 -0.9742 -0.0398  0.0672
  895MPD2    H513176   3.468   0.406  13.563 -0.6129 -0.9184 -0.7425
  895MPD2    N113177   3.126   0.508  13.860  0.1436  0.4336 -0.0338
  895MPD2    H713178   3.095   0.535  13.767  1.3348  0.5858 -0.3833
  896MPD2     C13179   0.339   2.689   1.098  0.1288  0.4003 -0.0651
  896MPD2    C113180   0.390   2.608   0.998  0.7127  0.6183 -0.5465
  896MPD2    C213181   0.305   2.537   0.919 -0.6713 -0.4294 -0.2504
  896MPD2    C313182   0.166   2.565   0.924 -0.1550  1.0383  0.0202
  896MPD2    C413183   0.114   2.652   1.018 -0.2139  0.2112  0.1650
  896MPD2    C513184   0.203   2.702   1.108 -0.8644  0.1031  0.3383
  896MPD2     H13185   0.337   2.471   0.839 -0.0514  0.2295 -0.5514
  896MPD2    H113186   0.009   2.674   1.034 -0.8564 -1.7627 -1.3265
  896MPD2    H213187   0.403   2.729   1.176 -0.6185 -0.8071  1.1550
  896MPD2    H313188   0.161   2.761   1.189 -0.0295  0.3693  0.5711
  896MPD2     N13189   0.085   2.501   0.829 -0.2597  0.2183 -0.1588
  896MPD2    H513190   0.141   2.445   0.766  0.2470  0.4298  0.1016
  896MPD2    N113191   0.531   2.592   0.994 -0.3405  0.5843  0.3328
  896MPD2    H713192   0.587   2.632   1.068 -0.0014  0.1833  0.2951
  897MPD2     C13193   1.996   4.152  11.122  0.1318  0.5788  0.1864
  897MPD2    C113194   1.965   4.279  11.079 -0.8532  0.0747 -0.1934
  897MPD2    C213195   1.854   4.341  11.133 -0.3224 -0.3885 -0.1457
  897MPD2    C313196   1.788   4.288  11.239 -0.0725 -0.8594  0.0725
  897MPD2    C413197   1.822   4.164  11.285 -0.6656  0.4009 -0.0366
  897MPD2    C513198   1.917   4.093  11.217 -0.0901  0.1418  0.5027
  897MPD2     H13199   1.836   4.447  11.116  1.1846 -0.2041 -0.6164
  897MPD2    H113200   1.768   4.116  11.366  1.1812 -0.5749  0.6134
  897MPD2    H213201   2.081   4.101  11.079  0.5828 -0.4248  2.3051
  897MPD2    H313202   1.942   3.990  11.242 -0.1731 -0.4983 -2.0513
  897MPD2     N13203   1.691   4.368  11.307 -0.0783  0.0021  0.6458
  897MPD2    H513204   1.672   4.462  11.274  1.5041 -0.0587 -0.4245
  897MPD2    N113205   2.045   4.341  10.984  0.3595  1.1784  0.0357
  897MPD2    H713206   2.104   4.282  10.926 -0.8503 -3.6939  3.7504
  898MPD2     C13207   3.953   4.677  17.645 -0.7618  0.7284 -0.1327
  898MPD2    C113208   4.006   0.063  17.605 -0.5729  0.5729 -0.0654
  898MPD2    C213209   3.931   0.155  17.535  0.1238 -0.4940 -0.3742
  898MPD2    C313210   3.801   0.131  17.494 -0.1846  0.1511 -0.0941
  898MPD2    C413211   3.750   0.007  17.531  0.4236  1.4314 -0.2794
  898MPD2    C513212   3.827   4.652  17.599 -0.7759 -0.2710  0.5140
  898MPD2     H13213   3.972   0.254  17.517  1.0389 -1.1788 -2.0645
  898MPD2    H113214   3.652   4.705  17.502 -0.4342  1.7494  2.2394
  898MPD2    H213215   4.005   4.606  17.708 -1.6958 -0.7654 -1.0397
  898MPD2    H313216   3.786   4.554  17.623 -0.3540 -0.0889  1.9718
  898MPD2     N13217   3.730   0.230  17.425 -0.2570  0.0779 -0.0397
  898MPD2    H513218   3.779   0.314  17.397 -0.6654  0.4531  0.3640
  898MPD2    N113219   4.140   0.101  17.639 -0.3433 -0.2732 -0.1006
  898MPD2    H713220   4.169   0.198  17.639 -0.7382 -0.1536  0.4295
  899MPD2     C13221   0.678   0.539  17.465 -0.9041 -0.0070  0.3331
  899MPD2    C113222   0.666   0.658  17.535  0.0768  0.4669  0.8017
  899MPD2    C213223   0.564   0.674  17.632  0.1584 -0.3393 -0.2609
  899MPD2    C313224   0.474   0.572  17.657  0.2680  0.7563  0.0674
  899MPD2    C413225   0.479   0.454  17.583 -0.1799  0.2622 -0.1038
  899MPD2    C513226   0.586   0.438  17.488 -0.9203  0.4575  0.3510
  899MPD2     H13227   0.548   0.773  17.675 -0.1605 -0.3563 -0.3396
  899MPD2    H113228   0.406   0.377  17.606 -0.8167  0.4457 -1.5364
  899MPD2    H213229   0.759   0.528  17.394 -0.2619  1.2921  0.8588
  899MPD2    H313230   0.587   0.343  17.437  0.2160  0.3617  0.5398
  899MPD2     N13231   0.352   0.593  17.731  0.2201  0.2056  0.2593
  899MPD2    H513232   0.278   0.524  17.717  0.8462 -0.6905  1.3768
  899MPD2    N113233   0.737   0.770  17.486 -0.2125 -0.1386 -0.0246
  899MPD2    H713234   0.796   0.749  17.406 -0.8637 -0.9334 -0.2876
  900MPD2     C13235   4.277   2.534  12.265 -0.2657  0.0192 -0.0956
  900MPD2    C113236   4.208   2.417  12.289 -0.3302 -0.7198 -0.3976
  900MPD2    C213237   4.071   2.427  12.287 -0.2575 -1.1709 -0.0883
  900MPD2    C313238   4.004   2.546  12.247 -0.8280  0.7905 -0.5467
  900MPD2    C413239   4.080   2.657  12.213  0.0742 -0.3462 -0.5950
  900MPD2    C513240   4.216   2.647  12.227 -0.0332  0.9404  0.4385
  900MPD2     H13241   4.010   2.341  12.314  1.0381 -1.0803  3.1136
  900MPD2    H113242   4.039   2.749  12.172 -0.8695 -1.1164 -1.3713
  900MPD2    H213243   4.385   2.543  12.275 -0.3736  1.1738  0.0380
  900MPD2    H313244   4.269   2.738  12.203 -0.0548  0.7923 -0.1701
  900MPD2     N13245   3.858   2.552  12.247  0.5138  0.0202  0.3558
  900MPD2    H513246   3.799   2.477  12.279 -0.0352 -0.2318 -1.2488
  900MPD2    N113247   4.270   2.289  12.306  0.0733 -0.3874  0.2891
  900MPD2    H713248   4.212   2.208  12.289  0.8777 -0.8100 -0.4605
  901MPD2     C13249   4.251   1.310  12.456 -0.4219 -0.4057 -0.1030
  901MPD2    C113250   4.381   1.348  12.491  0.2262 -0.0770  0.6105
  901MPD2    C213251   4.417   1.479  12.506 -0.4986  0.1185 -0.2974
  901MPD2    C313252   4.320   1.572  12.468  0.7889  0.2180 -0.1250
  901MPD2    C413253   4.196   1.531  12.422  0.1577  0.1472 -0.1665
  901MPD2    C513254   4.161   1.404  12.421 -0.1722 -0.0059  0.3759
  901MPD2     H13255   4.516   1.509  12.536  1.6523 -5.6492 -1.5978
  901MPD2    H113256   4.123   1.601  12.384 -0.1323  0.4903  1.0387
  901MPD2    H213257   4.222   1.209  12.432 -2.4782  0.1611 -0.0384
  901MPD2    H313258   4.062   1.376  12.386  0.6405 -1.9951 -0.3340
  901MPD2     N13259   4.378   1.704  12.448  0.5446 -0.6437  0.7301
  901MPD2    H513260   4.466   1.725  12.495 -0.9674  2.2136  2.2716
  901MPD2    N113261   4.477   1.243  12.507 -0.3141  0.3349  0.5682
  901MPD2    H713262   4.450   1.146  12.495 -0.5921  0.3182  1.3255
  902MPD2     C13263   3.047   0.583  12.709 -0.5392  0.0551  0.0680
  902MPD2    C113264   3.142   0.577  12.609  0.3859  0.6879  0.1412
  902MPD2    C213265   3.184   0.455  12.577 -0.0289 -0.2734  0.2843
  902MPD2    C313266   3.132   0.342  12.634 -0.6991 -0.3487  0.8350
  902MPD2    C413267   3.039   0.352  12.730 -0.6183 -0.6959 -0.3722
  902MPD2    C513268   3.002   0.470  12.773  0.2776  0.0400  0.2717
  902MPD2     H13269   3.262   0.448  12.502 -1.1256 -0.0909 -0.8814
  902MPD2    H113270   2.993   0.263  12.772 -0.7850 -0.1062  0.7098
  902MPD2    H213271   3.008   0.680  12.739 -0.5088 -0.4451  1.7474
  902MPD2    H313272   2.926   0.471  12.850 -0.2595  0.4555 -0.2757
  902MPD2     N13273   3.160   0.211  12.593  0.7675 -0.3264 -0.0311
  902MPD2    H513274   3.121   0.133  12.645 -3.7637  1.3688 -0.8603
  902MPD2    N113275   3.196   0.701  12.562  0.3193  0.0525 -0.3847
  902MPD2    H713276   3.156   0.782  12.607 -1.4863 -1.2443  0.3296
  903MPD2     C13277   3.024   4.284  12.020  0.4269 -0.3814  0.4910
  903MPD2    C113278   2.985   4.376  12.116 -0.4758 -0.4335 -0.0062
  903MPD2    C213279   2.847   4.375  12.147  0.5581  1.0429 -0.1808
  903MPD2    C313280   2.761   4.293  12.081  0.6321 -0.1767  0.2830
  903MPD2    C413281   2.819   4.194  11.997 -0.2404  1.1246 -0.1774
  903MPD2    C513282   2.948   4.192  11.965 -0.2713 -0.7128 -0.7595
  903MPD2     H13283   2.807   4.446  12.220  2.7493 -1.0622  3.0810
  903MPD2    H113284   2.751   4.128  11.945  2.1056 -1.5860  0.1420
  903MPD2    H213285   3.131   4.272  12.009  0.9374  1.9195  2.9607
  903MPD2    H313286   2.983   4.123  11.889 -2.2811 -3.2763  0.6437
  903MPD2     N13287   2.621   4.298  12.116  0.2367  0.1664  0.5200
  903MPD2    H513288   2.603   4.354  12.199 -0.7934 -0.2994  0.6103
  903MPD2    N113289   3.085   4.460  12.167 -0.4284  0.3038  0.3283
  903MPD2    H713290   3.182   4.451  12.139 -0.2106 -0.8161  1.4482
  904MPD2     C13291   3.124   4.231  13.754 -0.0850 -0.0217 -0.5052
  904MPD2    C113292   3.180   4.340  13.823 -0.9408 -0.2077  0.5119
  904MPD2    C213293   3.314   4.330  13.867 -0.0629  0.0720 -0.0629
  904MPD2    C313294   3.393   4.219  13.835 -0.1446 -0.4343 -0.4382
  904MPD2    C413295   3.331   4.116  13.774 -0.3473  0.3550 -0.4343
  904MPD2    C513296   3.206   4.121  13.727  0.2023  0.2755 -0.4197
  904MPD2     H13297   3.350   4.415  13.923  0.1164  1.3560 -2.1340
  904MPD2    H113298   3.389   4.028  13.745  0.6498 -0.0207  2.6872
  904MPD2    H213299   3.023   4.239  13.716 -0.6619 -0.3987  0.9075
  904MPD2    H313300   3.166   4.039  13.670  0.7700  0.2338 -0.7549
  904MPD2     N13301   3.522   4.203  13.891  0.3774  0.5188 -0.0575
  904MPD2    H513302   3.546   4.279  13.953  0.2395  1.9161 -1.7169
  904MPD2    N113303   3.114   4.460  13.850  0.0299 -0.5021  0.6734
  904MPD2    H713304   3.175   4.531  13.889 -2.0752 -0.1255  3.2903
  905MPD2     C13305   2.796   0.161  13.358 -0.3412 -0.1732 -0.3624
  905MPD2    C113306   2.873   0.193  13.467  0.6552 -0.7938 -0.7012
  905MPD2    C213307   3.004   0.228  13.441  0.3457  0.2601  0.3970
  905MPD2    C313308   3.060   0.228  13.312 -0.1790 -0.8769  0.0451
  905MPD2    C413309   2.978   0.201  13.204 -0.9859 -0.2417 -0.1674
  905MPD2    C513310   2.847   0.160  13.231 -0.4523  0.5645 -0.2008
  905MPD2     H13311   3.076   0.248  13.519  2.4203  0.0757 -1.4457
  905MPD2    H113312   3.010   0.203  13.100  1.0064 -0.2537  0.4393
  905MPD2    H213313   2.698   0.116  13.367 -1.8374  3.0324 -0.6526
  905MPD2    H313314   2.789   0.136  13.142 -0.8177  0.2426  0.1204
  905MPD2     N13315   3.201   0.245  13.280 -0.5990 -0.4366  0.1145
  905MPD2    H513316   3.229   0.227  13.184 -1.5029 -1.7668  0.1042
  905MPD2    N113317   2.823   0.164  13.594  0.0440 -0.2478 -0.1845
  905MPD2    H713318   2.739   0.106  13.591 -0.1286 -0.1809  3.2963
  906MPD2     C13319   0.466   4.477  11.188  0.1815 -0.5986  0.0930
  906MPD2    C113320   0.476   4.398  11.075  1.1772 -0.5903  0.7082
  906MPD2    C213321   0.475   4.257  11.090  0.3258 -0.1258 -0.2170
  906MPD2    C313322   0.462   4.200  11.213 -0.3027 -0.0758  0.3811
  906MPD2    C413323   0.458   4.279  11.325 -0.5876 -0.6396 -0.5248
  906MPD2    C513324   0.465   4.415  11.309 -0.2663 -0.5471  0.0901
  906MPD2     H13325   0.464   4.191  11.005  0.6207  0.6262 -0.8342
  906MPD2    H113326   0.459   4.233  11.423 -1.6931 -2.3938 -1.3440
  906MPD2    H213327   0.479   4.585  11.190  0.1990 -0.6625  3.1093
  906MPD2    H313328   0.473   4.484  11.392 -0.2328 -1.2264  0.6587
  906MPD2     N13329   0.479   4.060  11.215 -0.1941 -0.5128 -0.4493
  906MPD2    H513330   0.461   4.016  11.125  0.5378  3.3668 -2.4723
  906MPD2    N113331   0.508   4.448  10.947  0.1709  0.1053  0.1176
  906MPD2    H713332   0.526   4.375  10.878 -0.7514 -0.4379  0.4591
  907MPD2     C13333   4.043   3.428  15.686  0.5866  0.4388  0.2235
  907MPD2    C113334   4.130   3.324  15.664  0.5314  0.3714  0.6358
  907MPD2    C213335   4.162   3.236  15.763  0.1084 -0.2551  0.2967
  907MPD2    C313336   4.107   3.254  15.891  0.3102 -0.2539  0.0978
  907MPD2    C413337   4.019   3.352  15.912 -0.4073  0.6022  0.1527
  907MPD2    C513338   3.983   3.440  15.811  0.1937 -0.0753 -0.5158
  907MPD2     H13339   4.234   3.156  15.747  0.7972 -0.0150  2.0918
  907MPD2    H113340   3.982   3.372  16.012 -0.9586 -0.8192  0.2409
  907MPD2    H213341   4.011   3.496  15.608 -2.0146 -0.0102  0.8677
  907MPD2    H313342   3.920   3.526  15.831  0.0437 -0.3505  0.1542
  907MPD2     N13343   4.147   3.167  15.988  0.2661 -0.2239  0.3263
  907MPD2    H513344   4.229   3.110  15.970  0.4867 -0.7442  2.9448
  907MPD2    N113345   4.182   3.300  15.534  0.5813  0.0083 -0.0269
  907MPD2    H713346   4.245   3.220  15.527  0.9418  0.2906 -0.0312
  908MPD2     C13347   1.943   4.037  10.186  0.7241  0.6680  0.3286
  908MPD2    C113348   2.017   3.994  10.294 -0.5793  0.0165  0.3637
  908MPD2    C213349   2.049   4.087  10.392 -0.3626  0.2780 -0.7017
  908MPD2    C313350   2.004   4.213  10.387 -0.5608 -0.0115 -0.6919
  908MPD2    C413351   1.935   4.254  10.275  0.8911  0.0901 -0.1825
  908MPD2    C513352   1.902   4.170  10.179 -0.0817 -0.1049  0.5093
  908MPD2     H13353   2.097   4.049  10.482  1.0567  0.6099 -1.3204
  908MPD2    H113354   1.901   4.357  10.266  0.5760  0.0971  1.1012
  908MPD2    H213355   1.919   3.964  10.109 -0.3295  0.8308  0.5015
  908MPD2    H313356   1.837   4.207  10.101  0.4794 -2.2570 -0.9786
  908MPD2     N13357   2.039   4.294  10.497  0.4318 -0.2858 -0.1934
  908MPD2    H513358   2.106   4.258  10.564  0.6064  0.8637  0.2604
  908MPD2    N113359   2.066   3.859  10.299 -0.3402 -0.2236  0.2667
  908MPD2    H713360   2.034   3.794  10.228  1.2840 -0.3075 -0.3813
  909MPD2     C13361   2.228   2.077  11.046  0.1362  0.3495  0.0469
  909MPD2    C113362   2.310   2.187  11.073 -0.4762  0.7844 -0.4026
  909MPD2    C213363   2.289   2.260  11.189  0.2590 -0.8418  0.2636
  909MPD2    C313364   2.183   2.231  11.277  0.1603  0.5907  0.4009
  909MPD2    C413365   2.104   2.119  11.249  0.1642 -0.0315 -0.4002
  909MPD2    C513366   2.129   2.038  11.139 -0.6573  0.4022 -0.7361
  909MPD2     H13367   2.347   2.347  11.217 -2.7356  1.1187  0.3795
  909MPD2    H113368   2.023   2.090  11.315 -0.8466  1.0004 -1.1959
  909MPD2    H213369   2.235   2.019  10.954 -1.8233  0.1052  0.0576
  909MPD2    H313370   2.065   1.951  11.124  0.8103 -0.5540 -1.4213
  909MPD2     N13371   2.160   2.305  11.396 -0.7827 -1.0620 -0.1713
  909MPD2    H513372   2.227   2.381  11.402 -1.0065 -0.8690 -0.0774
  909MPD2    N113373   2.406   2.242  10.986  0.1326 -0.5778  0.0479
  909MPD2    H713374   2.446   2.328  11.021 -1.9617  1.0090 -1.3893
  910MPD2     C13375   3.912   3.966  15.784 -0.3001 -0.0412 -0.1980
  910MPD2    C113376   4.023   3.892  15.785 -0.3458 -0.1860  0.3244
  910MPD2    C213377   4.104   3.903  15.668 -0.1818  0.2463  0.1446
  910MPD2    C313378   4.085   3.994  15.562  0.2481  0.2158  0.0209
  910MPD2    C413379   3.970   4.070  15.564 -0.2149  0.3532 -0.5334
  910MPD2    C513380   3.887   4.046  15.675 -0.5336  0.4129 -0.0335
  910MPD2     H13381   4.190   3.837  15.666  0.7306  1.5100 -1.9579
  910MPD2    H113382   3.938   4.141  15.488 -0.7980 -0.1643 -0.7680
  910MPD2    H213383   3.839   3.970  15.863  1.2475 -0.7465  1.2744
  910MPD2    H313384   3.792   4.097  15.665 -0.9755 -0.1145  1.4414
  910MPD2     N13385   4.171   3.988  15.446  0.2787  0.5954  0.4824
  910MPD2    H513386   4.236   3.910  15.442  0.3131  0.6967 -0.8017
  910MPD2    N113387   4.064   3.793  15.881  0.0731 -0.7639  0.0192
  910MPD2    H713388   4.134   3.726  15.852  1.6685  0.9113  0.0533
  911MPD2     C13389   1.641   4.368  15.614 -0.0565 -0.0621  0.3862
  911MPD2    C113390   1.659   4.423  15.738  0.7731 -0.0630  0.2283
  911MPD2    C213391   1.591   4.533  15.786  0.1150 -0.1475  0.4020
  911MPD2    C313392   1.502   4.598  15.697 -0.1365  0.1858  0.3267
  911MPD2    C413393   1.480   4.538  15.573 -0.0684  0.2257 -0.3283
  911MPD2    C513394   1.544   4.420  15.538 -0.7324 -0.5850 -0.1383
  911MPD2     H13395   1.607   4.586  15.880 -1.3638  2.0911 -0.5879
  911MPD2    H113396   1.403   4.584  15.513 -1.1513  1.5864  2.0876
  911MPD2    H213397   1.688   4.280  15.572 -0.1728  0.4421 -0.7788
  911MPD2    H313398   1.516   4.364  15.450  1.8187  0.7927 -1.8260
  911MPD2     N13399   1.427   4.720  15.722  0.3776  0.2509  0.1780
  911MPD2    H513400   1.365   0.013  15.645  0.4771 -0.6231 -0.2106
  911MPD2    N113401   1.777   4.376  15.808  0.2791 -0.0992 -1.0737
  911MPD2    H713402   1.837   4.315  15.755 -0.1243 -0.8938 -0.6052
  912MPD2     C13403   1.177   4.678  15.288 -0.7516 -1.0264 -0.4854
  912MPD2    C113404   1.139   4.667  15.422  0.1018 -0.4722 -0.2948
  912MPD2    C213405   1.147   4.538  15.475  0.1279 -0.0889  0.4389
  912MPD2    C313406   1.171   4.427  15.404  0.3438 -0.1154  0.0205
  912MPD2    C413407   1.211   4.437  15.275 -0.3159  0.2194  0.1363
  912MPD2    C513408   1.223   4.564  15.224 -0.1061  0.6884 -0.2588
  912MPD2     H13409   1.122   4.524  15.580  2.2709 -2.4095  0.6384
  912MPD2    H113410   1.236   4.357  15.207 -0.4004 -1.4547  2.0716
  912MPD2    H213411   1.188   0.042  15.244 -0.2184 -1.0363 -0.3728
  912MPD2    H313412   1.268   4.574  15.126 -1.6220  0.2007 -0.9936
  912MPD2     N13413   1.193   4.305  15.475  0.3269 -0.0522  0.1774
  912MPD2    H513414   1.194   4.320  15.576 -1.5411  1.8442 -0.1044
  912MPD2    N113415   1.114   0.058  15.488 -0.2674 -0.2975 -0.1516
  912MPD2    H713416   1.109   0.137  15.425 -0.8439 -0.2396 -0.0298
  913MPD2     C13417   1.451   0.622  10.842  0.3004  0.1722  0.2711
  913MPD2    C113418   1.523   0.731  10.869 -1.3260 -0.4070  0.1272
  913MPD2    C213419   1.577   0.795  10.760 -0.0409  0.3805  0.1816
  913MPD2    C313420   1.540   0.764  10.632 -0.0182  0.2152  0.2876
  913MPD2    C413421   1.456   0.657  10.610 -0.3789  0.3084  0.3849
  913MPD2    C513422   1.412   0.590  10.722 -0.7042 -0.4983  0.2208
  913MPD2     H13423   1.650   0.874  10.774  0.6310  0.3278 -3.1279
  913MPD2    H113424   1.432   0.613  10.513 -0.1486 -0.3056  0.6047
  913MPD2    H213425   1.421   0.560  10.926  0.0829 -0.5707 -0.3524
  913MPD2    H313426   1.363   0.496  10.698  0.9740 -1.0438 -1.1590
  913MPD2     N13427   1.579   0.847  10.521 -0.0286 -0.3041 -0.2981
  913MPD2    H513428   1.545   0.816  10.431 -0.6821 -0.5678  0.0315
  913MPD2    N113429   1.535   0.772  11.006 -0.1380  0.4113 -0.2634
  913MPD2    H713430   1.505   0.707  11.078  0.4904  0.8040  0.3533
  914MPD2     C13431   4.570   0.729  11.862 -0.4495  0.1403  0.8147
  914MPD2    C113432   4.552   0.864  11.871 -0.0101 -0.1302  0.3261
  914MPD2    C213433   4.586   0.933  11.983  0.1112  0.0308 -0.0868
  914MPD2    C313434   4.641   0.855  12.087  0.0658 -0.6173 -0.2187
  914MPD2    C413435   4.662   0.719  12.076  0.3941 -0.9322 -0.1801
  914MPD2    C513436   4.622   0.656  11.960 -0.0412  0.1333  0.4525
  914MPD2     H13437   4.581   1.040  11.998 -3.0906 -0.1974  0.4598
  914MPD2    H113438   4.722   0.658  12.143  1.2352  0.9392  0.7486
  914MPD2    H213439   4.532   0.670  11.779  0.4655  2.8068 -1.5318
  914MPD2    H313440   4.646   0.552  11.937 -0.1773  0.1377  0.2885
  914MPD2     N13441   4.676   0.917  12.215 -0.1821 -0.6487 -0.4510
  914MPD2    H513442   4.670   1.019  12.213 -0.3735 -0.7041 -2.4820
  914MPD2    N113443   4.492   0.929  11.761 -0.7033  0.3216 -0.3454
  914MPD2    H713444   4.469   0.866  11.685 -0.0050 -0.1065 -0.1900
  915MPD2     C13445   2.965   1.315  15.418 -0.4763 -0.0198  0.2921
  915MPD2    C113446   2.825   1.279  15.442  0.7177  0.5931  0.1513
  915MPD2    C213447   2.763   1.336  15.551  0.4060  0.0107 -0.1055
  915MPD2    C313448   2.827   1.409  15.650  0.3450 -0.2114 -0.6410
  915MPD2    C413449   2.960   1.435  15.633  0.7659 -0.5006  0.0562
  915MPD2    C513450   3.019   1.399  15.514 -1.1622 -0.2598  0.2855
  915MPD2     H13451   2.658   1.320  15.573  0.7110  1.3757  2.3275
  915MPD2    H113452   3.005   1.509  15.699  1.3267 -0.2036 -0.6533
  915MPD2    H213453   3.027   1.278  15.337 -0.9970 -2.1287  0.8689
  915MPD2    H313454   3.124   1.425  15.508 -0.8242 -1.6341  0.0129
  915MPD2     N13455   2.744   1.458  15.751 -0.5067 -0.0696 -0.7543
  915MPD2    H513456   2.644   1.444  15.741 -0.3926 -1.6826  0.4654
  915MPD2    N113457   2.751   1.195  15.362  0.2560  0.0400 -0.2601
  915MPD2    H713458   2.660   1.181  15.404 -0.4380  0.8699 -1.4762
  916MPD2     C13459   0.846   4.297  15.465 -0.4378  0.1016 -0.3197
  916MPD2    C113460   0.823   4.198  15.557 -0.8285  0.3524 -0.3724
  916MPD2    C213461   0.827   4.063  15.514 -0.3407  0.4891 -0.1538
  916MPD2    C313462   0.859   4.033  15.382  0.4554 -0.4159  0.3897
  916MPD2    C413463   0.870   4.132  15.291  1.4389 -0.6021  1.0571
  916MPD2    C513464   0.864   4.263  15.332 -0.2845  0.3145 -0.0178
  916MPD2     H13465   0.827   3.980  15.584 -1.1994 -1.3947 -2.3634
  916MPD2    H113466   0.888   4.127  15.184  0.9037 -0.1176  0.9451
  916MPD2    H213467   0.848   4.403  15.486 -0.8364  0.0341  0.0601
  916MPD2    H313468   0.882   4.340  15.258 -3.0118 -0.4258 -1.4572
  916MPD2     N13469   0.871   3.897  15.350  0.3034 -0.0591  0.4357
  916MPD2    H513470   0.834   3.836  15.421  0.5463  0.1704  0.7585
  916MPD2    N113471   0.788   4.231  15.685  0.0543  0.2915  0.3955
  916MPD2    H713472   0.791   4.329  15.711  5.8782  1.1676 -3.6766
  917MPD2     C13473   0.749   1.616  10.835  0.5126  0.5732 -0.9003
  917MPD2    C113474   0.800   1.694  10.940  0.7499  0.4679  0.4763
  917MPD2    C213475   0.897   1.788  10.920  0.1953 -0.7592  0.5786
  917MPD2    C313476   0.937   1.816  10.786 -0.3801 -0.1663  0.4858
  917MPD2    C413477   0.883   1.741  10.679  0.7352 -0.0427 -0.7332
  917MPD2    C513478   0.794   1.643  10.711  0.2919  0.4590 -1.0035
  917MPD2     H13479   0.949   1.829  11.005  0.2000  1.9245 -0.7332
  917MPD2    H113480   0.898   1.753  10.572  2.3784  0.5962 -0.4228
  917MPD2    H213481   0.677   1.536  10.848  1.8434 -0.6147 -0.6671
  917MPD2    H313482   0.756   1.581  10.630 -1.6131 -0.8546  0.9210
  917MPD2     N13483   1.030   1.920  10.749  0.1671  0.7932 -0.3818
  917MPD2    H513484   1.038   1.937  10.650 -0.8010 -0.2631 -0.6317
  917MPD2    N113485   0.747   1.668  11.071 -0.3846 -0.1311 -0.0074
  917MPD2    H713486   0.678   1.596  11.088  0.6095 -0.8101  1.2102
  918MPD2     C13487   0.795   2.158  12.001 -0.1627 -0.1136 -0.0213
  918MPD2    C113488   0.897   2.145  11.909 -0.2759  0.1469 -0.1130
  918MPD2    C213489   0.858   2.065  11.799 -0.1360 -0.5226 -0.2645
  918MPD2    C313490   0.735   2.013  11.771  0.7325 -0.5616 -0.0526
  918MPD2    C413491   0.643   2.032  11.872  0.0421 -0.8034 -0.6433
  918MPD2    C513492   0.672   2.099  11.980  0.3221  0.0232 -0.0527
  918MPD2     H13493   0.928   2.036  11.721  1.7169  2.3389  0.3042
  918MPD2    H113494   0.542   1.995  11.861 -0.3871 -0.7043  2.7714
  918MPD2    H213495   0.804   2.205  12.098 -0.8687  1.2245 -0.6044
  918MPD2    H313496   0.602   2.093  12.063  0.2646  2.8255  0.0930
  918MPD2     N13497   0.714   1.935  11.655  0.0833  0.5383  0.2017
  918MPD2    H513498   0.785   1.933  11.582 -2.0553  0.4178 -1.8854
  918MPD2    N113499   1.029   2.188  11.920  0.1956  0.3870  0.2232
  918MPD2    H713500   1.084   2.167  11.837 -0.1353 -1.6523  0.5224
  919MPD2     C13501   1.305   1.267  11.622 -0.3846 -0.7809  0.2172
  919MPD2    C113502   1.282   1.132  11.627  0.4002  0.0681  0.1176
  919MPD2    C213503   1.251   1.073  11.502  0.0906 -0.5014 -0.6920
  919MPD2    C313504   1.249   1.145  11.381  0.4647  0.6112 -0.8011
  919MPD2    C413505   1.266   1.279  11.388  0.4892  0.2205  0.0071
  919MPD2    C513506   1.290   1.341  11.507 -1.1867  0.5230 -0.3990
  919MPD2     H13507   1.242   0.965  11.492  1.1827 -0.9388  3.1599
  919MPD2    H113508   1.267   1.340  11.298  1.6550  1.4176  0.8275
  919MPD2    H213509   1.343   1.328  11.704 -0.1626  0.6847 -0.9684
  919MPD2    H313510   1.327   1.443  11.503 -3.3431  1.2840 -1.3000
  919MPD2     N13511   1.219   1.086  11.255 -0.5632  0.2751  0.5980
  919MPD2    H513512   1.225   1.153  11.179 -0.2506 -1.5800 -0.9966
  919MPD2    N113513   1.286   1.050  11.738 -0.2079 -0.2811  0.0356
  919MPD2    H713514   1.288   0.951  11.715  1.0345 -0.0082 -1.0366
  920MPD2     C13515   1.261   1.278  10.298  0.5265 -0.2508 -0.2031
  920MPD2    C113516   1.157   1.188  10.311  0.1807  0.1937 -0.2188
  920MPD2    C213517   1.151   1.103  10.427  0.6191 -0.4930  0.0499
  920MPD2    C313518   1.250   1.123  10.522 -0.1540  0.4742  0.4811
  920MPD2    C413519   1.346   1.221  10.499  0.3618  0.6270 -0.5151
  920MPD2    C513520   1.360   1.290  10.396 -0.5902  0.0834  0.1833
  920MPD2     H13521   1.070   1.032  10.436 -1.0675  1.4342  0.0530
  920MPD2    H113522   1.421   1.239  10.576  0.0773 -0.0625 -0.0745
  920MPD2    H213523   1.274   1.329  10.204 -2.9420  1.2899  0.1184
  920MPD2    H313524   1.444   1.356  10.381 -0.5409  0.7895  3.6480
  920MPD2     N13525   1.241   1.038  10.639  0.7003  0.0249  0.0815
  920MPD2    H513526   1.172   0.964  10.644 -1.5093  1.9516 -1.6398
  920MPD2    N113527   1.054   1.163  10.214 -0.0928  0.0360 -0.5271
  920MPD2    H713528   0.975   1.109  10.248  0.1411  0.3601  0.5430
  921MPD2     C13529   2.283   0.061  16.500 -0.3410  0.2219 -0.2170
  921MPD2    C113530   2.362   4.685  16.453 -0.1734 -0.9354  0.9639
  921MPD2    C213531   2.303   4.588  16.386  0.4899 -0.1705  0.3518
  921MPD2    C313532   2.161   4.587  16.373 -0.1775 -0.5235 -0.3989
  921MPD2    C413533   2.088   4.696  16.420  0.2949  0.2671 -0.0494
  921MPD2    C513534   2.148   0.069  16.482  0.5523 -0.4834 -0.1524
  921MPD2     H13535   2.359   4.505  16.346  0.2859 -0.1286 -0.0208
  921MPD2    H113536   1.981   4.707  16.409  0.4197  0.6353 -0.9293
  921MPD2    H213537   2.323   0.146  16.555  0.6192 -2.7136  3.6281
  921MPD2    H313538   2.088   0.152  16.516  0.5671 -1.1923  1.6409
  921MPD2     N13539   2.095   4.500  16.295 -0.4413 -0.0107  0.0713
  921MPD2    H513540   2.005   4.531  16.261 -1.3105 -1.7869  0.7412
  921MPD2    N113541   2.505   4.692  16.462 -0.5742  0.0599 -0.2742
  921MPD2    H713542   2.547   0.042  16.501 -1.2008  1.5366 -2.7629
  922MPD2     C13543   3.470   3.017  17.038 -0.3224 -0.1825  0.1789
  922MPD2    C113544   3.458   3.018  17.176  0.7723 -0.3024  0.3979
  922MPD2    C213545   3.450   2.896  17.235  0.1908 -0.1601  0.5726
  922MPD2    C313546   3.473   2.782  17.163  0.6825  0.2699 -0.1012
  922MPD2    C413547   3.489   2.782  17.023  0.6072  0.2711  0.0916
  922MPD2    C513548   3.483   2.904  16.972 -0.4244 -1.3274 -0.1253
  922MPD2     H13549   3.437   2.888  17.342  1.5919  0.4585  0.7888
  922MPD2    H113550   3.513   2.699  16.958  2.6586  1.1990 -0.3228
  922MPD2    H213551   3.453   3.103  16.974 -0.2380 -2.6277 -3.1207
  922MPD2    H313552   3.489   2.914  16.864  0.2829 -4.1167 -0.3316
  922MPD2     N13553   3.465   2.663  17.231 -0.3761  0.3411  0.2078
  922MPD2    H513554   3.448   2.669  17.331 -3.0875  0.9096 -0.3127
  922MPD2    N113555   3.450   3.129  17.257  0.5210  0.4964  0.5028
  922MPD2    H713556   3.431   3.114  17.356 -0.2946 -2.4505 -0.0959
  923MPD2     C13557   4.668   0.215   8.512 -0.0948  0.4581 -0.5131
  923MPD2    C113558   4.633   0.113   8.600 -0.0198  0.7469 -0.0806
  923MPD2    C213559   4.733   0.075   8.690 -0.2771  0.5363  0.1066
  923MPD2    C313560   0.113   0.141   8.709 -0.3576 -0.2827 -0.4577
  923MPD2    C413561   0.147   0.247   8.627 -0.4286 -0.4574 -1.1715
  923MPD2    C513562   0.063   0.270   8.518 -0.0766  0.4295 -0.5916
  923MPD2     H13563   4.706   0.005   8.768  1.2630 -1.4251 -1.1379
  923MPD2    H113564   0.239   0.302   8.643 -0.1576 -1.2024 -0.1864
  923MPD2    H213565   4.604   0.245   8.430  0.0509  1.5404 -0.2301
  923MPD2    H313566   0.090   0.341   8.440 -1.4178  0.2721 -1.1973
  923MPD2     N13567   0.199   0.110   8.813 -0.3104  0.3216 -0.3708
  923MPD2    H513568   0.271   0.178   8.833  0.1529 -0.4300  0.4976
  923MPD2    N113569   4.500   0.056   8.596  0.5421 -0.2494  0.1192
  923MPD2    H713570   4.434   0.092   8.527  1.3213  0.7178 -0.1248
  924MPD2     C13571   4.692   2.671  16.483  0.2022  0.7060 -0.0431
  924MPD2    C113572   4.561   2.683  16.462 -0.6345  0.0864  0.3403
  924MPD2    C213573   4.519   2.726  16.331 -0.0618 -1.0410 -0.1513
  924MPD2    C313574   4.622   2.750  16.235  0.0672 -0.0644  0.1921
  924MPD2    C413575   0.015   2.721  16.265  0.2562 -0.5878  0.4380
  924MPD2    C513576   0.054   2.687  16.385 -0.4520 -0.5582 -0.5510
  924MPD2     H13577   4.413   2.746  16.316 -0.0654 -0.8282  0.1553
  924MPD2    H113578   0.089   2.735  16.187 -1.2828  4.3365 -0.1449
  924MPD2    H213579   4.727   2.643  16.582  1.8875 -1.7860 -1.3230
  924MPD2    H313580   0.158   2.669  16.411 -1.3563  0.2219  3.4726
  924MPD2     N13581   4.602   2.813  16.102  0.0034  0.5771 -0.1423
  924MPD2    H513582   4.664   2.788  16.026 -4.0303 -1.7803 -2.6488
  924MPD2    N113583   4.484   2.672  16.583  0.4404  0.1192  0.4848
  924MPD2    H713584   4.540   2.641  16.662 -0.5093 -2.9111 -0.0180
  925MPD2     C13585   3.632   0.510  14.598  0.5281  0.0798  0.3993
  925MPD2    C113586   3.504   0.566  14.576 -0.2729 -0.1093 -0.0296
  925MPD2    C213587   3.424   0.584  14.687  0.5670 -0.8146  0.0725
  925MPD2    C313588   3.461   0.537  14.812 -0.2520  0.5878 -0.0823
  925MPD2    C413589   3.581   0.473  14.834  0.1764  0.4708  0.1959
  925MPD2    C513590   3.665   0.473  14.726 -0.0979  0.6030  0.3830
  925MPD2     H13591   3.322   0.616  14.670  1.2293 -0.0406 -2.4167
  925MPD2    H113592   3.609   0.437  14.932  0.5252 -1.1412 -0.4955
  925MPD2    H213593   3.704   0.499  14.518  0.1559  1.7995 -0.1575
  925MPD2    H313594   3.765   0.446  14.757 -0.1423  1.7695  1.4925
  925MPD2     N13595   3.385   0.542  14.930 -0.3647 -0.1395  0.1043
  925MPD2    H513596   3.434   0.531  15.018 -0.9096  1.1465  0.5581
  925MPD2    N113597   3.464   0.602  14.447  0.1648 -0.3464 -0.0743
  925MPD2    H713598   3.390   0.671  14.447  0.5510  0.0683 -0.2737
  926MPD2     C13599   2.197   3.773  13.913 -0.7218 -0.2032 -0.4333
  926MPD2    C113600   2.103   3.846  13.844  0.0450 -0.8239  0.9380
  926MPD2    C213601   2.143   3.936  13.751  0.3596 -0.0015  0.4863
  926MPD2    C313602   2.276   3.938  13.710 -0.8247  0.5518  0.0617
  926MPD2    C413603   2.365   3.851  13.754  0.0178  0.1811 -0.0468
  926MPD2    C513604   2.323   3.778  13.862  0.1758 -0.4704 -0.4497
  926MPD2     H13605   2.061   3.991  13.706  1.5123 -0.0871 -1.7254
  926MPD2    H113606   2.465   3.843  13.712 -0.8501 -3.2693 -1.3879
  926MPD2    H213607   2.177   3.712  14.001 -0.2175 -0.8041 -0.7320
  926MPD2    H313608   2.388   3.706  13.912 -2.6284 -2.3136  0.5234
  926MPD2     N13609   2.323   4.025  13.605  0.2855 -0.0701  0.0882
  926MPD2    H513610   2.418   4.016  13.571  0.2144 -1.8630  0.3984
  926MPD2    N113611   1.966   3.840  13.878 -0.6142 -0.6892 -0.3816
  926MPD2    H713612   1.899   3.904  13.835 -1.3588 -2.4132 -1.7927
  927MPD2     C13613   1.530   0.703   0.848  0.3847  0.0809  0.6630
  927MPD2    C113614   1.578   0.821   0.786 -0.6378 -0.1792  0.9971
  927MPD2    C213615   1.662   0.808   0.676 -0.1124  0.0364 -1.1077
  927MPD2    C313616   1.676   0.686   0.612  0.0628  0.1166  0.8749
  927MPD2    C413617   1.620   0.574   0.669 -0.2249  0.4346  0.2935
  927MPD2    C513618   1.541   0.587   0.778 -0.2660  0.3219 -0.1106
  927MPD2     H13619   1.718   0.896   0.645 -0.7319  1.3351  1.5169
  927MPD2    H113620   1.631   0.470   0.642  0.4834  0.6184 -0.1244
  927MPD2    H213621   1.470   0.705   0.938 -3.4559  2.1205 -1.9467
  927MPD2    H313622   1.502   0.502   0.834  1.5578  0.7522  1.8152
  927MPD2     N13623   1.766   0.681   0.503 -0.0058  0.3198 -0.5043
  927MPD2    H513624   1.819   0.765   0.481 -0.2959  1.1041  1.8052
  927MPD2    N113625   1.543   0.950   0.835  0.3303 -0.6298 -0.6904
  927MPD2    H713626   1.492   0.955   0.923  0.7546 -0.7802 -0.4360
  928MPD2     C13627   4.553   4.563   0.298 -0.2557  0.2005 -0.2834
  928MPD2    C113628   4.553   4.646   0.414  0.7963 -0.5849  0.4563
  928MPD2    C213629   4.680   4.665   0.470 -0.1667 -0.4672  0.8484
  928MPD2    C313630   0.066   4.623   0.411 -0.1224 -0.5795  0.3136
  928MPD2    C413631   0.057   4.533   0.308  0.6647 -0.3432 -0.1766
  928MPD2    C513632   4.669   4.509   0.257  0.0338 -0.0933  0.7541
  928MPD2     H13633   4.697   4.725   0.559  0.3691 -3.2191  2.6151
  928MPD2    H113634   0.139   4.476   0.264  1.6249  0.2832  0.7895
  928MPD2    H213635   4.460   4.529   0.253 -0.3047  1.5336 -1.2004
  928MPD2    H313636   4.654   4.430   0.184  0.3075  0.7043 -0.1737
  928MPD2     N13637   0.193   4.670   0.455  0.1168  0.0712  0.1128
  928MPD2    H513638   0.277   4.639   0.407 -1.1649 -1.6281 -1.0213
  928MPD2    N113639   4.438   4.692   0.470  0.3635  0.8166  0.7171
  928MPD2    H713640   4.351   4.649   0.439  0.3506  0.3365  1.4184
  929MPD2     C13641   0.179   0.134   9.846 -0.1925  0.5637  0.0485
  929MPD2    C113642   0.090   0.070   9.761  0.6085  0.3192  0.6233
  929MPD2    C213643   0.072   0.125   9.636  0.1591 -0.3832 -0.2978
  929MPD2    C313644   0.121   0.257   9.601  0.2903 -0.1293  0.8864
  929MPD2    C413645   0.193   0.320   9.700  0.3956  0.1618  0.0074
  929MPD2    C513646   0.222   0.263   9.821  0.5176 -0.4421 -0.4298
  929MPD2     H13647   0.022   0.068   9.559 -2.1460 -1.0486  1.7043
  929MPD2    H113648   0.230   0.419   9.678  0.5801 -0.3213 -1.8741
  929MPD2    H213649   0.204   0.081   9.937  1.2345 -1.4257 -1.5142
  929MPD2    H313650   0.284   0.321   9.889  0.2262 -1.4885  0.7303
  929MPD2     N13651   0.093   0.311   9.476 -0.5997  0.3696 -0.1061
  929MPD2    H513652   0.107   0.411   9.471  0.3122  0.1814 -1.4696
  929MPD2    N113653   0.049   4.672   9.796 -0.5101 -0.1126  0.1969
  929MPD2    H713654   0.090   4.638   9.882  1.1609 -1.0407 -0.9675
  930MPD2     C13655   1.408   1.852  14.124  0.4753  0.0897  0.5824
  930MPD2    C113656   1.511   1.881  14.032  0.3662 -0.7505 -0.0330
  930MPD2    C213657   1.512   1.798  13.918  0.2835 -0.3317 -0.5805
  930MPD2    C313658   1.410   1.711  13.883  0.5050 -0.2089 -0.9476
  930MPD2    C413659   1.306   1.702  13.966 -0.7279  0.2625 -0.1038
  930MPD2    C513660   1.312   1.761  14.090 -0.8580  0.5627 -0.1233
  930MPD2     H13661   1.590   1.813  13.844  1.2225  1.3146  0.7468
  930MPD2    H113662   1.231   1.627  13.949  0.7323 -1.0711 -0.6581
  930MPD2    H213663   1.406   1.895  14.224 -2.8539 -1.0631  1.0062
  930MPD2    H313664   1.222   1.738  14.147  1.0592 -1.7802  1.9484
  930MPD2     N13665   1.404   1.648  13.757  0.1464 -0.1088  0.5893
  930MPD2    H513666   1.314   1.632  13.711  0.3226 -0.0443  0.2171
  930MPD2    N113667   1.588   1.994  14.059  0.4276 -0.3751 -0.3106
  930MPD2    H713668   1.563   2.048  14.141  2.3936  0.7949 -0.4722
  931MPD2     C13669   1.602   1.050   1.425  0.3450  0.0284 -0.2484
  931MPD2    C113670   1.531   1.163   1.392 -1.1215  0.0600 -1.0716
  931MPD2    C213671   1.519   1.268   1.482  0.4067 -0.1482  0.2377
  931MPD2    C313672   1.597   1.271   1.599 -0.5911 -1.2363 -0.2881
  931MPD2    C413673   1.662   1.158   1.633 -0.6377 -0.1985 -0.7923
  931MPD2    C513674   1.665   1.044   1.550  0.7813  0.5732 -0.5503
  931MPD2     H13675   1.448   1.349   1.467  0.9107  0.3083  0.3293
  931MPD2    H113676   1.725   1.155   1.721 -0.0061  0.4761 -1.2193
  931MPD2    H213677   1.593   0.968   1.355 -2.7599 -0.7314  1.0465
  931MPD2    H313678   1.724   0.957   1.577  2.1962  1.9183  0.6872
  931MPD2     N13679   1.593   1.379   1.687  0.3391 -0.3629 -0.4286
  931MPD2    H513680   1.638   1.369   1.778  4.4581  2.5806 -2.1909
  931MPD2    N113681   1.505   1.174   1.254 -0.2327  0.2955 -0.8011
  931MPD2    H713682   1.507   1.088   1.200  0.8766 -0.4669  0.4482
  932MPD2     C13683   3.250   0.216  10.739  0.0615  0.7268  0.6207
  932MPD2    C113684   3.300   0.285  10.852  0.2374 -0.3375  0.4039
  932MPD2    C213685   3.341   0.212  10.960  0.0697 -0.7352  0.1637
  932MPD2    C313686   3.340   0.073  10.950 -0.1831  0.4221 -0.1897
  932MPD2    C413687   3.283   0.010  10.847  0.1545  0.3207  0.7441
  932MPD2    C513688   3.242   0.079  10.735 -0.1145  0.1232 -0.0761
  932MPD2     H13689   3.399   0.268  11.033  0.2322  0.4470 -0.8771
  932MPD2    H113690   3.290   4.636  10.845 -1.4526  0.2308 -0.0033
  932MPD2    H213691   3.226   0.265  10.645 -2.5297  2.2865  2.1094
  932MPD2    H313692   3.198   0.032  10.649 -0.9400  0.1322  0.3426
  932MPD2     N13693   3.384   4.718  11.053  0.5862 -0.2890 -0.4340
  932MPD2    H513694   3.394   4.618  11.041  0.1910 -0.1542 -1.9603
  932MPD2    N113695   3.347   0.423  10.843  0.0909 -0.1045  0.0350
  932MPD2    H713696   3.397   0.465  10.921 -2.1512 -0.5202  1.6713
  933MPD2     C13697   3.840   4.567   0.344 -0.5697 -0.4411  0.2718
  933MPD2    C113698   3.838   4.609   0.474  1.1219 -0.2247  0.6180
  933MPD2    C213699   3.716   4.626   0.539  0.0326 -0.5164 -0.0017
  933MPD2    C313700   3.597   4.614   0.469  0.1126  0.1739 -0.0477
  933MPD2    C413701   3.600   4.583   0.330  0.3323  0.4361  0.2928
  933MPD2    C513702   3.723   4.546   0.273  0.0434  0.0137 -0.4767
  933MPD2     H13703   3.713   4.660   0.642 -0.9091  1.1131 -0.5754
  933MPD2    H113704   3.514   4.581   0.264 -0.0955  0.8921  0.8343
  933MPD2    H213705   3.940   4.547   0.306 -1.8242 -2.1031 -2.1503
  933MPD2    H313706   3.721   4.505   0.173 -3.1109 -0.4635 -0.2151
  933MPD2     N13707   3.476   4.654   0.532  0.6601 -0.4503 -0.0195
  933MPD2    H513708   3.505   4.710   0.611 -0.8139 -1.6510  1.3463
  933MPD2    N113709   3.962   4.633   0.534  0.4582 -0.1134 -0.3434
  933MPD2    H713710   4.034   4.629   0.463  0.6139  2.6323 -0.3180
  934MPD2     C13711   0.711   1.967   1.722 -0.7110  0.0582  0.1040
  934MPD2    C113712   0.792   2.060   1.656 -0.0807 -0.3345 -0.8476
  934MPD2    C213713   0.738   2.115   1.540  0.0727 -0.4557 -0.8876
  934MPD2    C313714   0.611   2.078   1.486 -0.4748 -0.0548 -0.2494
  934MPD2    C413715   0.543   1.982   1.550  0.5724 -0.3721  0.8823
  934MPD2    C513716   0.599   1.926   1.671 -1.0165 -0.2279 -0.6503
  934MPD2     H13717   0.791   2.199   1.497  0.9327 -0.2144  0.6607
  934MPD2    H113718   0.445   1.945   1.522  0.8798 -0.2236 -0.3582
  934MPD2    H213719   0.736   1.931   1.821  1.3539  0.2259 -0.3531
  934MPD2    H313720   0.546   1.847   1.723  0.5193 -0.4793  0.5403
  934MPD2     N13721   0.550   2.128   1.372 -0.7811 -0.3193  0.0237
  934MPD2    H513722   0.450   2.110   1.366 -0.4880 -1.7241 -0.5844
  934MPD2    N113723   0.907   2.124   1.712  0.1297  0.1029 -0.8529
  934MPD2    H713724   0.947   2.206   1.667  0.9694  1.1277  1.7721
  935MPD2     C13725   0.904   1.807   0.614  0.6489 -0.1047  0.4603
  935MPD2    C113726   0.819   1.746   0.707 -0.3655 -0.0816  0.8671
  935MPD2    C213727   0.718   1.820   0.763  0.2089 -0.1979 -0.1164
  935MPD2    C313728   0.705   1.956   0.735 -0.5651 -0.1512 -0.2902
  935MPD2    C413729   0.788   2.018   0.640 -0.7511  0.5728  0.3106
  935MPD2    C513730   0.885   1.939   0.581 -0.4632  0.0272  0.0696
  935MPD2     H13731   0.661   1.770   0.841 -0.0329  0.2042 -0.0361
  935MPD2    H113732   0.780   2.122   0.610  0.2573  0.0693 -1.7074
  935MPD2    H213733   0.982   1.756   0.559  0.2523 -0.3791  0.1468
  935MPD2    H313734   0.951   1.992   0.513  1.3594 -0.2617  1.5856
  935MPD2     N13735   0.618   2.029   0.812  0.7822  0.6150  0.4875
  935MPD2    H513736   0.561   1.982   0.881 -0.4094  1.1136 -0.1435
  935MPD2    N113737   0.816   1.603   0.738 -0.0204  0.1615  0.2766
  935MPD2    H713738   0.744   1.571   0.802 -2.5032  1.4129 -1.9071
  936MPD2     C13739   3.811   3.610  12.303 -0.3174  0.3306 -0.1269
  936MPD2    C113740   3.927   3.538  12.330 -0.3136 -0.5163  0.1841
  936MPD2    C213741   4.023   3.605  12.407 -0.7451 -1.1382 -0.0794
  936MPD2    C313742   4.003   3.732  12.458 -0.8401  0.2488 -0.7461
  936MPD2    C413743   3.886   3.796  12.424 -0.4029  0.1171  0.4050
  936MPD2    C513744   3.792   3.731  12.355 -0.0627  0.3690 -0.3379
  936MPD2     H13745   4.116   3.555  12.431  0.1042  0.9198  0.9456
  936MPD2    H113746   3.860   3.892  12.468 -2.4961 -0.3038  0.1202
  936MPD2    H213747   3.735   3.577  12.234 -1.7637  1.5931  0.8651
  936MPD2    H313748   3.699   3.786  12.345 -0.2544  0.1523  0.3025
  936MPD2     N13749   4.095   3.791  12.548 -0.0065  0.2608 -0.4147
  936MPD2    H513750   4.171   3.730  12.577 -0.2941 -0.3062 -0.8650
  936MPD2    N113751   3.952   3.402  12.288 -0.3815  0.3355 -0.1890
  936MPD2    H713752   4.032   3.350  12.321  0.4295  1.5444 -0.2454
  937MPD2     C13753   1.778   0.514  11.936  0.0282  0.3139 -0.1961
  937MPD2    C113754   1.752   0.642  11.877  0.5918 -0.2486  0.0956
  937MPD2    C213755   1.850   0.680  11.788  0.2802  0.0586 -0.3378
  937MPD2    C313756   1.962   0.603  11.749  1.0756  0.2346  0.1084
  937MPD2    C413757   1.978   0.480  11.805 -0.5150 -0.2056  0.0840
  937MPD2    C513758   1.893   0.441  11.904 -0.1066 -0.1902  0.9315
  937MPD2     H13759   1.849   0.786  11.764 -0.5804  0.6547  2.3100
  937MPD2    H113760   2.059   0.416  11.773  1.2288  1.5024  1.1060
  937MPD2    H213761   1.709   0.474  12.010 -0.1409  0.9425 -0.0104
  937MPD2    H313762   1.912   0.344  11.949 -1.5171 -0.8219  0.1976
  937MPD2     N13763   2.059   0.663  11.662 -0.5405  0.4367 -0.4508
  937MPD2    H513764   2.037   0.758  11.633  0.5886  1.1576  1.0823
  937MPD2    N113765   1.671   0.744  11.929 -0.0826  0.2071 -0.0391
  937MPD2    H713766   1.702   0.839  11.911 -1.1292  0.3160 -1.2965
  938MPD2     C13767   4.430   1.103  17.442  0.1407  0.5840 -0.4048
  938MPD2    C113768   4.429   1.173  17.560 -0.4949 -0.4622 -0.3926
  938MPD2    C213769   4.396   1.105  17.679  0.0796 -0.0466 -0.5100
  938MPD2    C313770   4.379   0.969  17.678  0.0684  0.0036  0.3335
  938MPD2    C413771   4.371   0.906  17.551  0.2733  0.5347 -0.1026
  938MPD2    C513772   4.396   0.973  17.438 -0.3374  0.2328 -0.1634
  938MPD2     H13773   4.382   1.171   0.028 -0.0424  1.3453 -1.6162
  938MPD2    H113774   4.357   0.799  17.540  0.3491  0.1575  3.3846
  938MPD2    H213775   4.458   1.147  17.347  2.0034 -0.7855 -0.4938
  938MPD2    H313776   4.396   0.917  17.346 -2.7164  0.3819 -0.2567
  938MPD2     N13777   4.358   0.889   0.056 -0.2607 -0.9084 -0.3286
  938MPD2    H513778   4.356   0.789   0.040  1.5216 -0.7938 -1.2599
  938MPD2    N113779   4.456   1.315  17.563 -0.2076  0.6609 -0.1419
  938MPD2    H713780   4.473   1.355  17.654  0.2103 -0.2316  0.1700
  939MPD2     C13781   0.620   2.544   0.260  0.2466  0.2212 -0.0862
  939MPD2    C113782   0.645   2.662   0.330 -0.0022 -0.2456 -0.3095
  939MPD2    C213783   0.756   2.740   0.297 -0.4021  0.0933 -0.3589
  939MPD2    C313784   0.844   2.694   0.191 -0.1006 -0.0281  0.3359
  939MPD2    C413785   0.811   2.573   0.133 -0.0412  0.6522  0.8101
  939MPD2    C513786   0.706   2.499   0.167  0.0379  0.1358  0.2980
  939MPD2     H13787   0.779   2.828   0.356 -0.7522 -0.1007  0.0671
  939MPD2    H113788   0.876   2.530   0.058 -0.8240 -0.4382  0.7505
  939MPD2    H213789   0.524   2.498   0.280 -0.1609 -0.7041 -4.2781
  939MPD2    H313790   0.680   2.409   0.113  1.3474 -0.8946  1.4011
  939MPD2     N13791   0.949   2.785   0.155 -0.1157  0.0159 -0.3765
  939MPD2    H513792   0.943   2.880   0.189  2.2357 -0.5128  1.5156
  939MPD2    N113793   0.560   2.688   0.440  0.6194 -0.4431  0.1025
  939MPD2    H713794   0.474   2.634   0.443  0.8058 -0.8435 -1.3978
  940MPD2     C13795   0.168   3.864  12.589  0.2204 -0.9853  0.1622
  940MPD2    C113796   0.120   3.751  12.648 -0.5896 -0.6908  0.4943
  940MPD2    C213797   0.156   3.619  12.606 -0.6022 -0.0057 -0.3268
  940MPD2    C313798   0.242   3.610  12.498  1.1998 -0.4398 -0.0242
  940MPD2    C413799   0.276   3.728  12.434 -0.1906 -0.3642 -0.5594
  940MPD2    C513800   0.244   3.857  12.482  0.2879  0.2285 -0.1937
  940MPD2     H13801   0.113   3.537  12.661  2.3179  0.0171  1.9770
  940MPD2    H113802   0.342   3.729  12.348  1.4053  2.6153  0.6834
  940MPD2    H213803   0.150   3.964  12.629 -0.7586  0.0096 -2.7522
  940MPD2    H313804   0.302   3.940  12.441  1.3328  0.0825  0.9773
  940MPD2     N13805   0.289   3.493  12.437 -0.3715  0.2714 -0.1974
  940MPD2    H513806   0.357   3.509  12.364  0.6239  0.5185  0.7924
  940MPD2    N113807   0.045   3.748  12.764  0.0799 -0.1410 -0.2373
  940MPD2    H713808   0.015   3.662  12.809 -1.0388  0.3257 -0.0904
  941MPD2     C13809   3.379   2.882   9.379 -0.7640  0.0921 -0.2505
  941MPD2    C113810   3.502   2.823   9.395  0.5810 -0.0028 -0.7533
  941MPD2    C213811   3.524   2.749   9.511  0.1030  0.1909 -0.5744
  941MPD2    C313812   3.430   2.731   9.604  0.3959 -0.4309  0.0332
  941MPD2    C413813   3.302   2.780   9.584 -0.3311 -0.1105  0.2486
  941MPD2    C513814   3.287   2.863   9.476 -0.2869  0.4186  0.9088
  941MPD2     H13815   3.626   2.713   9.518  0.5706  1.8089  0.7231
  941MPD2    H113816   3.220   2.792   9.654 -0.9591  3.9350 -1.1573
  941MPD2    H213817   3.360   2.964   9.311  0.2382  0.1849 -0.4209
  941MPD2    H313818   3.192   2.915   9.478 -0.3981  0.2773 -0.7772
  941MPD2     N13819   3.455   2.666   9.731 -0.0238 -0.6034  0.2387
  941MPD2    H513820   3.369   2.657   9.783  0.5529 -2.1764  0.9338
  941MPD2    N113821   3.611   2.837   9.297 -0.2899 -0.7351 -0.6088
  941MPD2    H713822   3.697   2.784   9.309  0.1096 -0.6236 -2.9443
  942MPD2     C13823   2.763   4.347   9.831 -0.5950 -0.3479  0.1936
  942MPD2    C113824   2.861   4.443   9.856 -0.2822  0.0707 -0.4773
  942MPD2    C213825   2.980   4.429   9.788  0.4882 -0.1336 -0.0426
  942MPD2    C313826   3.002   4.309   9.718  0.0481 -0.4134  0.4522
  942MPD2    C413827   2.909   4.206   9.719 -0.5922 -0.5950 -0.3609
  942MPD2    C513828   2.784   4.235   9.762  0.1659 -0.3270 -0.0795
  942MPD2     H13829   3.064   4.497   9.799  1.4948 -1.3532 -0.2414
  942MPD2    H113830   2.936   4.114   9.668 -0.7795 -0.7688 -0.1456
  942MPD2    H213831   2.666   4.359   9.878 -0.9594  0.1024 -0.6792
  942MPD2    H313832   2.705   4.165   9.736  3.5716 -4.7775  1.7290
  942MPD2     N13833   3.123   4.273   9.657 -0.7059 -0.5103 -0.2525
  942MPD2    H513834   3.115   4.178   9.622 -0.0140 -0.8314  0.4395
  942MPD2    N113835   2.833   4.553   9.941  0.2157  0.3437  0.1577
  942MPD2    H713836   2.896   4.631   9.926 -1.6292  2.2842  2.4112
  943MPD2     C13837   3.276   1.533  10.037 -0.1415  0.1367 -0.4952
  943MPD2    C113838   3.146   1.571  10.063 -0.7722  0.1245  0.0914
  943MPD2    C213839   3.122   1.706  10.084  0.5776 -0.5022  0.5231
  943MPD2    C313840   3.227   1.800  10.076  0.5566  0.0873 -0.1318
  943MPD2    C413841   3.348   1.757  10.038 -0.6841  0.3364  0.9615
  943MPD2    C513842   3.375   1.622  10.020  0.2456  0.2642 -0.0121
  943MPD2     H13843   3.023   1.742  10.109 -0.4875 -3.9262  1.0990
  943MPD2    H113844   3.423   1.831  10.013 -1.1653  0.7380  0.6967
  943MPD2    H213845   3.301   1.429  10.023  0.6910  0.2934 -0.1441
  943MPD2    H313846   3.477   1.591  10.000  0.7336  0.3545  2.3425
  943MPD2     N13847   3.205   1.938  10.095 -0.1703 -0.5937 -0.3624
  943MPD2    H513848   3.285   2.000  10.095 -1.1092  0.6223 -2.4073
  943MPD2    N113849   3.045   1.471  10.065 -0.2410 -0.4348  0.4856
  943MPD2    H713850   3.074   1.375  10.047  1.2271 -0.1343  1.2836
  944MPD2     C13851   2.159   2.198  10.653 -0.3468  0.0239  0.2586
  944MPD2    C113852   2.046   2.167  10.727 -0.1697  0.0783 -0.2003
  944MPD2    C213853   1.999   2.255  10.822  0.7103 -0.5079  0.0334
  944MPD2    C313854   2.063   2.377  10.849  0.0744 -0.2706  0.4566
  944MPD2    C413855   2.166   2.407  10.766  0.8234 -0.4254  0.0370
  944MPD2    C513856   2.212   2.320  10.669 -0.2935  0.4316 -0.4946
  944MPD2     H13857   1.916   2.229  10.886  0.6980  3.0236  1.4377
  944MPD2    H113858   2.217   2.502  10.777  0.7336 -0.6062  2.0721
  944MPD2    H213859   2.206   2.123  10.590  0.9115 -0.5029  1.8408
  944MPD2    H313860   2.293   2.346  10.601  0.3115  0.2992  0.1783
  944MPD2     N13861   2.009   2.444  10.960 -0.2578  0.7161 -0.2121
  944MPD2    H513862   1.934   2.398  11.010  0.6265  0.0322  0.4913
  944MPD2    N113863   1.979   2.045  10.711 -0.2772  0.8564 -0.2311
  944MPD2    H713864   2.027   1.970  10.662 -1.0049  0.2781 -0.0539
    1TMC1    C113865   0.556   3.169  14.405 -0.3225 -0.4241  0.2875
    1TMC1    C213866   0.428   3.213  14.447 -0.5059 -1.0385 -0.5318
    1TMC1    C313867   0.391   3.188  14.575 -0.4015 -0.3937  0.0392
    1TMC1    C413868   0.644   3.131  14.496 -0.0388  0.2397 -0.7438
    1TMC1    C513869   0.604   3.119  14.629  1.0641  0.2145 -0.3127
    1TMC1    C613870   0.475   3.133  14.671 -0.9272  0.0824 -0.1504
    1TMC1     C13871   0.600   3.177  14.263  0.1360  0.3944 -0.8941
    1TMC1     O13872   0.694   3.103  14.243 -0.2664  0.6457 -0.1505
    1TMC1     H13873   0.363   3.268  14.380  0.8750 -2.2365 -2.8552
    1TMC1    H113874   0.744   3.106  14.463  0.2526  1.6489 -0.9248
    1TMC1    H213875   0.431   3.112  14.768 -1.6596  0.4255 -0.4134
    1TMC1    C713876   0.703   3.081  14.720  0.1980 -0.3048  0.1128
    1TMC1    C813877   0.273   3.253  14.619  0.3495 -0.6362 -0.2696
    1TMC1    O113878   0.824   3.094  14.708  0.2639  0.5448 -0.4367
    1TMC1    O213879   0.245   3.298  14.727 -0.1541 -0.5650 -0.0108
    1TMC1    O313880   0.646   3.043  14.838 -0.4865 -0.2044  0.0416
    1TMC1    H313881   0.550   3.026  14.835 -0.0833 -1.9412 -2.6078
    1TMC1    O513882   0.175   3.211  14.543  0.2640 -0.3364  0.1964
    1TMC1    H513883   0.205   3.151  14.471 -0.9302  1.0507 -1.4528
    2MPD2     C13884   0.597   3.295  13.774  0.6729 -0.0352  0.6340
    2MPD2    C113885   0.489   3.358  13.833  0.3937 -0.3809  0.0502
    2MPD2    C213886   0.466   3.342  13.964  0.1109 -0.4430  0.0817
    2MPD2    C313887   0.549   3.252  14.035 -0.0604  0.1889  0.3102
    2MPD2    C413888   0.650   3.179  13.973  0.2490  0.2148 -0.2034
    2MPD2    C513889   0.676   3.202  13.839  0.0591 -0.2541  0.6194
    2MPD2     H13890   0.386   3.388  14.020 -2.3864 -1.9132 -2.3091
    2MPD2    H113891   0.715   3.107  14.022 -0.3643 -1.6694 -2.1824
    2MPD2    H213892   0.617   3.307  13.668 -1.6397  0.1391  0.2258
    2MPD2    H313893   0.755   3.152  13.784  0.3455 -1.4738  2.1302
    2MPD2     N13894   0.522   3.247  14.175 -0.1059 -0.2459  0.1707
    2MPD2    H513895   0.434   3.293  14.198 -1.9436 -3.1508 -0.9296
    2MPD2    N113896   0.411   3.447  13.750 -0.0546  0.6107  0.5631
    2MPD2    H713897   0.434   3.458  13.652 -0.4743  0.8125  0.4858
    3TMC2    C113898   0.258   3.610  13.687  0.0653  0.1273 -0.5040
    3TMC2    C213899   0.216   3.740  13.724  0.0694  0.5002  0.1364
    3TMC2    C313900   0.184   3.817  13.623  0.0163 -0.4984  0.1954
    3TMC2    C413901   0.267   3.559  13.559  0.0887  0.8243  0.1889
    3TMC2    C513902   0.241   3.651  13.461 -0.6095 -0.1496 -0.5786
    3TMC2    C613903   0.185   3.773  13.493 -0.1359 -0.0298 -0.7348
    3TMC2     C13904   0.310   3.530  13.791  0.6069  0.3651 -1.1022
    3TMC2     O13905   0.262   3.548  13.899 -0.0957  0.2695  0.0613
    3TMC2     H13906   0.209   3.771  13.828 -1.2360  2.7157 -0.6277
    3TMC2    H113907   0.305   3.460  13.539 -0.0301  0.4503  1.7607
    3TMC2    H213908   0.138   3.830  13.413 -2.2964 -0.1060  0.4906
    3TMC2    C713909   0.281   3.622  13.327  1.1000 -0.2616 -0.0691
    3TMC2    C813910   0.103   3.927  13.662  0.8620  0.7149 -0.3246
    3TMC2    O113911   0.316   3.509  13.293  0.1641 -0.3461  0.3153
    3TMC2    O213912   0.007   3.966  13.594  0.6096 -0.4103  0.0929
    3TMC2    O513913   0.144   3.995  13.771 -0.1705  0.2040 -0.2041
    3TMC2    H513914   0.230   3.956  13.797 -1.4682 -1.4624  1.5872
    4TMC2    C113915   0.249   4.359  12.910  0.6008 -0.1839 -0.3783
    4TMC2    C213916   0.354   4.438  12.924  0.0741 -0.2697 -0.0325
    4TMC2    C313917   0.462   4.404  12.845  0.1824  0.0290  1.2789
    4TMC2    C413918   0.246   4.241  12.844  0.1377 -0.1275 -0.1247
    4TMC2    C513919   0.351   4.212  12.760  0.0082  1.1000 -0.3350
    4TMC2    C613920   0.464   4.293  12.766  0.9350 -0.0122 -0.7065
    4TMC2     C13921   0.144   4.376  12.994  0.4011 -0.2243  0.0666
    4TMC2     O13922   0.171   4.425  13.105 -0.1375  0.3686  0.3126
    4TMC2     H13923   0.352   4.532  12.978 -3.7957 -0.2313 -0.2990
    4TMC2    H113924   0.165   4.169  12.855  0.1771 -0.5245 -2.6297
    4TMC2    H213925   0.543   4.276  12.694  0.0678  3.1342 -2.4065
    4TMC2    C713926   0.392   4.073  12.764 -0.9177 -0.1253 -0.0162
    4TMC2    C813927   0.576   4.484  12.861  0.3811 -0.6512 -0.6089
    4TMC2    O113928   0.453   4.019  12.672  0.6103 -0.1607  0.1458
    4TMC2    O213929   0.572   4.604  12.874 -0.1773 -0.2397 -0.0501
    4TMC2    O513930   0.653   4.400  12.931  0.4429 -0.6611  0.2755
    4TMC2    H513931   0.655   4.303  12.915  0.4812 -0.8640  1.4604
    5MPD2     C13932   4.371   4.320  13.105 -0.1505  0.2044  0.4421
    5MPD2    C113933   4.394   4.317  12.967  0.6217  0.1509 -0.2493
    5MPD2    C213934   4.523   4.312  12.911  0.2730 -0.4111 -0.2539
    5MPD2    C313935   4.628   4.337  13.000 -0.3995 -0.6881  0.1109
    5MPD2    C413936   4.605   4.360  13.142  0.1757 -0.0329 -0.2717
    5MPD2    C513937   4.478   4.340  13.188  0.5865  0.2264  0.4044
    5MPD2     H13938   4.543   4.301  12.805 -0.7355  0.2570 -0.5187
    5MPD2    H113939   4.679   4.374  13.220  0.1729 -0.9177 -0.1063
    5MPD2    H213940   4.277   4.311  13.158 -1.1223 -1.4700 -1.5866
    5MPD2    H313941   4.455   4.358  13.292 -0.0409 -2.2348  0.7001
    5MPD2     N13942   0.022   4.339  12.938  0.2076 -0.0049  0.8249
    5MPD2    H513943   0.025   4.322  12.838  1.4203  0.3910  0.7876
    5MPD2    N113944   4.274   4.313  12.890 -0.9624 -0.6979 -0.0806
    5MPD2    H713945   4.187   4.310  12.942  0.0367  1.1598  1.7172
    6MPD1     C13946   3.772   1.316  12.393  0.1637 -0.0213 -0.2328
    6MPD1    C113947   3.739   1.256  12.513 -0.3417 -0.3032 -0.0397
    6MPD1    C213948   3.747   1.111  12.510  0.5595  0.1512  0.1682
    6MPD1    C313949   3.753   1.033  12.396  0.4336 -0.4489 -0.5806
    6MPD1    C413950   3.781   1.107  12.280  0.4487 -0.5088 -0.1435
    6MPD1    C513951   3.790   1.241  12.276 -0.3116  0.3502  0.3522
    6MPD1     H13952   3.723   1.063  12.604  1.0583 -0.9380 -0.2687
    6MPD1    H113953   3.782   1.068  12.179 -2.3842 -1.0163  0.0246
    6MPD1    H213954   3.783   1.424  12.386  0.7805  0.0388  1.7070
    6MPD1    H313955   3.803   1.286  12.178 -3.1627 -0.6527 -0.4774
    6MPD1     N13956   3.744   0.893  12.394  0.2367  0.1119 -0.3580
    6MPD1    H513957   3.760   0.843  12.308 -1.6387  0.2353 -0.7940
    6MPD1    N113958   3.722   1.318  12.639 -0.2873 -0.0812 -0.2891
    6MPD1    H613959   3.658   1.263  12.696  0.9242 -0.4349  0.7626
    6MPD1    H713960   3.676   1.408  12.627  2.4660  1.3361 -0.2920
    7MPD2     C13961   3.580   0.149  12.886  0.2719 -0.3373  0.5739
    7MPD2    C113962   3.656   0.151  12.769  0.3872  0.3034 -0.2100
    7MPD2    C213963   3.701   0.030  12.723 -0.1366 -0.0736  0.1505
    7MPD2    C313964   3.696   4.648  12.801  0.1222 -0.3690 -0.4667
    7MPD2    C413965   3.639   4.656  12.926  0.1973 -0.8463  0.3452
    7MPD2    C513966   3.586   0.039  12.968 -0.5052  0.7485 -0.2803
    7MPD2     H13967   3.747   0.019  12.625 -0.4698  0.8146 -0.1022
    7MPD2    H113968   3.646   4.582  13.005  0.5180 -1.4055 -0.2010
    7MPD2    H213969   3.537   0.238  12.931 -0.9501 -1.2245  1.1698
    7MPD2    H313970   3.538   0.046  13.065 -0.7840 -0.2300 -0.3560
    7MPD2     N13971   3.765   4.533  12.748  0.7557 -0.4449  1.1229
    7MPD2    H513972   3.789   4.534  12.649  1.2287 -1.0668  1.2343
    7MPD2    N113973   3.687   0.263  12.688  0.6752 -0.3067  0.2027
    7MPD2    H713974   3.727   0.239  12.598 -3.5358  0.1960 -1.8409
    8TMC3    C113975   3.897   4.351  12.731  0.0896  0.0723  0.5104
    8TMC3    C213976   4.017   4.342  12.790 -0.5337 -0.5622 -0.1518
    8TMC3    C313977   4.128   4.345  12.704 -0.1167  0.7202  0.0032
    8TMC3    C413978   3.885   4.395  12.598  0.4785 -0.9323 -0.2893
    8TMC3    C513979   3.995   4.408  12.523  0.3614  0.6860 -0.1100
    8TMC3    C613980   4.118   4.373  12.571 -0.3902  0.1530  0.5357
    8TMC3     C13981   3.799   4.421  12.816  0.2552 -0.1851  0.0103
    8TMC3     O13982   3.803   4.394  12.939 -0.2393  0.4329  0.7588
    8TMC3     H13983   4.020   4.306  12.893  0.1461  0.6472  0.2488
    8TMC3    H113984   3.791   4.389  12.545  0.2362 -0.3068  0.0673
    8TMC3    H213985   4.204   4.383  12.506 -0.7070  1.1367  0.2600
    8TMC3    C713986   3.986   4.538  12.462 -0.7215 -0.4697 -0.7190
    8TMC3    C813987   4.261   4.311  12.754 -0.2605  0.2856  0.3291
    8TMC3    O113988   3.900   4.608  12.511 -0.4755 -0.2956  0.4786
    8TMC3    O213989   4.352   4.298  12.667  0.0120 -0.2125  0.3099
    9TMC3    C113990   3.727   0.678  12.499 -0.3385 -0.6847  0.0555
    9TMC3    C213991   3.833   0.631  12.420  0.2359 -0.1308  0.0138
    9TMC3    C313992   3.893   0.517  12.462  0.0148 -0.4031  0.1021
    9TMC3    C413993   3.660   0.600  12.586 -0.1020 -0.2158  0.7708
    9TMC3    C513994   3.724   0.481  12.617 -0.2698 -1.1473 -0.0836
    9TMC3    C613995   3.841   0.444  12.567 -0.2505  0.0344 -0.9043
    9TMC3     C13996   3.692   0.820  12.502  0.2776  0.7466 -0.2724
    9TMC3     O13997   3.621   0.856  12.595 -0.4138  0.3843 -0.0836
    9TMC3     H13998   3.889   0.689  12.347 -0.3336  1.0783  0.5252
    9TMC3    H113999   3.568   0.632  12.633  0.3691  1.4857  0.5455
    9TMC3    H214000   3.889   0.371  12.632  1.5631  0.4015 -1.8084
    9TMC3    C714001   3.649   0.389  12.711  0.1021 -0.5924  0.1082
    9TMC3    C814002   3.979   0.448  12.370 -0.2799  0.1446  0.0710
    9TMC3    O114003   3.587   0.442  12.803 -0.3344 -0.3065 -0.3626
    9TMC3    O214004   4.036   0.505  12.274 -0.2583 -0.2933 -0.2450
   10MPD2     C14005   4.191   4.734  12.238  0.2253 -0.0755 -0.9318
   10MPD2    C114006   4.110   4.715  12.348 -0.0579 -0.5477 -0.6027
   10MPD2    C214007   4.042   0.089  12.403 -0.5576  0.0361 -0.2230
   10MPD2    C314008   4.071   0.213  12.355  0.1319  1.2330  0.3829
   10MPD2    C414009   4.129   0.229  12.232 -0.2339 -0.0210 -0.7956
   10MPD2    C514010   4.185   0.119  12.176  0.5892 -0.0664 -0.3720
   10MPD2     H14011   3.972   0.077  12.485  2.4093 -2.8391  1.8642
   10MPD2    H114012   4.132   0.320  12.173  5.4619  0.4236  0.1401
   10MPD2    H214013   4.252   4.660  12.186  0.3998 -1.7077  1.5633
   10MPD2    H314014   4.245   0.145  12.089 -2.3513  0.4689 -2.2225
   10MPD2     N14015   3.997   0.320  12.416  0.2475 -0.3294  0.4120
   10MPD2    H514016   3.939   0.282  12.490 -0.3714  0.7623  0.4831
   10MPD2    N114017   4.098   4.580  12.387  0.4509 -0.0215  0.4139
   10MPD2    H714018   4.157   4.509  12.346 -0.2187 -2.1237  3.0890
   11MPD2     C14019   0.365   3.643  13.027  0.5338 -0.0986 -0.0266
   11MPD2    C114020   0.318   3.746  13.107 -0.2496  0.2145  0.2517
   11MPD2    C214021   0.303   3.869  13.053 -0.9779 -0.2582  0.0139
   11MPD2    C314022   0.336   3.891  12.921  0.1288 -0.7292 -0.6032
   11MPD2    C414023   0.376   3.788  12.845 -0.5709 -0.2575 -0.2292
   11MPD2    C514024   0.385   3.663  12.896 -0.2268 -0.1574  0.4125
   11MPD2     H14025   0.253   3.953  13.102  1.7426  1.6834 -0.5214
   11MPD2    H114026   0.379   3.792  12.736 -0.2202  1.3489 -0.1575
   11MPD2    H214027   0.382   3.542  13.063  2.5631 -0.0045 -0.6937
   11MPD2    H314028   0.422   3.589  12.826 -1.3575 -0.0552 -0.2914
   11MPD2     N14029   0.339   4.022  12.876 -0.7552  0.0578 -0.4977
   11MPD2    H514030   0.313   4.097  12.940  1.6183  1.5583 -1.2859
   11MPD2    N114031   0.284   3.733  13.248 -0.3290 -0.0270  0.2868
   11MPD2    H714032   0.270   3.821  13.297  1.9146  0.9961 -0.9088
    1MPD1     C14033   2.693   0.439  17.058  0.2500  0.3068 -0.4877
    1MPD1    C114034   2.588   0.469  16.969 -0.1213 -0.4037  0.1452
    1MPD1    C214035   2.627   0.501  16.838 -0.5030 -0.1725 -0.5539
    1MPD1    C314036   2.760   0.509  16.799  0.1977  0.0422 -0.9114
    1MPD1    C414037   2.857   0.502  16.895 -0.8639 -0.2741  0.0426
    1MPD1    C514038   2.824   0.461  17.022 -0.1558 -0.2273 -0.3379
    1MPD1     H14039   2.553   0.498  16.758  0.9837 -1.6748 -1.8602
    1MPD1    H114040   2.960   0.516  16.868 -1.0918  1.5576  0.1638
    1MPD1    H214041   2.674   0.397  17.156  1.0503  0.9017 -0.0796
    1MPD1    H314042   2.899   0.432  17.094 -1.3209  3.1342  2.2401
    1MPD1     N14043   2.803   0.542  16.669  0.7830  0.5540  0.2608
    1MPD1    H514044   2.901   0.567  16.661  0.0749  3.0233 -0.8139
    1MPD1    N114045   2.457   0.450  17.012 -0.1961 -0.0819  0.0482
    1MPD1    H614046   2.461   0.463  17.113 -3.1922 -0.5611  0.2118
    1MPD1    H714047   2.394   0.520  16.975  1.5181  0.6684 -1.4566
    2MPD1     C14048   3.438   1.047  16.426 -0.4636  0.2209  0.7408
    2MPD1    C114049   3.316   1.077  16.485  0.6234  0.3911 -0.0063
    2MPD1    C214050   3.218   0.977  16.462  0.2315  0.2691 -0.1962
    2MPD1    C314051   3.247   0.846  16.422 -0.1451 -0.5616 -0.4836
    2MPD1    C414052   3.372   0.821  16.372  0.3224 -0.1883 -0.1900
    2MPD1    C514053   3.458   0.926  16.365 -0.4177  0.3583 -0.5842
    2MPD1     H14054   3.116   1.009  16.479 -0.3495 -2.1643  0.9415
    2MPD1    H114055   3.396   0.727  16.322 -1.3330 -0.3835 -0.6055
    2MPD1    H214056   3.518   1.117  16.405 -1.3637  1.2758  0.8603
    2MPD1    H314057   3.554   0.911  16.316 -0.1130  0.1927  0.0585
    2MPD1     N14058   3.141   0.756  16.401 -0.0506 -0.2893  0.3803
    2MPD1    H514059   3.057   0.770  16.457 -0.3118  1.1131 -0.3687
    2MPD1    N114060   3.290   1.214  16.521  0.1426  0.0181 -0.0123
    2MPD1    H614061   3.381   1.256  16.543  0.0080 -0.2075  0.9650
    2MPD1    H714062   3.222   1.219  16.596 -0.2381 -0.1858 -0.3466
    3TMC3    C114063   3.008   0.594  16.311 -0.2161  0.0506 -0.6231
    3TMC3    C214064   2.950   0.557  16.193  0.1295  0.2115 -0.8768
    3TMC3    C314065   2.820   0.509  16.198 -0.1790  0.3933 -0.4225
    3TMC3    C414066   2.948   0.581  16.432 -0.1139 -0.0261 -0.3735
    3TMC3    C514067   2.813   0.545  16.426 -0.3213 -0.2220  0.0660
    3TMC3    C614068   2.752   0.511  16.310 -0.1025  0.4932  0.3008
    3TMC3     C14069   3.139   0.651  16.310  0.0644 -0.0779 -0.5262
    3TMC3     O14070   3.218   0.631  16.218  0.5324 -0.1371  0.4376
    3TMC3     H14071   3.003   0.570  16.100  2.6184  0.4761  0.5763
    3TMC3    H114072   2.999   0.606  16.525 -1.0883  0.5086  0.0225
    3TMC3    H214073   2.651   0.471  16.306 -0.6843  2.0186 -0.3801
    3TMC3    C714074   2.737   0.523  16.548 -0.2314 -0.1916  0.2229
    3TMC3    C814075   2.760   0.460  16.075 -0.1051 -0.7965 -0.2532
    3TMC3    O114076   2.620   0.494  16.535  0.2789  0.7549 -0.2495
    3TMC3    O214077   2.639   0.444  16.078 -0.7463  0.0099  0.5149
    4MPD1     C14078   2.767   0.343  15.573 -0.2536 -0.4960  0.4071
    4MPD1    C114079   2.869   0.420  15.606  0.2958 -0.4690 -0.5906
    4MPD1    C214080   2.894   0.453  15.736  0.1414  0.3506 -0.6389
    4MPD1    C314081   2.807   0.416  15.838 -0.4385  0.3727 -0.3833
    4MPD1    C414082   2.689   0.353  15.803 -0.4846  0.3775 -0.3152
    4MPD1    C514083   2.677   0.310  15.674 -0.5674  0.9085  0.4730
    4MPD1     H14084   2.986   0.506  15.758 -0.1393 -0.0029  1.4122
    4MPD1    H114085   2.615   0.321  15.875  1.5975 -0.3367  1.5008
    4MPD1    H214086   2.748   0.309  15.472  1.3609 -0.7400  0.1827
    4MPD1    H314087   2.588   0.254  15.649  0.2774  0.2118 -0.9841
    4MPD1     N14088   2.849   0.448  15.969 -0.2025 -0.4051 -0.1459
    4MPD1    H514089   2.944   0.480  15.985 -0.1843 -1.2808  1.4252
    4MPD1    N114090   2.958   0.456  15.510 -0.1311  0.2021 -0.1197
    4MPD1    H614091   3.011   0.535  15.547  0.3436  0.7240 -1.8733
    4MPD1    H714092   2.908   0.486  15.426 -3.3687 -3.0385  0.6743
    1TCq1    O114093   4.696   4.590  10.580 -0.1891  0.4620 -0.1391
    1TCq1    C114094   4.701   4.454  10.567 -0.6437  0.1054 -1.1160
    1TCq1    O214095   4.667   4.375  10.653 -0.2845 -0.0808  0.2338
    1TCq1    C214096   4.709   4.427  10.429 -0.7001 -0.3537 -1.1107
    1TCq1    C314097   0.040   4.523  10.357 -0.4979 -0.6292 -0.7537
    1TCq1    C414098   4.733   4.542  10.225  0.0276  0.4717  0.3708
    1TCq1    C514099   4.637   4.459  10.169  0.9284 -0.3521  0.2556
    1TCq1    C614100   4.573   4.365  10.248  0.6217  0.2275  0.6354
    1TCq1    C714101   4.610   4.339  10.380 -0.0012  0.2185  0.7150
    1TCq1    C814102   4.446   4.312  10.207  0.4192  1.1934  0.1089
    1TCq1    O414103   4.410   4.208  10.262 -0.1667  0.5320  0.0635
    1TCq1    C914104   0.084   4.622  10.135  0.3085  0.4931 -0.3656
    1TCq1    O514105   0.135   4.564  10.036  0.0923  0.5794 -0.2688
    1TCq1    O614106   0.131   4.731  10.181 -0.0261  0.1141 -0.7911
    1TCq1    H114107   4.718   4.659  10.514 -0.6062 -1.7514 -2.5945
    1TCq1    H214108   0.130   4.567  10.399 -1.2190  0.7889 -0.6931
    1TCq1    H314109   4.614   4.478  10.065  1.8747 -1.1583 -0.1093
    1TCq1    H414110   4.563   4.264  10.443 -1.6286  0.5487 -0.1279
    2MPD1     C14111   4.009   4.289   9.942  0.1512  0.4592 -0.0378
    2MPD1    C114112   4.061   4.420   9.935  0.7480 -0.1293 -0.0630
    2MPD1    C214113   4.185   4.447   9.980 -0.0902  0.0741  0.4225
    2MPD1    C314114   4.241   4.360  10.072  1.3628  0.4423  0.6644
    2MPD1    C414115   4.180   4.239  10.097  0.2768  0.5384  0.1710
    2MPD1    C514116   4.069   4.200  10.024 -0.5043  0.1009  0.2207
    2MPD1     H14117   4.236   4.538   9.949 -2.1258  2.0607  2.8217
    2MPD1    H114118   4.214   4.170  10.174  1.0878  1.6353  0.7976
    2MPD1    H214119   3.930   4.256   9.875 -0.9441 -1.4244  2.1930
    2MPD1    H314120   4.026   4.101  10.034 -0.4475  0.1749  1.2610
    2MPD1     N14121   4.368   4.394  10.128 -0.6472 -0.0349  0.3199
    2MPD1    H514122   4.407   4.485  10.104  0.3537 -0.5628 -0.0596
    2MPD1    N114123   3.989   4.498   9.842 -0.1714 -0.2721  0.0295
    2MPD1    H614124   3.892   4.467   9.839  0.2310 -1.4807 -0.7145
    2MPD1    H714125   3.992   4.597   9.865 -1.7693 -0.2288  0.0245
    1TMC1    C114126   4.673   0.046   0.997 -0.5824  0.4129  0.3477
    1TMC1    C214127   0.058   0.049   0.925  0.5335  0.2753 -0.1279
    1TMC1    C314128   0.148   0.144   0.960  0.4914  0.1303 -0.5970
    1TMC1    C414129   4.638   0.149   1.078  0.1609 -0.0700  0.0601
    1TMC1    C514130   4.727   0.253   1.101 -0.5592 -0.0970  0.6327
    1TMC1    C614131   0.121   0.245   1.048 -0.0516  0.3614  0.3569
    1TMC1     C14132   4.580   4.676   0.951  0.3025  0.5490 -0.4460
    1TMC1     O14133   4.616   4.600   0.859 -0.2105 -0.4219  0.1494
    1TMC1     H14134   0.091   4.700   0.865  1.3471  0.4703  0.0432
    1TMC1    H114135   4.541   0.149   1.126 -0.4658 -1.5546 -1.1782
    1TMC1    H214136   0.198   0.317   1.074  0.1803  1.2521 -2.8027
    1TMC1    C714137   4.683   0.360   1.191 -0.0493  0.4139  0.6251
    1TMC1    C814138   0.284   0.141   0.910 -0.4026  0.1194  0.0154
    1TMC1    O114139   4.576   0.358   1.252 -0.5219 -0.9757 -0.4604
    1TMC1    O214140   0.362   0.234   0.925 -0.3706 -0.1083 -0.0473
    1TMC1    O314141   0.047   0.453   1.197 -0.1891  0.0525 -0.5432
    1TMC1    H314142   0.122   0.454   1.134 -0.0292  0.0938 -0.3480
    1TMC1    O514143   0.312   0.014   0.863  0.1949 -0.1691  0.1464
    1TMC1    H514144   0.244   4.680   0.883  0.4365 -0.7044 -0.8487
    2MPD1     C14145   4.116   4.454   0.971  0.0982  0.2352 -0.2683
    2MPD1    C114146   4.128   4.536   1.074 -0.0109  0.4440 -0.1139
    2MPD1    C214147   4.236   4.621   1.091 -0.0048  0.4128  1.1963
    2MPD1    C314148   4.342   4.610   0.994  0.1621 -0.0331 -0.0142
    2MPD1    C414149   4.324   4.541   0.877 -0.1305 -0.3887 -0.6951
    2MPD1    C514150   4.214   4.452   0.871 -0.2177 -0.0594 -0.8019
    2MPD1     H14151   4.244   4.677   1.184 -0.8277  1.5309  0.5908
    2MPD1    H114152   4.406   4.542   0.807 -0.2152  3.2203 -0.7448
    2MPD1    H214153   4.037   4.379   0.972 -1.8264  2.2836  1.0491
    2MPD1    H314154   4.203   4.385   0.788 -2.1592 -2.2403  1.2184
    2MPD1     N14155   4.463   4.677   1.021 -1.3089 -0.1973  0.3502
    2MPD1    H514156   4.463   0.003   1.102 -2.0600  1.5279 -0.9253
    2MPD1    N114157   4.041   4.535   1.178 -0.5074  0.5352  0.4049
    2MPD1    H614158   4.057   4.611   1.244 -3.8540  0.2094  1.5840
    2MPD1    H714159   3.945   4.535   1.146 -0.4571 -1.6397  0.2307
    1MPD1     C14160   0.258   4.248  12.397  0.4754  0.6632 -0.2528
    1MPD1    C114161   0.374   4.243  12.322 -0.3939 -0.1670  0.7049
    1MPD1    C214162   0.459   4.355  12.321  0.4862 -0.1016  0.5071
    1MPD1    C314163   0.421   4.471  12.386 -0.3887 -0.3234 -0.1359
    1MPD1    C414164   0.296   4.483  12.429 -0.4657 -0.1129 -0.1866
    1MPD1    C514165   0.224   4.373  12.453 -0.6118  0.4818 -0.4537
    1MPD1     H14166   0.551   4.344  12.264 -0.5435 -3.5427 -0.5434
    1MPD1    H114167   0.263   4.570  12.484 -1.6307 -0.3364 -0.5354
    1MPD1    H214168   0.198   4.158  12.408  0.3946  0.6092 -1.1952
    1MPD1    H314169   0.132   4.383  12.508 -0.0632  2.9968 -0.0037
    1MPD1     N14170   0.526   4.566  12.393 -0.3307 -0.2419 -0.2969
    1MPD1    H514171   0.613   4.535  12.352 -1.0586  0.3710 -2.2813
    1MPD1    N114172   0.410   4.116  12.262 -0.2371 -0.0923  0.2269
    1MPD1    H614173   0.476   4.125  12.185  1.4792 -0.9176  1.6042
    1MPD1    H714174   0.333   4.053  12.240  0.0499  0.0948 -1.3279
    2MPD1     C14175   4.659   0.220  10.887 -0.2792  0.0725 -0.1017
    2MPD1    C114176   4.696   0.298  10.992 -0.0932 -0.5128 -0.1108
    2MPD1    C214177   0.086   0.370  10.997  0.2311  0.6778 -0.5323
    2MPD1    C314178   0.172   0.359  10.886 -0.1017  0.0929  0.2534
    2MPD1    C414179   0.139   0.269  10.791  0.2766 -0.2584  0.2954
    2MPD1    C514180   0.019   0.199  10.790 -0.5537 -0.2794  0.8741
    2MPD1     H14181   0.104   0.439  11.079  0.4529 -0.1608  0.1317
    2MPD1    H114182   0.213   0.249  10.714 -2.0838  1.9450 -2.5515
    2MPD1    H214183   4.573   0.155  10.884 -0.7347  0.6268  0.8024
    2MPD1    H314184   4.726   0.120  10.720  0.1505 -1.0719  1.5120
    2MPD1     N14185   0.292   0.421  10.864  1.3884 -0.1845  1.0100
    2MPD1    H514186   0.345   0.397  10.781  2.2031  2.3065  0.8083
    2MPD1    N114187   4.624   0.295  11.112  0.2363  0.2021  0.0309
    2MPD1    H614188   4.525   0.280  11.097  0.5160 -0.8998 -0.7326
    2MPD1    H714189   4.628   0.385  11.159  0.5118  0.0587  0.2828
    3MPD1     C14190   0.471   0.460  10.100  0.2566  0.1258  0.2517
    3MPD1    C114191   0.442   0.353  10.180 -0.2279 -0.2618  0.3341
    3MPD1    C214192   0.469   0.375  10.318  0.3267  0.0410 -0.7000
    3MPD1    C314193   0.549   0.474  10.368 -0.6115  0.0441 -0.0302
    3MPD1    C414194   0.607   0.559  10.274  0.4360  0.0269  0.6636
    3MPD1    C514195   0.549   0.557  10.150 -0.0849  0.1388  0.5111
    3MPD1     H14196   0.435   0.305  10.394  3.0334  1.8900  2.2272
    3MPD1    H114197   0.673   0.637  10.311  0.3874  0.7906 -0.8692
    3MPD1    H214198   0.447   0.466   9.995 -2.7049 -3.3845  0.7404
    3MPD1    H314199   0.573   0.638  10.083  0.6334 -0.4551  0.0509
    3MPD1     N14200   0.581   0.482  10.504 -0.4621  0.2039 -0.1403
    3MPD1    H514201   0.545   0.411  10.567  3.2006 -0.1480  1.5851
    3MPD1    N114202   0.360   0.240  10.139 -0.5441 -0.1900  0.6845
    3MPD1    H614203   0.368   0.220  10.040 -0.3657 -3.5353  1.3523
    3MPD1    H714204   0.369   0.158  10.199  0.3649  0.7085  1.7702
    4MPD2     C14205   0.801   0.602  12.461  1.2760 -0.3494  0.4147
    4MPD2    C114206   0.868   0.493  12.412  0.1704  0.8911  0.3970
    4MPD2    C214207   0.934   0.516  12.290 -0.3070 -0.6607 -0.6428
    4MPD2    C314208   0.948   0.642  12.235 -0.3613  0.2031  0.1556
    4MPD2    C414209   0.891   0.752  12.296 -0.4263 -0.7294  0.0288
    4MPD2    C514210   0.811   0.725  12.404  0.1916  0.0676 -0.6747
    4MPD2     H14211   0.991   0.439  12.240 -0.4364 -2.0805  1.4208
    4MPD2    H114212   0.884   0.850  12.250  0.1328 -0.8186 -0.2515
    4MPD2    H214213   0.742   0.600  12.552  0.8785  1.2423  0.1868
    4MPD2    H314214   0.749   0.801  12.452  1.5970  0.4869  0.4592
    4MPD2     N14215   1.024   0.655  12.120 -0.1318  0.4159  0.2852
    4MPD2    H514216   1.079   0.572  12.097  1.3106  0.9594  1.7672
    4MPD2    N114217   0.870   0.368  12.471 -0.1590 -0.3068  0.0156
    4MPD2    H714218   0.928   0.300  12.422  1.4275  1.3046 -0.3807
    5TMC3    C114219   0.780   0.176  12.563  0.0662 -0.0246 -0.2189
    5TMC3    C214220   0.652   0.126  12.539 -0.2154 -0.3167 -0.0675
    5TMC3    C314221   0.637   0.022  12.455 -0.2167 -0.4258 -0.1350
    5TMC3    C414222   0.893   0.117  12.503 -0.3653 -0.5355  0.2547
    5TMC3    C514223   0.868   0.029  12.404 -0.3160 -0.2209 -0.4756
    5TMC3    C614224   0.742   4.708  12.378 -0.3749 -0.0973 -0.6781
    5TMC3     C14225   0.781   0.324  12.567 -0.3349 -0.0868  0.3830
    5TMC3     O14226   0.690   0.378  12.626  0.1768  0.1606 -0.3298
    5TMC3     H14227   0.567   0.175  12.586 -0.9822 -2.4938  0.8495
    5TMC3    H114228   0.996   0.137  12.531  0.0144 -1.0301 -0.7856
    5TMC3    H214229   0.727   4.649  12.289 -1.8821  2.1618 -1.9335
    5TMC3    C714230   0.951   0.072  12.288  0.1194 -0.2031 -0.4447
    5TMC3    C814231   0.517   4.683  12.465 -0.1388  0.5454  0.5127
    5TMC3    O114232   1.038   0.154  12.306  0.4383 -0.5508 -0.1563
    5TMC3    O214233   0.430   4.719  12.538 -0.7235 -0.7834  0.2890
    6TMC3    C114234   0.480   0.560  10.881 -0.3257  0.1958  0.0157
    6TMC3    C214235   0.509   0.533  10.749 -0.7422  0.0940  0.9639
    6TMC3    C314236   0.624   0.584  10.702 -0.0461  0.2041  0.1602
    6TMC3    C414237   0.566   0.630  10.962  0.3554  0.0773 -0.8283
    6TMC3    C514238   0.675   0.685  10.905 -0.5817 -0.1362 -0.3058
    6TMC3    C614239   0.709   0.659  10.777  0.4105  0.0171  0.3101
    6TMC3     C14240   0.355   0.513  10.943 -0.5970 -0.2601 -0.1269
    6TMC3     O14241   0.327   0.531  11.058  0.1557 -0.3404 -0.0782
    6TMC3     H14242   0.444   0.473  10.686  0.6763 -0.7076  0.2719
    6TMC3    H114243   0.527   0.668  11.056  0.5831 -0.6612 -0.4357
    6TMC3    H214244   0.802   0.704  10.745  1.1214 -2.6467 -1.3950
    6TMC3    C714245   0.758   0.774  10.977 -0.2874 -0.0920  0.0620
    6TMC3    C814246   0.657   0.576  10.567  0.2361  0.2646  0.2602
    6TMC3    O114247   0.822   0.859  10.916  0.8620  0.1988 -0.2367
    6TMC3    O214248   0.723   0.669  10.530  0.5699  0.5635 -0.3189
    7MPD2     C14249   1.037   0.055  11.789 -1.2707  0.0176 -0.4107
    7MPD2    C114250   1.061   0.152  11.879  0.4968 -0.2918  0.4289
    7MPD2    C214251   1.029   0.127  12.009 -0.2206 -0.5142  0.2851
    7MPD2    C314252   0.959   0.017  12.044  0.2148 -0.3540  0.4826
    7MPD2    C414253   0.931   4.657  11.954  0.2602 -0.4045 -0.6381
    7MPD2    C514254   0.974   4.674  11.830  0.7539  0.7892 -0.4829
    7MPD2     H14255   1.046   0.199  12.088  1.4496  0.3693 -0.8759
    7MPD2    H114256   0.892   4.559  11.981  1.2603 -0.1464  1.7744
    7MPD2    H214257   1.067   0.068  11.685 -2.0366  2.0849 -0.3754
    7MPD2    H314258   0.963   4.605  11.746 -4.1670  1.4009 -0.3185
    7MPD2     N14259   0.917   4.731  12.177 -0.3153 -0.8794  0.1008
    7MPD2    H514260   0.848   4.657  12.182 -3.4006  1.9643 -0.5959
    7MPD2    N114261   1.109   0.279  11.835 -0.4036 -0.0529  0.8053
    7MPD2    H714262   1.125   0.286  11.735  0.1231  1.1661  0.9692
    8TMC3    C114263   1.183   0.505  11.857  0.0371 -0.0868 -0.6660
    8TMC3    C214264   1.140   0.531  11.728 -0.2152 -0.0710 -0.1016
    8TMC3    C314265   1.073   0.648  11.701  0.0944  0.6081  0.0385
    8TMC3    C414266   1.193   0.606  11.949  0.5853  0.0590  0.0466
    8TMC3    C514267   1.120   0.721  11.914  0.6055 -0.0502 -0.6602
    8TMC3    C614268   1.052   0.736  11.796 -0.3819 -0.1168 -0.1981
    8TMC3     C14269   1.146   0.382  11.918 -0.3877  0.7666 -0.4677
    8TMC3     O14270   1.155   0.388  12.042 -0.1075  0.0893 -1.0095
    8TMC3     H14271   1.158   0.454  11.654 -2.0168 -0.3950 -0.1978
    8TMC3    H114272   1.249   0.612  12.042  0.4801 -1.1057  0.1925
    8TMC3    H214273   0.997   0.829  11.788  1.5069  1.0494  0.2511
    8TMC3    C714274   1.036   0.760  12.029 -0.4987  0.1814 -0.3707
    8TMC3    C814275   1.004   0.661  11.574  0.0261 -0.7997 -0.0106
    8TMC3    O114276   0.977   0.864  12.030 -0.1007  0.4015  0.1347
    8TMC3    O214277   1.007   0.567  11.497 -0.6458 -0.2100 -0.6793
    9MPD2     C14278   0.918   0.965  11.414  0.3969 -0.1112  0.7695
    9MPD2    C114279   0.924   0.830  11.434  0.2072 -0.6620  0.5640
    9MPD2    C214280   0.869   0.752  11.330  0.5160  0.2612  0.1055
    9MPD2    C314281   0.830   0.814  11.211  0.1116 -0.2214  0.5604
    9MPD2    C414282   0.857   0.948  11.193 -0.4004 -0.2084 -0.2453
    9MPD2    C514283   0.889   1.021  11.299  0.5520 -0.3213 -0.1658
    9MPD2     H14284   0.858   0.645  11.342  1.0495  0.1030 -0.8239
    9MPD2    H114285   0.834   1.010  11.108 -1.2677 -3.2176 -2.2089
    9MPD2    H214286   0.956   1.025  11.496  0.1305 -0.3585  1.0740
    9MPD2    H314287   0.906   1.126  11.281 -2.6046  0.5519  2.0315
    9MPD2     N14288   0.768   0.734  11.109  0.3026 -0.1875 -0.0720
    9MPD2    H514289   0.716   0.655  11.145 -0.9411 -0.4344 -2.3740
    9MPD2    N114290   0.972   0.785  11.554 -0.3452  0.1677  0.3463
    9MPD2    H714291   1.004   0.853  11.623  1.0018  1.7143 -1.7980
    1MPD1     C14292   1.435   3.904  16.542  0.2543  0.0892  0.5853
    1MPD1    C114293   1.347   3.834  16.465  0.2727  0.7137 -0.8336
    1MPD1    C214294   1.215   3.847  16.485 -0.2873  0.1623 -0.2677
    1MPD1    C314295   1.161   3.914  16.593  0.7030  0.3311 -0.2903
    1MPD1    C414296   1.254   3.979  16.673 -0.0927  0.1730 -0.4377
    1MPD1    C514297   1.383   3.983  16.639 -0.4442 -0.0579 -0.3494
    1MPD1     H14298   1.150   3.788  16.423  1.5413 -1.8249 -0.2902
    1MPD1    H114299   1.222   4.038  16.758 -0.1899  0.4142 -0.6409
    1MPD1    H214300   1.541   3.893  16.522  0.3070  2.0124 -0.1985
    1MPD1    H314301   1.438   4.043  16.711 -0.7062  0.9093 -0.9589
    1MPD1     N14302   1.023   3.922  16.617  0.8722 -0.6107 -0.4275
    1MPD1    H514303   0.999   3.991  16.688  1.6200 -0.5395 -0.2409
    1MPD1    N114304   1.397   3.785  16.349 -0.1775  0.8027 -0.2278
    1MPD1    H614305   1.334   3.712  16.317 -2.2420  2.3855  0.2678
    1MPD1    H714306   1.489   3.745  16.366 -1.0124 -0.6729  0.8144
    2TMC2    C114307   0.667   4.088  16.491 -0.2075 -0.4768 -0.1405
    2TMC2    C214308   0.556   4.003  16.496 -0.2662 -0.0678  0.5464
    2TMC2    C314309   0.575   3.874  16.543 -0.2754  0.1876  0.1991
    2TMC2    C414310   0.789   4.036  16.526 -0.3502 -0.1064 -0.1831
    2TMC2    C514311   0.797   3.908  16.567 -0.7790  0.6857 -1.1655
    2TMC2    C614312   0.692   3.821  16.572  0.7549  0.7495 -0.3987
    2TMC2     C14313   0.666   4.226  16.440  0.0241 -0.3316  0.4136
    2TMC2     O14314   0.778   4.276  16.417  0.4507  0.4636 -0.2084
    2TMC2     H14315   0.463   4.035  16.450 -1.8299 -0.8926  3.1149
    2TMC2    H114316   0.876   4.100  16.516 -0.6249  0.3544  0.3454
    2TMC2    H214317   0.698   3.715  16.592  1.0485  0.3741 -2.5302
    2TMC2    C714318   0.925   3.843  16.558 -0.5353 -0.4195 -1.0044
    2TMC2    C814319   0.461   3.798  16.580 -0.0771 -0.0813  0.8217
    2TMC2    O114320   0.944   3.727  16.532 -0.1451 -0.1584  0.7300
    2TMC2    O214321   0.462   3.684  16.618 -0.2579  0.0496  0.3085
    2TMC2    O514322   0.394   3.881  16.654  0.5010  0.0531 -0.0396
    2TMC2    H514323   0.374   3.969  16.615  1.1153 -0.2573 -1.0486
    3MPD1     C14324   0.395   4.633  16.252 -0.6281  0.0777 -0.3953
    3MPD1    C114325   0.310   4.551  16.324  0.9155 -0.3430  0.0834
    3MPD1    C214326   0.357   4.432  16.362 -0.1580  0.0883 -0.1826
    3MPD1    C314327   0.493   4.401  16.358 -0.3968  0.1232 -1.0178
    3MPD1    C414328   0.586   4.490  16.303 -0.2705  0.3254  0.2318
    3MPD1    C514329   0.533   4.600  16.239  0.3875  0.0954 -0.3302
    3MPD1     H14330   0.288   4.364  16.411  0.2380 -0.6706 -0.6652
    3MPD1    H114331   0.692   4.473  16.296 -0.1921  0.7485  0.3948
    3MPD1    H214332   0.360   0.000  16.232  0.8631  0.3565 -1.5214
    3MPD1    H314333   0.603   4.660  16.181  2.2538 -1.3249  0.4263
    3MPD1     N14334   0.536   4.279  16.416 -0.1547 -0.1012  0.1103
    3MPD1    H514335   0.456   4.226  16.449 -0.3667 -0.1181 -0.4349
    3MPD1    N114336   0.179   4.590  16.340  0.4535  0.6652 -0.1690
    3MPD1    H614337   0.173   4.691  16.347  0.3151  0.5400  1.3754
    3MPD1    H714338   0.138   4.550  16.424 -0.5360  1.4817 -0.2648
    1TMC1    C114339   3.914   3.205  13.599 -0.2192  0.4915  0.4114
    1TMC1    C214340   3.965   3.175  13.724  0.7104  0.4347 -0.1304
    1TMC1    C314341   3.938   3.263  13.827  0.8486  0.7113 -0.0053
    1TMC1    C414342   3.834   3.316  13.577  0.2171  0.4736 -0.4092
    1TMC1    C514343   3.813   3.401  13.682 -0.1100  0.7425  0.4070
    1TMC1    C614344   3.865   3.376  13.808  0.9347  0.0306  0.0588
    1TMC1     C14345   3.917   3.110  13.492 -0.1925  0.4474 -0.1920
    1TMC1     O14346   3.863   3.127  13.389  0.5726  0.3060 -0.6115
    1TMC1     H14347   4.010   3.078  13.746  1.4005  0.3686 -1.8830
    1TMC1    H114348   3.804   3.344  13.477 -0.7264 -1.2005 -0.5986
    1TMC1    H214349   3.874   3.447  13.890 -1.7234 -0.8826  1.1293
    1TMC1    C714350   3.780   3.530  13.639  0.4984  0.2160  0.2292
    1TMC1    C814351   4.007   3.250  13.957  0.1071 -0.0023  0.4175
    1TMC1    O114352   3.815   3.576  13.535 -0.0659  0.0165 -0.3532
    1TMC1    O214353   4.010   3.349  14.028 -0.1494 -0.4561  0.1381
    1TMC1    O314354   3.691   3.582  13.725  0.2166 -0.1450 -0.4448
    1TMC1    H314355   3.656   3.517  13.790 -0.8761 -0.1333 -1.0143
    1TMC1    O514356   4.112   3.170  13.936  0.0466 -0.2389  0.3216
    1TMC1    H514357   4.103   3.117  13.854  1.6731  1.0979 -0.7084
    2MPD2     C14358   3.931   2.855  13.333  0.0773 -0.7122  0.6822
    2MPD2    C114359   3.983   2.876  13.459 -0.0972 -0.6372  0.2371
    2MPD2    C214360   4.045   2.767  13.512 -0.7152  0.5183  0.6055
    2MPD2    C314361   4.070   2.648  13.447  0.0163  0.2172 -0.4121
    2MPD2    C414362   4.034   2.637  13.312 -0.1726 -0.4922 -0.0293
    2MPD2    C514363   3.960   2.737  13.263  0.0469  0.7111 -0.9460
    2MPD2     H14364   4.064   2.780  13.618  1.7586 -0.4604  0.2864
    2MPD2    H114365   4.058   2.552  13.250 -3.0266 -0.7567 -0.8013
    2MPD2    H214366   3.864   2.928  13.288  1.6798 -0.4105 -1.2023
    2MPD2    H314367   3.934   2.740  13.158 -1.6522  2.5626 -0.4606
    2MPD2     N14368   4.139   2.546  13.516  0.1301 -0.4094 -0.4258
    2MPD2    H514369   4.156   2.567  13.614  0.7583  2.1115 -1.0488
    2MPD2    N114370   3.975   2.999  13.530 -0.2814  0.3071  0.4292
    2MPD2    H714371   4.037   2.993  13.610  1.9623 -1.8328 -1.5005
    3TCq1    O114372   4.465   1.949  13.594 -0.1930 -0.1260  0.1981
    3TCq1    C114373   4.338   1.984  13.619 -0.4521  0.5484 -0.2087
    3TCq1    O214374   4.239   1.911  13.605  0.0094  0.1115  0.0015
    3TCq1    C214375   4.335   2.129  13.619 -0.0088  0.1404  0.5916
    3TCq1    C314376   4.407   2.193  13.719 -0.2499 -0.3512  0.3163
    3TCq1    C414377   4.398   2.328  13.729 -0.0567 -0.5349  0.4400
    3TCq1    C514378   4.321   2.407  13.651  0.2757 -0.2998  0.3291
    3TCq1    C614379   4.254   2.342  13.555 -0.1634  0.0851 -0.2842
    3TCq1    C714380   4.263   2.201  13.534  0.1503  0.4711  0.2966
    3TCq1    C814381   4.171   2.420  13.466  0.1962  0.1608 -0.7348
    3TCq1    O414382   4.110   2.356  13.378  0.3451 -0.0706  0.0328
    3TCq1    C914383   4.482   2.390  13.825  0.9184 -0.2387 -0.4785
    3TCq1    O514384   4.495   2.515  13.818 -0.3023  0.4218  0.1751
    3TCq1    O614385   4.542   2.313  13.901  0.1334  0.2826  0.9661
    3TCq1    H114386   4.537   2.016  13.600 -0.3411  0.1099 -0.6319
    3TCq1    H214387   4.474   2.136  13.782  0.4899  1.4844  1.2189
    3TCq1    H314388   4.329   2.515  13.660  0.0393 -0.1342 -1.6157
    3TCq1    H414389   4.202   2.147  13.463 -1.4435  3.6409 -0.7650
    1MPD2     C14390   3.510   3.902  15.061 -0.1422 -0.0040 -0.6823
    1MPD2    C114391   3.390   3.938  15.114  0.4058  0.8223  0.0568
    1MPD2    C214392   3.335   3.850  15.212 -0.1476 -0.0375 -0.2181
    1MPD2    C314393   3.393   3.731  15.247 -0.2454  0.5396  0.1244
    1MPD2    C414394   3.507   3.690  15.185  0.4782  0.3215 -0.1298
    1MPD2    C514395   3.565   3.776  15.096 -0.1950  0.8685  0.1328
    1MPD2     H14396   3.245   3.873  15.268  0.1946 -0.0491  0.3374
    1MPD2    H114397   3.552   3.592  15.193 -1.6555 -0.7266 -0.9291
    1MPD2    H214398   3.561   3.958  14.984 -0.0090  0.2959 -0.3762
    1MPD2    H314399   3.651   3.745  15.037 -0.3849  1.2927 -0.3638
    1MPD2     N14400   3.304   3.643  15.324  0.7896 -0.0568 -0.2726
    1MPD2    H514401   3.211   3.676  15.347  0.9023 -0.7191  1.1683
    1MPD2    N114402   3.318   4.048  15.067 -0.2801 -0.6177 -0.1951
    1MPD2    H714403   3.365   4.117  15.009 -2.5694  0.9883 -0.1719
    2TMC3    C114404   3.124   4.157  14.993 -0.6464 -0.3038  0.2411
    2TMC3    C214405   2.989   4.146  14.992  0.3400 -0.2680 -0.4793
    2TMC3    C314406   2.907   4.253  15.009 -0.6531  0.2188 -0.2585
    2TMC3    C414407   3.179   4.287  14.997  0.3797  0.4597 -0.3863
    2TMC3    C514408   3.095   4.394  14.996 -0.4543 -0.2353  0.0469
    2TMC3    C614409   2.960   4.379  15.002 -0.4372 -0.5800  0.3535
    2TMC3     C14410   3.186   4.072  15.090 -0.3071 -0.0541  0.0591
    2TMC3     O14411   3.099   4.004  15.142  0.4324 -0.2810 -0.0720
    2TMC3     H14412   2.963   4.041  14.984 -0.0446  0.0768 -3.6942
    2TMC3    H114413   3.286   4.302  15.009  0.8433 -0.8449 -2.8891
    2TMC3    H214414   2.890   4.462  15.007  0.4197  0.1079  0.9756
    2TMC3    C714415   3.150   4.526  14.969  0.2714  0.4842 -0.2718
    2TMC3    C814416   2.823   4.238  15.128  0.0168  0.1127 -0.5211
    2TMC3    O114417   3.073   4.617  14.985  0.0131  0.3775 -0.0625
    2TMC3    O214418   2.734   4.314  15.159 -0.2210  0.2748 -0.3859
    3TCq1    O114419   4.302   0.276  14.643 -0.7472  0.0382  0.0441
    3TCq1    C114420   4.170   0.297  14.622  0.3406  0.8157 -0.3884
    3TCq1    O214421   4.116   0.367  14.539  0.3728 -0.5827 -0.1155
    3TCq1    C214422   4.101   0.208  14.708  0.1006 -0.1039 -0.8089
    3TCq1    C314423   4.137   0.183  14.839 -0.2336 -0.3986  0.3977
    3TCq1    C414424   4.049   0.118  14.921  0.3962  0.2038  0.9430
    3TCq1    C514425   3.934   0.060  14.873  0.0133  0.2009  0.6816
    3TCq1    C614426   3.893   0.101  14.747 -0.7699 -0.5339 -0.7003
    3TCq1    C714427   3.971   0.184  14.674 -0.8033 -0.1672  0.2035
    3TCq1    C814428   3.751   0.100  14.711 -0.6009  0.2985  0.4941
    3TCq1    O414429   3.716   0.175  14.618 -0.0196  0.4043  0.4024
    3TCq1    C914430   4.089   0.088  15.057  0.3966  0.0065  0.0930
    3TCq1    O514431   4.041   4.726  15.116  0.0477  0.7532 -0.1253
    3TCq1    O614432   4.177   0.156  15.111  0.1983 -0.1501 -0.5176
    3TCq1    H114433   4.317   0.189  14.686  1.5941  0.8116  0.7969
    3TCq1    H214434   4.234   0.214  14.878 -0.1678  1.5586 -1.3498
    3TCq1    H314435   3.876   4.721  14.928  1.0865 -3.0703 -2.5104
    3TCq1    H414436   3.927   0.227  14.585 -0.3647  0.2519  0.1884
    4MPD2     C14437   3.456   0.150  14.767  0.2748 -0.4832 -0.2613
    4MPD2    C114438   3.533   0.043  14.810 -0.0800  0.5520 -0.4547
    4MPD2    C214439   3.471   4.670  14.863  0.9758 -0.2465  0.3129
    4MPD2    C314440   3.333   4.665  14.887  0.4146 -0.5177  0.2967
    4MPD2    C414441   3.254   0.047  14.852 -0.3323 -0.2902 -0.5495
    4MPD2    C514442   3.315   0.153  14.798 -0.9888  0.1831  0.3708
    4MPD2     H14443   3.534   4.583  14.884  1.0909 -0.1179  0.5028
    4MPD2    H114444   3.148   0.052  14.875 -0.4842 -0.8726 -1.1302
    4MPD2    H214445   3.508   0.227  14.711  0.5252 -0.4346  0.0427
    4MPD2    H314446   3.257   0.235  14.758 -1.1645  0.3161  0.8920
    4MPD2     N14447   3.278   4.543  14.932 -0.4428  0.1445 -0.1935
    4MPD2    H514448   3.345   4.467  14.930 -0.2833  0.2587  0.8068
    4MPD2    N114449   3.674   0.032  14.805  0.2867  0.6848 -0.2894
    4MPD2    H714450   3.716   4.696  14.865  2.3745  2.6269  0.4547
    5TMC2    C114451   3.006   3.551  15.468  0.2456 -0.0620  0.9479
    5TMC2    C214452   2.954   3.452  15.391  0.1836  0.6921 -0.1847
    5TMC2    C314453   3.037   3.359  15.333  0.2095  0.3359  0.0052
    5TMC2    C414454   3.138   3.549  15.493 -0.0528  0.2307  0.0825
    5TMC2    C514455   3.221   3.463  15.423  0.2238 -0.4323  0.6093
    5TMC2    C614456   3.173   3.362  15.347  0.1910  0.1378 -0.9966
    5TMC2     C14457   2.968   3.688  15.423  0.9016  0.0519  0.0113
    5TMC2     O14458   3.066   3.757  15.399 -0.4827  0.6082 -0.0291
    5TMC2     H14459   2.849   3.437  15.370  0.7371 -2.9602 -0.3789
    5TMC2    H114460   3.183   3.619  15.561 -0.0776  0.6336 -0.3132
    5TMC2    H214461   3.239   3.291  15.297  2.5958  1.4026  0.3505
    5TMC2    C714462   3.335   3.522  15.365 -0.1941  0.1036  0.1147
    5TMC2    C814463   2.985   3.302  15.208  0.7268 -0.2944  0.5015
    5TMC2    O114464   3.432   3.452  15.338 -0.2358  0.3200 -0.7243
    5TMC2    O214465   2.876   3.334  15.157 -0.0774 -0.2482  0.0796
    5TMC2    O514466   3.032   3.181  15.185  0.3532  0.1088  0.0650
    5TMC2    H514467   3.110   3.153  15.237  0.6760  1.6810  0.4464
    6MPD2     C14468   2.688   4.103  15.353 -0.0520  0.4317  0.2194
    6MPD2    C114469   2.805   4.058  15.299  0.6783 -0.1153  0.6236
    6MPD2    C214470   2.865   3.935  15.331 -0.1263  0.2059 -0.0744
    6MPD2    C314471   2.805   3.863  15.430 -0.1970  0.8288 -0.6863
    6MPD2    C414472   2.693   3.914  15.494  0.9041 -0.4378 -0.2319
    6MPD2    C514473   2.637   4.035  15.460 -0.6513  0.0238  0.2819
    6MPD2     H14474   2.945   3.897  15.268 -1.8202 -1.2508 -1.3642
    6MPD2    H114475   2.635   3.861  15.568  0.1670 -0.8891 -1.1280
    6MPD2    H214476   2.645   4.196  15.318  0.8752  0.0825 -1.8128
    6MPD2    H314477   2.548   4.070  15.511 -0.1468  0.7669  0.6507
    6MPD2     N14478   2.848   3.732  15.462 -0.1816  0.4736 -0.5927
    6MPD2    H514479   2.792   3.678  15.527  2.4560  0.8890  2.0429
    6MPD2    N114480   2.860   4.124  15.191  0.5920 -0.2188 -0.3106
    6MPD2    H714481   2.950   4.081  15.171  1.1257  2.0593 -2.7376
  945NH3     N114482   1.651   2.887   0.769  0.3104 -0.6753  0.3819
  945NH3     H214483   1.723   2.930   0.712  0.9784 -1.8775  0.3124
  945NH3     H314484   1.689   2.795   0.790  1.1958 -0.3716  0.0922
  945NH3     H414485   1.655   2.927   0.862 -2.0175 -0.2307  0.2939
  946SOD     NA14486   4.010   4.489  15.139 -0.4485 -0.4582 -0.1036
  947SOD     NA14487   2.759   2.325  14.206  0.0818 -0.1917  0.5651
  948SOD     NA14488   2.801   4.062  11.023 -0.3583  0.2108 -0.1082
  949SOD     NA14489   2.304   0.886   9.705  0.1610 -0.3357 -0.5219
  950SOD     NA14490   1.451   1.819   6.662  0.0837 -0.2515  0.0735
  951SOD     NA14491   3.750   3.676  10.067 -0.6042  0.0551 -0.3444
  952SOD     NA14492   1.476   0.437  16.577  0.0531 -0.2732  0.2174
  953SOD     NA14493   0.366   1.236  16.356  0.0018 -0.2087 -0.4443
  954SOL     OW14494   3.454   2.721  16.018 -0.5984  0.0455  0.0460
  954SOL    HW114495   3.528   2.667  16.044  0.1976  0.3804 -1.5030
  954SOL    HW214496   3.387   2.661  15.984 -0.7880 -0.0728  0.6274
  955SOL     OW14497   3.690   4.388   4.534  0.3105 -0.1511 -0.1152
  955SOL    HW114498   3.663   4.454   4.470 -0.3207  0.1216  0.4304
  955SOL    HW214499   3.786   4.392   4.533  0.3154  0.0336  0.8589
  956SOL     OW14500   0.721   4.528  13.180 -0.1640 -0.0733  0.1606
  956SOL    HW114501   0.662   4.601  13.160  0.5786  0.4758  0.0101
  956SOL    HW214502   0.786   4.519  13.110  1.9371 -0.1448  2.1349
  957SOL     OW14503   1.668   1.820   8.290  0.0222  0.2927 -0.6223
  957SOL    HW114504   1.668   1.784   8.378 -1.0542  0.5391 -0.5208
  957SOL    HW214505   1.576   1.845   8.277  0.6958  3.0024 -0.3090
  958SOL     OW14506   4.051   3.632   5.335 -0.0009 -0.8493  0.4479
  958SOL    HW114507   4.061   3.568   5.265 -1.2977 -2.0150  1.3243
  958SOL    HW214508   4.068   3.576   5.411  4.3557 -1.6849 -1.1807
  959SOL     OW14509   2.734   0.116   1.824  0.0305  0.4505 -0.1793
  959SOL    HW114510   2.675   0.042   1.840  0.4166  0.2431  0.2732
  959SOL    HW214511   2.804   0.069   1.778 -0.8539 -0.6818 -0.3668
  960SOL     OW14512   2.906   0.486  17.339  0.4511  0.4780 -0.1515
  960SOL    HW114513   2.851   0.439  17.401  0.8312  1.3158  0.8278
  960SOL    HW214514   2.986   0.436  17.358  0.0329 -0.5301 -1.0638
  961SOL     OW14515   1.199   3.725  13.738 -0.9019  0.1671  0.1433
  961SOL    HW114516   1.289   3.694  13.728 -0.9401  0.9139 -2.3186
  961SOL    HW214517   1.153   3.641  13.741 -0.0638 -0.1981  2.6835
  962SOL     OW14518   4.530   4.362  16.352  0.1986  0.3749  0.2395
  962SOL    HW114519   4.466   4.423  16.315  0.2195 -0.3160 -0.9397
  962SOL    HW214520   4.558   4.300  16.284 -0.7028  0.1957  0.0298
  963SOL     OW14521   2.797   2.127  13.427 -0.3152  0.7061  0.2062
  963SOL    HW114522   2.885   2.106  13.398 -1.5753 -1.4729 -2.1215
  963SOL    HW214523   2.761   2.041  13.403 -0.0954  1.0145 -1.2554
  964SOL     OW14524   3.470   2.649   8.028 -0.5638  0.0206  0.1165
  964SOL    HW114525   3.476   2.677   8.120  0.0200 -1.8830  0.6546
  964SOL    HW214526   3.485   2.554   8.030 -0.7545 -0.0208 -0.5706
  965SOL     OW14527   2.536   2.035   6.264  0.2290 -0.0087 -0.3608
  965SOL    HW114528   2.551   1.960   6.322  1.7384 -0.6466 -1.5509
  965SOL    HW214529   2.469   2.089   6.304 -0.0687 -1.8221  1.5968
  966SOL     OW14530   1.918   3.802   6.791 -0.7128 -0.2176  0.0644
  966SOL    HW114531   1.880   3.734   6.735  2.2135 -1.3032 -0.5535
  966SOL    HW214532   1.851   3.870   6.807 -0.5757 -0.5062  1.8708
  967SOL     OW14533   2.607   4.387   8.725 -0.0493 -0.2836 -0.1652
  967SOL    HW114534   2.607   4.382   8.630  0.0401 -1.7461 -0.0828
  967SOL    HW214535   2.699   4.408   8.738 -0.6327  2.1328  0.0037
  968SOL     OW14536   1.343   0.235   7.454  1.3792 -0.1887  0.1222
  968SOL    HW114537   1.270   0.296   7.447  0.2562 -1.2312  2.5939
  968SOL    HW214538   1.370   0.227   7.546  0.5722  3.0746  0.6240
  969SOL     OW14539   1.570   3.445   6.460  0.1582 -0.3107 -0.2509
  969SOL    HW114540   1.585   3.538   6.477  1.2469 -0.2983 -1.2961
  969SOL    HW214541   1.494   3.440   6.518  0.6559 -1.4518  0.3014
  970SOL     OW14542   0.595   1.393   4.616 -0.0078  0.4333  0.4119
  970SOL    HW114543   0.638   1.308   4.601  1.5502  1.5554 -1.5726
  970SOL    HW214544   0.527   1.390   4.549  1.8082 -0.2735 -1.4257
  971SOL     OW14545   0.735   2.709   8.077  0.1905 -0.3579 -0.6638
  971SOL    HW114546   0.680   2.779   8.041  0.6979 -0.0935 -0.9280
  971SOL    HW214547   0.720   2.640   8.012  1.9526 -2.8664  1.5917
  972SOL     OW14548   0.422   3.389   7.199 -0.6145  0.1742 -0.0180
  972SOL    HW114549   0.365   3.333   7.147 -1.5631  1.3608 -0.2634
  972SOL    HW214550   0.356   3.436   7.250  0.3414  0.4157  0.9970
  973SOL     OW14551   3.554   4.267   5.104  0.2091  0.2206 -0.7311
  973SOL    HW114552   3.556   4.188   5.050 -1.9313 -0.1297 -0.3145
  973SOL    HW214553   3.642   4.291   5.075  1.1131 -0.9365  1.0360
  974SOL     OW14554   0.136   1.508  14.456  0.3033 -0.1968 -0.0821
  974SOL    HW114555   0.065   1.463  14.410 -0.3184 -0.8501  1.4968
  974SOL    HW214556   0.193   1.525  14.382 -0.2149 -0.7681 -0.6147
  975SOL     OW14557   3.580   0.432   8.134 -0.2577 -0.3230  0.0293
  975SOL    HW114558   3.490   0.414   8.106 -0.1601  0.6098 -0.8779
  975SOL    HW214559   3.628   0.401   8.058  1.0972 -1.0634  1.2049
  976SOL     OW14560   3.910   3.362   3.912 -0.2049  0.4932 -0.2452
  976SOL    HW114561   3.865   3.333   3.833  0.9020 -1.3212 -0.1957
  976SOL    HW214562   4.001   3.334   3.901  0.4350  1.6072  2.0925
  977SOL     OW14563   2.800   4.601  11.542 -0.2341  0.6974  0.4514
  977SOL    HW114564   2.816   4.648  11.624  0.9650 -0.8277  1.0981
  977SOL    HW214565   2.864   4.532  11.559 -1.5499 -0.8679 -0.9400
  978SOL     OW14566   2.303   2.175   1.879 -0.1764  0.0853  0.5333
  978SOL    HW114567   2.319   2.269   1.889 -1.2389  0.4195 -0.8729
  978SOL    HW214568   2.221   2.170   1.928  0.0734  0.5471  0.9880
  979SOL     OW14569   1.828   0.460  10.169 -0.1595  0.3359  0.0981
  979SOL    HW114570   1.854   0.372  10.143 -0.5065  0.2357  0.1001
  979SOL    HW214571   1.888   0.499  10.233  0.2258 -0.6611  0.3419
  980SOL     OW14572   0.629   0.363   8.194 -0.4727 -0.0039 -0.2250
  980SOL    HW114573   0.687   0.436   8.177 -1.3771  0.2689 -2.0980
  980SOL    HW214574   0.561   0.411   8.241 -1.8108 -2.2641  0.1674
  981SOL     OW14575   2.140   0.090   2.421 -0.2826 -0.1851  0.1333
  981SOL    HW114576   2.147   0.144   2.499  2.5007  1.2610 -1.1076
  981SOL    HW214577   2.066   0.033   2.440  0.2414 -1.5408 -1.8587
  982SOL     OW14578   3.375   4.672   4.890 -0.1635  0.0198 -0.1233
  982SOL    HW114579   3.380   4.593   4.943  0.2301  0.0411 -0.1271
  982SOL    HW214580   3.379   4.731   4.965 -1.7456 -2.5772  1.9850
  983SOL     OW14581   0.537   3.896   0.705 -0.0695 -0.5541 -0.0139
  983SOL    HW114582   0.618   3.858   0.672 -0.9601 -0.7933 -1.9154
  983SOL    HW214583   0.486   3.815   0.699 -1.5487  0.2035  1.9837
  984SOL     OW14584   0.165   3.656   1.805  0.5709 -0.9194 -0.7708
  984SOL    HW114585   0.210   3.722   1.858  0.6986  0.4588 -2.5996
  984SOL    HW214586   0.242   3.628   1.755  0.4858  1.0841 -2.0268
  985SOL     OW14587   3.615   2.037   3.625  0.5636 -0.3306  0.0042
  985SOL    HW114588   3.540   1.995   3.584 -0.3393  0.8952  0.4068
  985SOL    HW214589   3.573   2.106   3.677 -3.0201 -1.0631 -1.9904
  986SOL     OW14590   0.925   2.484   3.590 -0.2262 -0.2379 -0.3044
  986SOL    HW114591   1.006   2.534   3.586 -0.8319  0.8250  0.6054
  986SOL    HW214592   0.867   2.550   3.552  0.6456  1.9148  2.1043
  987SOL     OW14593   4.560   1.467  12.819  0.3364  0.1577  0.3369
  987SOL    HW114594   4.580   1.429  12.733 -4.6125  0.8967 -1.1154
  987SOL    HW214595   4.557   1.561  12.801  0.3555 -0.1881 -1.4813
  988SOL     OW14596   1.217   0.276  12.905  0.0418  0.1785 -0.2650
  988SOL    HW114597   1.262   0.195  12.929 -1.6565  0.2225  3.1043
  988SOL    HW214598   1.189   0.308  12.991 -3.0074 -0.9328 -0.8178
  989SOL     OW14599   1.735   3.955  14.238  0.2253 -0.0278  0.6810
  989SOL    HW114600   1.821   3.969  14.198 -0.3137  1.0498 -0.1077
  989SOL    HW214601   1.724   4.010  14.316 -3.2233  0.8211 -0.4056
  990SOL     OW14602   1.437   0.128   5.464 -0.0846 -0.9951 -0.3147
  990SOL    HW114603   1.449   0.165   5.376  4.1432 -2.0644 -0.1789
  990SOL    HW214604   1.448   0.202   5.523  2.0843 -2.1288  0.6904
  991SOL     OW14605   2.994   0.020   9.804 -0.1014 -0.7887  0.0773
  991SOL    HW114606   3.076   4.731   9.847 -0.6659 -0.9187  1.0637
  991SOL    HW214607   3.025   4.726   9.717  1.1838 -0.5401  0.4557
  992SOL     OW14608   2.577   4.447   6.918  0.1061 -0.6229  0.1188
  992SOL    HW114609   2.555   4.538   6.897 -0.1797 -0.4909  0.9737
  992SOL    HW214610   2.657   4.453   6.969 -1.6540  1.4627  2.6202
  993SOL     OW14611   4.519   3.439   1.947  0.1744  0.0708  0.1122
  993SOL    HW114612   4.448   3.425   1.884  0.6184  0.1441 -0.4039
  993SOL    HW214613   4.604   3.444   1.903  0.9858 -3.2591  1.3402
  994SOL     OW14614   1.234   1.280   5.119 -0.5366 -0.3567  0.0604
  994SOL    HW114615   1.152   1.298   5.166 -1.4196 -0.8804 -1.2712
  994SOL    HW214616   1.289   1.232   5.181 -0.9075 -0.3893  0.3693
  995SOL     OW14617   3.619   3.070   4.853  0.3492  0.6405 -0.3224
  995SOL    HW114618   3.660   3.123   4.785  1.1385  1.2403  0.6399
  995SOL    HW214619   3.689   3.014   4.886  1.0123  0.7984 -1.4581
  996SOL     OW14620   1.898   1.535   4.674 -0.1263 -0.4674  0.3251
  996SOL    HW114621   1.994   1.533   4.684 -0.0156 -0.8931 -0.7937
  996SOL    HW214622   1.896   1.535   4.579 -2.1300 -0.7637  0.3666
  997SOL     OW14623   1.022   2.679   3.043 -0.1732  0.2012 -0.1290
  997SOL    HW114624   0.969   2.742   3.092 -0.3756  0.6167 -0.8884
  997SOL    HW214625   1.004   2.722   2.960 -1.0600 -0.6965 -0.3948
  998SOL     OW14626   3.571   2.192   4.384 -0.0389  0.3314  0.0994
  998SOL    HW114627   3.627   2.115   4.398  0.2688  0.9603  2.2572
  998SOL    HW214628   3.578   2.243   4.464  3.3948 -0.3686  0.2801
  999SOL     OW14629   1.919   0.686   3.791  0.0607  0.7547 -0.5217
  999SOL    HW114630   1.823   0.681   3.791  0.0948  0.2060  0.4463
  999SOL    HW214631   1.927   0.653   3.880  0.0272  0.3902 -0.6575
 1000SOL     OW14632   1.476   2.738  15.101  0.2148  0.1894  0.2064
 1000SOL    HW114633   1.493   2.726  15.194 -2.8828 -1.6451  0.5381
 1000SOL    HW214634   1.411   2.669  15.086  0.8574 -0.4520  0.3961
 1001SOL     OW14635   3.603   3.123  10.435  0.3684 -0.2366 -0.0507
 1001SOL    HW114636   3.561   3.043  10.466 -0.7797 -0.3083 -1.7738
 1001SOL    HW214637   3.696   3.115  10.457  0.1878 -1.6664  0.2129
 1002SOL     OW14638   4.392   0.660   5.548 -0.0477 -0.2813  0.7761
 1002SOL    HW114639   4.486   0.644   5.554 -0.2651 -1.4305  1.0859
 1002SOL    HW214640   4.371   0.661   5.642  1.2736 -0.3194  1.0740
 1003SOL     OW14641   0.114   3.495   2.486  0.8683  0.7025  0.1409
 1003SOL    HW114642   0.100   3.559   2.416  1.8080 -0.3808 -1.0428
 1003SOL    HW214643   0.200   3.465   2.456  1.8129  3.5097 -0.0348
 1004SOL     OW14644   3.525   3.473   3.058 -0.1901 -0.2164  0.1991
 1004SOL    HW114645   3.514   3.561   3.020 -0.0010 -0.6460 -0.8522
 1004SOL    HW214646   3.590   3.438   2.997  0.9982  1.6647  0.3702
 1005SOL     OW14647   0.066   2.791  17.357 -0.0655 -0.2394 -0.2211
 1005SOL    HW114648   4.711   2.763  17.339 -1.5248  3.3425  1.4115
 1005SOL    HW214649   0.052   2.834  17.441 -1.3701 -1.6051  0.2497
 1006SOL     OW14650   0.166   3.935   4.748  0.1363  0.2786  0.1338
 1006SOL    HW114651   0.234   3.868   4.752 -0.3908 -0.2670 -0.0620
 1006SOL    HW214652   0.196   3.991   4.820 -0.7062  1.7347 -0.6558
 1007SOL     OW14653   0.732   2.642   4.628  0.2827 -0.3723 -0.1773
 1007SOL    HW114654   0.713   2.578   4.559 -1.6624  1.5051 -1.3892
 1007SOL    HW214655   0.650   2.689   4.641  0.1077 -0.2893 -1.6156
 1008SOL     OW14656   4.167   1.132   1.694  0.0476 -0.2546  0.1510
 1008SOL    HW114657   4.226   1.208   1.697 -2.1062  1.4348 -0.9254
 1008SOL    HW214658   4.105   1.151   1.765  1.1734  1.3001  0.7392
 1009SOL     OW14659   4.605   2.392   5.322  0.0497 -0.4824  0.2196
 1009SOL    HW114660   4.595   2.313   5.267  1.5807 -0.5829  0.1030
 1009SOL    HW214661   4.642   2.364   5.406  1.3473  1.1585  0.1930
 1010SOL     OW14662   0.372   2.382   7.908 -0.0624 -0.2450 -0.4368
 1010SOL    HW114663   0.447   2.324   7.893  0.0802 -0.6024  1.7673
 1010SOL    HW214664   0.416   2.467   7.901  1.2185 -0.8068  0.8449
 1011SOL     OW14665   2.371   2.274   3.549 -0.1760 -0.4651  0.1639
 1011SOL    HW114666   2.342   2.333   3.618 -0.0381 -0.1198 -0.0708
 1011SOL    HW214667   2.411   2.335   3.486 -1.5956  0.0712 -0.2270
 1012SOL     OW14668   0.211   4.287  13.797  0.0735 -0.3274  0.3923
 1012SOL    HW114669   0.153   4.263  13.725 -0.5100 -0.4454  0.9054
 1012SOL    HW214670   0.279   4.219  13.792  0.7359  0.4944 -2.0782
 1013SOL     OW14671   2.872   0.228   5.861  0.0994 -0.4557 -0.0992
 1013SOL    HW114672   2.918   0.224   5.777 -1.9868  1.8764 -1.3410
 1013SOL    HW214673   2.783   0.197   5.843 -0.5114  1.1557  0.2259
 1014SOL     OW14674   0.830   2.003  15.623 -0.2292  0.2193 -0.2704
 1014SOL    HW114675   0.856   1.930  15.679 -1.2991 -0.6207 -0.8967
 1014SOL    HW214676   0.748   1.980  15.580  0.1033 -0.8027 -0.3439
 1015SOL     OW14677   3.820   3.282   4.185 -0.1050 -0.3966  0.0229
 1015SOL    HW114678   3.890   3.340   4.214 -0.7152  0.4281 -0.1502
 1015SOL    HW214679   3.818   3.297   4.091 -1.3842 -2.2830 -0.2446
 1016SOL     OW14680   4.439   0.263  12.976  0.5991 -0.5530 -0.8082
 1016SOL    HW114681   4.381   0.265  12.901 -4.3607  1.4164  3.0655
 1016SOL    HW214682   4.519   0.285  12.928  0.8601  1.5567  0.5873
 1017SOL     OW14683   3.196   2.874   6.069  0.1256  0.7371 -0.7343
 1017SOL    HW114684   3.114   2.923   6.066 -1.1612 -1.5384 -2.8410
 1017SOL    HW214685   3.256   2.946   6.050  0.9899  1.1402  3.5179
 1018SOL     OW14686   0.084   4.368   3.970  0.0191  0.1371 -0.1637
 1018SOL    HW114687   0.093   4.462   3.985  0.7382 -0.0273  0.4664
 1018SOL    HW214688   0.024   4.345   4.040  0.8313  2.1361  1.2082
 1019SOL     OW14689   3.959   2.999   8.390  0.0852 -0.3421  0.0972
 1019SOL    HW114690   3.909   2.919   8.379  2.7093 -1.8616 -0.8715
 1019SOL    HW214691   4.048   2.967   8.373 -1.0465 -2.6583 -1.4071
 1020SOL     OW14692   1.645   2.817   9.778  0.1711  0.6140  0.5112
 1020SOL    HW114693   1.576   2.883   9.781  0.7384  1.4178 -3.9191
 1020SOL    HW214694   1.595   2.754   9.726  1.1362  0.6217 -0.4386
 1021SOL     OW14695   2.526   3.308   4.438 -0.6884  0.6228 -0.2700
 1021SOL    HW114696   2.462   3.364   4.482  1.4884  2.6832  0.2274
 1021SOL    HW214697   2.603   3.365   4.441 -1.7869  2.0883  0.2482
 1022SOL     OW14698   0.120   1.402  10.397  0.0381  0.4513 -0.1973
 1022SOL    HW114699   0.094   1.411  10.488 -0.0340  0.1213 -0.1864
 1022SOL    HW214700   0.098   1.487  10.359  0.0693  0.1799 -0.8265
 1023SOL     OW14701   0.069   2.772   3.558  0.0816 -0.0823 -0.8546
 1023SOL    HW114702   0.061   2.866   3.570  1.5411 -0.4280  2.8684
 1023SOL    HW214703   0.083   2.734   3.645  1.4770  3.2652  0.4011
 1024SOL     OW14704   1.454   1.524   7.359 -0.2993  0.2083 -0.6157
 1024SOL    HW114705   1.392   1.585   7.399 -1.8307 -0.3513 -2.1094
 1024SOL    HW214706   1.441   1.451   7.420  0.6534  1.5629  1.1921
 1025SOL     OW14707   3.214   4.378  14.264 -0.3087  0.1555 -0.0256
 1025SOL    HW114708   3.206   4.283  14.267 -2.0106  0.2780 -0.6920
 1025SOL    HW214709   3.309   4.384  14.256 -0.2603 -0.1735  0.2779
 1026SOL     OW14710   2.998   0.602  14.328  0.1855 -0.5044  0.3018
 1026SOL    HW114711   3.025   0.565  14.243  2.1276  0.7640  0.3645
 1026SOL    HW214712   2.906   0.614  14.307  0.9379  1.7193 -1.7501
 1027SOL     OW14713   3.771   4.623   2.246  0.5038 -0.0512  0.7835
 1027SOL    HW114714   3.798   4.661   2.162 -0.9922 -0.1554  0.2613
 1027SOL    HW214715   3.764   4.531   2.220  2.3792  0.6608 -2.2147
 1028SOL     OW14716   2.682   0.712   1.059 -0.5754 -0.6998 -0.2093
 1028SOL    HW114717   2.618   0.667   1.004 -0.9779 -0.0102 -0.3116
 1028SOL    HW214718   2.717   0.770   0.991 -2.6697  0.7259 -0.1016
 1029SOL     OW14719   2.558   1.130   7.142  0.1617 -0.2515  0.7266
 1029SOL    HW114720   2.507   1.051   7.124  2.7946 -1.8300  0.1928
 1029SOL    HW214721   2.531   1.181   7.066 -0.6936  1.0877  1.9461
 1030SOL     OW14722   1.998   3.497   4.269  0.2348  0.4354  0.4431
 1030SOL    HW114723   1.938   3.445   4.322  0.7948  0.9652  1.5811
 1030SOL    HW214724   2.064   3.511   4.337  1.4792  0.2977 -0.7326
 1031SOL     OW14725   1.211   3.421   5.947 -0.4627 -0.0714 -0.3271
 1031SOL    HW114726   1.122   3.451   5.933 -0.7720  0.2788  2.4074
 1031SOL    HW214727   1.247   3.502   5.985  0.9485 -0.1454 -1.5134
 1032SOL     OW14728   0.666   2.647  10.950 -0.1915 -0.5699 -0.0440
 1032SOL    HW114729   0.579   2.618  10.977 -0.8190  1.3260 -0.0447
 1032SOL    HW214730   0.710   2.626  11.033  0.3555  1.1968  0.1279
 1033SOL     OW14731   3.718   1.583   2.696 -0.1605 -0.3194 -0.0178
 1033SOL    HW114732   3.711   1.560   2.789  1.0282  0.0373  0.1665
 1033SOL    HW214733   3.793   1.531   2.666  0.4881  0.1031  0.8557
 1034SOL     OW14734   2.254   3.439   6.182  0.4329 -0.2160  0.2727
 1034SOL    HW114735   2.314   3.510   6.204 -1.7791  2.1104 -1.3043
 1034SOL    HW214736   2.195   3.482   6.120 -0.3961 -1.3360  0.2798
 1035SOL     OW14737   0.172   3.352   1.315  0.2062 -0.2934  0.0122
 1035SOL    HW114738   0.140   3.422   1.373 -0.7131 -1.4895  0.9660
 1035SOL    HW214739   0.106   3.351   1.246  1.1582  2.6804 -0.9485
 1036SOL     OW14740   3.562   1.150  13.946 -0.1253 -0.1729  0.1082
 1036SOL    HW114741   3.623   1.165  14.018 -1.4007  1.0774  0.9302
 1036SOL    HW214742   3.479   1.155  13.992 -0.5978 -1.0502 -0.6369
 1037SOL     OW14743   1.021   2.917  14.601 -0.5278 -0.5557  0.0344
 1037SOL    HW114744   0.954   2.983  14.615  1.5287  1.7330 -0.7558
 1037SOL    HW214745   0.969   2.837  14.598 -1.3372 -0.1458  3.0392
 1038SOL     OW14746   2.180   0.104   1.492  0.8221  0.1739 -0.0758
 1038SOL    HW114747   2.104   0.115   1.436  0.5831 -2.0064 -0.1842
 1038SOL    HW214748   2.147   0.041   1.556  1.4482  0.5226  0.6043
 1039SOL     OW14749   2.979   3.338   2.043 -0.6490 -0.2672  0.1790
 1039SOL    HW114750   3.020   3.345   1.957 -1.3008 -0.2620 -0.1271
 1039SOL    HW214751   3.049   3.336   2.109 -1.8591 -4.7396  1.3532
 1040SOL     OW14752   1.499   2.212   2.480  0.5587 -0.7003  0.7777
 1040SOL    HW114753   1.593   2.230   2.487  0.8189 -1.7450 -0.0233
 1040SOL    HW214754   1.470   2.247   2.564  0.0394 -1.1519  0.7861
 1041SOL     OW14755   1.048   3.421   0.313  0.7472 -0.6224 -0.6391
 1041SOL    HW114756   1.103   3.365   0.258 -1.1415 -2.0149 -1.1094
 1041SOL    HW214757   1.083   3.400   0.400 -0.6835 -0.9706 -0.1403
 1042SOL     OW14758   0.829   4.422  14.922  0.0647 -0.1764  0.6402
 1042SOL    HW114759   0.919   4.454  14.934  0.1699  0.5916 -2.0923
 1042SOL    HW214760   0.859   4.335  14.895 -0.5138 -0.1427 -0.1137
 1043SOL     OW14761   0.832   0.412  10.021 -0.0534  0.4587  0.0658
 1043SOL    HW114762   0.831   0.488  10.079 -3.1693 -2.3720  3.7275
 1043SOL    HW214763   0.782   0.448   9.948  0.2107 -0.0451 -0.3646
 1044SOL     OW14764   3.994   0.454   8.216 -0.1485  0.3063  0.0965
 1044SOL    HW114765   4.080   0.479   8.183 -0.9113  1.5588 -0.9484
 1044SOL    HW214766   3.975   0.527   8.274  3.0421  0.3180  1.1461
 1045SOL     OW14767   4.658   4.329  14.640  0.0064  0.2314  0.1098
 1045SOL    HW114768   4.685   4.329  14.732 -0.0336  0.9729  0.1247
 1045SOL    HW214769   4.563   4.340  14.645 -0.0517 -1.8115  3.0924
 1046SOL     OW14770   0.008   4.646   9.091 -0.3702  0.0538 -0.2898
 1046SOL    HW114771   4.726   4.554   9.073 -0.7534 -0.0148  0.3969
 1046SOL    HW214772   0.065   4.647   9.167 -0.9756  2.1095  0.1470
 1047SOL     OW14773   3.133   2.061  15.645  0.0526 -0.5644 -0.0937
 1047SOL    HW114774   3.208   2.055  15.586  0.3359 -3.1157  0.5423
 1047SOL    HW214775   3.099   2.147  15.619 -3.0658 -1.7117  0.1075
 1048SOL     OW14776   1.445   0.829   6.887  0.2535  0.4986  0.1079
 1048SOL    HW114777   1.509   0.832   6.958 -0.7175  0.2123  0.9828
 1048SOL    HW214778   1.395   0.910   6.889 -0.7299 -0.1334  1.4054
 1049SOL     OW14779   2.297   1.876  16.229 -0.6501 -0.2686  0.4318
 1049SOL    HW114780   2.238   1.943  16.194 -1.0079 -0.4120  0.7599
 1049SOL    HW214781   2.236   1.821  16.279 -0.9919 -0.9202 -0.6887
 1050SOL     OW14782   4.646   3.499   1.670 -0.2186 -0.2262 -0.4121
 1050SOL    HW114783   4.714   3.435   1.689 -0.2295  0.3114  1.4626
 1050SOL    HW214784   4.668   3.532   1.583  0.2713  1.8607  0.4907
 1051SOL     OW14785   1.820   2.869   5.978  0.0632 -0.1818  0.1130
 1051SOL    HW114786   1.913   2.847   5.977  0.1654  0.2804 -0.5091
 1051SOL    HW214787   1.781   2.793   6.022 -2.4840  0.6818 -0.6497
 1052SOL     OW14788   3.599   3.396   8.412 -0.0612  0.5799 -0.8639
 1052SOL    HW114789   3.532   3.455   8.376 -1.2483 -0.0752  0.2881
 1052SOL    HW214790   3.563   3.385   8.500  1.5118  0.6967 -0.2111
 1053SOL     OW14791   4.310   1.682   4.511 -0.0076 -0.4234  0.2557
 1053SOL    HW114792   4.323   1.588   4.523 -1.5732 -0.5837  0.7204
 1053SOL    HW214793   4.220   1.694   4.482 -0.2671 -0.3818  1.0578
 1054SOL     OW14794   3.724   4.104   7.202  0.2791  0.0013 -0.2333
 1054SOL    HW114795   3.688   4.134   7.285  0.5692 -0.2094 -0.0280
 1054SOL    HW214796   3.645   4.095   7.149  0.1944  1.6446 -0.3842
 1055SOL     OW14797   3.830   4.435   1.586  0.0702 -0.0084  0.3832
 1055SOL    HW114798   3.817   4.501   1.654 -0.5147  0.5698 -0.2782
 1055SOL    HW214799   3.803   4.482   1.507 -1.6347 -3.4743 -1.1087
 1056SOL     OW14800   2.995   0.014   6.490 -0.4526 -0.6205  0.1324
 1056SOL    HW114801   2.977   4.717   6.579  0.0448 -1.1693  0.0433
 1056SOL    HW214802   3.073   4.696   6.471 -0.3555 -0.2599 -0.4563
 1057SOL     OW14803   0.359   1.758   8.295 -0.5389 -0.0120 -0.0669
 1057SOL    HW114804   0.294   1.689   8.276 -1.5146  1.1916 -1.1346
 1057SOL    HW214805   0.301   1.821   8.338 -2.1613 -1.6650  0.1735
 1058SOL     OW14806   2.838   1.146   2.160 -0.4992  0.2568 -0.0959
 1058SOL    HW114807   2.919   1.134   2.110  0.7251 -2.0365  2.4970
 1058SOL    HW214808   2.850   1.080   2.227  2.1668  1.5272  0.7046
 1059SOL     OW14809   2.490   4.725   3.306 -0.2427  1.0693 -0.3156
 1059SOL    HW114810   2.504   0.064   3.367 -0.8088  1.0081 -0.1088
 1059SOL    HW214811   2.428   4.676   3.360  0.9930 -1.0156 -0.7913
 1060SOL     OW14812   0.350   4.335   0.777 -0.4922 -0.3527 -0.3246
 1060SOL    HW114813   0.407   4.305   0.706  1.5779  0.5693  0.9309
 1060SOL    HW214814   0.397   4.297   0.852 -1.5530 -1.6397 -0.2980
 1061SOL     OW14815   3.639   0.897   2.555 -0.1961  0.6499  0.4588
 1061SOL    HW114816   3.657   0.988   2.581  0.9863  1.1989 -2.3031
 1061SOL    HW214817   3.549   0.907   2.523 -0.4709 -0.8073  0.8145
 1062SOL     OW14818   4.538   0.966   4.978  0.1892 -0.2405 -0.4506
 1062SOL    HW114819   4.604   0.955   4.909  0.6512  0.2340 -0.0852
 1062SOL    HW214820   4.457   1.005   4.945 -0.4402  0.1974  1.5891
 1063SOL     OW14821   0.389   4.692   9.682  0.4297 -0.0986  0.3407
 1063SOL    HW114822   0.448   0.025   9.648  1.9625 -2.4587 -1.7011
 1063SOL    HW214823   0.309   0.011   9.684  0.6838  0.4470 -2.9525
 1064SOL     OW14824   3.904   0.614  11.595  0.3753  0.2197 -0.0671
 1064SOL    HW114825   3.880   0.547  11.530  1.4651  0.3042 -0.5562
 1064SOL    HW214826   3.933   0.562  11.670  2.4418 -0.7577 -1.5056
 1065SOL     OW14827   0.478   2.902   4.973 -0.2011  0.4101 -0.5489
 1065SOL    HW114828   0.563   2.859   4.967 -0.3960 -0.1293  0.4882
 1065SOL    HW214829   0.421   2.826   4.971 -0.0091  0.2399  0.2755
 1066SOL     OW14830   4.292   1.356   0.486  0.5703 -0.1046  0.8848
 1066SOL    HW114831   4.353   1.373   0.414 -3.1107 -0.6214 -2.3683
 1066SOL    HW214832   4.233   1.431   0.481 -1.1994 -1.3343  3.0276
 1067SOL     OW14833   0.476   1.694   8.583  0.3629 -0.3822 -0.4272
 1067SOL    HW114834   0.420   1.673   8.508  2.3192 -1.5780 -1.5668
 1067SOL    HW214835   0.559   1.657   8.552  0.7597  0.5385 -0.4733
 1068SOL     OW14836   0.841   1.161   7.283 -0.3668 -0.1297  0.2710
 1068SOL    HW114837   0.866   1.115   7.202 -0.7938 -1.1318  0.7055
 1068SOL    HW214838   0.790   1.232   7.244 -0.7674 -1.2740 -1.2719
 1069SOL     OW14839   4.298   1.342  12.004 -0.9018 -0.7337 -0.1245
 1069SOL    HW114840   4.272   1.266  12.056  1.0166 -1.1668  0.1820
 1069SOL    HW214841   4.360   1.302  11.943  0.3604  0.4910  0.3523
 1070SOL     OW14842   2.244   1.790   5.991 -0.0989 -0.6386  0.1368
 1070SOL    HW114843   2.275   1.873   5.954  1.4896 -1.0084  0.6342
 1070SOL    HW214844   2.260   1.735   5.914 -0.9231 -1.9701  0.9395
 1071SOL     OW14845   2.256   2.285  12.451  0.0143 -0.0903  0.3712
 1071SOL    HW114846   2.188   2.307  12.515 -1.2562 -1.5296 -0.4839
 1071SOL    HW214847   2.206   2.258  12.374  1.0645 -2.6000  0.5782
 1072SOL     OW14848   4.457   2.476   7.972  0.1899  0.1889  0.1675
 1072SOL    HW114849   4.399   2.401   7.957 -0.3817  0.8459 -0.8568
 1072SOL    HW214850   4.387   2.539   7.989 -0.1833 -1.0233  3.2371
 1073SOL     OW14851   1.919   2.709  13.847 -0.3403 -0.2606  0.5252
 1073SOL    HW114852   1.892   2.702  13.939  0.6142  3.0884  1.0440
 1073SOL    HW214853   1.832   2.707  13.808 -0.9954 -2.2463  2.0920
 1074SOL     OW14854   0.560   1.275  16.788  0.5742 -0.0007  0.2131
 1074SOL    HW114855   0.570   1.236  16.875  0.7312  1.1358  0.7066
 1074SOL    HW214856   0.520   1.360  16.807  0.1826  0.2989 -1.9683
 1075SOL     OW14857   0.780   4.456   7.641  0.4104  0.3590  0.4927
 1075SOL    HW114858   0.820   4.534   7.678  1.2817 -0.1634  0.6331
 1075SOL    HW214859   0.774   4.488   7.551 -1.3698  0.3824  0.6208
 1076SOL     OW14860   4.021   4.609   3.058  0.8281  0.3606  0.0374
 1076SOL    HW114861   4.075   4.687   3.050  0.3034  0.8880  1.6432
 1076SOL    HW214862   4.060   4.556   3.127  0.2487  0.4924  0.4749
 1077SOL     OW14863   4.471   1.816   4.318 -0.3806  0.8281 -0.6360
 1077SOL    HW114864   4.557   1.775   4.309 -1.2463 -1.4674  1.4936
 1077SOL    HW214865   4.424   1.764   4.384  2.4188 -0.0351  0.6966
 1078SOL     OW14866   1.398   1.624  10.036 -0.6969 -0.0275 -0.1441
 1078SOL    HW114867   1.444   1.539  10.036 -0.0765  0.3007  1.8671
 1078SOL    HW214868   1.318   1.607   9.987 -0.0908  0.1092 -1.1944
 1079SOL     OW14869   0.893   3.586   4.161 -0.4510  0.6599  0.2507
 1079SOL    HW114870   0.834   3.581   4.086 -0.1298 -0.8267  0.0818
 1079SOL    HW214871   0.847   3.529   4.224 -0.1370 -0.4437 -0.5127
 1080SOL     OW14872   4.071   3.166  10.916 -0.4161 -0.5889 -0.4441
 1080SOL    HW114873   4.011   3.093  10.932 -2.6301  1.3092 -0.0130
 1080SOL    HW214874   4.115   3.165  11.001 -0.8217  1.0195 -0.2260
 1081SOL     OW14875   3.546   4.691   3.744 -0.2993 -0.2405 -0.3770
 1081SOL    HW114876   3.560   4.612   3.692 -1.0535 -0.3366 -0.4341
 1081SOL    HW214877   3.508   0.018   3.681  0.4189 -0.5556 -1.1158
 1082SOL     OW14878   3.061   1.544  13.872 -0.0867 -0.1195  0.1184
 1082SOL    HW114879   2.976   1.558  13.914  0.0843  1.4423 -0.0741
 1082SOL    HW214880   3.069   1.457  13.911  0.7221  0.0966  0.4359
 1083SOL     OW14881   3.045   1.191   8.511 -0.2596 -0.6287  0.3055
 1083SOL    HW114882   3.033   1.138   8.590 -1.8361 -1.0820 -0.2411
 1083SOL    HW214883   2.985   1.155   8.446  1.5144 -0.4475 -1.4463
 1084SOL     OW14884   4.206   1.183   5.278  0.4505  0.6477  0.8792
 1084SOL    HW114885   4.239   1.096   5.256 -1.3835  0.5773 -1.5873
 1084SOL    HW214886   4.128   1.187   5.223  0.7848 -2.2223  0.2221
 1085SOL     OW14887   2.534   0.530   8.333  0.2414 -0.0055  0.4499
 1085SOL    HW114888   2.557   0.502   8.245  2.0545  2.2055  0.1998
 1085SOL    HW214889   2.621   0.557   8.363  0.5766  1.0687 -1.4700
 1086SOL     OW14890   2.488   1.941   3.129  0.4131  0.8145  0.2063
 1086SOL    HW114891   2.414   1.999   3.148 -1.8175 -1.7286 -0.7565
 1086SOL    HW214892   2.469   1.911   3.040  1.1668  0.2896  0.2214
 1087SOL     OW14893   1.638   3.824  12.871  0.1577 -0.9817  0.1584
 1087SOL    HW114894   1.688   3.892  12.825 -2.5824 -1.2076 -3.1641
 1087SOL    HW214895   1.594   3.787  12.794  1.2818 -2.8703  0.4329
 1088SOL     OW14896   2.984   0.145   3.178  0.3498 -0.2534  0.1491
 1088SOL    HW114897   2.906   0.199   3.190  1.4716  1.4359 -0.1417
 1088SOL    HW214898   2.999   0.161   3.085  1.4649  1.1553  0.5778
 1089SOL     OW14899   3.508   4.694   2.881 -0.1308 -0.6109  0.0203
 1089SOL    HW114900   3.578   4.660   2.937 -1.6664 -0.9097  1.7465
 1089SOL    HW214901   3.477   4.611   2.844 -0.1415 -1.2819  1.5305
 1090SOL     OW14902   3.704   4.255  16.130 -0.1172 -0.8484  0.0173
 1090SOL    HW114903   3.743   4.342  16.127  1.9377 -1.6914  2.5780
 1090SOL    HW214904   3.765   4.204  16.183  1.4557  1.5059  0.4779
 1091SOL     OW14905   0.137   3.988   6.933 -0.2581  0.6871  0.5939
 1091SOL    HW114906   0.087   4.066   6.908 -3.6060 -1.3952  0.6737
 1091SOL    HW214907   0.179   4.019   7.013  1.7560  0.5200 -0.4016
 1092SOL     OW14908   1.518   4.531  17.640 -0.5917  0.1881 -0.4861
 1092SOL    HW114909   1.490   4.445  17.610 -0.4189 -0.3262  0.8078
 1092SOL    HW214910   1.472   4.591  17.582  0.8761  1.2525 -0.5692
 1093SOL     OW14911   2.389   2.663   4.524  0.3687 -0.6022  0.3138
 1093SOL    HW114912   2.418   2.592   4.581 -0.2850  0.2041  1.6372
 1093SOL    HW214913   2.413   2.634   4.436 -0.3307  0.0644 -0.0990
 1094SOL     OW14914   2.155   2.251   9.364  0.8810  0.2724  0.3774
 1094SOL    HW114915   2.175   2.234   9.456  0.3975 -0.2594  0.3888
 1094SOL    HW214916   2.197   2.177   9.320  0.6709  0.6841 -0.5209
 1095SOL     OW14917   1.508   2.869   6.079  0.2832  0.2852  0.0698
 1095SOL    HW114918   1.504   2.817   5.998  0.0744 -0.2674  0.4301
 1095SOL    HW214919   1.477   2.803   6.141 -0.8291  0.2400 -0.5399
 1096SOL     OW14920   3.058   3.920   2.530 -0.2688 -0.1216 -0.2504
 1096SOL    HW114921   3.122   3.888   2.467  1.8359  1.3457  1.1622
 1096SOL    HW214922   3.034   3.843   2.581  1.7296 -0.5101  0.1034
 1097SOL     OW14923   0.969   2.098   2.578 -0.5100  0.0959 -0.1812
 1097SOL    HW114924   0.936   2.178   2.618  0.3667  0.3946 -0.0492
 1097SOL    HW214925   1.034   2.067   2.642  0.0813 -1.4133 -1.5062
 1098SOL     OW14926   4.371   3.182   5.101 -0.2724 -0.0014  0.1637
 1098SOL    HW114927   4.352   3.194   5.194 -0.0677  1.6758 -0.0108
 1098SOL    HW214928   4.357   3.272   5.071 -0.9469 -0.3271 -0.4982
 1099SOL     OW14929   4.628   2.655   7.254 -0.3728 -0.4404 -0.2855
 1099SOL    HW114930   4.552   2.657   7.198  0.1342  1.6569 -0.8916
 1099SOL    HW214931   4.626   2.576   7.308  0.4837  0.8485  1.6655
 1100SOL     OW14932   4.188   4.063  11.259  0.0170 -0.2622 -0.2942
 1100SOL    HW114933   4.213   4.118  11.185 -1.1431 -1.3448 -1.5138
 1100SOL    HW214934   4.165   3.983  11.210 -0.4075 -0.5809  0.4256
 1101SOL     OW14935   4.249   0.560   2.200  0.4857  0.0609  0.5461
 1101SOL    HW114936   4.327   0.505   2.194  0.3408  0.2595 -3.0506
 1101SOL    HW214937   4.289   0.642   2.230  0.9724 -0.5029  1.4215
 1102SOL     OW14938   3.047   4.643   3.302 -0.1066 -0.0595 -0.2677
 1102SOL    HW114939   3.030   4.717   3.243  0.3134 -0.5290 -0.9800
 1102SOL    HW214940   2.960   4.642   3.342 -0.3431 -0.5690 -0.7932
 1103SOL     OW14941   1.354   3.810   8.028  0.4469  0.7426 -0.6744
 1103SOL    HW114942   1.273   3.803   8.078  0.4537 -2.0291 -1.0940
 1103SOL    HW214943   1.332   3.754   7.954  0.4696  0.3413 -0.3796
 1104SOL     OW14944   2.309   3.278   0.592  0.0038  0.5152 -0.2820
 1104SOL    HW114945   2.368   3.246   0.524 -1.9079 -1.0558 -1.2097
 1104SOL    HW214946   2.270   3.198   0.629  0.6777  0.9121  1.2886
 1105SOL     OW14947   3.250   2.486   4.058 -0.1166  0.1671  0.0573
 1105SOL    HW114948   3.297   2.438   4.126 -1.2917 -2.0320 -0.6995
 1105SOL    HW214949   3.311   2.543   4.010 -0.0375 -0.5697 -0.7245
 1106SOL     OW14950   0.541   1.322   6.597  0.1118 -0.2467 -0.4092
 1106SOL    HW114951   0.535   1.418   6.591  0.0040 -0.3276 -1.5464
 1106SOL    HW214952   0.628   1.296   6.566  0.1041  0.1824 -0.7954
 1107SOL     OW14953   2.281   3.170   2.730  0.3145 -0.8264  0.7788
 1107SOL    HW114954   2.263   3.232   2.801  1.3644  0.1069  0.2437
 1107SOL    HW214955   2.344   3.118   2.780  2.4145  1.9737  1.1111
 1108SOL     OW14956   3.952   0.172  11.968 -0.4528  0.1730  0.0034
 1108SOL    HW114957   4.027   0.221  11.935  0.8490  0.3894  3.3386
 1108SOL    HW214958   3.995   0.091  11.995 -3.5039 -2.0359 -1.5927
 1109SOL     OW14959   3.315   2.792   4.166 -0.4035  0.2126  0.0614
 1109SOL    HW114960   3.247   2.724   4.169  2.3791 -2.5906 -0.8172
 1109SOL    HW214961   3.266   2.872   4.187  2.3449  2.0996 -0.7637
 1110SOL     OW14962   2.447   0.159   3.539 -0.0372  0.1591 -0.2155
 1110SOL    HW114963   2.358   0.126   3.542 -0.1469  0.6847  3.1357
 1110SOL    HW214964   2.463   0.176   3.632 -2.4711  0.4315  0.1355
 1111SOL     OW14965   4.156   2.176   1.222  0.4472  0.0708  0.1211
 1111SOL    HW114966   4.183   2.236   1.291 -0.7987  0.7355  0.0361
 1111SOL    HW214967   4.133   2.095   1.267 -0.0051 -0.4958 -1.1177
 1112SOL     OW14968   0.967   4.213   3.291 -0.5787 -0.0395  0.2543
 1112SOL    HW114969   0.980   4.277   3.361  3.7784 -0.6118 -0.0627
 1112SOL    HW214970   0.876   4.187   3.302 -1.2282  1.4843 -1.4420
 1113SOL     OW14971   3.154   2.349   7.730 -0.3312  0.2936 -0.1841
 1113SOL    HW114972   3.171   2.423   7.789  0.8996  0.6926 -1.0527
 1113SOL    HW214973   3.074   2.384   7.690 -0.1465 -1.2120 -1.8761
 1114SOL     OW14974   4.458   0.426   7.702 -0.1428  0.3733  0.1617
 1114SOL    HW114975   4.551   0.429   7.677 -0.3173 -1.8152 -0.8164
 1114SOL    HW214976   4.417   0.498   7.656 -3.1066 -0.2640  1.7662
 1115SOL     OW14977   3.437   3.842   7.066 -0.4172 -0.6233  0.1956
 1115SOL    HW114978   3.463   3.934   7.067  1.8366 -1.2407 -1.8661
 1115SOL    HW214979   3.517   3.814   7.110 -0.8786 -0.0774  1.3852
 1116SOL     OW14980   3.953   0.528   7.943  0.0384  0.3565 -0.4334
 1116SOL    HW114981   3.932   0.496   8.030 -0.6532 -2.3569 -1.6028
 1116SOL    HW214982   3.946   0.444   7.897  0.1586  0.9318 -1.5132
 1117SOL     OW14983   0.737   3.842   1.949  0.3165 -0.3681  0.1579
 1117SOL    HW114984   0.716   3.749   1.944 -0.0717 -0.2029 -1.5025
 1117SOL    HW214985   0.830   3.837   1.969  0.7877  2.9068 -1.0703
 1118SOL     OW14986   3.158   2.651  11.577 -0.1450  0.0454  0.3447
 1118SOL    HW114987   3.101   2.679  11.649  1.2939 -0.8602  1.8300
 1118SOL    HW214988   3.173   2.740  11.544 -3.9272  0.2757 -0.8126
 1119SOL     OW14989   2.827   4.331   2.312  0.3828  0.3743 -0.2164
 1119SOL    HW114990   2.875   4.413   2.324  0.1411  0.7122 -1.5708
 1119SOL    HW214991   2.873   4.266   2.365  2.2800  1.0949 -0.9477
 1120SOL     OW14992   1.972   2.168   7.677  0.4112 -0.3242  0.0263
 1120SOL    HW114993   1.943   2.157   7.767 -0.7513 -1.0614 -0.4364
 1120SOL    HW214994   1.985   2.076   7.655 -1.3157 -0.7024  0.5487
 1121SOL     OW14995   4.144   0.194   4.552  0.1618 -0.5606  0.3136
 1121SOL    HW114996   4.062   0.183   4.599  0.2695 -2.5519  0.0297
 1121SOL    HW214997   4.116   0.217   4.464  0.3598 -2.7596 -0.3192
 1122SOL     OW14998   2.997   0.161  14.521  0.1392 -0.0598  0.6126
 1122SOL    HW114999   2.969   0.074  14.551  2.4210 -0.9381  0.1877
 1122SOL    HW215000   2.996   0.171  14.426  0.9816  0.1015  0.6235
 1123SOL     OW15001   1.228   0.222   9.161 -0.5580  0.0672 -0.2464
 1123SOL    HW115002   1.168   0.196   9.091 -1.4172  0.2606  0.4167
 1123SOL    HW215003   1.295   0.155   9.147 -1.5337 -0.7882 -0.8350
 1124SOL     OW15004   4.370   1.239   6.669  0.0215 -0.1992  0.3796
 1124SOL    HW115005   4.288   1.282   6.646  0.9879  0.6062 -1.5727
 1124SOL    HW215006   4.433   1.308   6.686  0.2174 -0.4227  0.5534
 1125SOL     OW15007   0.538   2.730   9.845 -0.2103 -0.4243 -0.1846
 1125SOL    HW115008   0.520   2.647   9.889 -0.2500 -0.3222 -0.0065
 1125SOL    HW215009   0.501   2.717   9.758  1.4242 -0.2217 -0.9224
 1126SOL     OW15010   4.367   2.418   7.105  0.0336  0.5200 -0.0350
 1126SOL    HW115011   4.375   2.417   7.201 -2.2648  2.5957  0.1800
 1126SOL    HW215012   4.460   2.415   7.082 -0.4825 -0.9176 -1.8684
 1127SOL     OW15013   2.820   0.929  16.437  0.0331 -0.1639  0.2705
 1127SOL    HW115014   2.792   0.912  16.347  1.1590 -0.9450  0.0753
 1127SOL    HW215015   2.867   1.012  16.428 -0.2957 -0.0738 -0.6170
 1128SOL     OW15016   4.074   1.517   5.825  0.4424  0.1250  0.5350
 1128SOL    HW115017   4.016   1.591   5.810  1.9880  1.5176  1.3067
 1128SOL    HW215018   4.014   1.450   5.793  1.4280 -0.8040  0.6069
 1129SOL     OW15019   0.066   2.205   3.148  0.3056 -0.5190 -0.0305
 1129SOL    HW115020   0.014   2.264   3.202 -0.9701 -0.9627 -0.7748
 1129SOL    HW215021   0.122   2.263   3.095 -0.8024 -0.5871 -1.2768
 1130SOL     OW15022   0.171   2.729  13.695 -0.5639  0.5924  0.0257
 1130SOL    HW115023   0.096   2.674  13.674  0.6479 -0.8746 -0.4569
 1130SOL    HW215024   0.157   2.752  13.787  0.1231  0.0425  0.2666
 1131SOL     OW15025   2.605   2.907  15.513 -0.2008  0.2832  0.3244
 1131SOL    HW115026   2.583   2.937  15.425 -0.0169  0.8732  0.4782
 1131SOL    HW215027   2.658   2.829  15.502  0.3175  0.4079  1.8309
 1132SOL     OW15028   3.990   2.417   2.674  0.1583 -0.3225 -0.4171
 1132SOL    HW115029   3.984   2.510   2.649  0.8067  0.2782  1.6274
 1132SOL    HW215030   4.083   2.396   2.666 -0.0126 -1.8719  1.7709
 1133SOL     OW15031   3.026   4.530   0.311 -0.2169  0.0240 -0.2724
 1133SOL    HW115032   3.113   4.502   0.339 -0.0702  0.5874 -0.1574
 1133SOL    HW215033   2.964   4.475   0.357  2.0859 -1.1886  1.3623
 1134SOL     OW15034   0.987   0.758   0.643  0.9678  0.1204  0.1125
 1134SOL    HW115035   0.949   0.674   0.616 -0.5200  0.5839  0.7889
 1134SOL    HW215036   0.987   0.741   0.737  0.9991  0.2456  0.1355
 1135SOL     OW15037   0.473   0.865   2.532 -0.0033 -0.5706 -0.2667
 1135SOL    HW115038   0.452   0.943   2.480  0.7138  0.0278  0.3541
 1135SOL    HW215039   0.472   0.911   2.616 -1.9171  0.7849 -1.0340
 1136SOL     OW15040   3.876   4.008   3.454  0.2081  0.4113 -0.0823
 1136SOL    HW115041   3.864   4.065   3.531  0.9357  0.0520  0.2934
 1136SOL    HW215042   3.788   4.025   3.420  0.9516 -0.1276 -2.2677
 1137SOL     OW15043   0.633   1.843   8.249  0.3988 -0.4688  0.2833
 1137SOL    HW115044   0.541   1.818   8.243  0.1930  0.5173 -0.7476
 1137SOL    HW215045   0.685   1.786   8.192 -0.8937 -0.2798 -1.0804
 1138SOL     OW15046   0.922   4.016   2.370 -0.7521  0.1635  0.2776
 1138SOL    HW115047   0.835   3.981   2.353 -0.2909 -0.8786  0.0808
 1138SOL    HW215048   0.909   4.059   2.455 -0.4241 -0.5409  0.6829
 1139SOL     OW15049   4.051   1.047  10.065  0.5655  0.1194 -0.0028
 1139SOL    HW115050   4.052   0.987  10.139  1.5953  0.5214  0.3187
 1139SOL    HW215051   3.997   1.120  10.094  0.2758  0.0925 -0.4881
 1140SOL     OW15052   0.085   4.671   8.386  0.1677 -0.0882 -0.7201
 1140SOL    HW115053   0.083   0.032   8.374 -0.6096 -0.1404 -1.0294
 1140SOL    HW215054   0.042   4.635   8.309  0.9085 -0.5216 -0.9263
 1141SOL     OW15055   1.251   1.314   6.900  0.4779  0.2656  0.4016
 1141SOL    HW115056   1.330   1.367   6.893  0.0582  0.6863 -1.1983
 1141SOL    HW215057   1.200   1.362   6.966 -1.4319  0.1228 -0.9632
 1142SOL     OW15058   0.316   4.096  15.079  0.3185 -0.6180 -0.2082
 1142SOL    HW115059   0.225   4.067  15.078  0.4132 -0.7551 -4.0146
 1142SOL    HW215060   0.300   4.188  15.099  1.1791 -1.2655  3.4202
 1143SOL     OW15061   2.922   1.250   7.579 -0.2419  0.2139  0.0464
 1143SOL    HW115062   2.892   1.260   7.489 -0.5826 -0.7405  0.0506
 1143SOL    HW215063   2.844   1.206   7.614  0.3904  0.5837  1.9339
 1144SOL     OW15064   0.611   2.343  13.936 -0.3430 -0.2265 -0.0102
 1144SOL    HW115065   0.672   2.354  13.863  0.5155  1.1247  0.8792
 1144SOL    HW215066   0.603   2.248  13.938 -1.6560 -0.1473 -1.8694
 1145SOL     OW15067   2.748   2.119   3.591 -0.1349  0.2137 -0.0130
 1145SOL    HW115068   2.820   2.148   3.535  1.0028 -1.0835  0.7633
 1145SOL    HW215069   2.676   2.140   3.532 -0.5586 -1.6821 -0.1735
 1146SOL     OW15070   2.762   1.562  10.677 -0.1734  0.2367 -0.0278
 1146SOL    HW115071   2.799   1.649  10.695 -0.4228  0.6456 -1.4698
 1146SOL    HW215072   2.704   1.596  10.608 -0.3763 -1.5505 -0.7286
 1147SOL     OW15073   2.162   0.111   8.501  0.4706  0.2924  0.0389
 1147SOL    HW115074   2.233   0.089   8.561 -0.1821  2.0256  1.4614
 1147SOL    HW215075   2.204   0.107   8.415 -1.1271 -0.6939 -0.6989
 1148SOL     OW15076   4.453   1.490   2.443 -0.7133 -0.0736 -0.1924
 1148SOL    HW115077   4.471   1.523   2.355  0.1623 -1.7029 -0.6133
 1148SOL    HW215078   4.539   1.479   2.483  0.5442 -0.2032 -2.9587
 1149SOL     OW15079   3.167   1.564   5.922  0.0972 -0.0845 -0.4225
 1149SOL    HW115080   3.207   1.541   6.005 -2.2446  0.2370  0.7968
 1149SOL    HW215081   3.119   1.642   5.951  0.1834 -0.4073  0.5731
 1150SOL     OW15082   2.190   4.144  15.167 -0.1232 -0.6689  0.2288
 1150SOL    HW115083   2.206   4.208  15.237 -1.4141  0.9454 -0.9536
 1150SOL    HW215084   2.097   4.159  15.148 -0.4314 -1.4729  1.0860
 1151SOL     OW15085   0.118   2.953  17.149 -0.1048  0.1985  0.8953
 1151SOL    HW115086   0.205   2.980  17.179  0.6936  1.7031 -2.7342
 1151SOL    HW215087   0.093   2.897  17.222  0.5819 -0.1477  0.8717
 1152SOL     OW15088   3.969   2.494  14.244  0.1523 -0.2021  0.2822
 1152SOL    HW115089   3.884   2.451  14.250 -1.1511  2.4728  0.9089
 1152SOL    HW215090   3.991   2.478  14.336  0.7629 -0.5064  0.0855
 1153SOL     OW15091   1.005   4.611   7.702  0.0042  0.0716  0.1850
 1153SOL    HW115092   1.045   4.645   7.781  0.8710 -2.6027  0.9092
 1153SOL    HW215093   1.078   4.594   7.642  0.1481  0.8513  0.1387
 1154SOL     OW15094   0.485   0.512  14.649  0.1277 -0.0548 -0.4847
 1154SOL    HW115095   0.411   0.542  14.701  0.8980  0.6409  0.2265
 1154SOL    HW215096   0.550   0.503  14.719  2.0310  1.4208 -2.0744
 1155SOL     OW15097   1.864   1.457   2.267  0.2496  0.5641  0.0299
 1155SOL    HW115098   1.770   1.439   2.265  1.0897 -4.2696  2.3013
 1155SOL    HW215099   1.899   1.378   2.309  1.7075  0.7268 -0.8996
 1156SOL     OW15100   4.453   1.908   6.767 -0.4652 -0.2810 -0.3271
 1156SOL    HW115101   4.481   1.891   6.677  0.6992  1.2057 -0.2538
 1156SOL    HW215102   4.428   1.821   6.797  0.0235  0.6263  2.7404
 1157SOL     OW15103   2.807   2.930  11.928 -0.3338  0.0313  0.3967
 1157SOL    HW115104   2.865   3.003  11.905  1.5363 -1.1297  1.4436
 1157SOL    HW215105   2.874   2.881  11.977  0.5086  1.3706  0.5689
 1158SOL     OW15106   0.908   3.829  14.344 -0.4048  0.4043 -0.3037
 1158SOL    HW115107   0.999   3.825  14.375 -1.6407 -0.5834  3.1924
 1158SOL    HW215108   0.924   3.805  14.253  2.0513  0.0970  0.2106
 1159SOL     OW15109   0.586   0.060   7.660 -0.0159  0.1653  0.0175
 1159SOL    HW115110   0.526   4.726   7.627  0.9728 -0.4906 -0.4117
 1159SOL    HW215111   0.520   0.124   7.686 -0.5461  0.0020 -0.8896
 1160SOL     OW15112   2.802   2.024   4.499  0.0660  0.6147 -0.3598
 1160SOL    HW115113   2.762   2.053   4.582 -0.2679  1.1845 -0.7212
 1160SOL    HW215114   2.895   2.042   4.511  0.1306 -0.3011  0.5215
 1161SOL     OW15115   1.748   3.524   5.581 -0.1251  0.4904  0.5514
 1161SOL    HW115116   1.830   3.566   5.557 -0.6032 -0.1212 -2.0894
 1161SOL    HW215117   1.733   3.463   5.509  2.6047  0.2436  0.1848
 1162SOL     OW15118   4.617   2.187   6.373  0.0608  0.3024  0.2438
 1162SOL    HW115119   4.710   2.175   6.355 -0.4392 -0.0563 -2.0960
 1162SOL    HW215120   4.575   2.152   6.294 -0.3385  1.3897 -0.0261
 1163SOL     OW15121   2.926   4.380  17.258  0.8310  0.0140  0.3167
 1163SOL    HW115122   2.872   4.319  17.308  2.7150 -1.4141  0.5782
 1163SOL    HW215123   3.008   4.366  17.304  2.1898  1.2140 -1.7328
 1164SOL     OW15124   1.446   1.245   4.342 -0.2098  0.5475  0.4130
 1164SOL    HW115125   1.541   1.253   4.347  0.1489 -1.8359 -2.2531
 1164SOL    HW215126   1.438   1.164   4.291  0.3439  1.9032 -1.8333
 1165SOL     OW15127   1.521   3.669   5.924  0.2598  0.4609 -0.7005
 1165SOL    HW115128   1.528   3.583   5.965 -0.3081  0.5218 -0.4789
 1165SOL    HW215129   1.429   3.684   5.944  1.2716  2.0737  2.7982
 1166SOL     OW15130   1.297   1.301   9.519 -0.1727  0.7448 -0.1023
 1166SOL    HW115131   1.268   1.321   9.608  1.1599  0.9172  0.2891
 1166SOL    HW215132   1.350   1.380   9.515  0.7108  0.0867 -1.2921
 1167SOL     OW15133   1.146   1.089   4.374  0.0937  0.2652  0.2009
 1167SOL    HW115134   1.053   1.070   4.392 -0.4541  4.2093  1.3678
 1167SOL    HW215135   1.164   1.165   4.429  0.2466 -0.2732  0.9022
 1168SOL     OW15136   2.110   3.754   3.688 -0.1387 -0.0840 -0.4160
 1168SOL    HW115137   2.196   3.713   3.699  1.2696  1.8207 -4.5033
 1168SOL    HW215138   2.118   3.762   3.593 -1.1128  0.2633 -0.4673
 1169SOL     OW15139   1.944   4.519  13.351  0.1611  0.3167  0.5323
 1169SOL    HW115140   1.988   4.479  13.276  1.3346 -2.5714  2.7199
 1169SOL    HW215141   1.906   4.595  13.308 -0.0145  1.1729  2.2003
 1170SOL     OW15142   3.484   4.508  10.657 -0.2856  0.0533  0.0384
 1170SOL    HW115143   3.536   4.585  10.683  0.5064 -1.1711  2.0596
 1170SOL    HW215144   3.527   4.440  10.709 -0.8654  0.3229  0.8616
 1171SOL     OW15145   2.994   1.785  16.699 -0.1798  0.5443 -0.0420
 1171SOL    HW115146   2.963   1.851  16.638  1.8331 -2.2502 -4.0937
 1171SOL    HW215147   2.912   1.758  16.741 -0.4337 -0.0366 -0.9187
 1172SOL     OW15148   0.069   0.659   8.276 -0.3527 -0.9305 -0.1307
 1172SOL    HW115149   4.724   0.690   8.231  0.7161 -1.9823 -2.6906
 1172SOL    HW215150   0.060   0.566   8.256 -2.0014 -0.7998 -0.0381
 1173SOL     OW15151   2.497   0.231   3.823 -0.4409  0.4120 -0.3845
 1173SOL    HW115152   2.582   0.246   3.781 -0.5590  1.0878 -0.3827
 1173SOL    HW215153   2.486   0.315   3.868 -2.5296  0.3551 -0.8011
 1174SOL     OW15154   2.744   2.202   1.581 -0.0049 -0.0555  0.2586
 1174SOL    HW115155   2.685   2.271   1.552 -2.2890 -1.1204  2.4832
 1174SOL    HW215156   2.716   2.127   1.528 -0.7595  1.9691 -2.2094
 1175SOL     OW15157   0.450   3.585  15.670 -0.0778 -0.0020  0.2878
 1175SOL    HW115158   0.421   3.596  15.761 -0.0028 -2.9400  0.6798
 1175SOL    HW215159   0.541   3.558  15.685 -0.2537 -0.3479  0.7204
 1176SOL     OW15160   0.410   1.416  12.703 -0.0712  0.0195 -0.3908
 1176SOL    HW115161   0.406   1.330  12.744 -2.6355 -0.0259 -0.7182
 1176SOL    HW215162   0.494   1.452  12.733 -0.6251  1.7582 -0.9180
 1177SOL     OW15163   3.043   3.597   3.735 -0.1713  0.4753 -0.9055
 1177SOL    HW115164   3.072   3.513   3.697  1.3338  0.8169 -0.5319
 1177SOL    HW215165   2.949   3.588   3.725  0.0851 -1.6456 -1.4820
 1178SOL     OW15166   1.555   2.765   4.544 -0.7019  0.0807  0.4187
 1178SOL    HW115167   1.486   2.825   4.517  0.1628  1.3082  0.9201
 1178SOL    HW215168   1.616   2.753   4.471 -0.8007  1.6326  0.0934
 1179SOL     OW15169   0.598   4.414   3.934  0.0466  0.4107  0.1156
 1179SOL    HW115170   0.661   4.403   4.005  0.0376 -0.0864  0.0522
 1179SOL    HW215171   0.576   4.507   3.931  0.5123  0.5794  1.9266
 1180SOL     OW15172   1.683   3.090   4.600  0.2793  0.1066 -0.2539
 1180SOL    HW115173   1.656   3.119   4.513 -0.1654  1.3076  0.2805
 1180SOL    HW215174   1.777   3.110   4.595  0.4191 -0.3148  0.8109
 1181SOL     OW15175   2.173   1.484   2.455 -0.5489  0.0463 -0.3481
 1181SOL    HW115176   2.176   1.537   2.375 -0.6413  1.5722  0.6737
 1181SOL    HW215177   2.082   1.494   2.481 -1.2967 -2.6309 -1.9372
 1182SOL     OW15178   2.703   4.218   5.968 -0.5753 -0.3367 -0.0722
 1182SOL    HW115179   2.708   4.156   6.040 -2.2828 -0.0678  0.2837
 1182SOL    HW215180   2.633   4.182   5.913 -2.5941  0.4694  2.0017
 1183SOL     OW15181   3.912   4.136   6.966 -0.1282 -0.5858  0.7660
 1183SOL    HW115182   3.855   4.119   7.041 -2.2471 -0.3483 -0.8338
 1183SOL    HW215183   3.980   4.073   6.992  2.1563  1.9776  1.1062
 1184SOL     OW15184   0.413   2.982   7.057 -0.3049  0.1321 -0.6963
 1184SOL    HW115185   0.441   2.892   7.039 -3.3905 -0.8868 -0.5017
 1184SOL    HW215186   0.451   2.990   7.145 -1.5384 -1.1981 -0.0301
 1185SOL     OW15187   2.125   0.746   9.815 -0.5304  0.4733 -0.1334
 1185SOL    HW115188   2.126   0.672   9.875  0.0092 -0.9726 -1.9231
 1185SOL    HW215189   2.037   0.735   9.777 -0.1800 -0.0046 -0.8148
 1186SOL     OW15190   2.172   2.746   5.377  0.0804 -0.1243  0.5223
 1186SOL    HW115191   2.154   2.653   5.366 -0.1169 -0.2097  1.6246
 1186SOL    HW215192   2.233   2.747   5.450  1.2703 -0.5455 -0.4717
 1187SOL     OW15193   0.847   1.477  15.823 -0.0606  0.0262 -0.0924
 1187SOL    HW115194   0.877   1.431  15.744 -0.2930 -4.1052  2.2191
 1187SOL    HW215195   0.779   1.535  15.791  0.1043  0.1389 -0.2371
 1188SOL     OW15196   3.564   3.076   1.272  0.4542  0.4865  0.0865
 1188SOL    HW115197   3.523   2.996   1.304  3.0810 -0.9452 -0.0745
 1188SOL    HW215198   3.493   3.125   1.230 -0.8173 -1.6308 -0.2278
 1189SOL     OW15199   1.186   2.563   8.892  0.2298 -0.0060  0.3163
 1189SOL    HW115200   1.244   2.498   8.933  2.4850  2.6287  1.2714
 1189SOL    HW215201   1.251   2.608   8.839 -0.2932 -1.1172 -1.2640
 1190SOL     OW15202   2.948   4.554  10.415  0.4785  0.0015 -0.1892
 1190SOL    HW115203   2.988   4.505  10.486 -1.4269 -1.8067 -0.3460
 1190SOL    HW215204   2.875   4.493  10.402 -0.9830  1.5681  0.6582
 1191SOL     OW15205   3.014   3.664  14.447 -0.5808 -0.2891  0.0810
 1191SOL    HW115206   2.970   3.592  14.402 -3.7340  1.4940  0.3243
 1191SOL    HW215207   3.079   3.685  14.380 -0.6468 -0.3239  0.0061
 1192SOL     OW15208   3.066   2.676  10.338  0.1842 -0.4241 -0.0811
 1192SOL    HW115209   3.078   2.771  10.340 -0.2663 -0.4090  1.7931
 1192SOL    HW215210   3.127   2.658  10.267 -1.7759 -3.1175 -1.1005
 1193SOL     OW15211   2.116   4.313   7.053 -0.2904 -0.3235  0.2937
 1193SOL    HW115212   2.116   4.372   7.129  1.7428  0.7746 -0.5815
 1193SOL    HW215213   2.205   4.279   7.049  0.3821  1.6894 -1.3944
 1194SOL     OW15214   2.202   2.240   9.640  0.1463  0.2977  0.0000
 1194SOL    HW115215   2.208   2.224   9.735 -1.6840 -1.0845 -0.1127
 1194SOL    HW215216   2.256   2.319   9.638 -0.3563  0.6241 -0.5935
 1195SOL     OW15217   4.329   4.280  10.788 -0.1091  0.0070 -0.5788
 1195SOL    HW115218   4.384   4.347  10.830  0.4509 -0.4464 -0.5876
 1195SOL    HW215219   4.354   4.282  10.696  1.5621  0.0367 -0.1337
 1196SOL     OW15220   3.745   0.173  12.422 -0.1157 -0.2676  0.1210
 1196SOL    HW115221   3.708   0.094  12.383  1.0461 -1.7361  1.9618
 1196SOL    HW215222   3.719   0.227  12.348  3.1813  0.5102 -0.4743
 1197SOL     OW15223   2.269   4.638   2.960 -0.1610 -0.2915  0.0015
 1197SOL    HW115224   2.266   4.544   2.981 -1.4884 -0.3661 -0.4612
 1197SOL    HW215225   2.347   4.628   2.906  0.2054 -2.6779  0.9604
 1198SOL     OW15226   4.688   3.296   1.141 -0.7628 -0.1893 -0.4833
 1198SOL    HW115227   4.610   3.336   1.179 -1.4170  0.1119 -2.1816
 1198SOL    HW215228   4.659   3.210   1.171 -2.7985  0.3650 -0.8697
 1199SOL     OW15229   2.784   3.446  17.720  0.4812 -0.4316  0.0330
 1199SOL    HW115230   2.761   3.380   0.050 -0.5094  0.1925  0.3116
 1199SOL    HW215231   2.725   3.415  17.651  0.4010 -2.4878  1.0371
 1200SOL     OW15232   3.533   4.419   2.781  0.1413 -0.2350  0.1340
 1200SOL    HW115233   3.562   4.376   2.862  0.4842  1.8855  1.1252
 1200SOL    HW215234   3.620   4.425   2.741  0.0835 -0.2186  0.0105
 1201SOL     OW15235   3.768   3.178   2.171  0.8472 -0.4002  0.2948
 1201SOL    HW115236   3.780   3.273   2.171  0.1037 -0.3174  2.4264
 1201SOL    HW215237   3.845   3.162   2.226  0.8585 -0.1530  0.3500
 1202SOL     OW15238   2.439   4.598   6.583  0.0593 -0.3981 -0.4794
 1202SOL    HW115239   2.518   4.557   6.548  0.8848  1.9349 -1.4002
 1202SOL    HW215240   2.444   4.685   6.542 -2.5396 -0.5822 -1.2143
 1203SOL     OW15241   4.570   4.029   3.440 -0.0178 -0.2485 -0.2579
 1203SOL    HW115242   4.623   4.105   3.463 -0.6713 -0.0070  0.4634
 1203SOL    HW215243   4.615   3.957   3.484 -1.3877  0.8387  2.9049
 1204SOL     OW15244   2.908   1.832   6.953 -0.3123  0.6173 -0.0863
 1204SOL    HW115245   2.909   1.868   6.865  0.1894  0.1360 -0.2836
 1204SOL    HW215246   2.930   1.907   7.008 -1.3021  2.8030 -2.6822
 1205SOL     OW15247   4.625   3.784   2.850 -0.5480 -0.6389  0.2529
 1205SOL    HW115248   4.683   3.744   2.785  1.2036  1.1282  0.7370
 1205SOL    HW215249   4.682   3.851   2.887 -0.7648 -1.1879  1.5790
 1206SOL     OW15250   0.293   0.138   0.211 -0.5983 -0.1194 -0.2701
 1206SOL    HW115251   0.313   0.045   0.207  0.7223  0.1369  0.2471
 1206SOL    HW215252   0.198   0.128   0.205 -0.3743 -1.9811 -0.5094
 1207SOL     OW15253   3.469   2.990   1.617 -1.0363  0.1122  0.6448
 1207SOL    HW115254   3.424   2.987   1.701  0.6940 -2.9633  1.4451
 1207SOL    HW215255   3.560   2.978   1.646 -0.8339  0.8432  0.3016
 1208SOL     OW15256   0.518   0.434   3.528 -1.1197 -0.4852  0.3466
 1208SOL    HW115257   0.525   0.529   3.538 -0.3780 -0.4406 -0.6231
 1208SOL    HW215258   0.608   0.411   3.506 -0.6555  0.6152  1.1310
 1209SOL     OW15259   1.800   1.010   8.452  0.0618  0.0297 -0.1792
 1209SOL    HW115260   1.771   1.101   8.452  0.3269  0.1144 -0.6056
 1209SOL    HW215261   1.739   0.970   8.514  1.6613  0.3316  1.5651
 1210SOL     OW15262   3.320   1.905   8.972  0.3235 -0.3664 -0.8335
 1210SOL    HW115263   3.302   1.874   9.061 -0.7202 -1.0433 -1.2846
 1210SOL    HW215264   3.320   1.815   8.940 -2.7090 -0.1255 -1.5361
 1211SOL     OW15265   3.695   3.993   4.308 -0.1201 -0.0633 -0.1746
 1211SOL    HW115266   3.695   3.928   4.238  0.0136 -1.5303  1.1856
 1211SOL    HW215267   3.600   4.009   4.304 -0.1587 -0.3285 -0.3386
 1212SOL     OW15268   3.226   4.109   5.702  0.1500 -0.1680  0.0539
 1212SOL    HW115269   3.168   4.036   5.719  1.1218 -1.5352 -2.4368
 1212SOL    HW215270   3.248   4.101   5.609 -0.8203 -2.4055  0.0234
 1213SOL     OW15271   1.415   3.902   6.888  0.6591  0.3352  0.4720
 1213SOL    HW115272   1.346   3.887   6.824  0.5523  1.2543  0.3671
 1213SOL    HW215273   1.373   3.929   6.970 -3.1723 -1.6284 -0.8659
 1214SOL     OW15274   1.354   1.208   1.900  0.3121 -0.0766  0.0829
 1214SOL    HW115275   1.441   1.198   1.862  1.1263  1.2479  1.5816
 1214SOL    HW215276   1.323   1.127   1.859 -0.2179  0.9779 -1.5612
 1215SOL     OW15277   2.723   3.178   4.708  0.5741  0.1497 -0.1672
 1215SOL    HW115278   2.734   3.254   4.764 -1.7226  1.1858 -1.1044
 1215SOL    HW215279   2.745   3.211   4.621 -0.2394 -0.2884 -0.5451
 1216SOL     OW15280   1.415   0.830   9.666 -0.5340  0.1731  0.0285
 1216SOL    HW115281   1.364   0.905   9.635 -0.5882  0.2696  0.3571
 1216SOL    HW215282   1.393   0.832   9.759  2.4042 -1.7828  0.7445
 1217SOL     OW15283   3.407   2.642  13.727 -0.1030  0.2224  0.0009
 1217SOL    HW115284   3.408   2.574  13.660 -2.3999  2.1485 -2.0240
 1217SOL    HW215285   3.500   2.660  13.739  0.3262 -0.9309 -1.5982
 1218SOL     OW15286   2.397   1.080  11.753 -1.0047 -0.1789 -0.0795
 1218SOL    HW115287   2.459   1.092  11.825 -1.6411  0.5024  0.3606
 1218SOL    HW215288   2.434   1.137  11.686 -0.6864 -0.4764 -0.1590
 1219SOL     OW15289   1.477   2.179  15.753 -0.6079  0.0622 -0.0681
 1219SOL    HW115290   1.411   2.159  15.688 -1.6333  0.0641  0.9735
 1219SOL    HW215291   1.488   2.103  15.811  1.3584  0.1871 -0.2607
 1220SOL     OW15292   1.479   1.472   5.463  0.3316  0.2048 -0.6543
 1220SOL    HW115293   1.410   1.528   5.428 -0.8760 -0.4316  0.6793
 1220SOL    HW215294   1.553   1.481   5.403  0.6481 -1.4234 -0.5030
 1221SOL     OW15295   2.175   3.973   9.588  0.7594 -0.2578  0.2274
 1221SOL    HW115296   2.151   4.028   9.513 -2.1378  0.4125  1.6122
 1221SOL    HW215297   2.111   3.998   9.655 -0.9959 -0.5488 -1.3415
 1222SOL     OW15298   0.505   2.084   6.222 -0.2787 -0.4104  0.5162
 1222SOL    HW115299   0.576   2.020   6.221  0.3988  0.3969 -1.7291
 1222SOL    HW215300   0.478   2.096   6.131  0.6646 -1.1222  0.1563
 1223SOL     OW15301   0.261   0.199  12.360  0.0026 -0.1036  0.2166
 1223SOL    HW115302   0.323   0.269  12.341  0.0040  0.2673  1.5793
 1223SOL    HW215303   0.294   0.145  12.288 -1.3078 -0.0464 -0.4426
 1224SOL     OW15304   3.795   4.669   1.447 -0.0146 -0.1914  0.5367
 1224SOL    HW115305   3.774   4.730   1.376 -2.1071 -1.4246  0.1049
 1224SOL    HW215306   3.889   4.687   1.451 -0.0373  0.2285 -0.6574
 1225SOL     OW15307   3.980   1.887  12.337  0.1372  0.0203 -0.2287
 1225SOL    HW115308   3.981   1.865  12.430 -1.4779 -2.0624 -0.6974
 1225SOL    HW215309   4.054   1.831  12.316 -0.5142 -0.9882  0.1664
 1226SOL     OW15310   0.511   4.583   1.848 -0.1607  0.0413 -0.5069
 1226SOL    HW115311   0.598   4.621   1.863  0.0310 -0.7711  0.4490
 1226SOL    HW215312   0.491   4.548   1.935  0.2201  1.2103  0.0600
 1227SOL     OW15313   1.059   3.836  17.290 -0.0552  0.4164  0.1841
 1227SOL    HW115314   1.106   3.844  17.374 -0.6881  0.9003  0.4939
 1227SOL    HW215315   1.078   3.924  17.257 -1.3008  0.6527  0.0844
 1228SOL     OW15316   1.803   3.191   4.897 -0.1732  0.4591 -0.1298
 1228SOL    HW115317   1.756   3.118   4.939 -0.8751  0.6794 -0.5216
 1228SOL    HW215318   1.883   3.149   4.865 -1.2980  0.8649 -3.5133
 1229SOL     OW15319   0.227   3.127   1.541 -0.0450 -0.3419 -0.0116
 1229SOL    HW115320   0.237   3.140   1.447 -1.0860  3.4366  0.4132
 1229SOL    HW215321   0.175   3.046   1.546  0.5626 -0.6048  1.9500
 1230SOL     OW15322   2.971   3.876   4.883 -0.4021 -0.1374  0.6048
 1230SOL    HW115323   2.942   3.945   4.942 -2.0421 -0.9153  0.7127
 1230SOL    HW215324   3.064   3.872   4.906 -0.4846 -1.5578  0.7112
 1231SOL     OW15325   2.700   1.197   1.176 -0.2114  0.1581  0.2026
 1231SOL    HW115326   2.771   1.142   1.210 -0.8728  0.0699  1.4389
 1231SOL    HW215327   2.720   1.280   1.221  1.6401 -0.4249  0.4680
 1232SOL     OW15328   0.145   0.615   4.379  0.8715  0.1219  0.8151
 1232SOL    HW115329   0.203   0.691   4.371  2.0829 -0.7785  0.8771
 1232SOL    HW215330   0.193   0.561   4.443  2.1984  0.9326  0.5176
 1233SOL     OW15331   3.819   2.082   5.771 -0.2734  0.0311 -0.3154
 1233SOL    HW115332   3.759   2.025   5.818  0.0033 -0.5857 -0.7168
 1233SOL    HW215333   3.863   2.029   5.704 -2.1505  1.4374 -2.6521
 1234SOL     OW15334   4.552   3.926   4.699 -0.5447 -0.2717  0.2925
 1234SOL    HW115335   4.607   3.848   4.689 -1.2729 -1.0189  2.2435
 1234SOL    HW215336   4.614   3.994   4.671 -1.6783  0.5027 -0.3587
 1235SOL     OW15337   4.163   1.712   4.224  0.2893  0.1264 -1.0274
 1235SOL    HW115338   4.167   1.752   4.137 -1.4203  1.9590 -0.2791
 1235SOL    HW215339   4.227   1.642   4.218  1.0582  0.6571  1.0266
 1236SOL     OW15340   2.503   3.515   0.880  0.3760  0.7961 -0.4360
 1236SOL    HW115341   2.513   3.586   0.943 -4.1750  0.3451  0.8039
 1236SOL    HW215342   2.425   3.472   0.914  0.0622  0.6177 -1.3934
 1237SOL     OW15343   4.242   4.483  17.302 -0.0259 -0.5070 -0.6196
 1237SOL    HW115344   4.273   4.568  17.269  0.1326  0.3947  1.7853
 1237SOL    HW215345   4.202   4.458  17.219 -0.9335  0.0667 -0.3549
 1238SOL     OW15346   2.299   3.304   6.455 -0.0665 -0.2125  0.2783
 1238SOL    HW115347   2.214   3.270   6.483 -0.0398 -0.4632  0.0527
 1238SOL    HW215348   2.259   3.357   6.385  1.5740 -0.2252 -0.6614
 1239SOL     OW15349   2.801   1.543   4.076  0.3858 -1.0510  0.2832
 1239SOL    HW115350   2.873   1.496   4.032  0.2187 -1.1170  0.0801
 1239SOL    HW215351   2.805   1.617   4.016  0.3306 -0.5402  0.9173
 1240SOL     OW15352   4.379   4.089   7.707  0.4161 -0.5039 -0.0246
 1240SOL    HW115353   4.316   4.110   7.638  2.0139 -1.4548 -1.7964
 1240SOL    HW215354   4.321   4.096   7.782  1.9755  0.4680  1.0939
 1241SOL     OW15355   3.365   2.103   4.595 -0.2531 -0.5376  0.0561
 1241SOL    HW115356   3.353   2.168   4.526  1.2846 -0.5509 -0.2253
 1241SOL    HW215357   3.281   2.058   4.601 -0.2804 -0.3670  1.0268
 1242SOL     OW15358   0.338   3.102  17.262  0.3670  0.1823 -0.0831
 1242SOL    HW115359   0.364   3.172  17.202  0.0999  1.7681  1.6234
 1242SOL    HW215360   0.248   3.135  17.271  0.2990  0.6000 -2.3873
 1243SOL     OW15361   3.097   0.294   6.238 -0.8785 -0.0959 -0.1494
 1243SOL    HW115362   3.070   0.346   6.162 -0.6273 -0.6166 -0.5890
 1243SOL    HW215363   3.029   0.328   6.297 -1.2873 -0.8759 -0.1647
 1244SOL     OW15364   2.478   0.486   3.953 -0.3155 -0.3246  0.2997
 1244SOL    HW115365   2.545   0.518   4.013  0.5063  0.9130 -1.2921
 1244SOL    HW215366   2.481   0.536   3.872 -2.2901 -1.6181 -0.5650
 1245SOL     OW15367   2.322   3.535   6.892  0.1347 -0.3725 -0.3298
 1245SOL    HW115368   2.277   3.463   6.937 -1.3700 -0.9282 -2.7689
 1245SOL    HW215369   2.331   3.512   6.800 -1.5316  1.7884 -1.0307
 1246SOL     OW15370   3.648   2.824   0.252 -0.5323 -0.3674 -0.2019
 1246SOL    HW115371   3.561   2.862   0.261  0.8048  2.7558 -0.4227
 1246SOL    HW215372   3.708   2.899   0.258 -1.9278  0.5763  1.9512
 1247SOL     OW15373   3.788   4.167  13.198 -0.2646 -0.3994  0.3471
 1247SOL    HW115374   3.787   4.249  13.247 -1.7779 -0.3152  0.1831
 1247SOL    HW215375   3.845   4.178  13.122 -1.6238 -0.2547 -0.6492
 1248SOL     OW15376   0.989   2.186  16.415 -0.0153  0.7920 -0.1588
 1248SOL    HW115377   0.970   2.158  16.504  0.0340  0.3418 -0.2899
 1248SOL    HW215378   0.993   2.098  16.377 -0.9208  0.6021  0.1891
 1249SOL     OW15379   2.470   0.189  16.908  0.4886 -0.0645  0.0428
 1249SOL    HW115380   2.493   0.140  16.986  1.9230  1.5576  0.6458
 1249SOL    HW215381   2.465   0.281  16.935  0.7674 -0.6663  2.0960
 1250SOL     OW15382   3.963   3.447   3.164 -0.1714 -0.3766 -0.0413
 1250SOL    HW115383   3.982   3.395   3.086 -2.3507 -0.2895 -0.6254
 1250SOL    HW215384   3.908   3.511   3.121 -1.0560  0.4575  2.3236
 1251SOL     OW15385   1.541   1.964   7.946  0.5715 -0.5013  0.6698
 1251SOL    HW115386   1.601   2.007   8.007  1.4745  0.3525 -0.8301
 1251SOL    HW215387   1.484   2.037   7.923 -0.0719 -1.7361 -1.6289
 1252SOL     OW15388   4.370   3.675   6.005 -0.5647  0.3763  0.0245
 1252SOL    HW115389   4.287   3.722   5.993 -0.9542 -0.5725 -0.9913
 1252SOL    HW215390   4.357   3.609   5.938 -0.8394 -1.1191  1.5511
 1253SOL     OW15391   4.087   3.183   3.813 -0.4325  0.2907  0.0497
 1253SOL    HW115392   4.079   3.089   3.800  1.4152  0.1431 -0.1498
 1253SOL    HW215393   4.102   3.213   3.723  0.4276  1.1330  0.4623
 1254SOL     OW15394   4.440   2.795   3.229  0.1215  0.1787  0.3459
 1254SOL    HW115395   4.452   2.778   3.322 -1.3514  1.4501  0.7528
 1254SOL    HW215396   4.373   2.729   3.210  1.6961 -1.0458 -0.9795
 1255SOL     OW15397   1.962   1.986   8.215 -0.4502 -0.2407 -0.3131
 1255SOL    HW115398   1.935   1.923   8.149 -0.2119 -2.6664  1.8788
 1255SOL    HW215399   1.874   1.987   8.252 -0.3909  3.1003 -0.2983
 1256SOL     OW15400   0.726   1.036   3.509  0.0751  0.1818  0.4115
 1256SOL    HW115401   0.792   0.977   3.473  0.5210  0.5957  0.5604
 1256SOL    HW215402   0.741   1.015   3.601  0.4970  0.0099  0.3014
 1257SOL     OW15403   0.903   1.306   4.358  0.7617 -0.7309  0.0667
 1257SOL    HW115404   0.934   1.395   4.373  1.2132 -0.8226 -0.3308
 1257SOL    HW215405   0.888   1.274   4.447 -1.3743 -0.2671 -0.1311
 1258SOL     OW15406   2.314   0.057  12.022  0.2490 -0.4952  0.1667
 1258SOL    HW115407   2.306   0.046  11.928  0.5371  1.4722 -0.0854
 1258SOL    HW215408   2.359   0.142  12.021  0.3237 -0.5081  2.0794
 1259SOL     OW15409   0.665   3.558   7.691 -0.6967  0.0945  0.3396
 1259SOL    HW115410   0.652   3.525   7.780  2.8988 -1.9765  0.0786
 1259SOL    HW215411   0.733   3.506   7.649 -0.0927  0.9040  0.3094
 1260SOL     OW15412   2.362   0.883  11.981  0.1864  0.0579  0.1275
 1260SOL    HW115413   2.400   0.811  11.930 -3.0073 -0.4361 -1.5211
 1260SOL    HW215414   2.423   0.954  11.961  1.5947 -0.8081  1.3412
 1261SOL     OW15415   3.260   0.466   2.682 -0.0135 -0.2045 -0.1515
 1261SOL    HW115416   3.182   0.410   2.683 -0.9474  1.0831  1.8341
 1261SOL    HW215417   3.238   0.519   2.606  2.5831  0.4552 -0.4143
 1262SOL     OW15418   4.460   0.298   4.136  0.3738 -0.1689 -0.0016
 1262SOL    HW115419   4.395   0.243   4.179 -0.6189  1.9082  1.1236
 1262SOL    HW215420   4.468   0.254   4.051 -0.4579 -0.4809  0.0813
 1263SOL     OW15421   3.167   2.556   1.933 -0.0151  0.0732  0.5507
 1263SOL    HW115422   3.214   2.525   1.855 -1.0119  0.3735 -0.1762
 1263SOL    HW215423   3.137   2.639   1.894 -1.6534  0.0895  1.8807
 1264SOL     OW15424   2.445   2.753   9.322 -0.2151 -0.3120 -0.6588
 1264SOL    HW115425   2.502   2.742   9.398 -1.2517  0.0885  0.1719
 1264SOL    HW215426   2.503   2.806   9.267 -0.4598 -1.3756 -1.9529
 1265SOL     OW15427   0.422   3.360   9.586  0.2059  0.2991  0.6761
 1265SOL    HW115428   0.464   3.432   9.538 -1.0153 -1.2272 -2.6807
 1265SOL    HW215429   0.452   3.282   9.539 -2.6384  0.5523 -1.5195
 1266SOL     OW15430   2.552   4.306   6.672  0.3975 -0.1732  0.1262
 1266SOL    HW115431   2.514   4.218   6.662 -0.6618  0.5070 -1.8022
 1266SOL    HW215432   2.530   4.327   6.763 -0.0888 -2.6701  0.6063
 1267SOL     OW15433   4.192   2.657   7.385  0.1148 -0.2901  0.0175
 1267SOL    HW115434   4.237   2.574   7.372 -1.0828 -0.8816 -0.4218
 1267SOL    HW215435   4.267   2.716   7.389 -0.4429  0.3343  1.1615
 1268SOL     OW15436   0.630   4.419   1.209  0.0676  0.2861 -0.2019
 1268SOL    HW115437   0.611   4.512   1.205 -0.2446  0.2158 -0.3896
 1268SOL    HW215438   0.562   4.392   1.147 -1.8412  0.6055  1.7503
 1269SOL     OW15439   2.184   0.538   1.343 -0.5630 -0.9170 -0.4738
 1269SOL    HW115440   2.274   0.533   1.373 -0.5677 -3.5376 -0.9435
 1269SOL    HW215441   2.160   0.631   1.351  0.2870 -0.5598 -2.1943
 1270SOL     OW15442   3.195   3.268   4.273  0.0867 -0.0729  0.3421
 1270SOL    HW115443   3.171   3.246   4.364 -0.7664 -0.4460  0.0306
 1270SOL    HW215444   3.152   3.353   4.269 -1.5815 -0.9134  0.2622
 1271SOL     OW15445   2.747   0.717   7.739  0.8077  0.3725  0.5328
 1271SOL    HW115446   2.690   0.738   7.813 -2.3813 -2.1956 -1.1677
 1271SOL    HW215447   2.737   0.796   7.685  0.6609 -1.3453 -1.9753
 1272SOL     OW15448   0.319   3.850   7.820 -0.2529 -0.5327 -0.7686
 1272SOL    HW115449   0.292   3.771   7.772 -0.1240 -2.2136  1.9301
 1272SOL    HW215450   0.382   3.890   7.760  0.1325  0.7870  0.5351
 1273SOL     OW15451   2.888   4.558   7.695  0.6013  0.4822 -0.1342
 1273SOL    HW115452   2.940   4.526   7.769 -1.3799  0.6155  1.2901
 1273SOL    HW215453   2.824   4.486   7.697  3.4831 -2.0886  0.2119
 1274SOL     OW15454   1.706   1.471  16.140 -0.0021  0.2887 -0.1042
 1274SOL    HW115455   1.671   1.529  16.072 -0.1416 -2.0927 -2.0701
 1274SOL    HW215456   1.707   1.527  16.218  1.1516  1.6450 -1.0734
 1275SOL     OW15457   2.210   1.458   1.947  0.1349  0.2233 -0.3148
 1275SOL    HW115458   2.274   1.435   2.014  0.3586  0.5082 -0.4317
 1275SOL    HW215459   2.257   1.516   1.888  1.3179  0.6340  1.0548
 1276SOL     OW15460   1.800   2.271  12.610 -0.1085 -0.4550 -0.6076
 1276SOL    HW115461   1.775   2.197  12.555 -0.9843  0.7465 -1.8340
 1276SOL    HW215462   1.761   2.349  12.570  1.5253  1.1068  0.8365
 1277SOL     OW15463   3.989   2.440   0.905  0.4635  0.3506  0.1760
 1277SOL    HW115464   4.035   2.368   0.948 -1.2355 -0.2852  0.9642
 1277SOL    HW215465   4.066   2.492   0.884  0.5351 -0.3472 -1.3493
 1278SOL     OW15466   4.632   1.826   2.972  0.0799  0.6001  0.2929
 1278SOL    HW115467   4.644   1.915   2.939  2.0475  0.4842  0.7229
 1278SOL    HW215468   4.657   1.840   3.064 -2.8445  0.3654  1.1253
 1279SOL     OW15469   1.785   3.211   4.071  0.3846  0.1194  0.1768
 1279SOL    HW115470   1.858   3.186   4.014 -0.4485 -1.7149 -0.0836
 1279SOL    HW215471   1.716   3.172   4.017  0.3558 -1.6502  1.4834
 1280SOL     OW15472   2.952   1.968   5.683 -0.2753 -0.3368 -0.1106
 1280SOL    HW115473   2.956   2.027   5.758 -0.0752  2.0309 -1.9786
 1280SOL    HW215474   2.993   1.885   5.707  1.1795  0.5576  0.4309
 1281SOL     OW15475   4.126   0.593  11.807 -0.5739 -0.0520  0.1245
 1281SOL    HW115476   4.173   0.511  11.826  0.1335 -0.0006 -1.4266
 1281SOL    HW215477   4.049   0.573  11.860 -1.3398  2.2576 -0.1321
 1282SOL     OW15478   2.553   0.317   0.180  0.0031 -0.3607 -0.0544
 1282SOL    HW115479   2.573   0.240   0.233 -1.9437  0.0338  1.2694
 1282SOL    HW215480   2.593   0.297   0.096 -2.2551  3.1637 -1.9371
 1283SOL     OW15481   2.801   3.131   1.962 -0.3052 -0.1762  0.0629
 1283SOL    HW115482   2.715   3.166   1.938 -1.4838 -1.3291  2.5740
 1283SOL    HW215483   2.856   3.209   1.975  0.4864 -0.6156 -0.6491
 1284SOL     OW15484   3.398   4.432   1.174  0.3312 -0.4186  0.1079
 1284SOL    HW115485   3.474   4.455   1.227 -0.4385  1.5128  0.3813
 1284SOL    HW215486   3.383   4.517   1.132 -3.9856  0.8459  4.0866
 1285SOL     OW15487   1.795   0.619  17.271 -0.1204 -0.0551  0.4719
 1285SOL    HW115488   1.848   0.562  17.216  0.8215  0.8173  0.4912
 1285SOL    HW215489   1.856   0.684  17.306 -0.1310  0.4575 -0.4698
 1286SOL     OW15490   4.608   2.568   2.808  0.0815 -0.3583  0.0692
 1286SOL    HW115491   4.548   2.555   2.881 -0.6132  2.2023 -0.0596
 1286SOL    HW215492   4.646   2.655   2.822  2.1398 -1.1958 -0.2877
 1287SOL     OW15493   1.251   3.948  16.086  0.2646  0.3041  0.5038
 1287SOL    HW115494   1.324   3.905  16.041  1.4129 -0.4398  3.0387
 1287SOL    HW215495   1.222   3.870  16.133  0.6648  1.3025  2.4557
 1288SOL     OW15496   4.201   2.887   5.442  0.3108 -0.3847 -0.1880
 1288SOL    HW115497   4.245   2.844   5.368 -0.2349 -1.8198  0.3212
 1288SOL    HW215498   4.112   2.850   5.441  0.2485 -0.1011 -4.0897
 1289SOL     OW15499   4.676   3.072  14.276 -0.2922 -0.4889 -0.3535
 1289SOL    HW115500   0.003   3.132  14.318 -2.3568  1.0310  0.4892
 1289SOL    HW215501   4.630   3.136  14.222  0.9070  0.9281  0.3174
 1290SOL     OW15502   0.650   3.805  10.351  0.0890 -1.0323  0.0483
 1290SOL    HW115503   0.723   3.821  10.292 -1.7108  1.9021 -1.3755
 1290SOL    HW215504   0.585   3.871  10.328  0.8053  0.8975  3.6100
 1291SOL     OW15505   3.945   3.836  15.331  0.4960  0.0330  0.4155
 1291SOL    HW115506   3.856   3.803  15.347  1.6627 -2.5693  1.6463
 1291SOL    HW215507   3.976   3.867  15.416  0.0663  1.9209 -0.1340
 1292SOL     OW15508   4.555   1.209   2.650 -0.4372  0.5160  0.6985
 1292SOL    HW115509   4.630   1.162   2.684  1.9395  1.1171 -3.6704
 1292SOL    HW215510   4.585   1.216   2.559 -4.0364  1.4626 -0.4252
 1293SOL     OW15511   1.853   2.425   7.912 -0.5288 -0.7746 -0.0950
 1293SOL    HW115512   1.772   2.428   7.861 -1.4005  0.7102  1.3702
 1293SOL    HW215513   1.883   2.339   7.884  3.3227  0.2429  0.8521
 1294SOL     OW15514   0.310   1.101   2.103 -0.7950  0.2890  0.4396
 1294SOL    HW115515   0.218   1.108   2.075 -0.1620  0.5535 -1.6033
 1294SOL    HW215516   0.347   1.071   2.020 -1.5405 -0.8945  0.5447
 1295SOL     OW15517   3.097   4.568   6.114  0.8442 -0.7929 -0.7196
 1295SOL    HW115518   3.170   4.592   6.058  0.2487  2.1583 -0.2256
 1295SOL    HW215519   3.044   4.647   6.111  0.6918 -0.9967 -3.1950
 1296SOL     OW15520   4.703   3.981   2.206  0.5612 -0.0597 -0.3109
 1296SOL    HW115521   4.723   4.009   2.117  2.4222 -0.4249 -0.0246
 1296SOL    HW215522   4.615   3.945   2.194 -0.2818  0.7995  3.4076
 1297SOL     OW15523   4.241   3.608   6.771 -0.0303 -0.8295 -0.2199
 1297SOL    HW115524   4.280   3.672   6.711  0.8701 -1.7547 -0.6308
 1297SOL    HW215525   4.153   3.598   6.736 -0.5665  1.1441  0.5657
 1298SOL     OW15526   0.272   0.559   4.620 -0.5983  0.1279 -0.0643
 1298SOL    HW115527   0.345   0.506   4.651 -0.3167  0.7794  0.3895
 1298SOL    HW215528   0.290   0.652   4.638  0.8966  0.0048 -0.9129
 1299SOL     OW15529   4.221   4.397  13.393 -0.1544  0.0445 -0.7563
 1299SOL    HW115530   4.147   4.451  13.366 -0.9710 -1.6021 -1.8519
 1299SOL    HW215531   4.284   4.468  13.403  0.2916 -0.6254  1.1887
 1300SOL     OW15532   4.034   4.350   2.629  0.1626  0.1627  0.3975
 1300SOL    HW115533   4.068   4.381   2.545  3.6280 -1.7160  1.0923
 1300SOL    HW215534   4.115   4.354   2.680  0.8822 -1.9558 -0.5577
 1301SOL     OW15535   3.175   4.262   5.111 -0.0039 -0.4027 -0.0160
 1301SOL    HW115536   3.152   4.209   5.188 -0.8220 -0.1288 -0.0703
 1301SOL    HW215537   3.098   4.256   5.055  0.0975 -0.3776 -0.1567
 1302SOL     OW15538   1.952   2.648   8.705  0.0305  0.3752  0.6609
 1302SOL    HW115539   1.942   2.722   8.765  2.0306  1.4245 -0.3012
 1302SOL    HW215540   2.024   2.596   8.742  1.6140  0.5680 -2.0894
 1303SOL     OW15541   3.218   3.568   4.855  0.4343 -0.1678 -0.6794
 1303SOL    HW115542   3.263   3.586   4.938  0.4866 -1.5630 -0.4135
 1303SOL    HW215543   3.238   3.475   4.844  2.1304 -0.0897  1.7029
 1304SOL     OW15544   3.275   3.301  14.350  0.0466  0.1192  0.2994
 1304SOL    HW115545   3.302   3.211  14.365  2.3100  0.8763  0.7732
 1304SOL    HW215546   3.295   3.337  14.436  1.6603 -0.4169  0.1451
 1305SOL     OW15547   4.441   1.666   0.899 -0.0116 -0.9401  0.3639
 1305SOL    HW115548   4.364   1.681   0.954 -0.5653 -0.0333 -0.6511
 1305SOL    HW215549   4.458   1.573   0.915 -2.6851 -1.4201  0.4238
 1306SOL     OW15550   0.830   2.993  10.309 -0.1922 -0.0455  0.1998
 1306SOL    HW115551   0.912   2.999  10.358 -1.6276  0.8561  2.4843
 1306SOL    HW215552   0.778   2.936  10.365  1.6365 -1.7352  0.1852
 1307SOL     OW15553   3.829   1.721   7.325 -0.2200  0.4293 -0.1220
 1307SOL    HW115554   3.793   1.661   7.259  0.7421 -0.2836 -0.0030
 1307SOL    HW215555   3.825   1.806   7.283  0.3621  0.7265  0.4235
 1308SOL     OW15556   3.082   4.014   9.165 -0.1288 -0.3262  0.6093
 1308SOL    HW115557   3.149   3.946   9.163 -1.5437 -1.6782 -0.2434
 1308SOL    HW215558   3.032   4.004   9.084 -1.2225  1.4092  1.0802
 1309SOL     OW15559   3.667   1.506   2.955 -0.5271  0.9631 -0.2775
 1309SOL    HW115560   3.648   1.413   2.968  3.3119  0.1709 -0.2751
 1309SOL    HW215561   3.702   1.540   3.037  0.2113 -1.6764  0.5007
 1310SOL     OW15562   2.955   2.171   5.457 -0.3224 -0.5218  0.2637
 1310SOL    HW115563   2.913   2.113   5.520  1.8583 -1.2245  1.0827
 1310SOL    HW215564   3.034   2.207   5.500 -1.2685  1.6207  0.2210
 1311SOL     OW15565   0.402   3.235   3.408 -0.3043 -0.7145  0.2065
 1311SOL    HW115566   0.403   3.197   3.496 -1.0458 -0.9796  0.1006
 1311SOL    HW215567   0.335   3.303   3.409 -0.4746 -0.8839  0.4977
 1312SOL     OW15568   2.298   4.581   9.574  0.0756  0.4263 -0.4672
 1312SOL    HW115569   2.393   4.589   9.576  0.3374 -2.6519 -0.4573
 1312SOL    HW215570   2.289   4.604   9.481 -0.4818 -1.9465 -1.0023
 1313SOL     OW15571   3.673   4.651   8.204  0.2934  0.7954  0.2286
 1313SOL    HW115572   3.695   4.687   8.118 -0.4029 -0.3232 -0.4304
 1313SOL    HW215573   3.590   4.692   8.229  0.2395  2.1015 -2.1055
 1314SOL     OW15574   4.321   1.157   4.936  0.2338 -0.1404 -0.3521
 1314SOL    HW115575   4.263   1.212   4.988 -0.5620  0.6901 -2.1116
 1314SOL    HW215576   4.385   1.225   4.915  1.0102 -0.5999  0.5267
 1315SOL     OW15577   2.003   4.645   2.172 -0.0786  0.1471  0.9303
 1315SOL    HW115578   2.004   4.568   2.114 -1.1937  1.7723 -1.2532
 1315SOL    HW215579   2.095   4.670   2.170 -0.8238  2.7686 -1.1716
 1316SOL     OW15580   2.408   1.686   0.455 -0.2140 -0.2811 -0.4020
 1316SOL    HW115581   2.434   1.626   0.385 -0.5039 -1.8924  0.8652
 1316SOL    HW215582   2.423   1.631   0.531 -0.2497  0.9704  0.5093
 1317SOL     OW15583   2.329   1.213  10.365 -0.2024 -0.3108 -0.1391
 1317SOL    HW115584   2.241   1.247  10.349  0.1399  0.9655  0.6577
 1317SOL    HW215585   2.309   1.143  10.427 -2.4219 -1.1084 -1.7457
 1318SOL     OW15586   4.397   3.980   7.101  0.0970 -0.0014 -0.6075
 1318SOL    HW115587   4.438   3.894   7.109 -0.4090  0.1403  3.2776
 1318SOL    HW215588   4.423   4.005   7.012  0.8925  0.7770 -0.1573
 1319SOL     OW15589   2.814   0.520  11.866  0.2179  0.4405  0.2070
 1319SOL    HW115590   2.783   0.604  11.832  2.0755 -0.0420 -2.7193
 1319SOL    HW215591   2.752   0.519  11.939 -0.5239  2.1145 -0.3981
 1320SOL     OW15592   2.452   1.576   6.224 -0.4921 -0.0970  0.0629
 1320SOL    HW115593   2.505   1.550   6.300  0.2658 -2.1514 -1.1701
 1320SOL    HW215594   2.511   1.634   6.175 -1.2115  0.0421 -0.6217
 1321SOL     OW15595   0.468   0.181  10.895  1.1382 -0.0014  1.2718
 1321SOL    HW115596   0.503   0.229  10.970  2.3178  1.8204 -0.4666
 1321SOL    HW215597   0.462   0.089  10.921 -1.1600 -0.5414 -1.2084
 1322SOL     OW15598   4.091   1.892   8.018  0.3520  0.1066 -0.0340
 1322SOL    HW115599   4.063   1.918   8.106 -0.3514  0.3094 -0.3152
 1322SOL    HW215600   4.061   1.966   7.965  0.3216 -0.5559 -0.9363
 1323SOL     OW15601   1.234   4.077   5.413  0.2443  0.4187 -0.4946
 1323SOL    HW115602   1.314   4.125   5.391 -0.0202  0.0489 -2.2004
 1323SOL    HW215603   1.175   4.127   5.358 -0.7652  1.8236  1.8648
 1324SOL     OW15604   2.290   1.038  15.684 -0.6902  0.2074  0.7546
 1324SOL    HW115605   2.239   0.968  15.643  0.7421 -0.3594 -0.0309
 1324SOL    HW215606   2.245   1.063  15.765 -0.5397  3.0103 -0.0253
 1325SOL     OW15607   3.644   3.220   6.252  0.2741  0.0507 -0.4431
 1325SOL    HW115608   3.602   3.208   6.337 -0.4929  2.6025 -0.4499
 1325SOL    HW215609   3.660   3.314   6.260  0.9671  0.1164 -2.4991
 1326SOL     OW15610   0.344   2.301  15.321 -0.5143  0.0709  0.0818
 1326SOL    HW115611   0.304   2.254  15.393 -0.2632 -2.7159 -1.5852
 1326SOL    HW215612   0.268   2.348  15.285  0.4743  0.6797 -1.2348
 1327SOL     OW15613   2.748   2.224   5.308  0.5392  0.1375 -0.2302
 1327SOL    HW115614   2.713   2.136   5.296  0.8902  0.0085 -0.3208
 1327SOL    HW215615   2.819   2.213   5.371  2.0086  3.1487 -1.3641
 1328SOL     OW15616   0.192   2.991   5.857  0.4785  0.2842  0.0528
 1328SOL    HW115617   0.144   3.068   5.827 -0.5084  0.5143  2.2577
 1328SOL    HW215618   0.157   2.924   5.798 -1.0248  0.2662  0.9541
 1329SOL     OW15619   3.482   2.237   3.050 -0.2219  0.7278 -0.1548
 1329SOL    HW115620   3.455   2.146   3.065 -3.4879  1.5999 -0.6444
 1329SOL    HW215621   3.395   2.272   3.029 -0.4398  1.7098  2.3847
 1330SOL     OW15622   2.210   3.851  11.029 -0.0478 -0.3233 -0.3782
 1330SOL    HW115623   2.115   3.846  11.017 -0.1138  0.9348 -0.3889
 1330SOL    HW215624   2.234   3.879  10.940  1.2227  0.1201  0.1074
 1331SOL     OW15625   2.452   3.336   0.073  0.0230 -0.1701 -0.0558
 1331SOL    HW115626   2.486   3.271   0.012  0.3242  0.4100 -0.5181
 1331SOL    HW215627   2.364   3.302   0.089 -0.1713  0.0080 -0.7167
 1332SOL     OW15628   3.954   2.126   9.735  0.4019 -0.2952 -0.1606
 1332SOL    HW115629   3.981   2.038   9.710  1.5577  0.0265 -0.0250
 1332SOL    HW215630   3.985   2.120   9.825 -2.4325 -0.6270  0.8080
 1333SOL     OW15631   2.202   2.217   6.171 -0.0074 -0.6809  0.2345
 1333SOL    HW115632   2.259   2.202   6.095 -1.2251  0.5183 -0.9244
 1333SOL    HW215633   2.232   2.297   6.213 -2.9000  1.1727 -1.2329
 1334SOL     OW15634   0.512   1.687  10.199  0.8281 -0.4794 -0.2661
 1334SOL    HW115635   0.457   1.688  10.277 -0.8920  2.4403 -1.5298
 1334SOL    HW215636   0.514   1.779  10.174 -2.2615 -0.3334  0.0191
 1335SOL     OW15637   3.868   0.177   5.940  0.2823 -0.1067 -0.2929
 1335SOL    HW115638   3.931   0.151   6.006 -0.2232 -3.3410 -1.0638
 1335SOL    HW215639   3.869   0.105   5.877 -2.8063  0.0139 -0.5058
 1336SOL     OW15640   4.389   2.871   4.495 -0.3427  0.5016 -0.5789
 1336SOL    HW115641   4.381   2.944   4.557  1.3103  0.6600 -0.5467
 1336SOL    HW215642   4.395   2.792   4.549 -0.4076  0.6459 -0.3622
 1337SOL     OW15643   2.066   1.958   0.380 -0.0851  0.0003 -0.2326
 1337SOL    HW115644   2.156   1.948   0.348 -0.8128 -1.8797 -1.7193
 1337SOL    HW215645   2.077   1.971   0.474 -1.6810 -1.0038  0.0895
 1338SOL     OW15646   3.722   3.838   3.740 -0.0870  0.4754 -0.7734
 1338SOL    HW115647   3.781   3.848   3.816  0.8543 -1.1017 -1.3020
 1338SOL    HW215648   3.646   3.789   3.772  1.6047 -2.7414 -1.7504
 1339SOL     OW15649   0.344   2.103   5.136 -0.0170 -0.6278  0.7743
 1339SOL    HW115650   0.370   2.052   5.059 -0.4779  0.5307 -0.1490
 1339SOL    HW215651   0.388   2.185   5.114 -1.6501  0.2299  0.7320
 1340SOL     OW15652   2.352   2.701  15.859  0.2548  0.7268 -0.3377
 1340SOL    HW115653   2.391   2.655  15.785  1.0814 -1.1870  1.3049
 1340SOL    HW215654   2.270   2.733  15.820  0.1159  1.3373  0.4634
 1341SOL     OW15655   0.236   1.411   5.059 -0.1394  0.5904 -0.0030
 1341SOL    HW115656   0.270   1.492   5.097  0.4564  0.6441 -0.6550
 1341SOL    HW215657   0.217   1.354   5.133 -2.6713  2.1363  0.5026
 1342SOL     OW15658   1.506   2.499   3.077 -0.6466  0.4717  0.6509
 1342SOL    HW115659   1.432   2.553   3.103  0.1337  2.7784 -1.8320
 1342SOL    HW215660   1.475   2.409   3.066  1.4235 -0.0083 -1.3416
 1343SOL     OW15661   0.758   3.079   8.567  0.3125 -0.0620 -0.3976
 1343SOL    HW115662   0.672   3.037   8.565 -0.0226  0.4988  2.2000
 1343SOL    HW215663   0.814   3.016   8.521 -0.0964 -1.3496  0.8551
 1344SOL     OW15664   0.218   4.274  14.762  0.4557  0.0322  0.8034
 1344SOL    HW115665   0.222   4.270  14.666  1.1240 -2.4387  0.9272
 1344SOL    HW215666   0.131   4.313  14.769  1.6263  2.8719 -0.3859
 1345SOL     OW15667   1.375   4.582   6.462  0.4026  0.0341  0.0184
 1345SOL    HW115668   1.456   4.614   6.422 -0.4259  0.0950 -1.6084
 1345SOL    HW215669   1.321   4.619   6.392  2.5052 -0.0852 -1.6499
 1346SOL     OW15670   2.423   2.000   9.817 -0.2228  0.1977 -0.0849
 1346SOL    HW115671   2.503   1.951   9.838  0.5712  2.2178  1.6372
 1346SOL    HW215672   2.355   1.954   9.865 -1.3126  0.6741 -1.1618
 1347SOL     OW15673   0.132   2.984   7.070 -0.0659 -0.2483 -0.3118
 1347SOL    HW115674   0.131   2.904   7.124 -1.0101 -0.5285 -0.7543
 1347SOL    HW215675   0.226   3.001   7.058  0.0988 -0.4251  0.7034
 1348SOL     OW15676   1.894   1.838   6.222  0.2368  0.3568  0.2536
 1348SOL    HW115677   1.909   1.745   6.237  0.9083  0.8777  2.8009
 1348SOL    HW215678   1.982   1.876   6.223 -0.2389  1.4927 -0.3368
 1349SOL     OW15679   1.155   2.183  17.029 -0.1276 -0.9447 -0.6513
 1349SOL    HW115680   1.182   2.159  16.940  0.8275  0.3884 -0.7301
 1349SOL    HW215681   1.128   2.099  17.067  2.1334  0.1844  3.5241
 1350SOL     OW15682   3.652   2.785   8.738 -0.6671 -0.1054  0.2197
 1350SOL    HW115683   3.644   2.868   8.692 -0.9002 -1.0371 -1.4420
 1350SOL    HW215684   3.718   2.737   8.687  0.3925  0.9164  0.6604
 1351SOL     OW15685   3.207   0.807   3.256 -0.6406 -0.0708  0.7005
 1351SOL    HW115686   3.123   0.853   3.261 -1.0812 -1.0630  2.6495
 1351SOL    HW215687   3.173   0.718   3.246  1.5801 -0.5622 -2.3648
 1352SOL     OW15688   4.562   3.715  17.611  0.2248  0.2120  0.0805
 1352SOL    HW115689   4.565   3.783  17.543  0.2793 -0.0178 -0.1504
 1352SOL    HW215690   4.524   3.642  17.561 -0.0575  1.3690 -1.3948
 1353SOL     OW15691   4.559   0.666   3.717  0.0977  0.1310 -0.1720
 1353SOL    HW115692   4.563   0.724   3.641 -0.8578 -1.5612 -1.5149
 1353SOL    HW215693   4.653   0.647   3.713  0.2203  1.0399 -1.5886
 1354SOL     OW15694   3.601   2.585  11.311 -0.3363 -0.2340  0.0629
 1354SOL    HW115695   3.506   2.581  11.315 -0.4245 -0.2351 -1.9903
 1354SOL    HW215696   3.618   2.592  11.405  1.1184 -0.2681 -0.1992
 1355SOL     OW15697   0.899   1.768   9.501 -0.2196  0.2606 -0.6693
 1355SOL    HW115698   0.955   1.784   9.578 -0.2201  1.6995 -0.9766
 1355SOL    HW215699   0.811   1.764   9.538 -0.0847 -0.7427 -0.4675
 1356SOL     OW15700   0.503   1.966   4.329  0.1977 -0.7265 -0.2320
 1356SOL    HW115701   0.478   2.014   4.250 -0.0487 -1.2157 -0.4555
 1356SOL    HW215702   0.567   1.901   4.301 -0.4466 -1.8009  0.7719
 1357SOL     OW15703   1.799   3.709   9.059  0.0776 -0.7617  0.8273
 1357SOL    HW115704   1.726   3.692   9.119 -1.0074  0.0867 -0.2733
 1357SOL    HW215705   1.745   3.729   8.983  0.2487 -1.1516  0.6050
 1358SOL     OW15706   2.552   3.226   1.979  0.0940  0.6122  0.7150
 1358SOL    HW115707   2.482   3.280   1.942  0.3859  0.4240 -0.1004
 1358SOL    HW215708   2.504   3.148   2.006  0.7315 -0.3413 -0.9458
 1359SOL     OW15709   4.558   3.429  17.454 -0.1190  0.5980 -0.0469
 1359SOL    HW115710   4.530   3.359  17.395  4.3087 -0.5352 -0.7960
 1359SOL    HW215711   4.617   3.383  17.514  0.6714  0.3355 -1.0271
 1360SOL     OW15712   4.151   2.224  13.127  0.0930 -0.1956 -0.1942
 1360SOL    HW115713   4.148   2.287  13.055 -1.7215 -1.4271 -1.1813
 1360SOL    HW215714   4.133   2.275  13.206 -0.2387  0.2807 -0.5775
 1361SOL     OW15715   3.989   4.313   0.649 -0.3572  0.0906  0.7311
 1361SOL    HW115716   3.935   4.241   0.616  0.4702 -0.8685  1.4692
 1361SOL    HW215717   4.036   4.342   0.572 -0.5102  0.2937  0.7135
 1362SOL     OW15718   2.238   3.449   5.409 -0.1413 -0.2872  0.1572
 1362SOL    HW115719   2.222   3.432   5.316  0.2947  1.6463 -0.2867
 1362SOL    HW215720   2.304   3.381   5.420 -0.1249 -0.3121 -0.0863
 1363SOL     OW15721   0.155   3.519   4.433 -0.3242 -0.4041  0.2302
 1363SOL    HW115722   0.104   3.559   4.503  2.3015 -0.0933  1.9623
 1363SOL    HW215723   0.240   3.563   4.429 -0.3685 -0.3189  0.2318
 1364SOL     OW15724   1.968   4.531  11.380 -0.2067 -0.6121  0.3902
 1364SOL    HW115725   1.986   4.590  11.454 -0.2211  0.5276 -0.5145
 1364SOL    HW215726   2.044   4.477  11.360  0.6531  0.7422 -0.0281
 1365SOL     OW15727   2.265   3.647  12.231  0.3078 -0.1167  0.2432
 1365SOL    HW115728   2.327   3.642  12.158  1.2728  0.6617  1.0061
 1365SOL    HW215729   2.321   3.598  12.291  0.3519 -0.4550 -0.0743
 1366SOL     OW15730   2.533   1.262   5.495  0.1578  0.1145 -0.2054
 1366SOL    HW115731   2.515   1.310   5.414  0.7538 -3.3014 -2.3523
 1366SOL    HW215732   2.526   1.328   5.564 -0.0471 -0.5955  0.4460
 1367SOL     OW15733   1.751   3.814   3.219  0.1678  0.0732 -1.2172
 1367SOL    HW115734   1.687   3.792   3.151  1.9290 -2.7595 -1.9360
 1367SOL    HW215735   1.729   3.742   3.277 -0.3251 -0.3820 -1.9626
 1368SOL     OW15736   4.429   0.673   1.939 -0.3404 -0.1819  0.5901
 1368SOL    HW115737   4.347   0.625   1.942 -2.4653  3.3440 -1.0349
 1368SOL    HW215738   4.415   0.762   1.970  3.6602  1.1752 -1.3896
 1369SOL     OW15739   2.640   2.253  16.410  0.0875  0.1939  0.2801
 1369SOL    HW115740   2.551   2.269  16.377  0.1223 -1.4523 -0.6081
 1369SOL    HW215741   2.657   2.330  16.465 -3.1016  0.1090  1.3808
 1370SOL     OW15742   2.694   3.995   2.598 -0.6652  0.1815  0.4451
 1370SOL    HW115743   2.754   3.926   2.569  1.0004  0.6746  2.7526
 1370SOL    HW215744   2.646   3.944   2.663 -0.5195  0.5688  0.8483
 1371SOL     OW15745   1.347   0.328   0.743  0.6060 -0.2421  0.0313
 1371SOL    HW115746   1.292   0.376   0.805 -0.7926  1.5347 -2.6109
 1371SOL    HW215747   1.293   0.351   0.668  2.4819 -1.3815 -1.6737
 1372SOL     OW15748   2.785   4.381   7.970 -0.1636 -0.5088 -0.1353
 1372SOL    HW115749   2.716   4.321   7.999  0.2250 -0.3448  1.1689
 1372SOL    HW215750   2.853   4.315   7.964  2.0253  1.5482  1.8357
 1373SOL     OW15751   2.803   0.986  12.798 -0.7657  0.0115  0.5111
 1373SOL    HW115752   2.821   0.912  12.857  2.4147  1.6715  1.6197
 1373SOL    HW215753   2.767   1.045  12.864  1.2742  1.4972  0.3030
 1374SOL     OW15754   3.834   3.736   6.102 -0.0968 -0.2743  0.5297
 1374SOL    HW115755   3.817   3.805   6.038  1.2792 -0.2448  0.1934
 1374SOL    HW215756   3.847   3.786   6.183 -0.5402 -1.8204  1.5415
 1375SOL     OW15757   3.602   2.584   2.123  0.3336 -0.4894 -0.2142
 1375SOL    HW115758   3.655   2.595   2.044 -0.1859  0.7248 -0.3898
 1375SOL    HW215759   3.514   2.609   2.094  0.0977 -1.4673 -0.3484
 1376SOL     OW15760   4.429   2.607   4.909 -0.1442 -0.0494 -0.4388
 1376SOL    HW115761   4.356   2.585   4.966 -0.7439  0.8449 -0.8752
 1376SOL    HW215762   4.506   2.566   4.949  0.1110  0.3330 -0.5346
 1377SOL     OW15763   0.076   0.036   4.903 -0.0863 -0.2451 -0.0510
 1377SOL    HW115764   0.094   0.124   4.938  1.0919 -0.5569  0.1238
 1377SOL    HW215765   0.016   4.730   4.965 -0.1289 -0.0132  0.0560
 1378SOL     OW15766   3.175   2.033  13.563 -0.0231  0.2303 -0.2715
 1378SOL    HW115767   3.133   2.056  13.480 -2.7162  1.1402  1.3195
 1378SOL    HW215768   3.152   1.941  13.577  0.0775  0.1155 -0.8517
 1379SOL     OW15769   4.488   2.000   1.523 -0.5274  0.3330 -0.1586
 1379SOL    HW115770   4.401   2.014   1.561 -0.1278  1.6997  0.2628
 1379SOL    HW215771   4.519   2.089   1.543  0.5953  0.2421 -1.5422
 1380SOL     OW15772   0.157   0.423  12.036  0.4485 -0.1947  0.8579
 1380SOL    HW115773   0.089   0.366  12.071 -1.1963  1.4842  0.3980
 1380SOL    HW215774   0.174   0.494  12.098  2.8397 -1.1691  1.3239
 1381SOL     OW15775   2.895   2.504  16.809 -0.6145  0.1741 -0.0121
 1381SOL    HW115776   2.986   2.511  16.836 -0.8785 -1.1824  1.1901
 1381SOL    HW215777   2.912   2.519  16.716 -2.1658 -0.7206 -0.4414
 1382SOL     OW15778   1.164   2.255   3.544 -0.0611 -0.3592 -0.1867
 1382SOL    HW115779   1.152   2.342   3.582 -0.5310 -0.2313 -0.6380
 1382SOL    HW215780   1.160   2.271   3.450 -0.5626 -0.4578 -0.1829
 1383SOL     OW15781   1.086   2.449  16.400 -0.1238 -0.1038  0.3127
 1383SOL    HW115782   1.033   2.370  16.412 -1.1563  0.9186  2.4363
 1383SOL    HW215783   1.072   2.494  16.483  0.7560  2.3079 -0.8388
 1384SOL     OW15784   3.603   4.009   3.561  0.1835  0.0422 -0.6434
 1384SOL    HW115785   3.650   3.933   3.593 -1.3138 -1.3210 -1.6777
 1384SOL    HW215786   3.634   4.085   3.611 -0.4659 -0.6427  0.7947
 1385SOL     OW15787   2.599   0.053   5.753  0.1114  0.6064 -0.1523
 1385SOL    HW115788   2.582   0.125   5.814  2.0474 -1.2625  2.5821
 1385SOL    HW215789   2.588   0.102   5.671 -0.3134  0.6397 -0.0743
 1386SOL     OW15790   3.412   4.450   4.201  0.2019 -0.5332  0.3047
 1386SOL    HW115791   3.439   4.358   4.203 -2.3604 -1.3388 -2.5102
 1386SOL    HW215792   3.327   4.438   4.243  0.0248  1.6906  0.5445
 1387SOL     OW15793   2.841   2.402   1.215  0.3082 -0.5501  0.1624
 1387SOL    HW115794   2.920   2.455   1.226  1.4780 -2.6174  1.7887
 1387SOL    HW215795   2.874   2.312   1.206 -2.3704 -1.2959 -2.3006
 1388SOL     OW15796   3.434   3.671   4.115  0.4882 -0.0660 -0.5614
 1388SOL    HW115797   3.426   3.591   4.167 -0.4332 -0.3322 -1.1047
 1388SOL    HW215798   3.348   3.707   4.136  0.4046 -1.3972  1.4169
 1389SOL     OW15799   1.009   3.105   5.405  0.1476  0.0373  0.0581
 1389SOL    HW115800   1.056   3.090   5.487  0.4824 -0.6889 -0.2670
 1389SOL    HW215801   1.080   3.142   5.353  1.7031  0.1168  2.2471
 1390SOL     OW15802   1.181   1.463   3.801  0.4365  0.2758  0.8838
 1390SOL    HW115803   1.137   1.483   3.719  1.2920 -1.2103  0.0679
 1390SOL    HW215804   1.168   1.552   3.834  0.8326  1.0518 -1.1065
 1391SOL     OW15805   4.513   0.847   8.647 -0.0262 -0.4431 -0.8718
 1391SOL    HW115806   4.564   0.921   8.678  2.7207 -2.4032 -0.7270
 1391SOL    HW215807   4.425   0.864   8.682  0.1300 -0.6607 -0.3671
 1392SOL     OW15808   3.878   0.329   2.201  0.2796  0.3636  0.8023
 1392SOL    HW115809   3.813   0.272   2.159  1.1879  0.6234 -0.9577
 1392SOL    HW215810   3.861   0.413   2.157 -2.1182  0.7714  2.5032
 1393SOL     OW15811   1.005   1.940   4.722  0.7628 -0.4807  0.2207
 1393SOL    HW115812   1.028   1.993   4.645  1.9950  0.7192  1.4190
 1393SOL    HW215813   0.960   1.867   4.680 -0.6402  0.3348  0.3021
 1394SOL     OW15814   2.054   3.444   3.111 -0.6291  0.6076 -0.1173
 1394SOL    HW115815   2.030   3.402   3.194  0.0886  0.7372  0.1591
 1394SOL    HW215816   2.007   3.527   3.105 -1.6494  0.1805  2.0639
 1395SOL     OW15817   1.262   0.782   7.604 -0.0582 -0.4747  0.2681
 1395SOL    HW115818   1.232   0.693   7.585 -3.1379  0.3275  1.3897
 1395SOL    HW215819   1.181   0.832   7.599 -0.0140 -0.6421 -1.7937
 1396SOL     OW15820   3.938   2.376   2.385  0.3142  0.1372 -0.1148
 1396SOL    HW115821   4.018   2.328   2.363  0.0066 -0.0245 -0.8769
 1396SOL    HW215822   3.912   2.339   2.469 -0.5826  0.3830 -0.2794
 1397SOL     OW15823   0.015   1.663  10.401 -0.2912  0.8024 -0.2158
 1397SOL    HW115824   4.659   1.631  10.408  0.2585 -0.6647  0.1170
 1397SOL    HW215825   0.014   1.705  10.315  2.0063  3.3067  0.9692
 1398SOL     OW15826   0.805   3.463  16.106  0.0663  0.3805  0.4727
 1398SOL    HW115827   0.805   3.481  16.200  0.4902  1.0287  0.3508
 1398SOL    HW215828   0.855   3.382  16.097  1.9008  1.6860 -0.9931
 1399SOL     OW15829   0.610   4.157   8.930 -0.2846 -0.2345 -0.2113
 1399SOL    HW115830   0.685   4.176   8.874 -0.7809 -0.0165 -0.8023
 1399SOL    HW215831   0.597   4.245   8.965  3.1925 -1.0548  3.1539
 1400SOL     OW15832   2.640   2.182  11.193  0.5635  0.1114  0.5341
 1400SOL    HW115833   2.634   2.271  11.158  2.5248  0.9945  2.5242
 1400SOL    HW215834   2.665   2.195  11.284  0.8922  1.0636  0.2995
 1401SOL     OW15835   4.257   2.512   5.091 -0.4260 -0.0021  0.0763
 1401SOL    HW115836   4.259   2.416   5.098  0.6301  0.1933  2.4207
 1401SOL    HW215837   4.172   2.521   5.048 -0.2526  1.2869  0.0003
 1402SOL     OW15838   1.751   3.550   2.947 -0.3402  0.3272 -0.5195
 1402SOL    HW115839   1.823   3.591   2.900 -0.8414  0.3137 -1.2940
 1402SOL    HW215840   1.703   3.503   2.879 -1.2854 -0.7113  0.8626
 1403SOL     OW15841   4.270   4.195   2.803 -0.0978 -0.0121 -0.5597
 1403SOL    HW115842   4.274   4.274   2.857 -0.1129  0.2189 -0.8932
 1403SOL    HW215843   4.187   4.161   2.835  0.4356 -0.3289  0.4698
 1404SOL     OW15844   4.619   4.550  15.088 -0.7665  0.0177 -0.0459
 1404SOL    HW115845   4.674   4.493  15.142 -0.2058  1.3142  0.7292
 1404SOL    HW215846   4.639   4.636  15.124  3.1494 -1.3817  1.1185
 1405SOL     OW15847   1.808   0.496   4.013 -0.0439  0.6360 -0.5653
 1405SOL    HW115848   1.851   0.545   4.083 -1.3042  1.7424 -0.5788
 1405SOL    HW215849   1.726   0.545   4.008  0.5567  1.4942 -1.9403
 1406SOL     OW15850   0.718   0.597   6.526 -0.1271 -0.1506 -0.2692
 1406SOL    HW115851   0.730   0.611   6.432 -1.0948  3.4699  0.1287
 1406SOL    HW215852   0.642   0.652   6.548 -0.4830  0.1108 -2.1829
 1407SOL     OW15853   3.808   2.003  11.263  0.0356  0.4883  0.2938
 1407SOL    HW115854   3.870   1.931  11.272  2.1499  2.4514  1.5578
 1407SOL    HW215855   3.743   1.991  11.332 -0.1479  1.7059  0.3409
 1408SOL     OW15856   0.169   0.538   8.830  0.0416 -0.2063  0.4817
 1408SOL    HW115857   0.135   0.618   8.870  0.4640  0.6070 -0.8044
 1408SOL    HW215858   0.083   0.513   8.795 -0.2670  0.6269  0.6303
 1409SOL     OW15859   2.255   4.051   4.619 -0.2860  0.2417 -0.2547
 1409SOL    HW115860   2.284   4.039   4.529 -1.3630  1.1882 -0.7294
 1409SOL    HW215861   2.185   3.985   4.620  2.3395 -2.5246  0.8611
 1410SOL     OW15862   1.101   3.703   6.836 -0.2903  0.4613  0.4315
 1410SOL    HW115863   1.141   3.749   6.763  0.0640  1.4755  1.2567
 1410SOL    HW215864   1.114   3.774   6.899  0.0356  0.5741  0.2355
 1411SOL     OW15865   2.619   4.556   8.086 -0.0217 -0.1759 -0.3621
 1411SOL    HW115866   2.654   4.644   8.074 -2.6024  0.9663  0.5940
 1411SOL    HW215867   2.681   4.505   8.034 -0.7855 -1.7396  0.2419
 1412SOL     OW15868   0.313   2.218   9.947 -0.3494 -0.6447  0.1167
 1412SOL    HW115869   0.294   2.130   9.977  0.3389 -1.0197 -0.5538
 1412SOL    HW215870   0.293   2.261  10.030 -2.7239 -0.8321 -0.3760
 1413SOL     OW15871   2.827   0.159  12.132 -0.1011  0.0799  0.4017
 1413SOL    HW115872   2.916   0.192  12.147 -0.0645  0.4204 -0.5883
 1413SOL    HW215873   2.833   0.080  12.187  0.3828  0.0330  0.2811
 1414SOL     OW15874   3.485   2.639   1.733  0.5199  0.1567  0.6748
 1414SOL    HW115875   3.403   2.687   1.723  1.9864  2.4291 -0.5793
 1414SOL    HW215876   3.449   2.553   1.712  2.2031 -0.2269 -0.6311
 1415SOL     OW15877   0.363   4.496  13.302 -0.2245 -0.0535 -0.1949
 1415SOL    HW115878   0.312   4.473  13.224 -1.1471  3.5059 -0.6744
 1415SOL    HW215879   0.404   4.576  13.268  1.0807 -0.2920  0.8324
 1416SOL     OW15880   0.430   0.181   3.767  0.4819  0.2618 -0.0407
 1416SOL    HW115881   0.379   0.103   3.788  0.1490  0.5263  0.1410
 1416SOL    HW215882   0.416   0.187   3.673 -1.5620  1.6658  0.3561
 1417SOL     OW15883   0.811   0.407   6.031  0.6900 -0.8333 -0.4125
 1417SOL    HW115884   0.850   0.321   6.015  0.5796 -0.9719  0.0932
 1417SOL    HW215885   0.835   0.454   5.950 -1.6575  2.3792  0.7470
 1418SOL     OW15886   3.493   2.496  16.446  0.8893  0.7673  0.2769
 1418SOL    HW115887   3.432   2.570  16.444  0.3209  0.2407 -2.3833
 1418SOL    HW215888   3.454   2.453  16.522 -2.6435  0.3522 -1.7931
 1419SOL     OW15889   1.580   0.385   5.483  0.2937 -0.0188 -0.2714
 1419SOL    HW115890   1.644   0.384   5.555 -0.1384  0.5378  0.1158
 1419SOL    HW215891   1.519   0.450   5.517  0.8503  1.0727 -1.3847
 1420SOL     OW15892   0.923   3.532   7.039 -0.0946 -0.6307  0.2715
 1420SOL    HW115893   0.973   3.594   6.985 -0.0754 -1.2154 -0.3828
 1420SOL    HW215894   0.875   3.591   7.096 -0.7194 -1.1409  0.2754
 1421SOL     OW15895   1.669   3.959   6.789  0.3725 -0.5288 -0.2527
 1421SOL    HW115896   1.643   3.979   6.700  0.5154  0.1992 -0.1328
 1421SOL    HW215897   1.584   3.976   6.829  0.3720 -0.8759 -0.1043
 1422SOL     OW15898   3.498   0.567  15.413  0.2013  0.4550 -0.4891
 1422SOL    HW115899   3.425   0.527  15.460  1.5719 -0.6249  0.7452
 1422SOL    HW215900   3.560   0.583  15.484  0.1216  1.0229 -0.5469
 1423SOL     OW15901   0.225   4.731  12.724  0.0617  0.0927  0.0425
 1423SOL    HW115902   0.192   0.070  12.671  0.7653 -0.7956 -1.6071
 1423SOL    HW215903   0.282   4.686  12.661  0.2119  1.8545 -1.0711
 1424SOL     OW15904   0.950   0.005   8.228 -0.3919 -0.1155 -0.2673
 1424SOL    HW115905   0.900   4.673   8.179  1.1273 -2.7222  1.6804
 1424SOL    HW215906   0.877   0.066   8.232 -0.7460 -0.4331 -1.8113
 1425SOL     OW15907   3.362   4.349  10.391 -0.4605 -0.3796  0.5561
 1425SOL    HW115908   3.315   4.284  10.443  0.0133 -0.4413  0.9146
 1425SOL    HW215909   3.288   4.403  10.366  0.2718  0.6768  0.6587
 1426SOL     OW15910   0.299   0.887   7.568 -0.2369 -0.0344  0.1380
 1426SOL    HW115911   0.298   0.983   7.561  1.3168  0.0191  0.5730
 1426SOL    HW215912   0.393   0.869   7.562  0.0827  1.2169  1.3553
 1427SOL     OW15913   3.896   4.035  15.138 -0.3607  0.1664  0.0855
 1427SOL    HW115914   3.925   3.960  15.189  1.8564 -0.0045 -1.4111
 1427SOL    HW215915   3.881   3.996  15.052  1.3207  1.6972 -0.9218
 1428SOL     OW15916   3.710   1.341   3.257 -0.0253 -0.0014 -0.0387
 1428SOL    HW115917   3.774   1.362   3.324 -0.2578 -1.9323  0.7879
 1428SOL    HW215918   3.749   1.255   3.238  0.5319  0.0530  0.8538
 1429SOL     OW15919   0.211   1.979  15.718 -0.3107  0.2044  0.4575
 1429SOL    HW115920   0.169   2.040  15.657  0.9984  0.2526 -0.3893
 1429SOL    HW215921   0.167   1.896  15.698 -0.8084 -0.0365  2.5596
 1430SOL     OW15922   2.045   2.181  12.885 -0.4954 -0.2844  0.2486
 1430SOL    HW115923   2.134   2.207  12.909 -0.3804 -0.7523  0.3266
 1430SOL    HW215924   2.055   2.087  12.905 -2.8150 -0.4129  0.8113
 1431SOL     OW15925   1.548   3.005   4.167 -0.2558 -0.5550  0.0620
 1431SOL    HW115926   1.559   2.927   4.221 -3.3752  0.4878  2.2302
 1431SOL    HW215927   1.509   2.978   4.083  0.7309  2.5515 -1.3769
 1432SOL     OW15928   0.265   3.214   0.659 -0.3648 -0.3655  0.2600
 1432SOL    HW115929   0.245   3.238   0.568 -1.3845  0.7905  0.7917
 1432SOL    HW215930   0.176   3.206   0.692 -0.5398  1.5383  0.2252
 1433SOL     OW15931   1.623   4.457   0.516 -0.2396  0.3338  0.2990
 1433SOL    HW115932   1.540   4.447   0.470  0.0567  3.7058 -0.9776
 1433SOL    HW215933   1.662   4.372   0.494  1.2857  1.0159  0.4074
 1434SOL     OW15934   0.109   4.213  13.537 -0.7863  0.2959 -0.0119
 1434SOL    HW115935   0.026   4.257  13.515 -0.5475  0.2781 -0.9585
 1434SOL    HW215936   0.078   4.124  13.554  2.0933 -0.5050  0.9489
 1435SOL     OW15937   1.936   3.852  11.004 -0.4782 -0.7496  0.2562
 1435SOL    HW115938   1.899   3.767  10.982 -0.6489 -0.1545 -1.7646
 1435SOL    HW215939   1.871   3.881  11.068 -1.5701 -2.3158 -0.1414
 1436SOL     OW15940   4.114   2.022   0.332  0.3459 -0.2703  0.0627
 1436SOL    HW115941   4.185   2.013   0.269  0.4811 -1.5487  0.3941
 1436SOL    HW215942   4.104   2.117   0.330  0.5480 -0.2286  0.9983
 1437SOL     OW15943   2.655   3.366   6.709  0.1295 -0.3291  0.0446
 1437SOL    HW115944   2.696   3.443   6.747  0.7439  0.2461 -1.7911
 1437SOL    HW215945   2.564   3.391   6.693  0.7869 -0.8954 -4.6042
 1438SOL     OW15946   3.631   3.684   7.559 -0.3423 -0.4642  0.0969
 1438SOL    HW115947   3.626   3.715   7.649  0.0916 -1.4321  0.4578
 1438SOL    HW215948   3.639   3.591   7.580 -0.7105 -0.2507  1.1625
 1439SOL     OW15949   3.290   3.379   3.914  0.2657  0.2552 -0.2615
 1439SOL    HW115950   3.375   3.336   3.916  0.4549  0.6289 -0.1486
 1439SOL    HW215951   3.311   3.455   3.860 -3.0916  0.7528 -0.8761
 1440SOL     OW15952   2.047   0.079   9.075  0.2515  0.6594 -0.2828
 1440SOL    HW115953   1.969   0.112   9.029 -0.8773  0.2143  1.3182
 1440SOL    HW215954   2.026   0.104   9.165 -0.5002  0.6103 -0.4429
 1441SOL     OW15955   0.331   3.325  17.010 -0.3321  0.1015  0.2442
 1441SOL    HW115956   0.325   3.418  17.032  1.0067  0.5911 -1.4925
 1441SOL    HW215957   0.262   3.316  16.944 -1.1474 -2.8187  1.4812
 1442SOL     OW15958   0.954   2.550   3.856  0.1590  0.0164  0.7507
 1442SOL    HW115959   1.015   2.502   3.912  0.6036 -0.1843  0.0918
 1442SOL    HW215960   0.971   2.513   3.770 -1.7475  0.3331  0.2372
 1443SOL     OW15961   3.202   3.280   4.847 -0.2895 -0.5840  0.0739
 1443SOL    HW115962   3.290   3.250   4.825 -0.4017  0.1618 -1.3761
 1443SOL    HW215963   3.147   3.202   4.857 -1.0991  0.1261  1.1977
 1444SOL     OW15964   1.701   4.644   6.141 -0.6430 -0.3634  0.0973
 1444SOL    HW115965   1.782   4.689   6.165 -1.2407  0.6981  0.0992
 1444SOL    HW215966   1.699   4.575   6.207  0.5113  0.3004  0.8242
 1445SOL     OW15967   1.480   1.170   6.528 -0.1257 -0.2082  0.4879
 1445SOL    HW115968   1.510   1.173   6.618 -2.0342  1.8722  1.0327
 1445SOL    HW215969   1.535   1.233   6.482 -0.6154  0.8452  1.3518
 1446SOL     OW15970   2.957   1.517   6.726 -0.1866 -0.1263 -0.6070
 1446SOL    HW115971   2.921   1.604   6.709  0.5371  0.7721  2.5799
 1446SOL    HW215972   3.018   1.512   6.652 -1.0283  1.3862 -1.3993
 1447SOL     OW15973   0.633   0.314  12.173  0.0265 -0.1661 -0.7551
 1447SOL    HW115974   0.560   0.269  12.129 -0.2503 -0.9812  0.5315
 1447SOL    HW215975   0.581   0.360  12.238  1.1190  0.1982 -0.1417
 1448SOL     OW15976   1.781   0.152   7.380 -0.3817 -0.0165  0.1169
 1448SOL    HW115977   1.816   0.241   7.379  2.2192 -1.0256 -1.2650
 1448SOL    HW215978   1.707   0.155   7.320  0.5385  2.3360 -0.9097
 1449SOL     OW15979   3.390   3.253   8.592  0.1636  0.0318  0.0311
 1449SOL    HW115980   3.382   3.187   8.661  1.4449 -0.8159 -0.6254
 1449SOL    HW215981   3.320   3.315   8.612  1.2030  1.3120 -0.3545
 1450SOL     OW15982   4.537   4.148   5.580 -0.0876 -0.4078  0.2335
 1450SOL    HW115983   4.497   4.190   5.503 -1.5804 -1.4780  0.4196
 1450SOL    HW215984   4.528   4.053   5.570  1.8713 -0.4058 -1.6632
 1451SOL     OW15985   4.609   3.681   6.682  0.1391 -0.5890 -0.3545
 1451SOL    HW115986   4.676   3.705   6.746 -1.0787 -0.6347  0.9397
 1451SOL    HW215987   4.580   3.771   6.664  0.2619 -0.6360 -0.7888
 1452SOL     OW15988   3.201   3.036   3.380 -0.3827  0.0262 -0.1060
 1452SOL    HW115989   3.229   3.001   3.295 -1.6755  0.2047 -0.6050
 1452SOL    HW215990   3.130   3.093   3.350  1.7953  2.4794 -0.5644
 1453SOL     OW15991   4.295   1.098   8.955 -0.1446  0.1697 -0.8049
 1453SOL    HW115992   4.309   1.191   8.975 -2.5976  0.4115 -0.1792
 1453SOL    HW215993   4.231   1.071   9.022 -0.1858 -1.9085 -1.6930
 1454SOL     OW15994   2.795   0.134   4.435 -0.5331 -0.3519  0.0887
 1454SOL    HW115995   2.817   0.058   4.380 -2.3286  0.3850 -1.6639
 1454SOL    HW215996   2.852   0.200   4.397 -0.0647 -0.5054  0.5235
 1455SOL     OW15997   3.226   2.479  13.854 -0.0522 -0.5186  0.8058
 1455SOL    HW115998   3.219   2.405  13.794 -0.7473 -0.2841  0.5989
 1455SOL    HW215999   3.289   2.538  13.813 -1.5234  0.4160 -0.0747
 1456SOL     OW16000   4.459   1.939  13.188 -0.0315 -0.5252 -0.4052
 1456SOL    HW116001   4.547   1.942  13.226  0.3950 -0.7397 -1.3690
 1456SOL    HW216002   4.478   1.978  13.102 -0.2332  2.1285  0.7394
 1457SOL     OW16003   2.806   1.171   6.196  0.1805  0.8087 -0.2940
 1457SOL    HW116004   2.800   1.207   6.284 -2.8225  2.1109 -1.0379
 1457SOL    HW216005   2.899   1.155   6.182  0.0780  1.7397 -2.0801
 1458SOL     OW16006   3.131   2.305   6.930 -0.3165  0.5053  0.1319
 1458SOL    HW116007   3.226   2.301   6.934 -0.4581 -2.4448  0.1182
 1458SOL    HW216008   3.113   2.368   6.860 -0.8059  1.6141  1.2325
 1459SOL     OW16009   4.334   1.624   1.824 -0.5080  0.2652  0.7198
 1459SOL    HW116010   4.310   1.626   1.917 -1.9749 -0.5914  0.3500
 1459SOL    HW216011   4.261   1.584   1.777 -0.2321 -0.4288  0.8842
 1460SOL     OW16012   0.132   0.450   2.531 -0.8250  0.3879  0.0623
 1460SOL    HW116013   0.188   0.524   2.511  0.5913  0.1336  3.0814
 1460SOL    HW216014   0.158   0.390   2.462  0.7827 -0.6029  1.5273
 1461SOL     OW16015   2.837   1.784  17.474 -0.4197 -0.1184 -0.1163
 1461SOL    HW116016   2.874   1.733  17.547  0.5624  1.8559  0.7517
 1461SOL    HW216017   2.809   1.863  17.520 -0.7871 -2.3326  3.5330
 1462SOL     OW16018   2.492   4.128  16.324  0.0368 -0.6170  0.2629
 1462SOL    HW116019   2.414   4.074  16.309 -0.4189  0.5932 -1.7261
 1462SOL    HW216020   2.455   4.211  16.355  1.2380 -0.3681  1.0256
 1463SOL     OW16021   0.270   1.679   3.733 -0.0838 -0.1815 -0.5884
 1463SOL    HW116022   0.365   1.680   3.717  0.2717  2.4251  1.5769
 1463SOL    HW216023   0.245   1.771   3.724 -2.3681 -0.4769  2.9055
 1464SOL     OW16024   2.996   1.743   6.008  0.3834 -0.3636  0.1374
 1464SOL    HW116025   2.915   1.726   6.056 -1.1757  0.6957 -2.0869
 1464SOL    HW216026   3.031   1.818   6.055 -0.1926 -0.0679  0.0964
 1465SOL     OW16027   2.083   0.256   4.404  0.0599 -0.0759 -0.1106
 1465SOL    HW116028   2.047   0.204   4.476  1.0184 -0.9939 -0.2866
 1465SOL    HW216029   2.109   0.188   4.342  0.7126 -1.1918  1.3991
 1466SOL     OW16030   0.430   2.499   4.718  0.6928  0.3570 -0.0683
 1466SOL    HW116031   0.381   2.515   4.638 -1.3106 -0.3734  1.0117
 1466SOL    HW216032   0.494   2.432   4.691  0.5372  0.9709 -1.9484
 1467SOL     OW16033   0.424   2.405  11.768 -0.4748 -1.2580 -0.8464
 1467SOL    HW116034   0.410   2.323  11.816 -1.3497 -0.3359  0.4517
 1467SOL    HW216035   0.445   2.373  11.680  0.0761 -0.2639 -1.0854
 1468SOL     OW16036   2.492   0.203  16.226 -0.2257 -0.0599 -0.0129
 1468SOL    HW116037   2.482   0.229  16.134 -0.0591 -0.5392 -0.1680
 1468SOL    HW216038   2.402   0.205  16.258 -0.4263  0.0145 -0.5749
 1469SOL     OW16039   3.956   1.482   2.615 -0.4776  0.2229 -0.0304
 1469SOL    HW116040   3.914   1.502   2.531 -2.5060 -2.7518  0.2657
 1469SOL    HW216041   4.047   1.474   2.586 -0.8745 -1.0619 -0.8960
 1470SOL     OW16042   0.326   0.708   5.058 -0.8883  0.2130  0.0693
 1470SOL    HW116043   0.320   0.803   5.045 -2.0146  0.2265  0.6275
 1470SOL    HW216044   0.406   0.713   5.110  0.4997 -4.1039 -1.6759
 1471SOL     OW16045   0.319   1.791  13.075 -0.4085 -0.2953 -0.2285
 1471SOL    HW116046   0.371   1.804  13.155 -2.8067  1.1218  1.1097
 1471SOL    HW216047   0.234   1.825  13.103  0.4423  1.0870  0.6741
 1472SOL     OW16048   1.940   3.407   8.924 -0.4582 -0.3083 -0.3796
 1472SOL    HW116049   1.908   3.452   9.002  1.1148 -2.4666  1.5286
 1472SOL    HW216050   1.903   3.322   8.949 -1.1886  0.1706  0.1649
 1473SOL     OW16051   2.441   4.601   9.284 -0.0623  0.1215 -0.6445
 1473SOL    HW116052   2.477   4.524   9.239  1.6749  1.7786 -2.0536
 1473SOL    HW216053   2.510   4.665   9.269  0.9148 -0.0955  2.9251
 1474SOL     OW16054   0.541   0.365  13.136  0.5766  0.0794  0.4684
 1474SOL    HW116055   0.578   0.358  13.224  2.2517 -0.3072 -0.2569
 1474SOL    HW216056   0.594   0.305  13.083 -0.6622 -0.9420  0.4104
 1475SOL     OW16057   2.351   0.542   7.330 -0.2718 -0.3933 -0.1067
 1475SOL    HW116058   2.404   0.623   7.329 -1.3339  0.3099  1.4399
 1475SOL    HW216059   2.273   0.569   7.378 -0.7577 -0.8403 -0.6444
 1476SOL     OW16060   3.931   1.698   2.995 -0.2796 -0.0223  0.6239
 1476SOL    HW116061   3.862   1.700   3.061 -1.8235 -3.3174 -0.9025
 1476SOL    HW216062   3.952   1.791   2.988  1.1899 -0.1430  3.6867
 1477SOL     OW16063   2.700   0.499   2.531 -0.5486  0.4995  0.5002
 1477SOL    HW116064   2.793   0.509   2.510 -0.3110 -0.2450  1.2133
 1477SOL    HW216065   2.659   0.521   2.447 -1.1544 -1.1642  0.3657
 1478SOL     OW16066   2.205   0.140   5.415 -0.1413  0.4026 -0.3974
 1478SOL    HW116067   2.113   0.164   5.403 -0.3532  0.6789  1.7833
 1478SOL    HW216068   2.235   0.204   5.480  1.6007  0.4241 -1.2122
 1479SOL     OW16069   3.834   2.342  15.463 -0.1707 -0.4060 -0.4009
 1479SOL    HW116070   3.763   2.386  15.415 -0.7943 -1.6249 -0.5920
 1479SOL    HW216071   3.843   2.397  15.541 -0.1940  0.2907 -0.8924
 1480SOL     OW16072   2.397   4.641   4.655  0.4985 -0.1172 -0.2989
 1480SOL    HW116073   2.307   4.660   4.681  0.0598  2.1407 -3.5626
 1480SOL    HW216074   2.418   4.715   4.598 -0.2832 -1.9975 -3.0280
 1481SOL     OW16075   4.716   1.746   4.688  0.1653  0.0278 -0.4819
 1481SOL    HW116076   0.047   1.687   4.649  1.3635  0.3050  1.0948
 1481SOL    HW216077   4.642   1.686   4.699  0.2080  0.4312  2.0193
 1482SOL     OW16078   0.976   2.367   8.784  0.6036  0.0346 -0.5589
 1482SOL    HW116079   0.910   2.429   8.754 -0.9364 -1.3086  0.0878
 1482SOL    HW216080   1.051   2.418   8.816 -0.1164  2.2815 -2.4359
 1483SOL     OW16081   4.332   0.659   2.933  0.3299  0.4306  0.0022
 1483SOL    HW116082   4.378   0.694   3.009 -0.0324 -2.1601  1.3981
 1483SOL    HW216083   4.408   0.627   2.884  0.8193  1.8400 -0.1606
 1484SOL     OW16084   1.065   0.108   6.825 -0.0448 -0.8732  0.2011
 1484SOL    HW116085   1.037   0.117   6.733  0.0704  1.6437  0.4216
 1484SOL    HW216086   1.138   0.051   6.802  0.9161  0.2205  0.5623
 1485SOL     OW16087   3.794   0.537   4.781  0.3762  0.2315 -0.5935
 1485SOL    HW116088   3.794   0.630   4.804 -1.7836 -0.4854  2.3495
 1485SOL    HW216089   3.887   0.516   4.779 -0.2686 -2.4590 -2.0987
 1486SOL     OW16090   1.752   2.004   6.865 -0.4446  0.1760 -0.1201
 1486SOL    HW116091   1.757   2.099   6.854 -1.5781  0.5206  2.2280
 1486SOL    HW216092   1.816   1.986   6.934 -1.8292 -0.6051  0.9813
 1487SOL     OW16093   1.564   0.526   6.124  0.2813 -0.2988 -0.2925
 1487SOL    HW116094   1.518   0.487   6.198 -1.5344 -1.9416 -2.2620
 1487SOL    HW216095   1.654   0.507   6.150  0.2491 -1.3604 -0.9324
 1488SOL     OW16096   2.791   2.102  14.592 -0.7537  0.1945 -0.4746
 1488SOL    HW116097   2.727   2.164  14.629  0.2668  0.4955  0.7608
 1488SOL    HW216098   2.832   2.081  14.676 -1.1075 -0.4127 -0.4566
 1489SOL     OW16099   2.788   1.997   3.836  0.3210 -1.2403  0.0247
 1489SOL    HW116100   2.725   2.015   3.766  2.7576  2.4305 -1.1704
 1489SOL    HW216101   2.863   2.048   3.806 -0.4690  0.2453  0.5785
 1490SOL     OW16102   2.595   3.116   7.523  0.1658  0.3522  0.8870
 1490SOL    HW116103   2.513   3.124   7.572  0.6263  2.2776  1.3657
 1490SOL    HW216104   2.569   3.143   7.434  4.0789 -0.9345 -0.6446
 1491SOL     OW16105   0.371   2.575   4.091 -0.6079 -0.1262 -0.1202
 1491SOL    HW116106   0.299   2.612   4.142 -1.2555 -0.2412 -0.9479
 1491SOL    HW216107   0.441   2.590   4.155 -1.6364 -0.8898  1.1967
 1492SOL     OW16108   2.837   0.469   6.631  0.5783 -0.0802  0.0707
 1492SOL    HW116109   2.796   0.484   6.716  1.1620 -1.8515  0.6729
 1492SOL    HW216110   2.885   0.390   6.659  0.1155  0.9686  3.8751
 1493SOL     OW16111   3.058   0.758   1.385  0.3769 -0.5393  0.1689
 1493SOL    HW116112   3.048   0.668   1.353  0.6279  0.2938 -2.2474
 1493SOL    HW216113   3.057   0.805   1.302  1.2928  0.5525  0.7905
 1494SOL     OW16114   1.941   1.880   7.643  0.5601  0.3531 -0.9583
 1494SOL    HW116115   1.873   1.872   7.711  1.6824  1.3959  0.2804
 1494SOL    HW216116   2.012   1.835   7.689  0.2794 -1.2141 -2.0689
 1495SOL     OW16117   3.445   3.187   5.093  0.7920 -0.4781 -0.1688
 1495SOL    HW116118   3.488   3.150   5.016 -0.8269 -1.1935 -0.7273
 1495SOL    HW216119   3.369   3.129   5.100 -0.6381  1.3196 -0.9605
 1496SOL     OW16120   3.368   3.007  17.538 -0.1266  0.1389  0.4458
 1496SOL    HW116121   3.442   2.995  17.598 -0.8547 -1.2197  1.0860
 1496SOL    HW216122   3.303   2.965  17.595  0.4335 -1.4674 -0.0841
 1497SOL     OW16123   0.886   3.888   3.813  0.2919  0.3462 -0.0838
 1497SOL    HW116124   0.834   3.942   3.872 -1.5350  0.6567 -1.9810
 1497SOL    HW216125   0.952   3.861   3.877 -0.4132  3.4540  1.9688
 1498SOL     OW16126   0.682   1.523   3.597 -0.3416  0.0261  0.2892
 1498SOL    HW116127   0.766   1.480   3.613  0.1827  0.8554 -0.1833
 1498SOL    HW216128   0.706   1.580   3.523 -0.0205 -0.0332  0.3464
 1499SOL     OW16129   3.068   4.069  10.475  0.2476 -0.1858 -0.3710
 1499SOL    HW116130   3.070   4.074  10.570 -0.6606  0.8116 -0.4056
 1499SOL    HW216131   3.127   4.141  10.450  1.6313 -0.8015  1.1012
 1500SOL     OW16132   3.096   4.111  13.003  0.3662  0.0684 -0.8835
 1500SOL    HW116133   3.014   4.157  12.983  0.1465 -0.2416 -0.6938
 1500SOL    HW216134   3.154   4.158  12.943  0.5243  0.1500 -0.6646
 1501SOL     OW16135   0.638   1.950   8.522  0.6253 -0.4916 -0.2882
 1501SOL    HW116136   0.687   1.933   8.441 -2.1097  0.3124 -2.1110
 1501SOL    HW216137   0.580   1.874   8.518  1.9166 -1.4403 -1.4679
 1502SOL     OW16138   4.534   0.213   5.067 -0.2074 -0.2702  0.2168
 1502SOL    HW116139   4.455   0.267   5.078 -0.4124 -0.7029  0.8800
 1502SOL    HW216140   4.527   0.203   4.972  0.1320 -1.1959  0.2903
 1503SOL     OW16141   4.554   0.290   6.173  0.2366 -0.4179 -0.1811
 1503SOL    HW116142   4.458   0.292   6.167  0.0900 -0.2520  1.9249
 1503SOL    HW216143   4.579   0.320   6.086  3.2993  0.9925  1.2087
 1504SOL     OW16144   2.173   4.075   3.138 -0.5722  0.2927  0.0232
 1504SOL    HW116145   2.205   3.998   3.091 -0.3424 -0.2108  1.0145
 1504SOL    HW216146   2.088   4.081   3.096  0.7744 -1.2883 -2.9550
 1505SOL     OW16147   1.664   4.269  11.842  0.1929  0.0880 -0.0107
 1505SOL    HW116148   1.648   4.330  11.914  0.4171  0.4291 -0.2484
 1505SOL    HW216149   1.744   4.305  11.805 -0.0502  1.7233  1.0309
 1506SOL     OW16150   3.219   4.688   2.432  0.3573 -0.6133 -0.0106
 1506SOL    HW116151   3.307   4.676   2.468 -0.2143  1.1247  1.9360
 1506SOL    HW216152   3.177   0.003   2.503  0.9847  0.0328 -0.0875
 1507SOL     OW16153   0.392   0.450   8.316  0.2967  0.1511 -0.4707
 1507SOL    HW116154   0.421   0.530   8.272  2.1308 -1.4105 -2.1022
 1507SOL    HW216155   0.325   0.495   8.368 -0.2944 -0.9269 -0.2967
 1508SOL     OW16156   3.473   0.213   5.387 -0.0031  0.2478  0.4456
 1508SOL    HW116157   3.474   0.182   5.297  3.0149 -1.9148  1.2259
 1508SOL    HW216158   3.481   0.306   5.366  1.3769  0.0077 -0.1180
 1509SOL     OW16159   1.634   2.501   4.163  0.1991 -0.0222 -1.1202
 1509SOL    HW116160   1.635   2.406   4.147 -2.2971 -0.5301  1.8679
 1509SOL    HW216161   1.636   2.523   4.070  0.4003 -1.9274 -1.5794
 1510SOL     OW16162   3.438   2.862  11.278  0.0229 -0.1479 -0.2167
 1510SOL    HW116163   3.515   2.860  11.221  0.4182  0.1327  0.3098
 1510SOL    HW216164   3.392   2.784  11.248  0.3671 -0.1984 -0.6284
 1511SOL     OW16165   4.203   4.527   7.271 -0.2431 -0.1729 -0.1565
 1511SOL    HW116166   4.297   4.509   7.280 -0.4456 -1.9486 -1.5836
 1511SOL    HW216167   4.198   4.619   7.297 -2.3780 -1.1130  2.7688
 1512SOL     OW16168   2.629   3.292   3.296  0.1859 -0.3371 -0.0101
 1512SOL    HW116169   2.624   3.380   3.333  0.9667 -0.1296 -0.3799
 1512SOL    HW216170   2.625   3.243   3.377  1.0642 -0.4388 -0.0213
 1513SOL     OW16171   1.181   0.183   2.951 -0.2382  1.0018 -0.1234
 1513SOL    HW116172   1.140   0.149   2.872 -0.2206  0.1084  0.2502
 1513SOL    HW216173   1.155   0.118   3.017  0.3110  1.1277  0.2218
 1514SOL     OW16174   1.378   4.082   7.166  0.0758  0.7057  0.3195
 1514SOL    HW116175   1.417   4.117   7.246 -0.3300 -1.6571  1.5526
 1514SOL    HW216176   1.302   4.050   7.214 -0.1769  2.4151  1.0493
 1515SOL     OW16177   1.417   1.413   8.725  0.1996  0.2792  0.2811
 1515SOL    HW116178   1.347   1.392   8.663  1.0492  0.4655 -0.7484
 1515SOL    HW216179   1.491   1.362   8.690 -0.7673 -1.3789  0.6353
 1516SOL     OW16180   2.943   3.461   3.366  0.0655 -0.3574 -0.1078
 1516SOL    HW116181   3.016   3.506   3.324  1.2511 -1.6385  0.6074
 1516SOL    HW216182   2.872   3.525   3.371 -0.2406 -0.8249  1.5741
 1517SOL     OW16183   0.681   2.336  14.191  0.2065  0.0094  0.0953
 1517SOL    HW116184   0.640   2.329  14.105 -0.1137  1.3571  0.1357
 1517SOL    HW216185   0.668   2.430  14.201 -0.1180 -0.2907  2.3311
 1518SOL     OW16186   0.883   1.301   3.562  0.0047  0.2556  0.1918
 1518SOL    HW116187   0.818   1.253   3.510 -0.4148  1.6798 -0.5901
 1518SOL    HW216188   0.918   1.228   3.613 -0.5027 -0.7172 -0.8566
 1519SOL     OW16189   1.469   3.704  10.336 -0.1368 -0.3552  0.2726
 1519SOL    HW116190   1.375   3.686  10.328 -0.1573 -0.3122  0.4066
 1519SOL    HW216191   1.465   3.767  10.408  2.5181  0.2073 -0.0603
 1520SOL     OW16192   4.612   1.333   8.036 -0.7063 -0.0136  0.0856
 1520SOL    HW116193   4.692   1.381   8.057 -0.2523  0.2191 -2.1411
 1520SOL    HW216194   4.567   1.396   7.980  1.5213  1.4270 -0.0939
 1521SOL     OW16195   2.655   2.415   0.992 -0.2991  0.1810  0.1976
 1521SOL    HW116196   2.720   2.345   0.999 -1.1901 -0.7449 -1.0158
 1521SOL    HW216197   2.670   2.472   1.068 -0.0377 -0.6349  0.7624
 1522SOL     OW16198   3.113   2.623   0.814  0.0981  0.0882 -0.2299
 1522SOL    HW116199   3.073   2.685   0.874  0.1662 -1.0932  1.0353
 1522SOL    HW216200   3.148   2.562   0.879  1.4054  3.0117  1.8165
 1523SOL     OW16201   1.896   2.956   1.618 -0.4226  0.0798 -0.3027
 1523SOL    HW116202   1.805   2.979   1.634 -0.0244  1.2107  0.3341
 1523SOL    HW216203   1.891   2.867   1.583  1.0048 -0.2474  0.2950
 1524SOL     OW16204   0.613   3.076  16.423  0.5952 -0.2952 -0.2215
 1524SOL    HW116205   0.529   3.110  16.454  0.2092  1.3617 -3.1276
 1524SOL    HW216206   0.665   3.114  16.494  1.2763  0.9698 -1.4068
 1525SOL     OW16207   2.522   3.131  17.626  0.1273 -0.0064  0.2401
 1525SOL    HW116208   2.589   3.063  17.631 -0.6747 -0.7798  0.3928
 1525SOL    HW216209   2.568   3.203  17.581 -2.9634  0.8736 -1.5249
 1526SOL     OW16210   3.425   3.890   8.030  0.0364 -0.4215  0.5638
 1526SOL    HW116211   3.424   3.898   7.934 -1.3755  1.1513  0.7170
 1526SOL    HW216212   3.506   3.839   8.035  0.0422 -0.2907  1.7361
 1527SOL     OW16213   3.457   0.281   5.726 -0.0270  0.3999 -0.2971
 1527SOL    HW116214   3.477   0.373   5.743 -0.6540  0.4341  0.2792
 1527SOL    HW216215   3.416   0.257   5.809  1.4299  2.2548  0.9487
 1528SOL     OW16216   4.614   1.615   6.878 -0.0926  0.2360  0.2406
 1528SOL    HW116217   4.581   1.570   6.800 -0.0350  0.3350  0.1594
 1528SOL    HW216218   4.708   1.605   6.866  0.2180  1.4054  1.7630
 1529SOL     OW16219   2.551   0.787   4.128  0.1320 -0.5418 -0.1210
 1529SOL    HW116220   2.581   0.875   4.107  1.5734 -1.3050 -1.2474
 1529SOL    HW216221   2.458   0.792   4.150 -0.0341  0.6468 -1.0894
 1530SOL     OW16222   2.770   2.507   3.552  0.4157 -0.2197  0.2167
 1530SOL    HW116223   2.763   2.450   3.629  0.9625 -0.3152  0.1957
 1530SOL    HW216224   2.837   2.568   3.581 -0.4681  0.8866 -0.0851
 1531SOL     OW16225   2.711   1.637   6.976 -0.0697 -0.2158 -0.6174
 1531SOL    HW116226   2.792   1.689   6.980 -0.7934  0.9032 -0.2292
 1531SOL    HW216227   2.697   1.644   7.071  1.2955 -0.9807 -0.3609
 1532SOL     OW16228   3.210   1.556   3.875 -0.1144 -0.3508  0.6123
 1532SOL    HW116229   3.254   1.607   3.943 -0.7622  0.6616  0.2771
 1532SOL    HW216230   3.167   1.630   3.830  1.3468 -0.0456 -0.2736
 1533SOL     OW16231   3.662   1.091   7.878  0.3338 -0.1231 -0.4565
 1533SOL    HW116232   3.625   1.125   7.960  0.1417 -1.7284  0.1235
 1533SOL    HW216233   3.608   1.133   7.811 -2.8491 -1.4528  1.2454
 1534SOL     OW16234   3.309   2.167   1.197  0.3974  0.6482 -0.1136
 1534SOL    HW116235   3.373   2.235   1.218 -1.4591  1.5627  2.5740
 1534SOL    HW216236   3.342   2.088   1.239  0.5688  1.9541  2.2692
 1535SOL     OW16237   3.633   2.619   5.434 -0.0946  0.3025 -0.8586
 1535SOL    HW116238   3.587   2.689   5.481 -0.8616  2.0452 -4.1730
 1535SOL    HW216239   3.708   2.600   5.490 -1.3319 -0.0719  0.6818
 1536SOL     OW16240   2.684   0.612   5.806  0.3708  0.3314  0.0132
 1536SOL    HW116241   2.759   0.587   5.751  0.2921  1.3477 -0.5568
 1536SOL    HW216242   2.622   0.641   5.739  0.0028 -0.8895 -0.1676
 1537SOL     OW16243   0.673   3.880  10.885 -0.4370 -0.5941 -0.4167
 1537SOL    HW116244   0.655   3.954  10.826 -0.1236  1.4704  2.0922
 1537SOL    HW216245   0.691   3.806  10.826 -1.7052 -1.9484  0.9113
 1538SOL     OW16246   2.596   0.693   5.280  0.2775  0.4099  0.2724
 1538SOL    HW116247   2.603   0.692   5.184  1.9825 -0.3035  0.4065
 1538SOL    HW216248   2.537   0.619   5.293 -0.0104  0.6934  0.5747
 1539SOL     OW16249   1.943   2.216   5.470  0.5037  0.0768  0.4126
 1539SOL    HW116250   2.038   2.210   5.475  0.3196 -1.3505  2.0626
 1539SOL    HW216251   1.919   2.263   5.549  0.7428  1.5239 -0.3795
 1540SOL     OW16252   4.355   2.756  10.383  0.6647  0.2656  0.1564
 1540SOL    HW116253   4.411   2.819  10.429 -0.7347  0.4911  1.5497
 1540SOL    HW216254   4.289   2.822  10.363 -2.0591 -1.8161  2.2576
 1541SOL     OW16255   2.720   1.377  11.017 -0.0153 -0.4027 -0.0049
 1541SOL    HW116256   2.666   1.456  11.019 -2.2307 -1.9911  1.1521
 1541SOL    HW216257   2.791   1.413  11.070 -0.1920 -1.5754  1.0114
 1542SOL     OW16258   4.030   3.033   1.987 -0.0958 -0.4418 -0.0503
 1542SOL    HW116259   3.959   3.019   2.050 -0.7582 -0.8278 -0.8647
 1542SOL    HW216260   4.101   2.989   2.033  0.7240  1.0084  0.0306
 1543SOL     OW16261   0.994   2.145   9.749 -0.3629 -0.1233  0.2253
 1543SOL    HW116262   0.980   2.050   9.747  1.5663 -0.4186  0.3208
 1543SOL    HW216263   1.037   2.149   9.663 -0.4382  0.4979  0.2165
 1544SOL     OW16264   4.399   0.867   6.488 -0.3687 -0.4743 -0.1900
 1544SOL    HW116265   4.317   0.861   6.440 -0.1080  1.5565 -0.8913
 1544SOL    HW216266   4.385   0.778   6.521 -2.0698 -0.9640 -2.2143
 1545SOL     OW16267   4.109   1.171  14.413 -0.0669  0.6490 -0.0110
 1545SOL    HW116268   4.026   1.207  14.443 -0.9522 -1.4473  0.0337
 1545SOL    HW216269   4.114   1.106  14.483 -0.0274  0.6275 -0.0337
 1546SOL     OW16270   0.121   0.636   3.709  0.1331  0.7840 -0.7169
 1546SOL    HW116271   0.136   0.728   3.732  0.8018  0.3885  0.3925
 1546SOL    HW216272   0.194   0.620   3.650 -0.4720 -1.6979 -0.7881
 1547SOL     OW16273   4.635   3.892   5.856  0.1421  0.2523  0.0951
 1547SOL    HW116274   4.714   3.850   5.820 -1.8093 -2.7518 -0.6674
 1547SOL    HW216275   4.583   3.879   5.777  1.1694 -0.8514 -0.4085
 1548SOL     OW16276   3.213   3.427   8.723 -0.5176 -0.4507  0.1344
 1548SOL    HW116277   3.253   3.452   8.807  0.7439 -1.7702 -0.0674
 1548SOL    HW216278   3.239   3.502   8.670  0.9430  0.9978  2.9174
 1549SOL     OW16279   4.029   0.812   6.970  0.0344 -0.2752 -0.3844
 1549SOL    HW116280   4.054   0.776   7.056 -1.9227  0.5076  0.5102
 1549SOL    HW216281   4.094   0.770   6.913 -0.9104 -1.8707 -0.2736
 1550SOL     OW16282   3.491   0.425  12.309 -0.0730  0.0215 -0.2942
 1550SOL    HW116283   3.447   0.354  12.356  1.9726 -1.7097 -1.0468
 1550SOL    HW216284   3.427   0.497  12.319  1.8516  1.8062 -0.8609
 1551SOL     OW16285   4.660   4.037   3.154  0.3361  0.5736 -0.0447
 1551SOL    HW116286   4.614   4.016   3.235 -1.0150  4.0904  0.1152
 1551SOL    HW216287   0.006   4.063   3.200 -0.2037  3.2687 -0.6114
 1552SOL     OW16288   3.252   0.396   4.031 -0.3007  0.0934  0.0471
 1552SOL    HW116289   3.285   0.346   4.106 -2.4497 -2.0913 -0.4493
 1552SOL    HW216290   3.277   0.350   3.951 -1.6231  0.2997 -0.4753
 1553SOL     OW16291   1.047   4.266   9.044 -0.3565  0.4176  0.0972
 1553SOL    HW116292   1.024   4.175   9.023  1.4666 -0.0880  0.2871
 1553SOL    HW216293   1.130   4.237   9.082  0.2537  0.5620 -1.1068
 1554SOL     OW16294   2.532   0.965   2.909  0.3735  0.8385  0.0716
 1554SOL    HW116295   2.520   1.056   2.883 -0.0814  0.3586 -1.4365
 1554SOL    HW216296   2.552   0.919   2.827 -2.3119  0.8294 -0.5845
 1555SOL     OW16297   1.107   1.254  17.549  0.0917 -0.3068  0.0693
 1555SOL    HW116298   1.200   1.265  17.568  0.6690 -0.2698 -2.7580
 1555SOL    HW216299   1.101   1.327  17.487  3.5533  2.5492  3.0762
 1556SOL     OW16300   0.755   0.606   1.054  0.0148  0.0282 -0.1081
 1556SOL    HW116301   0.753   0.697   1.083 -1.8699  0.3913 -1.3683
 1556SOL    HW216302   0.663   0.597   1.027 -0.2357 -0.7270  0.9954
 1557SOL     OW16303   1.492   1.584  12.592 -0.0818  0.0221 -0.0875
 1557SOL    HW116304   1.530   1.546  12.671 -0.6977 -2.1707 -0.8498
 1557SOL    HW216305   1.522   1.522  12.525 -2.6996 -1.9205  0.5360
 1558SOL     OW16306   1.300   0.585   3.956  0.0323 -0.3236 -0.4733
 1558SOL    HW116307   1.232   0.646   3.987  0.5616  0.1714 -0.2898
 1558SOL    HW216308   1.274   0.500   3.993 -1.7567 -0.0414 -1.0831
 1559SOL     OW16309   1.581   1.784  10.200 -0.2290 -0.1075 -0.6015
 1559SOL    HW116310   1.624   1.855  10.151 -1.0863  1.7501  1.3492
 1559SOL    HW216311   1.507   1.761  10.144 -1.0477 -0.0196  0.4687
 1560SOL     OW16312   2.141   3.226   2.522  0.1065  0.2216 -0.0770
 1560SOL    HW116313   2.210   3.200   2.584  0.1649 -0.7243 -0.5509
 1560SOL    HW216314   2.068   3.251   2.579  1.7520  1.5566  1.4776
 1561SOL     OW16315   4.312   1.263   4.263 -0.3350 -0.3974  0.7315
 1561SOL    HW116316   4.266   1.189   4.302  3.1832 -1.1632  3.4549
 1561SOL    HW216317   4.351   1.216   4.190  1.5748  3.2227 -0.5867
 1562SOL     OW16318   1.065   1.413   7.081  0.0854 -0.1866 -0.2500
 1562SOL    HW116319   1.082   1.322   7.104 -2.4897 -0.3812  0.9332
 1562SOL    HW216320   1.066   1.455   7.167 -2.0899 -1.2351  0.2892
 1563SOL     OW16321   0.317   4.720  17.228 -0.2790 -0.4028 -0.0996
 1563SOL    HW116322   0.409   0.011  17.239 -0.4539  0.6903 -1.1925
 1563SOL    HW216323   0.297   0.025  17.143 -3.2847 -3.2955 -0.7088
 1564SOL     OW16324   2.789   1.945  11.185 -0.1176 -0.6335 -0.2360
 1564SOL    HW116325   2.721   1.931  11.119  0.5304  2.3825 -1.5177
 1564SOL    HW216326   2.785   2.040  11.183 -0.4510 -0.7518 -3.9181
 1565SOL     OW16327   1.899   0.973   3.116  0.3609  0.9392 -0.0354
 1565SOL    HW116328   1.899   0.971   3.211 -0.8887  1.8107 -0.0153
 1565SOL    HW216329   1.948   1.053   3.098  0.8141  0.4537 -0.9557
 1566SOL     OW16330   1.018   1.534   3.580  0.1514 -0.0855  0.6757
 1566SOL    HW116331   0.965   1.584   3.518 -1.0282 -0.5558  1.3184
 1566SOL    HW216332   0.973   1.451   3.568 -0.0203  0.0657  0.2619
 1567SOL     OW16333   2.821   1.773   1.331  0.4650 -0.3979 -0.1168
 1567SOL    HW116334   2.887   1.707   1.309 -1.6575 -3.1000  1.5761
 1567SOL    HW216335   2.868   1.856   1.331  0.0853 -0.1840 -1.4655
 1568SOL     OW16336   0.377   1.281   3.200  0.2180 -0.1644  0.8841
 1568SOL    HW116337   0.411   1.221   3.266 -2.3192 -3.1909 -0.5713
 1568SOL    HW216338   0.451   1.285   3.140  0.8461 -1.3595  1.5916
 1569SOL     OW16339   4.602   4.319  13.481 -0.2307  0.2212  0.3594
 1569SOL    HW116340   4.529   4.377  13.458 -0.4339 -0.8897 -1.7655
 1569SOL    HW216341   4.569   4.285  13.564  1.5362  0.2901  1.0909
 1570SOL     OW16342   3.256   4.080  17.293  0.3456 -0.0002 -0.0167
 1570SOL    HW116343   3.325   4.047  17.351  1.7983  3.5754  0.3120
 1570SOL    HW216344   3.187   4.099  17.357  0.2125  2.9291 -1.0261
 1571SOL     OW16345   3.271   4.058  11.594 -0.5359  0.0662 -0.0904
 1571SOL    HW116346   3.181   4.089  11.602 -0.8609 -0.9781  0.3069
 1571SOL    HW216347   3.305   4.044  11.682 -0.1848 -2.5939 -0.6309
 1572SOL     OW16348   1.216   3.638   5.671  0.7697  0.1941  0.5354
 1572SOL    HW116349   1.176   3.708   5.620  0.6234 -0.0832  0.2697
 1572SOL    HW216350   1.304   3.627   5.635  0.8506  0.0336  0.7819
 1573SOL     OW16351   4.045   2.119  17.196 -0.1949 -0.8577  0.3615
 1573SOL    HW116352   4.138   2.113  17.176 -0.3949  0.7813 -1.0452
 1573SOL    HW216353   4.032   2.213  17.202  0.5279 -0.6547 -1.4473
 1574SOL     OW16354   1.927   0.369   7.354 -0.1741  0.0646 -0.6270
 1574SOL    HW116355   1.985   0.335   7.422  2.7724 -2.0033 -4.1988
 1574SOL    HW216356   1.925   0.462   7.374  1.4656  0.1161 -0.6988
 1575SOL     OW16357   1.014   2.780   8.614  0.3628  0.3244  0.4959
 1575SOL    HW116358   1.062   2.818   8.688  2.2548  0.5745 -0.8742
 1575SOL    HW216359   1.016   2.854   8.554  0.9343  0.2294  0.3976
 1576SOL     OW16360   1.344   4.574   5.065 -0.4390 -0.7220 -0.3524
 1576SOL    HW116361   1.412   4.540   5.124 -1.2757  1.1556  1.6652
 1576SOL    HW216362   1.379   4.583   4.976  3.2957 -0.6062  1.0885
 1577SOL     OW16363   4.365   4.635   5.319 -0.3470  0.5302  0.0155
 1577SOL    HW116364   4.431   4.698   5.349  0.6553 -0.8977  0.7804
 1577SOL    HW216365   4.430   4.571   5.289 -0.5734  0.6240 -0.6874
 1578SOL     OW16366   4.075   2.311  10.129  0.1786 -0.2716 -0.7085
 1578SOL    HW116367   4.081   2.224  10.089  1.4296 -0.5101  0.0064
 1578SOL    HW216368   3.990   2.307  10.171  0.7997 -2.7791  0.3165
 1579SOL     OW16369   0.455   3.180  13.471  0.4424  0.2275  0.4949
 1579SOL    HW116370   0.384   3.125  13.439 -1.4604  1.3283  2.7927
 1579SOL    HW216371   0.470   3.233  13.393  1.6937 -0.6525  0.1612
 1580SOL     OW16372   2.445   1.340   2.456  0.1645  0.0203 -0.1668
 1580SOL    HW116373   2.352   1.361   2.447 -0.5342 -2.8022  0.5088
 1580SOL    HW216374   2.481   1.428   2.456 -3.3383  1.4802  1.5881
 1581SOL     OW16375   1.353   2.772   2.918 -0.1001 -0.1787  0.5107
 1581SOL    HW116376   1.348   2.774   3.014  0.4527  1.5800  0.5067
 1581SOL    HW216377   1.389   2.689   2.890 -1.6363  0.1603 -2.4442
 1582SOL     OW16378   2.451   0.897  13.588  0.4664 -0.0983 -0.6393
 1582SOL    HW116379   2.389   0.905  13.660 -0.1778 -0.4177 -1.1576
 1582SOL    HW216380   2.412   0.952  13.520 -0.6720 -0.5350 -0.3331
 1583SOL     OW16381   3.142   3.863  11.327 -0.3352  0.5521  0.3743
 1583SOL    HW116382   3.221   3.847  11.379  0.9394  2.5990 -0.9003
 1583SOL    HW216383   3.109   3.774  11.314 -2.6739  1.3629  0.8117
 1584SOL     OW16384   3.246   0.570   6.005  0.2206  0.1982 -0.4456
 1584SOL    HW116385   3.174   0.509   6.027 -0.5840  1.8631  1.5138
 1584SOL    HW216386   3.293   0.514   5.943 -0.4069 -0.7180 -0.1143
 1585SOL     OW16387   3.153   1.177  12.174 -0.2550 -0.0799 -1.0346
 1585SOL    HW116388   3.098   1.171  12.252  0.2930 -0.5604 -0.6802
 1585SOL    HW216389   3.124   1.103  12.121  0.7104 -0.6446 -0.7870
 1586SOL     OW16390   4.186   1.609   6.497  0.3679 -0.2034  0.3539
 1586SOL    HW116391   4.276   1.602   6.465 -0.0949 -3.3413 -0.3028
 1586SOL    HW216392   4.158   1.533   6.446  1.1238  0.1950 -0.6561
 1587SOL     OW16393   4.698   3.264   5.360 -0.1972  0.5772  0.3219
 1587SOL    HW116394   0.004   3.286   5.444  0.8243  0.5749 -0.1523
 1587SOL    HW216395   0.018   3.187   5.340 -0.4493  0.3569  0.4865
 1588SOL     OW16396   2.278   4.680   5.653 -0.1839 -0.0047  0.1923
 1588SOL    HW116397   2.197   4.630   5.641 -0.5734  1.2444 -2.3508
 1588SOL    HW216398   2.290   0.001   5.576 -2.5564  0.2157 -0.0394
 1589SOL     OW16399   2.584   0.654  15.159 -0.6735  0.1805  0.6190
 1589SOL    HW116400   2.618   0.671  15.071 -2.7908 -0.6520 -0.3726
 1589SOL    HW216401   2.666   0.643  15.207 -0.5971 -0.8164  0.2593
 1590SOL     OW16402   0.612   4.685   0.865 -0.4867  0.3699 -0.1693
 1590SOL    HW116403   0.520   4.704   0.848 -0.2501  0.4989 -1.3254
 1590SOL    HW216404   0.609   4.654   0.956 -1.4534  1.5523  0.2029
 1591SOL     OW16405   4.132   1.313  15.168 -0.0576  0.5927 -0.1973
 1591SOL    HW116406   4.054   1.286  15.216 -2.5612  2.0845 -3.4070
 1591SOL    HW216407   4.155   1.237  15.114  0.1036 -0.2447  1.0721
 1592SOL     OW16408   1.436   4.257   8.496 -0.1516 -0.1929 -0.2050
 1592SOL    HW116409   1.346   4.226   8.507 -0.8648  0.2783 -4.6928
 1592SOL    HW216410   1.495   4.182   8.492 -0.3018 -0.3653  0.9510
 1593SOL     OW16411   0.684   3.437   8.525  0.1252  0.0544 -0.3426
 1593SOL    HW116412   0.627   3.507   8.557 -1.6706 -0.7121 -1.8987
 1593SOL    HW216413   0.673   3.371   8.594 -2.2607  1.0142  0.2027
 1594SOL     OW16414   0.271   2.610   6.226 -0.9082 -0.0483 -0.1131
 1594SOL    HW116415   0.178   2.586   6.221 -0.5043 -1.7851  0.9099
 1594SOL    HW216416   0.288   2.688   6.172 -3.4101  0.4482 -0.2066
 1595SOL     OW16417   0.301   2.467  17.098  0.0057  0.0350 -0.1576
 1595SOL    HW116418   0.327   2.546  17.051  1.0191 -0.8702 -1.1038
 1595SOL    HW216419   0.208   2.454  17.079 -0.5552 -0.1342  2.6381
 1596SOL     OW16420   3.429   0.414   7.438  0.2432  0.0128  0.3022
 1596SOL    HW116421   3.417   0.320   7.423 -1.7164  0.3854 -0.4693
 1596SOL    HW216422   3.340   0.442   7.460  0.3850  1.9928 -1.6535
 1597SOL     OW16423   1.724   3.138   6.951 -0.1634 -0.1396 -0.0704
 1597SOL    HW116424   1.767   3.194   7.016  0.7326 -2.1617  1.0509
 1597SOL    HW216425   1.636   3.171   6.969  0.8823  1.7458  1.6036
 1598SOL     OW16426   2.492   1.886  11.068 -0.0039 -0.4871  0.1866
 1598SOL    HW116427   2.493   1.968  11.119  0.2398 -0.1338 -0.3817
 1598SOL    HW216428   2.427   1.908  11.002  0.3645 -1.3651 -0.4551
 1599SOL     OW16429   2.486   1.889  10.540  0.7462  0.0427 -0.1712
 1599SOL    HW116430   2.576   1.915  10.519  0.6336 -0.8975 -1.7734
 1599SOL    HW216431   2.447   1.940  10.469 -0.3667 -1.2428 -0.4740
 1600SOL     OW16432   0.847   3.444   4.690 -0.6918  0.3469 -0.0540
 1600SOL    HW116433   0.778   3.479   4.633  0.1891  4.2468  1.2497
 1600SOL    HW216434   0.926   3.456   4.637 -0.1609 -0.7853  0.4825
 1601SOL     OW16435   2.654   1.626   4.719  0.0595  0.1391  0.1974
 1601SOL    HW116436   2.625   1.558   4.659  1.2389  0.4748 -0.7539
 1601SOL    HW216437   2.607   1.703   4.690 -3.4653 -2.0082  0.2803
 1602SOL     OW16438   1.879   4.409  12.354 -0.7016  0.6559  0.1751
 1602SOL    HW116439   1.929   4.488  12.375  1.5066 -0.2702 -1.5105
 1602SOL    HW216440   1.787   4.424  12.372 -0.8076  0.4495 -0.1895
 1603SOL     OW16441   1.859   3.506   5.824  0.1403  0.4381 -0.2156
 1603SOL    HW116442   1.823   3.511   5.735 -0.1518 -0.6627 -0.1578
 1603SOL    HW216443   1.806   3.437   5.863  3.4896 -1.9672  0.1037
 1604SOL     OW16444   0.804   3.183   8.132 -0.2329 -0.0928 -0.0080
 1604SOL    HW116445   0.843   3.097   8.112 -1.6927 -1.1668  1.8033
 1604SOL    HW216446   0.732   3.160   8.190  0.5790  0.5263  1.2397
 1605SOL     OW16447   0.352   2.086   6.440 -0.0808 -0.0578 -0.0042
 1605SOL    HW116448   0.348   1.992   6.422 -0.8026 -0.2402  1.1407
 1605SOL    HW216449   0.414   2.113   6.372 -0.8766  3.0678  0.5149
 1606SOL     OW16450   4.480   1.899  15.357 -0.1243  0.0413  0.3592
 1606SOL    HW116451   4.392   1.861  15.353  0.6561 -2.1345  3.7673
 1606SOL    HW216452   4.464   1.974  15.414 -0.3283 -0.0925  0.4770
 1607SOL     OW16453   3.762   4.563   2.976 -0.1774  0.1101 -0.5638
 1607SOL    HW116454   3.720   4.485   3.013  0.8822  0.3794  1.2046
 1607SOL    HW216455   3.846   4.561   3.022 -1.4662  1.6183  1.8591
 1608SOL     OW16456   2.690   2.876  11.695  0.1549 -0.7696 -0.1258
 1608SOL    HW116457   2.615   2.834  11.738  0.3689  0.0356  1.0262
 1608SOL    HW216458   2.724   2.915  11.774  2.8598  1.2203 -2.2917
 1609SOL     OW16459   1.470   3.554   5.138 -0.3017 -0.2186  0.5491
 1609SOL    HW116460   1.435   3.642   5.144 -0.0267 -0.0234 -0.5977
 1609SOL    HW216461   1.498   3.535   5.228 -3.1126 -0.8205  1.2868
 1610SOL     OW16462   2.799   0.668   2.958  0.2500 -0.2281 -0.8878
 1610SOL    HW116463   2.741   0.596   2.932 -0.3734  0.4760 -1.4772
 1610SOL    HW216464   2.807   0.709   2.872  0.2582 -0.6548 -1.0889
 1611SOL     OW16465   2.284   3.937  16.243 -0.3590 -0.2316 -0.0647
 1611SOL    HW116466   2.280   3.849  16.282 -0.3709 -1.3337 -2.5913
 1611SOL    HW216467   2.244   3.910  16.161  1.1426 -1.8372 -0.2820
 1612SOL     OW16468   2.442   3.456   3.995  0.0698  0.8659 -0.7662
 1612SOL    HW116469   2.464   3.415   3.911 -2.9645 -0.6741 -0.7911
 1612SOL    HW216470   2.347   3.455   3.997  0.1170 -2.4455  0.8427
 1613SOL     OW16471   2.422   0.963   2.293 -0.1760 -0.0381  0.1712
 1613SOL    HW116472   2.509   0.954   2.332 -0.5999 -2.3303  0.5881
 1613SOL    HW216473   2.398   0.870   2.293 -0.5584  0.0597  1.2830
 1614SOL     OW16474   0.741   0.200  11.943  0.1601 -0.1792  0.2596
 1614SOL    HW116475   0.719   0.263  12.012  0.9786 -0.5986  0.9015
 1614SOL    HW216476   0.826   0.166  11.971  0.6599  2.3939  1.9278
 1615SOL     OW16477   1.817   0.570   6.252  0.2306 -0.2795 -0.4680
 1615SOL    HW116478   1.749   0.594   6.316  0.2030 -0.1469 -0.5471
 1615SOL    HW216479   1.873   0.522   6.313  0.0552  0.1011 -0.0102
 1616SOL     OW16480   2.023   3.158   5.987 -0.3608 -0.3216 -0.0437
 1616SOL    HW116481   1.928   3.161   5.969 -0.3654 -1.9318 -0.3172
 1616SOL    HW216482   2.027   3.136   6.079 -1.3989  2.8056  0.7741
 1617SOL     OW16483   2.504   3.581   2.038  0.1014 -0.6429 -0.8312
 1617SOL    HW116484   2.568   3.610   1.974  0.9821 -2.5759 -0.8277
 1617SOL    HW216485   2.465   3.507   1.992  1.8917 -1.8905 -0.3381
 1618SOL     OW16486   1.341   0.956   6.471  0.2148 -0.6242  0.6856
 1618SOL    HW116487   1.366   0.871   6.506  0.2377 -1.3810 -1.1556
 1618SOL    HW216488   1.407   1.019   6.500  1.7703 -3.0529  2.3917
 1619SOL     OW16489   0.188   2.774  13.384  0.2499  0.3317 -0.3562
 1619SOL    HW116490   0.180   2.720  13.306  2.2341  0.1107 -0.4084
 1619SOL    HW216491   0.258   2.721  13.423 -0.4150 -1.0434 -1.0330
 1620SOL     OW16492   3.934   4.334  16.487 -0.1234 -0.4950 -0.1587
 1620SOL    HW116493   3.933   4.332  16.391  2.1302 -2.6111 -0.1398
 1620SOL    HW216494   3.842   4.309  16.495 -0.3989  1.3647  2.6158
 1621SOL     OW16495   4.550   2.745  12.317  0.0537 -0.1081 -0.2015
 1621SOL    HW116496   4.473   2.768  12.370 -0.9257 -1.9552 -0.8403
 1621SOL    HW216497   4.623   2.749  12.379 -0.1747 -0.0550  0.0669
 1622SOL     OW16498   0.117   1.621   1.745  0.1667  0.0189  0.1698
 1622SOL    HW116499   0.131   1.559   1.816  1.5244  0.0523 -0.0791
 1622SOL    HW216500   0.050   1.674   1.788 -0.1803 -2.0553  2.1771
 1623SOL     OW16501   1.337   2.297   2.727 -0.0920  0.0256 -0.3191
 1623SOL    HW116502   1.407   2.357   2.752  0.3601  0.4695 -2.6663
 1623SOL    HW216503   1.269   2.362   2.709  1.6193  2.6575  2.7143
 1624SOL     OW16504   2.769   1.980   9.528 -0.2689  0.1231 -0.4232
 1624SOL    HW116505   2.688   2.020   9.560  0.3311  0.3412  0.8267
 1624SOL    HW216506   2.837   2.044   9.551  1.6017 -2.1834  0.4052
 1625SOL     OW16507   1.731   4.337   3.035  0.5370  0.2194 -0.4290
 1625SOL    HW116508   1.689   4.284   2.968  0.0899  0.2375 -0.1602
 1625SOL    HW216509   1.726   4.422   2.992 -1.0661  1.3190  1.9274
 1626SOL     OW16510   3.348   3.468   2.297 -0.1413 -0.3817  0.1247
 1626SOL    HW116511   3.400   3.521   2.237 -0.0083 -1.4048 -0.6663
 1626SOL    HW216512   3.288   3.535   2.329  0.9767  0.6928 -0.0402
 1627SOL     OW16513   2.150   1.345   4.925 -0.5349 -0.1797 -0.4649
 1627SOL    HW116514   2.093   1.403   4.976  0.5748  0.9791 -0.5235
 1627SOL    HW216515   2.175   1.282   4.993 -1.9858 -0.9698 -0.6831
 1628SOL     OW16516   1.945   2.192   1.630 -0.5139 -0.0317 -0.3930
 1628SOL    HW116517   1.870   2.135   1.615 -1.4907  1.4790 -1.1934
 1628SOL    HW216518   2.007   2.127   1.663 -1.0023 -0.0217  0.5442
 1629SOL     OW16519   4.529   3.075   2.056 -0.1449  0.1833 -0.7946
 1629SOL    HW116520   4.486   2.991   2.042 -0.1857 -0.0217  0.5335
 1629SOL    HW216521   4.564   3.087   1.968 -1.3979 -0.5628 -1.4004
 1630SOL     OW16522   2.145   4.338   7.956 -0.2860 -0.1828 -0.3680
 1630SOL    HW116523   2.138   4.257   8.007  0.5853 -0.1592 -0.1953
 1630SOL    HW216524   2.208   4.387   8.009 -1.2396 -1.7244  2.1735
 1631SOL     OW16525   4.563   4.645  17.008 -0.1065 -0.0091 -0.4025
 1631SOL    HW116526   4.639   4.591  16.986  0.1361 -0.0439  0.5398
 1631SOL    HW216527   4.553   4.606  17.095  2.0851 -1.2288 -0.6944
 1632SOL     OW16528   0.269   1.256   0.046 -0.3530  0.4824  0.5909
 1632SOL    HW116529   0.313   1.179   0.012 -0.4710  1.1046 -0.9754
 1632SOL    HW216530   0.222   1.215   0.119  0.1228 -1.6115 -0.2950
 1633SOL     OW16531   3.007   0.001  12.697  0.0860 -0.3225 -0.0087
 1633SOL    HW116532   2.918   0.003  12.732  0.1738  0.7807  0.1627
 1633SOL    HW216533   3.061   4.670  12.741  2.4749  2.8842  1.7821
 1634SOL     OW16534   2.187   0.753   7.819 -0.2250  0.1361  0.3568
 1634SOL    HW116535   2.189   0.813   7.893 -0.9394  2.8731 -1.8320
 1634SOL    HW216536   2.263   0.784   7.768 -1.2724 -0.8267 -1.8147
 1635SOL     OW16537   2.742   0.851   8.697  0.1280 -0.6742  0.3608
 1635SOL    HW116538   2.741   0.947   8.697  1.4334 -0.6610 -1.9129
 1635SOL    HW216539   2.746   0.827   8.605 -0.7682 -0.9911  0.4092
 1636SOL     OW16540   0.077   1.418  12.964 -0.2569 -0.0298  0.3830
 1636SOL    HW116541   0.000   1.437  12.910 -0.8627  1.0079  1.6078
 1636SOL    HW216542   0.132   1.493  12.943 -0.5689  0.0923  0.0017
 1637SOL     OW16543   4.348   0.459   5.360  0.7748 -0.1859  0.0817
 1637SOL    HW116544   4.392   0.391   5.410 -1.7612 -1.1284  1.0695
 1637SOL    HW216545   4.323   0.513   5.436  2.0293  2.6831 -1.5441
 1638SOL     OW16546   0.335   2.684  13.942  0.1360 -0.4492 -0.5258
 1638SOL    HW116547   0.278   2.610  13.925  0.5407 -1.2198  1.4911
 1638SOL    HW216548   0.384   2.649  14.016  0.5412 -1.9572 -1.5210
 1639SOL     OW16549   2.824   1.699  11.068  0.1789  0.4749 -0.3593
 1639SOL    HW116550   2.889   1.628  11.075 -0.3751 -0.1463 -1.5218
 1639SOL    HW216551   2.849   1.765  11.133  0.7234 -0.1629  0.0871
 1640SOL     OW16552   0.176   1.680   9.719 -0.0780  0.0191 -0.3943
 1640SOL    HW116553   0.130   1.746   9.771 -0.2636  1.5584 -2.4963
 1640SOL    HW216554   0.259   1.714   9.687  0.5610  0.6066  1.8833
 1641SOL     OW16555   2.776   1.475   1.551  0.4347 -0.0755 -0.0339
 1641SOL    HW116556   2.803   1.409   1.615 -3.4853  0.4982  2.1828
 1641SOL    HW216557   2.801   1.557   1.592  0.6666 -1.5280  2.7541
 1642SOL     OW16558   2.457   4.033   6.593  0.7284  0.5399  0.2423
 1642SOL    HW116559   2.374   3.990   6.618 -0.6267  3.0736  0.0920
 1642SOL    HW216560   2.448   4.016   6.499  2.9000 -1.3670  0.3773
 1643SOL     OW16561   0.154   2.236   6.334 -0.0966  0.3021  0.3085
 1643SOL    HW116562   0.195   2.247   6.248 -0.2233  1.4341  0.4017
 1643SOL    HW216563   0.220   2.178   6.373 -1.5524 -1.9848 -0.5961
 1644SOL     OW16564   2.726   3.091   7.068 -0.1621  0.2852 -0.0535
 1644SOL    HW116565   2.794   3.047   7.117 -0.8582 -0.2854  0.3980
 1644SOL    HW216566   2.757   3.072   6.979  1.2223  1.5000  0.1799
 1645SOL     OW16567   1.571   3.336  13.622  0.2584  0.0622 -0.1906
 1645SOL    HW116568   1.612   3.376  13.546  0.1343 -3.0380 -1.8992
 1645SOL    HW216569   1.642   3.341  13.687 -2.5997 -1.1716  3.0563
 1646SOL     OW16570   0.763   1.492   2.367 -0.2190 -0.0374 -0.0796
 1646SOL    HW116571   0.745   1.584   2.384  0.7181  0.2156 -0.4586
 1646SOL    HW216572   0.788   1.487   2.274 -3.9254  2.2802 -1.1827
 1647SOL     OW16573   2.100   4.000   2.120  0.1356 -0.6481  0.5623
 1647SOL    HW116574   2.170   3.936   2.110 -0.2979 -1.0261  0.0295
 1647SOL    HW216575   2.096   3.996   2.216 -1.4977  0.4762  0.5424
 1648SOL     OW16576   3.784   1.934   7.171  0.2256  0.4453 -0.1674
 1648SOL    HW116577   3.791   1.914   7.077 -2.3932  0.7669 -0.4339
 1648SOL    HW216578   3.820   2.022   7.173  0.6177  0.1800  4.7482
 1649SOL     OW16579   4.382   4.238   1.556 -0.0275 -0.3065  0.4132
 1649SOL    HW116580   4.438   4.174   1.514  1.0042  0.0493  1.2539
 1649SOL    HW216581   4.314   4.241   1.489  0.9106  1.8078 -0.4375
 1650SOL     OW16582   0.291   4.041   0.581  0.6745  0.1591  0.0777
 1650SOL    HW116583   0.317   4.005   0.666  0.6931  0.8606  0.3746
 1650SOL    HW216584   0.321   4.131   0.593  0.7471  0.3616 -1.5725
 1651SOL     OW16585   3.376   3.561   2.603  0.4511  0.0383 -0.5542
 1651SOL    HW116586   3.340   3.639   2.560  1.9734  1.2980  0.4652
 1651SOL    HW216587   3.457   3.593   2.642  0.4002  0.2704 -0.6410
 1652SOL     OW16588   1.009   1.948  17.139 -0.0926 -0.0911 -0.7437
 1652SOL    HW116589   0.990   1.855  17.153 -0.4474  0.1810  0.5551
 1652SOL    HW216590   0.935   1.975  17.193 -0.3780 -1.2205 -0.5627
 1653SOL     OW16591   2.345   0.108   8.298 -0.0618 -0.1639  0.0966
 1653SOL    HW116592   2.333   0.189   8.248  0.4662 -0.4753 -0.5360
 1653SOL    HW216593   2.440   0.095   8.292  0.0835  0.0932  1.9742
 1654SOL     OW16594   4.388   3.465   1.698 -0.6228  0.3748  0.0548
 1654SOL    HW116595   4.365   3.413   1.621  1.2145  0.2476 -0.4060
 1654SOL    HW216596   4.476   3.488   1.670 -0.2207  0.7560  1.6187
 1655SOL     OW16597   4.605   2.133   6.838 -0.6287  0.2399 -0.4081
 1655SOL    HW116598   4.555   2.062   6.797 -2.1395  1.1371 -0.1025
 1655SOL    HW216599   4.558   2.216   6.845 -2.2511 -0.7363  0.3463
 1656SOL     OW16600   4.561   3.396   9.849 -0.1646 -0.1819  0.2144
 1656SOL    HW116601   4.510   3.315   9.837  1.0892 -1.0759  0.9247
 1656SOL    HW216602   4.650   3.375   9.820 -0.7226 -1.3262 -0.6859
 1657SOL     OW16603   0.374   3.099   5.422  0.5497 -0.1219 -0.4744
 1657SOL    HW116604   0.455   3.098   5.373  0.4696 -2.2940 -0.5750
 1657SOL    HW216605   0.405   3.081   5.510  0.5872  0.8515 -0.2948
 1658SOL     OW16606   3.027   3.989   2.887  0.1071  0.2709 -0.0848
 1658SOL    HW116607   3.100   4.038   2.850  0.2626 -0.0443 -0.1965
 1658SOL    HW216608   2.976   4.057   2.932  0.4439 -0.6582  1.7116
 1659SOL     OW16609   1.612   2.054   3.898 -0.5672 -0.1367  0.3734
 1659SOL    HW116610   1.552   1.998   3.849 -0.7632 -0.0539  0.5183
 1659SOL    HW216611   1.664   1.988   3.945  0.4442 -0.1887 -0.8224
 1660SOL     OW16612   1.274   1.890   4.872 -0.2272 -0.0494  0.5251
 1660SOL    HW116613   1.208   1.938   4.822 -1.5424  0.5876  2.8537
 1660SOL    HW216614   1.337   1.860   4.806 -0.0753 -0.5231  0.8842
 1661SOL     OW16615   1.711   0.259   2.802  0.2249 -0.4625 -0.4433
 1661SOL    HW116616   1.729   0.177   2.756  2.8597  1.3221 -2.6229
 1661SOL    HW216617   1.630   0.289   2.762  0.2871  0.6792  0.2810
 1662SOL     OW16618   4.162   0.820   9.281 -0.0943  0.0048 -0.1393
 1662SOL    HW116619   4.212   0.796   9.203  0.5463  1.1774 -0.0952
 1662SOL    HW216620   4.208   0.899   9.309  0.0889 -0.2041  0.1455
 1663SOL     OW16621   1.488   1.506   4.217 -0.6209 -0.3848 -0.0678
 1663SOL    HW116622   1.572   1.505   4.170 -0.5550  1.6555 -0.0266
 1663SOL    HW216623   1.465   1.418   4.244  3.8895 -0.9037  2.1708
 1664SOL     OW16624   1.014   0.947   1.640  0.0121  0.3052  0.2068
 1664SOL    HW116625   1.018   0.870   1.583 -0.6934 -1.1059  2.0175
 1664SOL    HW216626   1.103   0.982   1.634 -0.3670  1.2260  0.1467
 1665SOL     OW16627   0.418   3.431   1.421 -0.2111 -0.0780 -0.2029
 1665SOL    HW116628   0.479   3.445   1.349 -1.1404 -0.1757 -1.0087
 1665SOL    HW216629   0.340   3.394   1.379 -1.4606  2.1565  0.1487
 1666SOL     OW16630   0.122   4.276   8.636 -0.1409 -0.0990 -0.0938
 1666SOL    HW116631   0.083   4.356   8.672  0.9005  0.4938 -0.2710
 1666SOL    HW216632   0.198   4.269   8.694 -0.2154 -1.5397 -0.1748
 1667SOL     OW16633   2.369   4.078   8.710  0.6541 -0.3108  0.1953
 1667SOL    HW116634   2.455   4.077   8.669  0.4198 -1.1196 -0.2894
 1667SOL    HW216635   2.391   4.066   8.802  1.1234  1.1062  0.2584
 1668SOL     OW16636   1.383   4.233   2.919  0.1698 -0.4009  0.5836
 1668SOL    HW116637   1.437   4.157   2.899  1.3686  1.5566 -3.5835
 1668SOL    HW216638   1.317   4.192   2.975 -1.1345 -0.0483 -0.6932
 1669SOL     OW16639   0.198   2.573  13.178 -0.3572 -0.0494 -0.1151
 1669SOL    HW116640   0.163   2.605  13.095  0.9777  1.4845 -0.0776
 1669SOL    HW216641   0.286   2.545  13.153 -0.3013  1.1566 -1.2304
 1670SOL     OW16642   2.467   2.953   1.992 -0.1540 -0.1821 -0.0917
 1670SOL    HW116643   2.500   2.873   2.033  1.3255 -0.4831 -1.9042
 1670SOL    HW216644   2.414   2.921   1.919 -1.9785 -1.6888  1.8662
 1671SOL     OW16645   0.937   4.343   7.864  0.5377  0.2597  0.1376
 1671SOL    HW116646   0.993   4.390   7.802  0.3834  0.9521  0.5254
 1671SOL    HW216647   0.861   4.312   7.816  2.4079 -1.1447 -1.8930
 1672SOL     OW16648   4.149   3.027   4.778  0.6575 -0.0049  0.8631
 1672SOL    HW116649   4.161   3.105   4.833 -1.2695 -0.9351  2.6191
 1672SOL    HW216650   4.236   3.016   4.739  0.7991 -0.0100  1.1809
 1673SOL     OW16651   1.334   3.011   8.388 -0.0016  0.2460  0.1345
 1673SOL    HW116652   1.386   2.985   8.312 -0.5163  0.7166 -0.3803
 1673SOL    HW216653   1.301   2.926   8.418  0.6079  0.4230  1.3034
 1674SOL     OW16654   2.906   1.177   4.060  0.1279 -0.3307 -0.3617
 1674SOL    HW116655   2.936   1.264   4.037  0.1696 -0.1700  0.3022
 1674SOL    HW216656   2.931   1.133   3.978 -0.6848 -1.6385  0.0785
 1675SOL     OW16657   3.315   4.689  13.551 -0.0629  0.4512 -0.4238
 1675SOL    HW116658   3.221   4.673  13.555  0.0807 -0.0143  1.1770
 1675SOL    HW216659   3.302   0.048  13.573  0.3918  0.4024  0.0557
 1676SOL     OW16660   1.049   3.224  16.462 -0.0751  0.0262  0.9543
 1676SOL    HW116661   1.049   3.312  16.497  0.0137  0.1602  0.6157
 1676SOL    HW216662   1.078   3.175  16.539 -0.4562 -1.6732  0.0302
 1677SOL     OW16663   3.649   4.161  13.450  0.1386 -0.6453 -0.5065
 1677SOL    HW116664   3.677   4.243  13.410  2.7390 -1.2318  0.0905
 1677SOL    HW216665   3.608   4.113  13.379 -0.3558 -1.4073  0.2908
 1678SOL     OW16666   3.629   3.310   9.856 -0.0764  0.7984 -0.5860
 1678SOL    HW116667   3.708   3.301   9.803  0.2726  1.0452 -0.1109
 1678SOL    HW216668   3.651   3.251   9.928 -0.4493  0.3840 -0.8178
 1679SOL     OW16669   3.431   1.469  17.318  0.3697 -0.2306 -0.1683
 1679SOL    HW116670   3.494   1.520  17.268  0.1786 -1.3724 -1.5943
 1679SOL    HW216671   3.357   1.467  17.257 -0.2626  4.3387  0.4912
 1680SOL     OW16672   2.780   3.859   7.453 -0.0648 -0.2850  0.5889
 1680SOL    HW116673   2.826   3.864   7.370 -1.1842 -0.4437 -0.0348
 1680SOL    HW216674   2.786   3.764   7.469  2.6761 -0.0091  1.2009
 1681SOL     OW16675   2.871   2.327  11.065  0.0629  0.2917 -0.1755
 1681SOL    HW116676   2.865   2.250  11.008 -0.1973  0.9140 -0.9964
 1681SOL    HW216677   2.886   2.288  11.151 -1.0052 -2.2912 -1.1622
 1682SOL     OW16678   4.216   2.417   6.058  0.5217  0.5124 -0.7319
 1682SOL    HW116679   4.209   2.328   6.025  0.6946 -0.7519  2.6382
 1682SOL    HW216680   4.166   2.409   6.139  1.7242 -0.8072 -0.1186
 1683SOL     OW16681   0.263   4.509   3.159 -0.5840  0.6235 -0.6359
 1683SOL    HW116682   0.186   4.488   3.212 -1.2121  0.0376 -1.7726
 1683SOL    HW216683   0.248   4.604   3.151 -2.1045  0.2526 -2.0979
 1684SOL     OW16684   2.069   2.330   2.937 -0.1346  0.0578  0.1531
 1684SOL    HW116685   2.136   2.337   3.005  2.2495 -0.3954 -2.1455
 1684SOL    HW216686   2.007   2.392   2.975  1.0142  0.0775  2.0177
 1685SOL     OW16687   1.399   2.390   9.019  0.2025 -0.1581 -0.0201
 1685SOL    HW116688   1.364   2.411   9.106  0.5676  0.2252  0.0318
 1685SOL    HW216689   1.490   2.385   9.047 -0.4695  0.7332  2.2903
 1686SOL     OW16690   4.030   4.378   7.460 -0.3996 -0.1019  0.0592
 1686SOL    HW116691   4.059   4.292   7.488  0.2378 -0.3923 -1.5402
 1686SOL    HW216692   4.106   4.418   7.418 -2.1497  1.9051 -1.2003
 1687SOL     OW16693   1.377   3.870   1.658  0.4126  0.8107  0.0716
 1687SOL    HW116694   1.346   3.931   1.591 -2.1697  2.3918  2.7596
 1687SOL    HW216695   1.469   3.897   1.668  1.1527 -2.0655  1.0317
 1688SOL     OW16696   0.450   3.775   1.322 -0.5405 -0.8546 -0.4609
 1688SOL    HW116697   0.420   3.861   1.351 -0.1739 -1.3397  1.3953
 1688SOL    HW216698   0.525   3.770   1.381 -1.1416  0.4039  0.4040
 1689SOL     OW16699   1.549   0.831   3.170 -0.0375 -0.1227  0.5166
 1689SOL    HW116700   1.521   0.817   3.261 -1.2224  0.6102  0.2660
 1689SOL    HW216701   1.464   0.834   3.126  1.5569  0.3801 -2.4585
 1690SOL     OW16702   4.101   4.399   2.357  0.0546  0.3111 -0.1592
 1690SOL    HW116703   4.055   4.483   2.359 -2.8337 -1.3266  2.1981
 1690SOL    HW216704   4.097   4.378   2.264  1.4335  0.5576 -0.2625
 1691SOL     OW16705   3.927   4.213  13.593 -0.2558  0.0975 -0.5360
 1691SOL    HW116706   3.862   4.200  13.524  2.0409 -0.2016 -2.6358
 1691SOL    HW216707   3.955   4.122  13.608  0.4235  0.4367  0.2444
 1692SOL     OW16708   2.975   2.734   0.270  0.5087  0.4803 -0.5128
 1692SOL    HW116709   2.982   2.734   0.365 -0.8931 -0.6666 -0.4126
 1692SOL    HW216710   3.058   2.696   0.241  0.0015  0.0657 -1.4492
 1693SOL     OW16711   3.995   4.287  16.219  0.0835 -0.0635 -0.7859
 1693SOL    HW116712   4.015   4.260  16.130  0.2460  0.4844 -0.9168
 1693SOL    HW216713   4.060   4.249  16.278 -0.7396  0.1163  0.2440
 1694SOL     OW16714   2.723   4.002  11.627 -0.1785  0.4782  0.1465
 1694SOL    HW116715   2.753   3.913  11.608  3.1701  1.5917  0.0656
 1694SOL    HW216716   2.809   4.045  11.626  0.1938 -0.2401  1.7717
 1695SOL     OW16717   2.787   2.636  10.434  0.1748  0.5652  0.1986
 1695SOL    HW116718   2.729   2.681  10.373 -0.3244  1.7100  1.5122
 1695SOL    HW216719   2.873   2.671  10.410 -0.2600  1.9229  0.6054
 1696SOL     OW16720   3.649   1.841   0.691  0.5691 -0.1850  0.0023
 1696SOL    HW116721   3.691   1.926   0.701 -0.8314  0.2471  2.2494
 1696SOL    HW216722   3.655   1.829   0.596 -0.5283 -0.4047 -0.0448
 1697SOL     OW16723   0.242   1.019   1.702  0.2879 -0.4553 -0.0141
 1697SOL    HW116724   0.166   0.962   1.693 -0.0838  0.2373 -1.1954
 1697SOL    HW216725   0.269   1.026   1.611 -1.0465 -3.4723 -0.6569
 1698SOL     OW16726   3.636   3.487   4.370  0.1163  0.3449  0.2199
 1698SOL    HW116727   3.557   3.452   4.411  0.5297 -0.5553  0.2513
 1698SOL    HW216728   3.605   3.472   4.280  4.6597 -2.6511 -0.8360
 1699SOL     OW16729   1.139   2.416   6.857  0.5765  0.1503 -0.2010
 1699SOL    HW116730   1.132   2.492   6.799  0.5329 -0.1642 -0.5994
 1699SOL    HW216731   1.210   2.371   6.812  0.0251 -1.0085  0.0960
 1700SOL     OW16732   0.239   0.578   8.486  0.4810 -0.2772  0.3523
 1700SOL    HW116733   0.164   0.606   8.433  1.8759  2.8146  0.0062
 1700SOL    HW216734   0.210   0.615   8.569 -0.8774  1.5357 -0.9282
 1701SOL     OW16735   4.207   0.896   2.201  0.0072  0.0046  0.2914
 1701SOL    HW116736   4.284   0.887   2.145 -1.2433 -2.0112 -1.0679
 1701SOL    HW216737   4.244   0.894   2.289 -0.5871 -0.7730  0.5165
 1702SOL     OW16738   1.068   2.265   1.500  0.8158 -0.5243  0.0501
 1702SOL    HW116739   1.048   2.184   1.452  1.4895 -0.4011 -0.4493
 1702SOL    HW216740   1.028   2.332   1.445  1.2125  0.0204  0.4285
 1703SOL     OW16741   4.407   1.218   7.112 -0.2351 -0.2239 -0.0967
 1703SOL    HW116742   4.398   1.296   7.057 -0.8995 -1.9191 -2.3698
 1703SOL    HW216743   4.384   1.264   7.192  2.2020  0.9427 -0.0793
 1704SOL     OW16744   0.775   1.439   3.924 -0.2143  0.0553 -0.1961
 1704SOL    HW116745   0.719   1.362   3.929  1.6314 -1.2444  0.8779
 1704SOL    HW216746   0.860   1.394   3.922  1.0057  2.3771 -1.2083
 1705SOL     OW16747   2.222   2.277   7.702 -0.1905  0.5380 -0.0027
 1705SOL    HW116748   2.268   2.224   7.636 -0.3541  1.3377 -0.7682
 1705SOL    HW216749   2.142   2.226   7.715  0.0860 -0.8928 -3.7101
 1706SOL     OW16750   3.735   4.726   7.144  0.4434 -0.0287  0.0955
 1706SOL    HW116751   3.685   0.022   7.220 -0.0810  1.5724 -0.8835
 1706SOL    HW216752   3.685   0.021   7.068  0.9316  0.6687  0.0436
 1707SOL     OW16753   2.749   3.504   5.922  0.0483 -0.3355  0.0443
 1707SOL    HW116754   2.841   3.516   5.944 -0.0115 -1.5899  1.0022
 1707SOL    HW216755   2.717   3.506   6.013 -0.2218  1.9490 -0.1154
 1708SOL     OW16756   3.560   0.824   7.942 -0.9708  0.0728  0.5562
 1708SOL    HW116757   3.540   0.794   8.031  1.2582 -2.9131  0.0244
 1708SOL    HW216758   3.617   0.901   7.947 -0.8889 -0.0621  1.6836
 1709SOL     OW16759   3.664   4.730   8.527 -0.3473  0.0010 -0.1281
 1709SOL    HW116760   3.579   0.040   8.529  0.9289  2.4508  0.7806
 1709SOL    HW216761   3.678   4.718   8.621  0.0060 -1.0911 -0.3270
 1710SOL     OW16762   2.369   2.065   7.529 -0.1096  0.5656 -0.6053
 1710SOL    HW116763   2.323   2.023   7.457 -0.5580 -0.5415  0.3453
 1710SOL    HW216764   2.449   2.014   7.523  0.0116  0.8558 -1.5056
 1711SOL     OW16765   1.720   2.606   8.971 -0.2406 -0.0259 -0.3125
 1711SOL    HW116766   1.808   2.587   9.003 -0.5701  1.6332  1.6148
 1711SOL    HW216767   1.708   2.533   8.911  1.9527 -0.0448 -0.7417
 1712SOL     OW16768   0.878   0.292   4.560 -0.4180  0.2550  0.5295
 1712SOL    HW116769   0.927   0.292   4.642  1.3092  0.2193 -0.5235
 1712SOL    HW216770   0.846   0.382   4.573  0.0751  0.2710  1.6765
 1713SOL     OW16771   1.382   0.550   8.021 -0.1186 -0.1465  0.1124
 1713SOL    HW116772   1.312   0.506   7.974 -0.3803  0.3708  0.0225
 1713SOL    HW216773   1.452   0.486   8.009  1.2488  1.0882  1.3867
 1714SOL     OW16774   2.003   3.726  17.066 -0.4874  0.4068  0.0890
 1714SOL    HW116775   2.030   3.716  17.157 -2.2065 -0.4477  0.5054
 1714SOL    HW216776   2.063   3.667  17.020 -0.8537  0.2925 -0.2366
 1715SOL     OW16777   2.043   3.467   7.985  0.1291 -0.0249  0.1359
 1715SOL    HW116778   1.949   3.457   8.003  0.3385  2.9533  2.8160
 1715SOL    HW216779   2.066   3.379   7.954 -1.2309 -0.6040  0.7662
 1716SOL     OW16780   0.512   0.452   4.659  0.7294  0.0704 -0.0515
 1716SOL    HW116781   0.539   0.436   4.749  1.8087  1.5172 -0.1080
 1716SOL    HW216782   0.587   0.494   4.616  0.1463  1.0049 -0.1577
 1717SOL     OW16783   4.306   0.615   2.606  0.0208 -0.3429  0.3417
 1717SOL    HW116784   4.274   0.672   2.675  0.7928 -2.5775  2.5716
 1717SOL    HW216785   4.221   0.606   2.563  0.3331  0.1283 -0.3615
 1718SOL     OW16786   1.201   0.915   2.182  0.9067  0.4375  0.2780
 1718SOL    HW116787   1.126   0.963   2.147  1.2923  0.8966  0.0826
 1718SOL    HW216788   1.170   0.826   2.165  0.7092  1.0518 -2.6092
 1719SOL     OW16789   0.820   1.947  16.767  0.7073 -0.1099 -0.2730
 1719SOL    HW116790   0.787   1.991  16.845  0.1973 -0.2966 -0.3839
 1719SOL    HW216791   0.884   1.881  16.794  0.3849 -0.3638 -0.1304
 1720SOL     OW16792   1.761   2.867   3.360 -0.0350  0.2656  0.7751
 1720SOL    HW116793   1.804   2.860   3.445  1.6418 -0.3351 -0.1345
 1720SOL    HW216794   1.733   2.777   3.345  1.9446 -0.3286  0.6415
 1721SOL     OW16795   2.784   4.122   1.659 -0.0766 -0.0157 -0.3666
 1721SOL    HW116796   2.746   4.168   1.733 -0.2728  2.4597 -2.0113
 1721SOL    HW216797   2.877   4.137   1.677  0.0049 -2.2657  1.1323
 1722SOL     OW16798   1.806   0.122   7.805  0.3120 -0.3824 -0.1369
 1722SOL    HW116799   1.847   0.208   7.818 -0.8670  0.0233  0.9784
 1722SOL    HW216800   1.848   0.069   7.873  0.7566 -0.2458 -0.3068
 1723SOL     OW16801   2.376   1.155   5.903  0.1262 -0.2292 -0.2323
 1723SOL    HW116802   2.439   1.155   5.975 -1.5848 -3.2951  1.2358
 1723SOL    HW216803   2.428   1.115   5.833 -2.3276 -1.2311 -1.4743
 1724SOL     OW16804   0.102   2.434   1.900 -0.0072 -0.3352  0.2279
 1724SOL    HW116805   0.026   2.485   1.927  0.4686  0.4905  0.0089
 1724SOL    HW216806   0.169   2.499   1.880  0.0624 -0.0070  1.5186
 1725SOL     OW16807   0.578   1.669   6.230 -0.6009 -0.3343  0.6930
 1725SOL    HW116808   0.552   1.668   6.138  0.5302 -0.7340  0.3756
 1725SOL    HW216809   0.628   1.587   6.231 -0.4164 -0.1771  4.0041
 1726SOL     OW16810   2.490   1.477   7.220  0.0356  0.8857  0.0071
 1726SOL    HW116811   2.495   1.479   7.316  1.2027 -1.7013 -0.0058
 1726SOL    HW216812   2.508   1.384   7.207 -0.2737  0.7531  0.5023
 1727SOL     OW16813   2.826   0.429   8.661  0.7229  0.1999 -0.2040
 1727SOL    HW116814   2.773   0.371   8.715  0.8648  0.8351  0.6124
 1727SOL    HW216815   2.797   0.518   8.682 -0.4377  0.0476 -1.1978
 1728SOL     OW16816   3.187   1.968   6.759 -0.1157  0.3260  0.0263
 1728SOL    HW116817   3.108   2.018   6.780  0.7631  2.1067 -0.8869
 1728SOL    HW216818   3.169   1.915   6.681  0.8024  0.9541 -0.6082
 1729SOL     OW16819   0.744   2.856   4.810  0.5041  0.0971 -0.0428
 1729SOL    HW116820   0.826   2.843   4.761 -0.7321  2.1050 -2.6587
 1729SOL    HW216821   0.732   2.949   4.789 -0.9727 -0.2568 -0.7222
 1730SOL     OW16822   2.165   2.132   7.267 -0.0347  0.0773  0.4612
 1730SOL    HW116823   2.168   2.049   7.314 -1.3877 -0.0915  0.2332
 1730SOL    HW216824   2.121   2.192   7.326 -2.5275 -1.4004  0.1055
 1731SOL     OW16825   1.739   3.170  11.169 -0.1049 -0.0041  0.3775
 1731SOL    HW116826   1.757   3.100  11.232  0.2330 -1.8889 -1.7903
 1731SOL    HW216827   1.826   3.206  11.156  0.0795 -0.6048 -0.0713
 1732SOL     OW16828   1.661   0.917   2.780  0.3177 -0.2426 -0.2668
 1732SOL    HW116829   1.692   0.877   2.698 -1.5087  1.1078 -1.6209
 1732SOL    HW216830   1.696   0.857   2.846  0.0859  0.5247  0.5451
 1733SOL     OW16831   0.195   2.222   5.349  0.1951  0.2647 -0.3412
 1733SOL    HW116832   0.188   2.317   5.340  0.3211  0.3007 -0.0648
 1733SOL    HW216833   0.223   2.199   5.261 -1.9408 -0.3968 -0.8385
 1734SOL     OW16834   1.422   0.591   5.568 -0.0764  0.6520  0.2012
 1734SOL    HW116835   1.345   0.586   5.512 -0.2425 -2.4672  0.7200
 1734SOL    HW216836   1.443   0.684   5.567 -2.3602  1.1591 -0.2861
 1735SOL     OW16837   3.186   0.663   6.896 -0.6295  0.0768 -0.4445
 1735SOL    HW116838   3.203   0.739   6.951 -1.4128  1.0197 -1.5166
 1735SOL    HW216839   3.111   0.685   6.842  0.0366  1.4883 -0.8106
 1736SOL     OW16840   3.068   2.182   8.732  0.7405 -0.9242 -0.2060
 1736SOL    HW116841   3.162   2.185   8.752  0.9121  0.9932 -1.2716
 1736SOL    HW216842   3.052   2.277   8.734  1.2683 -0.8416  0.1637
 1737SOL     OW16843   4.091   0.563   2.448 -0.2957  0.3652  0.1526
 1737SOL    HW116844   4.027   0.634   2.446 -0.6270  0.0498 -0.5348
 1737SOL    HW216845   4.101   0.538   2.356 -0.8895 -1.9277  0.7117
 1738SOL     OW16846   3.573   3.657   1.225  0.0137  0.2264 -1.2509
 1738SOL    HW116847   3.551   3.732   1.281  0.3521  0.1162 -0.9706
 1738SOL    HW216848   3.491   3.608   1.217 -0.3139  0.2381  2.1293
 1739SOL     OW16849   0.668   2.719   1.198  0.1708 -0.2263  0.1920
 1739SOL    HW116850   0.711   2.788   1.147  0.7219 -1.4767 -1.0236
 1739SOL    HW216851   0.649   2.774   1.274  2.8073 -0.8909  1.3161
 1740SOL     OW16852   2.905   4.535  10.988  0.1896 -0.3790  0.6295
 1740SOL    HW116853   2.907   4.605  11.053 -1.4068 -1.3381  1.7126
 1740SOL    HW216854   2.816   4.541  10.955  0.0832  1.8922  1.3457
 1741SOL     OW16855   2.153   0.712   8.805  0.1602  0.2576  0.0749
 1741SOL    HW116856   2.242   0.681   8.783  0.2365 -0.0506  0.8186
 1741SOL    HW216857   2.150   0.788   8.747 -0.2781  1.3212  1.5032
 1742SOL     OW16858   4.716   2.658   6.212 -0.1810 -0.1030  0.0675
 1742SOL    HW116859   4.701   2.731   6.152 -0.9538 -1.4800 -1.4312
 1742SOL    HW216860   4.625   2.629   6.224 -0.0301 -1.2765 -1.5453
 1743SOL     OW16861   2.877   2.959   7.852 -0.3161 -1.1055  0.1485
 1743SOL    HW116862   2.904   3.023   7.917  1.5424 -1.2276 -0.4960
 1743SOL    HW216863   2.959   2.950   7.803 -1.0658 -1.5948 -1.0220
 1744SOL     OW16864   3.672   2.165   8.029 -0.0939  0.1755  0.0934
 1744SOL    HW116865   3.678   2.120   7.944  1.0447 -0.4885  0.5287
 1744SOL    HW216866   3.728   2.118   8.091 -1.2756  1.9709  2.4977
 1745SOL     OW16867   1.628   0.336   2.080  0.7418  0.2197  0.3359
 1745SOL    HW116868   1.720   0.349   2.059  0.5117 -0.0578 -0.8254
 1745SOL    HW216869   1.599   0.309   1.993  2.3879 -1.6384  0.3713
 1746SOL     OW16870   4.133   4.714   5.827  0.0361  0.6862 -0.3177
 1746SOL    HW116871   4.158   4.627   5.796  0.9293  0.1875  1.8431
 1746SOL    HW216872   4.038   4.700   5.831  0.4442 -2.1716 -0.7325
 1747SOL     OW16873   0.714   2.720  12.739  0.1524  0.3644 -0.4661
 1747SOL    HW116874   0.704   2.627  12.763  1.5457 -0.3140 -2.5560
 1747SOL    HW216875   0.765   2.742  12.817 -0.3475  0.3985 -0.1483
 1748SOL     OW16876   0.545   4.306   3.094 -0.4844 -0.0366  0.6475
 1748SOL    HW116877   0.527   4.379   3.035 -1.0863 -0.7674 -0.0847
 1748SOL    HW216878   0.618   4.266   3.048 -1.9245  0.5311 -2.0985
 1749SOL     OW16879   1.717   1.416   4.057  0.1093  0.5449 -0.2396
 1749SOL    HW116880   1.765   1.360   4.118  1.4113  2.1353  0.2167
 1749SOL    HW216881   1.796   1.455   4.019  1.0204  0.9250  2.0551
 1750SOL     OW16882   2.505   0.951   3.711  0.4204  0.1220  0.8874
 1750SOL    HW116883   2.512   0.982   3.802 -1.0349 -0.5160  1.2127
 1750SOL    HW216884   2.469   0.864   3.727  0.0386  0.3289  1.1472
 1751SOL     OW16885   3.435   3.728   2.951 -0.0048  0.1220  0.3002
 1751SOL    HW116886   3.356   3.721   2.898  0.8193 -1.2323 -0.7783
 1751SOL    HW216887   3.483   3.801   2.911 -2.0171  0.4231 -1.5837
 1752SOL     OW16888   3.036   3.969   3.422 -0.0811 -0.3389  0.4333
 1752SOL    HW116889   2.951   3.967   3.378  1.4937 -2.7888 -2.4904
 1752SOL    HW216890   3.025   3.887   3.471 -1.2057  0.8226  2.1230
 1753SOL     OW16891   2.819   2.174   4.278  0.6996  1.0169  0.4460
 1753SOL    HW116892   2.784   2.098   4.324 -1.0205  0.3463 -1.9355
 1753SOL    HW216893   2.802   2.154   4.186  1.6241 -2.6376  1.0820
 1754SOL     OW16894   0.201   4.004  12.107  0.4975  0.7376  0.0837
 1754SOL    HW116895   0.114   3.976  12.077  0.2136  1.2161  0.4594
 1754SOL    HW216896   0.252   3.942  12.055  1.2930 -0.0069  1.7680
 1755SOL     OW16897   0.666   3.531   7.210 -0.8416  0.5299 -0.0363
 1755SOL    HW116898   0.671   3.604   7.149 -0.6458 -0.1981 -0.8851
 1755SOL    HW216899   0.578   3.552   7.241 -0.7839 -1.6308  1.5999
 1756SOL     OW16900   3.956   3.352  10.338  0.5674  0.1411  0.3197
 1756SOL    HW116901   4.006   3.400  10.404 -1.0842  2.2125  0.0499
 1756SOL    HW216902   3.923   3.271  10.378 -3.1109  0.7126 -1.5811
 1757SOL     OW16903   0.804   0.816  14.190 -0.3064 -0.6370 -0.1382
 1757SOL    HW116904   0.808   0.760  14.113  2.8865  0.0342 -0.4957
 1757SOL    HW216905   0.731   0.874  14.170 -1.5799 -1.5362  1.9003
 1758SOL     OW16906   3.237   2.149  11.383  0.1524  0.2010  0.2470
 1758SOL    HW116907   3.314   2.126  11.331  0.5482  1.1722  0.4187
 1758SOL    HW216908   3.202   2.063  11.406  0.3245  0.4377  1.3915
 1759SOL     OW16909   0.145   2.532  17.567 -0.0711 -0.0595  0.4878
 1759SOL    HW116910   0.234   2.534  17.531  0.1162  0.7556  0.9983
 1759SOL    HW216911   0.123   2.439  17.561 -3.2385  0.7021  0.4510
 1760SOL     OW16912   2.529   1.213   2.685 -0.1743 -0.1369 -0.2856
 1760SOL    HW116913   2.518   1.246   2.596 -0.5862 -1.9976 -0.9160
 1760SOL    HW216914   2.623   1.197   2.685  0.3250  2.9423  3.4788
 1761SOL     OW16915   2.936   2.592   2.281 -0.7503 -0.2626  0.2237
 1761SOL    HW116916   2.885   2.526   2.328  1.3577 -2.0059  0.0662
 1761SOL    HW216917   2.962   2.534   2.209  0.9414 -0.5572  1.0704
 1762SOL     OW16918   3.823   0.064  15.928 -0.5039 -0.2282  0.4131
 1762SOL    HW116919   3.889   0.005  15.892  0.9611  2.8093 -1.8438
 1762SOL    HW216920   3.748   0.063  15.868  0.6089  0.1537 -0.9774
 1763SOL     OW16921   1.261   0.867  15.545  0.4771 -0.6830 -0.2394
 1763SOL    HW116922   1.279   0.867  15.451  1.0237 -1.6837 -0.1295
 1763SOL    HW216923   1.309   0.938  15.590  0.0183 -1.4489  1.4389
 1764SOL     OW16924   0.152   0.019   3.061  0.0157 -0.9526  0.4741
 1764SOL    HW116925   0.059   0.032   3.078 -0.4990 -1.7209 -1.8360
 1764SOL    HW216926   0.173   0.109   3.087 -1.8036 -0.3901 -0.0018
 1765SOL     OW16927   2.387   0.544   8.914  0.4871 -0.2344 -0.9968
 1765SOL    HW116928   2.454   0.484   8.947  2.2899  1.6469 -1.1912
 1765SOL    HW216929   2.311   0.487   8.904 -0.0695  0.1224  1.0646
 1766SOL     OW16930   4.261   4.499  14.802 -0.3808  0.3022 -0.2146
 1766SOL    HW116931   4.290   4.578  14.848  2.2754 -1.7996  1.7118
 1766SOL    HW216932   4.190   4.472  14.861 -1.4376  2.8917 -0.3257
 1767SOL     OW16933   2.156   0.932  16.875 -0.0128 -0.5361 -0.3682
 1767SOL    HW116934   2.164   0.959  16.783  0.1044 -0.5895 -0.3751
 1767SOL    HW216935   2.084   0.987  16.903  1.8735  1.9418 -0.3924
 1768SOL     OW16936   0.082   4.387  15.202  0.5202  0.3203  0.0129
 1768SOL    HW116937   0.170   4.422  15.186  1.1334 -1.8892 -1.4729
 1768SOL    HW216938   0.102   4.313  15.259  1.2527 -0.3146 -1.0548
 1769SOL     OW16939   0.987   1.557   8.368 -0.2059 -0.2389  0.0983
 1769SOL    HW116940   1.063   1.611   8.393  1.8074 -2.1147 -1.9549
 1769SOL    HW216941   1.015   1.529   8.281  1.5605  2.7156 -0.3063
 1770SOL     OW16942   4.161   0.163   6.039  0.1032 -0.5237  0.4473
 1770SOL    HW116943   4.158   0.113   5.957 -2.5803  0.5717 -0.0935
 1770SOL    HW216944   4.218   0.106   6.091  1.5148 -1.1085 -1.6955
 1771SOL     OW16945   4.700   0.852   8.027  0.7061 -0.0191  0.5468
 1771SOL    HW116946   4.636   0.924   8.024 -1.0653 -1.4929  2.4321
 1771SOL    HW216947   4.665   0.791   7.962 -1.4107  1.7593  0.0027
 1772SOL     OW16948   0.932   4.508   9.338 -0.1595  0.0755  0.4688
 1772SOL    HW116949   0.864   4.440   9.336  0.3608 -0.4408  0.3451
 1772SOL    HW216950   1.008   4.454   9.316 -1.1052 -1.5254  1.1169
 1773SOL     OW16951   2.594   1.896  14.458  0.5614 -0.0168 -0.1657
 1773SOL    HW116952   2.647   1.963  14.502  1.6735 -0.7550 -0.3862
 1773SOL    HW216953   2.562   1.846  14.532  1.6889 -1.0048 -0.3559
 1774SOL     OW16954   2.037   3.732   2.733 -0.1980  0.0394 -0.1059
 1774SOL    HW116955   1.981   3.800   2.769 -0.6833 -0.9615  1.0188
 1774SOL    HW216956   2.121   3.774   2.711 -0.0142  0.1371  0.7672
 1775SOL     OW16957   2.794   4.424   6.608  0.2368 -0.7630  0.3907
 1775SOL    HW116958   2.756   4.453   6.525  2.4580 -1.5450 -0.8917
 1775SOL    HW216959   2.721   4.368   6.636 -0.7445  1.3339  2.0637
 1776SOL     OW16960   2.121   2.852  13.748 -0.1596  0.2845  0.6262
 1776SOL    HW116961   2.050   2.798  13.783 -0.6700 -0.2840 -1.2927
 1776SOL    HW216962   2.091   2.878  13.661  1.0724  0.5539  0.2816
 1777SOL     OW16963   4.362   4.471  13.720 -0.0980  0.0411 -0.7266
 1777SOL    HW116964   4.344   4.515  13.803  1.4559  1.4267 -1.1234
 1777SOL    HW216965   4.336   4.379  13.727 -1.0539  0.2167 -1.7856
 1778SOL     OW16966   3.542   0.884   5.408  0.7672 -0.2167 -0.2519
 1778SOL    HW116967   3.499   0.926   5.482 -0.0557 -0.1655 -0.7673
 1778SOL    HW216968   3.563   0.961   5.355  3.2954 -0.1906  0.7516
 1779SOL     OW16969   3.777   4.355   2.675  0.0234  0.0626 -0.3050
 1779SOL    HW116970   3.742   4.357   2.586 -1.3456 -0.3479  0.2354
 1779SOL    HW216971   3.871   4.353   2.656  0.5857  1.4055  2.2744
 1780SOL     OW16972   3.022   1.949   4.157  0.4015 -0.1994 -0.3838
 1780SOL    HW116973   2.940   1.905   4.180  0.5797  0.3632  1.3228
 1780SOL    HW216974   3.061   1.961   4.244  0.1090 -1.0855 -0.1242
 1781SOL     OW16975   2.004   2.127   9.129 -0.5192  0.1830 -0.4708
 1781SOL    HW116976   1.929   2.067   9.124 -0.8524  0.3878  1.8748
 1781SOL    HW216977   2.058   2.080   9.192  1.1873  1.0989 -1.2576
 1782SOL     OW16978   2.051   1.133   4.218 -0.1573 -0.0914  0.9214
 1782SOL    HW116979   2.057   1.047   4.177 -0.3465  0.4148 -0.1886
 1782SOL    HW216980   1.960   1.154   4.197  0.2524 -0.1440 -0.9791
 1783SOL     OW16981   0.039   2.496   3.521  0.0962 -0.1370  0.2949
 1783SOL    HW116982   0.064   2.588   3.527 -0.5056  0.1249 -1.1429
 1783SOL    HW216983   0.108   2.465   3.461 -0.5135 -1.1081  0.0871
 1784SOL     OW16984   3.184   0.670   7.709  0.4529 -0.0529  0.3867
 1784SOL    HW116985   3.153   0.721   7.784 -0.9992 -2.9139  1.7540
 1784SOL    HW216986   3.242   0.605   7.749 -0.3692 -1.0005  0.0622
 1785SOL     OW16987   0.977   3.655   5.033 -0.0304  0.2285  0.4883
 1785SOL    HW116988   1.034   3.650   5.110  0.0405  1.7400  0.5494
 1785SOL    HW216989   0.981   3.750   5.020  1.4742  0.2214  0.9298
 1786SOL     OW16990   1.897   2.805   5.345 -0.2577 -0.1985  0.3200
 1786SOL    HW116991   1.889   2.736   5.411  2.7100 -2.9468 -2.2310
 1786SOL    HW216992   1.992   2.804   5.330 -0.2787  0.3088  0.1406
 1787SOL     OW16993   3.996   2.722   3.258  0.0303  0.1754  0.2000
 1787SOL    HW116994   3.958   2.636   3.240  0.0462  0.1654  0.2146
 1787SOL    HW216995   3.925   2.776   3.222 -0.9152 -2.0122 -1.2395
 1788SOL     OW16996   3.202   1.898   2.902  0.5210 -0.0727 -0.1927
 1788SOL    HW116997   3.130   1.838   2.923 -0.6030  1.2283 -0.3164
 1788SOL    HW216998   3.159   1.972   2.944  0.5133  0.1243 -0.5437
 1789SOL     OW16999   0.339   2.649   5.645 -0.1622 -0.4153  0.2801
 1789SOL    HW117000   0.397   2.662   5.570 -3.1493 -0.0012 -1.9340
 1789SOL    HW217001   0.261   2.670   5.595  0.2078  0.6009  0.1412
 1790SOL     OW17002   2.788   1.071   5.218 -0.2838 -0.0893  0.0669
 1790SOL    HW117003   2.847   1.062   5.144 -0.8219  1.2741 -0.5123
 1790SOL    HW217004   2.707   1.107   5.183  0.6741  0.4045 -1.6116
 1791SOL     OW17005   4.573   4.388  11.561 -0.1564  0.3727  0.5386
 1791SOL    HW117006   4.514   4.370  11.488  1.0190  0.4197 -0.4324
 1791SOL    HW217007   4.659   4.405  11.522 -1.0262  0.3005 -1.4112
 1792SOL     OW17008   3.776   2.305   4.152  0.1176  0.3531 -0.0020
 1792SOL    HW117009   3.686   2.333   4.169  1.0562  2.1432  1.9257
 1792SOL    HW217010   3.819   2.389   4.165 -1.6747  0.9893  1.8391
 1793SOL     OW17011   2.711   3.229   5.835  0.3033 -0.1533  0.1495
 1793SOL    HW117012   2.721   3.323   5.850  0.1405 -0.2096  0.6299
 1793SOL    HW217013   2.653   3.232   5.759 -1.4356  2.2531  1.5411
 1794SOL     OW17014   0.954   3.998   5.063  0.1540  0.0301  0.2060
 1794SOL    HW117015   0.879   4.038   5.019  1.2103  1.5427 -0.2132
 1794SOL    HW217016   0.943   4.037   5.150  2.2930  1.6811 -0.2710
 1795SOL     OW17017   0.955   3.805  14.097  0.7299  0.1077 -0.0003
 1795SOL    HW117018   0.926   3.893  14.120  1.0331 -0.6712  3.2611
 1795SOL    HW217019   1.017   3.822  14.026  0.5499  1.2939  0.1185
 1796SOL     OW17020   4.513   1.571   3.046  0.1729  0.4813  0.1048
 1796SOL    HW117021   4.540   1.655   3.010  0.5970  0.7824  1.1004
 1796SOL    HW217022   4.562   1.576   3.129 -0.6243 -0.8833  0.6582
 1797SOL     OW17023   4.381   1.236  12.857 -0.1596 -0.1600 -0.2623
 1797SOL    HW117024   4.435   1.180  12.914  1.8377 -0.0001 -1.9829
 1797SOL    HW217025   4.446   1.304  12.843 -0.2740 -0.1411 -0.6898
 1798SOL     OW17026   4.359   1.647  13.507 -0.6549 -0.3442 -0.2323
 1798SOL    HW117027   4.342   1.573  13.566 -0.2489 -1.3296 -1.3627
 1798SOL    HW217028   4.330   1.724  13.557  0.4956  1.1506 -1.8674
 1799SOL     OW17029   3.167   3.840   8.565  0.0168 -0.0037 -0.6098
 1799SOL    HW117030   3.117   3.841   8.647  0.8885  1.3756 -0.0909
 1799SOL    HW217031   3.092   3.833   8.506 -1.8498 -2.1496  1.9892
 1800SOL     OW17032   0.613   3.616   2.328 -0.3615  0.2008 -0.0056
 1800SOL    HW117033   0.532   3.641   2.283 -1.2071 -1.8064  0.4046
 1800SOL    HW217034   0.610   3.521   2.317  0.2204 -0.1106  2.4664
 1801SOL     OW17035   2.659   2.196  17.052  0.4274  0.5344  0.2511
 1801SOL    HW117036   2.724   2.136  17.088  0.5039  0.6475  0.3013
 1801SOL    HW217037   2.700   2.283  17.051  0.2739  0.5680 -2.2294
 1802SOL     OW17038   4.312   3.497   4.671  0.1202 -0.3761  0.4911
 1802SOL    HW117039   4.389   3.444   4.652  0.2945 -0.8318  2.4251
 1802SOL    HW217040   4.348   3.561   4.733 -1.0739  1.2502 -0.4971
 1803SOL     OW17041   0.663   2.397   0.546 -0.1101  0.1347 -0.0789
 1803SOL    HW117042   0.618   2.469   0.590 -0.6047 -0.6639  0.7208
 1803SOL    HW217043   0.695   2.354   0.626  0.3055  2.5536  1.0412
 1804SOL     OW17044   1.513   1.895   4.704  0.2506  0.6354  0.3022
 1804SOL    HW117045   1.606   1.917   4.714  0.2701  0.4659  0.5106
 1804SOL    HW217046   1.500   1.914   4.611 -1.1662 -2.4308 -0.1340
 1805SOL     OW17047   3.836   0.350   4.471 -0.1484  0.0716 -0.2781
 1805SOL    HW117048   3.789   0.395   4.402 -0.3781 -0.0091 -0.1724
 1805SOL    HW217049   3.924   0.388   4.468 -0.0007 -0.4068 -1.6103
 1806SOL     OW17050   1.270   2.412  17.181  0.3822 -0.5429  0.0528
 1806SOL    HW117051   1.311   2.442  17.099  0.3709 -0.1975  0.1723
 1806SOL    HW217052   1.228   2.338  17.137 -0.1988 -0.0933 -0.1411
 1807SOL     OW17053   4.732   2.063  15.534  0.7220  0.0613  0.5355
 1807SOL    HW117054   4.652   2.037  15.580  0.6572  1.2896  1.1236
 1807SOL    HW217055   4.719   2.157  15.548 -2.0894 -0.0567 -1.3684
 1808SOL     OW17056   0.672   3.825   6.110  0.4447  0.2575 -0.7783
 1808SOL    HW117057   0.654   3.914   6.077  1.5796  0.1069 -1.8269
 1808SOL    HW217058   0.671   3.769   6.033 -1.5588 -0.9940  0.1681
 1809SOL     OW17059   3.373   4.674  17.625 -1.0928  0.4449  0.0502
 1809SOL    HW117060   3.347   4.621  17.700  3.6129 -1.4262  0.3640
 1809SOL    HW217061   3.468   4.661  17.619 -1.0267  1.2563 -0.7283
 1810SOL     OW17062   3.462   3.338   3.277 -0.4158  0.3485  0.1260
 1810SOL    HW117063   3.372   3.324   3.246 -0.2561 -0.0218 -0.1820
 1810SOL    HW217064   3.482   3.392   3.200 -0.6426  0.3553  0.0703
 1811SOL     OW17065   0.587   0.965   6.743  0.2998 -0.0816  0.2738
 1811SOL    HW117066   0.661   1.016   6.777  1.2267  0.4037 -2.5026
 1811SOL    HW217067   0.585   0.902   6.815 -0.3248 -2.0019 -1.4111
 1812SOL     OW17068   0.735   3.266  11.771  0.1979 -0.4694  0.0683
 1812SOL    HW117069   0.795   3.283  11.698  0.5538 -1.5051  0.1231
 1812SOL    HW217070   0.781   3.314  11.839 -0.7192  0.0852  0.3007
 1813SOL     OW17071   2.652   4.292  11.707  0.1425  0.2010 -0.3394
 1813SOL    HW117072   2.698   4.209  11.690 -1.1176 -0.6499  0.3665
 1813SOL    HW217073   2.606   4.267  11.787 -0.5919  0.6844 -0.6079
 1814SOL     OW17074   1.961   3.849  15.586 -0.4007  0.8907  0.1340
 1814SOL    HW117075   1.992   3.853  15.496 -0.8827  0.6245 -0.0448
 1814SOL    HW217076   2.032   3.807  15.634 -1.1651 -0.6361 -0.0673
 1815SOL     OW17077   2.885   3.919   7.160  0.0845  0.5663 -0.1853
 1815SOL    HW117078   2.904   3.834   7.121  0.4613  0.2660  0.6406
 1815SOL    HW217079   2.977   3.940   7.178  0.4435  0.5212 -2.0502
 1816SOL     OW17080   2.227   3.581   1.709  0.1734 -0.1844 -0.3412
 1816SOL    HW117081   2.218   3.645   1.638  0.4090  0.9994  0.6945
 1816SOL    HW217082   2.246   3.642   1.780 -0.9112 -0.6275  0.3329
 1817SOL     OW17083   0.991   0.324   3.982 -0.1390 -0.1549  0.4912
 1817SOL    HW117084   0.972   0.380   4.058 -2.5283 -1.4915  0.8909
 1817SOL    HW217085   0.959   0.239   4.011  0.5458 -1.3625 -2.3092
 1818SOL     OW17086   1.363   2.491   7.368  0.0114 -0.0041 -0.1922
 1818SOL    HW117087   1.286   2.453   7.326 -0.2788  1.2069 -0.7639
 1818SOL    HW217088   1.426   2.449   7.309  0.8495 -1.1176  1.5130
 1819SOL     OW17089   1.101   2.865  11.826 -0.7895 -0.1463  0.3881
 1819SOL    HW117090   1.048   2.933  11.866 -0.8621  1.6803 -2.7662
 1819SOL    HW217091   1.058   2.853  11.741 -2.6353  0.9440  1.1828
 1820SOL     OW17092   2.640   1.092   4.485 -0.1999 -0.0447 -0.6021
 1820SOL    HW117093   2.680   1.122   4.403 -1.1428 -0.3772 -1.1886
 1820SOL    HW217094   2.555   1.135   4.496  0.0051  0.8553 -2.5031
 1821SOL     OW17095   1.384   2.662   5.115 -0.0785 -0.5613  0.6084
 1821SOL    HW117096   1.470   2.623   5.133  1.3371  1.3507 -1.9899
 1821SOL    HW217097   1.384   2.738   5.174 -0.3404 -0.0061 -0.0972
 1822SOL     OW17098   3.120   4.535   7.179 -0.0510 -0.3308  0.5859
 1822SOL    HW117099   3.156   4.450   7.156 -0.3300 -0.4827  0.7118
 1822SOL    HW217100   3.093   4.534   7.271 -1.5648 -0.5040  0.1322
 1823SOL     OW17101   1.664   3.323   5.833 -0.3156  0.5630 -0.4494
 1823SOL    HW117102   1.571   3.340   5.816 -0.4260  1.1923  0.8138
 1823SOL    HW217103   1.653   3.283   5.919 -0.7317  2.3060  0.3258
 1824SOL     OW17104   3.301   4.650  14.579 -0.3625  0.4272 -0.8826
 1824SOL    HW117105   3.289   4.725  14.637  0.6335  0.1108 -0.2486
 1824SOL    HW217106   3.356   4.694  14.514  2.4853 -2.4923 -0.4615
 1825SOL     OW17107   2.039   0.521  13.024 -0.7029 -0.8469  0.1389
 1825SOL    HW117108   2.086   0.545  13.104 -2.3335  0.5032  0.7188
 1825SOL    HW217109   2.081   0.579  12.961  1.0384 -0.6932  1.4385
 1826SOL     OW17110   1.575   0.280   2.497 -0.3846  0.3287  0.0255
 1826SOL    HW117111   1.526   0.321   2.568 -2.1635  0.0981 -1.0725
 1826SOL    HW217112   1.556   0.191   2.527  1.7507 -0.0559  0.2393
 1827SOL     OW17113   1.580   3.180  15.925 -0.6702  0.1367 -0.5254
 1827SOL    HW117114   1.571   3.163  16.019  0.3712  0.4645 -0.3639
 1827SOL    HW217115   1.532   3.258  15.899 -0.6169  0.3397 -0.0161
 1828SOL     OW17116   4.352   4.298  11.373  0.3248  0.1867 -0.2439
 1828SOL    HW117117   4.326   4.206  11.376  0.4504  0.0889 -2.0106
 1828SOL    HW217118   4.436   4.302  11.328  1.0368  0.3771  1.1000
 1829SOL     OW17119   1.800   2.953   9.355 -0.0127  0.0718 -0.2941
 1829SOL    HW117120   1.724   3.003   9.386 -0.4245  0.1657 -1.4499
 1829SOL    HW217121   1.807   2.891   9.428  0.8826 -0.1076 -0.5368
 1830SOL     OW17122   0.115   3.790   4.175  0.1568 -0.0344  0.3480
 1830SOL    HW117123   0.170   3.818   4.248 -1.5633  3.1948  0.3904
 1830SOL    HW217124   0.173   3.817   4.104  1.3818  0.8806  1.6777
 1831SOL     OW17125   1.868   2.665   7.767  0.4123  0.1417 -0.3964
 1831SOL    HW117126   1.922   2.651   7.688  0.8857 -0.3639  0.0128
 1831SOL    HW217127   1.878   2.578   7.806 -0.9325 -0.5591 -1.5907
 1832SOL     OW17128   2.567   1.182   5.123 -0.5131 -0.5434 -0.6507
 1832SOL    HW117129   2.528   1.126   5.190 -0.1145 -0.3822 -0.2860
 1832SOL    HW217130   2.491   1.229   5.088  1.1393  2.1654 -0.5391
 1833SOL     OW17131   0.475   3.130   9.437 -0.3556  0.0452  0.0804
 1833SOL    HW117132   0.443   3.072   9.506  0.9062 -1.5158 -0.6444
 1833SOL    HW217133   0.422   3.093   9.366 -0.6862 -0.3147  0.5073
 1834SOL     OW17134   1.172   0.674   3.580 -0.7216  0.0237  0.1866
 1834SOL    HW117135   1.139   0.666   3.490  0.3331 -2.5064  0.0146
 1834SOL    HW217136   1.184   0.581   3.601 -1.8264  0.4513  2.6963
 1835SOL     OW17137   0.774   0.616   2.131 -0.3505 -0.3009  0.5380
 1835SOL    HW117138   0.757   0.709   2.116 -0.1315 -0.6167 -1.7086
 1835SOL    HW217139   0.848   0.609   2.070 -0.3838  0.1133  0.4523
 1836SOL     OW17140   1.046   0.122  10.354  0.0244 -0.6215 -0.2559
 1836SOL    HW117141   0.963   0.166  10.333 -0.5878 -0.4002  2.5369
 1836SOL    HW217142   1.017   0.052  10.412  1.3233 -0.9371 -0.0016
 1837SOL     OW17143   0.877   0.174   3.676 -0.0199 -0.0155 -0.4003
 1837SOL    HW117144   0.900   0.181   3.584  1.2560  1.8450  0.0626
 1837SOL    HW217145   0.903   0.261   3.708  0.2217  0.3810 -1.6520
 1838SOL     OW17146   0.682   2.922   2.351 -0.2651  0.0397  0.7667
 1838SOL    HW117147   0.622   2.996   2.356 -0.5105 -0.0481 -0.9408
 1838SOL    HW217148   0.716   2.926   2.262  0.8817  1.6604  1.2839
 1839SOL     OW17149   0.802   1.581  12.716 -0.0303  0.2456  0.4014
 1839SOL    HW117150   0.885   1.610  12.752 -0.1937  0.9923  0.1839
 1839SOL    HW217151   0.787   1.652  12.654 -0.8357  0.2832  0.6350
 1840SOL     OW17152   0.387   1.480   1.052 -0.3471 -0.2308 -0.1838
 1840SOL    HW117153   0.434   1.476   1.135 -0.8185  2.5431  0.2187
 1840SOL    HW217154   0.297   1.505   1.072 -0.3988 -1.7934  1.5287
 1841SOL     OW17155   0.098   3.409  16.430  0.4438 -0.9144 -0.1080
 1841SOL    HW117156   0.030   3.438  16.491  0.4403 -1.6399  0.2357
 1841SOL    HW217157   0.175   3.415  16.486  1.3655 -1.0744 -1.3542
 1842SOL     OW17158   4.302   1.903   2.782  0.5873  0.1245 -0.0571
 1842SOL    HW117159   4.345   1.820   2.803  0.7310 -0.3064 -2.0828
 1842SOL    HW217160   4.295   1.890   2.687 -0.4376  2.4009 -0.3035
 1843SOL     OW17161   3.570   0.346  11.293 -0.1180  0.2361  0.3298
 1843SOL    HW117162   3.491   0.291  11.296 -0.1953  0.4671  2.2814
 1843SOL    HW217163   3.605   0.330  11.380  1.3902  2.0777  0.0503
 1844SOL     OW17164   4.583   2.663   8.145 -0.3859 -0.3076 -0.1364
 1844SOL    HW117165   4.558   2.596   8.081 -1.7227  0.0357  0.0242
 1844SOL    HW217166   4.650   2.616   8.194  0.8980 -0.0613 -1.6439
 1845SOL     OW17167   3.592   2.022   5.353  0.3299  0.1610 -0.2189
 1845SOL    HW117168   3.678   2.064   5.353  0.1782  0.4494 -1.4900
 1845SOL    HW217169   3.561   2.053   5.268  1.0088 -0.5533 -0.7205
 1846SOL     OW17170   2.252   4.441   9.815  0.5185 -0.3912 -0.2348
 1846SOL    HW117171   2.180   4.495   9.847 -1.2133 -1.8707 -1.6001
 1846SOL    HW217172   2.259   4.476   9.725 -1.3708  0.6834  0.0315
 1847SOL     OW17173   0.811   2.908   1.057  0.3491  0.1274  0.2834
 1847SOL    HW117174   0.851   2.911   0.970  0.0470  0.4394  0.1567
 1847SOL    HW217175   0.728   2.948   1.030 -0.3912 -0.1340  2.2054
 1848SOL     OW17176   2.241   4.448   2.651  0.1555  0.1832 -0.1136
 1848SOL    HW117177   2.160   4.462   2.701  0.5893  0.7424  0.4432
 1848SOL    HW217178   2.226   4.503   2.574  1.4888  1.3639  0.4445
 1849SOL     OW17179   4.136   2.451   6.590 -0.6813 -0.2978  0.4901
 1849SOL    HW117180   4.138   2.434   6.496  2.0000 -1.4325  0.7401
 1849SOL    HW217181   4.128   2.546   6.605  0.7685 -0.4279  2.1823
 1850SOL     OW17182   0.830   3.604   7.445 -0.8954 -0.0342 -0.0474
 1850SOL    HW117183   0.899   3.572   7.503  0.8433  1.1740 -1.4279
 1850SOL    HW217184   0.781   3.524   7.427 -0.4072 -0.4253  0.3799
 1851SOL     OW17185   2.093   0.365   4.850 -0.8071 -0.0910  0.2308
 1851SOL    HW117186   2.028   0.302   4.883 -0.2635 -0.7698  0.0096
 1851SOL    HW217187   2.149   0.314   4.791  2.6032  1.3718  2.2316
 1852SOL     OW17188   3.585   1.852   4.965  0.1427  0.1455 -0.1084
 1852SOL    HW117189   3.584   1.847   4.870 -0.4993 -0.4104 -0.0700
 1852SOL    HW217190   3.493   1.833   4.984  0.2248 -0.2776 -0.1180
 1853SOL     OW17191   2.343   1.719   1.507 -0.2763  0.0680 -0.5473
 1853SOL    HW117192   2.407   1.652   1.483  1.6087  2.2894 -1.6496
 1853SOL    HW217193   2.259   1.675   1.520 -0.7240  0.8908 -0.6501
 1854SOL     OW17194   0.399   2.900  16.423  0.2116  0.6417  0.2956
 1854SOL    HW117195   0.460   2.888  16.497  0.6972 -0.5328 -0.2979
 1854SOL    HW217196   0.398   2.995  16.412 -1.7556  0.6561  0.5874
 1855SOL     OW17197   0.450   4.208  14.869  0.0300 -0.4936 -0.0116
 1855SOL    HW117198   0.409   4.161  14.942 -0.7504 -3.9945 -2.7017
 1855SOL    HW217199   0.371   4.236  14.824  0.0870 -0.2144  0.0624
 1856SOL     OW17200   4.237   0.868   6.267  0.6381 -0.0661  0.0792
 1856SOL    HW117201   4.157   0.867   6.216  0.3892  0.9182  0.4478
 1856SOL    HW217202   4.288   0.800   6.223  0.3853  0.4942 -1.0711
 1857SOL     OW17203   4.614   3.069   4.272 -0.4656 -0.1867  0.3577
 1857SOL    HW117204   4.569   2.984   4.265  2.5892 -1.7285 -0.2321
 1857SOL    HW217205   4.583   3.116   4.195 -3.1130 -1.0395  0.9008
 1858SOL     OW17206   4.509   0.492   5.941 -0.1207 -0.2551 -0.3427
 1858SOL    HW117207   4.546   0.488   5.853  1.0843 -1.8998  0.2191
 1858SOL    HW217208   4.442   0.557   5.922  0.2444 -0.0599 -0.9495
 1859SOL     OW17209   4.664   1.943   2.388  0.8084 -0.1706  0.0193
 1859SOL    HW117210   4.605   1.984   2.451 -0.1315  0.0183 -0.9785
 1859SOL    HW217211   4.732   2.011   2.388 -0.3032  0.9522  0.8629
 1860SOL     OW17212   1.193   1.726   2.081 -0.5418 -0.3959  0.1571
 1860SOL    HW117213   1.194   1.639   2.042  1.4399 -0.3004 -0.0107
 1860SOL    HW217214   1.263   1.712   2.146  0.1222  2.1344 -0.0100
 1861SOL     OW17215   1.560   0.602   4.034  0.2757  0.2194  0.8558
 1861SOL    HW117216   1.534   0.576   4.123  0.6090  0.9143  1.1574
 1861SOL    HW217217   1.474   0.600   3.993  1.0296  1.5189 -0.7839
 1862SOL     OW17218   2.413   2.889   7.217 -0.1946  0.0916  0.1336
 1862SOL    HW117219   2.399   2.866   7.309 -2.2479 -0.9101 -0.4368
 1862SOL    HW217220   2.345   2.955   7.199 -1.3437 -1.0097  0.4630
 1863SOL     OW17221   0.907   4.125   1.963 -0.2663 -0.0260  0.0695
 1863SOL    HW117222   0.906   4.199   1.902 -0.3917  0.3994  0.5957
 1863SOL    HW217223   0.842   4.155   2.025  1.5048  0.7196  1.5598
 1864SOL     OW17224   0.609   4.522   5.040 -0.0583  0.2016 -0.1712
 1864SOL    HW117225   0.627   4.485   5.126 -0.6213  0.4304  0.0407
 1864SOL    HW217226   0.672   4.594   5.033  0.8447 -0.4961  0.7946
 1865SOL     OW17227   3.323   3.979   0.836  0.3865  0.5421  0.1951
 1865SOL    HW117228   3.271   3.957   0.913  0.9450 -1.6047 -0.0337
 1865SOL    HW217229   3.328   4.074   0.844 -0.6069  0.2219  4.3339
 1866SOL     OW17230   3.628   1.133   7.256 -0.5524 -0.3299 -0.0536
 1866SOL    HW117231   3.571   1.157   7.329 -1.1140 -0.9582 -0.2885
 1866SOL    HW217232   3.712   1.160   7.295  0.0426 -1.2048 -0.7414
 1867SOL     OW17233   3.607   3.291   5.281 -0.3217  0.2199  0.4550
 1867SOL    HW117234   3.541   3.334   5.337 -0.6998 -1.3835  1.2374
 1867SOL    HW217235   3.553   3.223   5.242  1.9499 -0.3305 -1.7199
 1868SOL     OW17236   2.976   0.243   7.245  0.1378  0.0565  0.3777
 1868SOL    HW117237   3.025   0.251   7.164 -1.1747 -0.2139 -0.4435
 1868SOL    HW217238   3.045   0.215   7.305 -0.2416 -0.8450  0.3999
 1869SOL     OW17239   3.149   1.679   6.858 -1.0464  0.0915  0.2423
 1869SOL    HW117240   3.087   1.744   6.824  0.0971 -0.7520 -3.4640
 1869SOL    HW217241   3.113   1.597   6.825 -1.3048  0.3832 -0.2016
 1870SOL     OW17242   0.228   3.613   7.656  0.3225 -0.3002  0.5208
 1870SOL    HW117243   0.160   3.554   7.626  0.0382  0.8263 -1.0502
 1870SOL    HW217244   0.238   3.575   7.743 -1.3547 -1.1895  0.3242
 1871SOL     OW17245   2.737   0.120   6.415 -0.2466  0.1162  0.3026
 1871SOL    HW117246   2.747   0.201   6.366 -1.7585 -1.8224 -3.2381
 1871SOL    HW217247   2.820   0.095   6.456 -0.0026  0.4068 -0.0114
 1872SOL     OW17248   2.169   1.359   1.392  0.1507 -0.0533  0.0756
 1872SOL    HW117249   2.102   1.291   1.385  0.0896  0.1391 -1.2282
 1872SOL    HW217250   2.187   1.377   1.300  2.0466  0.3800  0.5421
 1873SOL     OW17251   2.148   0.844  12.469  0.5013 -0.4310 -0.4797
 1873SOL    HW117252   2.234   0.836  12.429 -0.7628 -3.1380 -2.6814
 1873SOL    HW217253   2.088   0.846  12.394  1.3029  1.9420 -1.0434
 1874SOL     OW17254   4.507   0.609   8.238 -0.1906 -0.3618 -0.2511
 1874SOL    HW117255   4.480   0.689   8.193  0.3175 -0.2780 -0.4135
 1874SOL    HW217256   4.465   0.628   8.322  0.1889  1.4088 -0.4653
 1875SOL     OW17257   3.608   2.485   8.286 -0.2452  0.1290  0.3215
 1875SOL    HW117258   3.658   2.496   8.367 -0.8534  1.6055  0.4955
 1875SOL    HW217259   3.673   2.449   8.226  0.5537  1.1173  0.5886
 1876SOL     OW17260   0.128   2.265   4.005 -0.5240  0.5556 -0.1964
 1876SOL    HW117261   0.133   2.170   3.991 -0.2635  0.5458 -0.0343
 1876SOL    HW217262   0.205   2.287   3.952 -0.4806  4.1909  1.4232
 1877SOL     OW17263   0.999   4.182  17.305  0.4588 -0.4215 -0.0508
 1877SOL    HW117264   0.939   4.242  17.261  0.1104 -0.1734  0.7585
 1877SOL    HW217265   0.989   4.205  17.397  1.3522  0.6559 -0.2255
 1878SOL     OW17266   0.240   1.976  12.840 -0.1450 -0.8998 -0.3764
 1878SOL    HW117267   0.234   2.071  12.832 -0.4552 -0.7449  1.7325
 1878SOL    HW217268   0.198   1.957  12.924 -0.0627 -0.2826 -0.1997
 1879SOL     OW17269   3.224   0.183   2.047  0.2469 -0.4331 -0.0624
 1879SOL    HW117270   3.224   0.264   1.997 -0.8890 -1.2510 -1.3821
 1879SOL    HW217271   3.134   0.194   2.079  0.4208 -1.4596  0.7923
 1880SOL     OW17272   2.305   0.173   0.932 -0.0750  0.3206 -0.2282
 1880SOL    HW117273   2.287   0.267   0.926  1.8019  0.7346  0.6038
 1880SOL    HW217274   2.357   0.170   1.012 -2.0766  0.2690  1.0807
 1881SOL     OW17275   2.572   2.872  11.153 -0.3196 -0.0886 -0.2767
 1881SOL    HW117276   2.506   2.816  11.112 -2.6452  2.3967  0.0566
 1881SOL    HW217277   2.593   2.818  11.228 -3.1191 -0.0736  0.5246
 1882SOL     OW17278   0.127   3.110  15.069 -0.0895 -0.3906 -0.1746
 1882SOL    HW117279   0.201   3.066  15.111 -1.7610 -0.7427  2.4183
 1882SOL    HW217280   0.142   3.201  15.095 -0.7072 -0.7962  1.6505
 1883SOL     OW17281   2.709   3.953   8.059  0.1182  0.3715 -0.0770
 1883SOL    HW117282   2.750   3.976   7.975 -1.0232  0.9140 -0.4944
 1883SOL    HW217283   2.623   3.928   8.023  0.3081 -0.1532 -0.1812
 1884SOL     OW17284   1.659   4.281   6.525 -0.0851 -0.0502  0.4507
 1884SOL    HW117285   1.689   4.338   6.455 -1.6918  0.3999  0.1423
 1884SOL    HW217286   1.689   4.332   6.600  3.1535 -0.7709 -0.3500
 1885SOL     OW17287   0.049   1.438   7.318 -0.6563  0.0975  0.0081
 1885SOL    HW117288   4.713   1.465   7.259 -0.6570 -0.2307 -0.1420
 1885SOL    HW217289   0.021   1.476   7.402  0.7214 -1.5738  1.2045
 1886SOL     OW17290   0.030   2.186  12.659 -0.4597 -0.0956 -0.0325
 1886SOL    HW117291   0.076   2.201  12.741  1.4782 -0.1798 -1.0976
 1886SOL    HW217292   4.681   2.144  12.684 -0.9527  0.6362 -0.4268
 1887SOL     OW17293   2.520   1.622   3.314  0.1267 -0.9747  0.1810
 1887SOL    HW117294   2.596   1.658   3.268 -1.1143  1.0415 -0.2841
 1887SOL    HW217295   2.457   1.652   3.249  1.8047  1.6837 -0.2299
 1888SOL     OW17296   0.780   0.607   6.233 -0.2009 -0.1122  0.4721
 1888SOL    HW117297   0.773   0.538   6.167 -3.3050  0.9752 -0.3676
 1888SOL    HW217298   0.872   0.632   6.225 -0.6556  1.7781  1.1431
 1889SOL     OW17299   3.294   3.675   8.870 -0.1649  0.5655  0.7529
 1889SOL    HW117300   3.211   3.710   8.838  0.1271 -0.0944 -0.7255
 1889SOL    HW217301   3.354   3.700   8.800 -1.2110  1.4567  0.1794
 1890SOL     OW17302   3.004   3.525   6.841 -1.2952 -0.3694 -0.2979
 1890SOL    HW117303   2.996   3.497   6.750  1.4747 -2.7544  0.1701
 1890SOL    HW217304   3.096   3.508   6.862 -1.8902  0.4700  2.9017
 1891SOL     OW17305   1.038   3.448  12.182  0.3356 -0.2794 -0.8027
 1891SOL    HW117306   0.959   3.412  12.222 -0.1402  2.0564  0.3176
 1891SOL    HW217307   1.090   3.368  12.188  0.3420 -0.1909  0.2431
 1892SOL     OW17308   3.362   3.091   6.057 -0.0926  0.1064 -0.4557
 1892SOL    HW117309   3.369   3.070   6.151 -1.8820  0.3060 -0.2821
 1892SOL    HW217310   3.455   3.082   6.033  0.2267 -2.9909  1.9680
 1893SOL     OW17311   0.069   0.770   7.635 -0.3252 -0.0273  0.2160
 1893SOL    HW117312   0.146   0.812   7.595 -0.2857  1.6937  2.0897
 1893SOL    HW217313   0.030   0.848   7.674  0.5114  1.2170 -1.4271
 1894SOL     OW17314   0.982   2.512  13.749 -0.0207 -0.0646 -0.8168
 1894SOL    HW117315   0.969   2.576  13.679 -0.9542 -0.3749 -0.9228
 1894SOL    HW217316   0.908   2.453  13.735 -0.1385 -0.1376  0.1146
 1895SOL     OW17317   2.716   2.390   4.578 -0.2978  0.2689 -0.2078
 1895SOL    HW117318   2.726   2.304   4.618 -2.7554 -0.8677 -2.0234
 1895SOL    HW217319   2.797   2.385   4.528 -0.0456  0.1105  0.2230
 1896SOL     OW17320   3.903   3.731   3.473 -0.2636  0.1895 -0.0193
 1896SOL    HW117321   3.819   3.694   3.447 -1.5144  2.9259  0.1800
 1896SOL    HW217322   3.874   3.822   3.482  3.0570  0.9132  3.3753
 1897SOL     OW17323   1.922   2.732   3.584 -0.0530 -0.5857 -0.8339
 1897SOL    HW117324   1.870   2.754   3.661  0.5652 -0.1147 -0.5498
 1897SOL    HW217325   1.936   2.638   3.587 -2.9432 -1.0703 -2.4274
 1898SOL     OW17326   2.656   2.424   9.275  0.3756  0.1587 -0.4926
 1898SOL    HW117327   2.611   2.473   9.207 -0.5710 -1.3860 -0.9926
 1898SOL    HW217328   2.593   2.404   9.344  2.5294 -0.7590  1.2270
 1899SOL     OW17329   2.916   3.107   5.318  0.1524  0.1560  0.1297
 1899SOL    HW117330   2.955   3.174   5.262  1.5186 -0.1310  0.7217
 1899SOL    HW217331   2.825   3.107   5.288 -0.3937 -0.6196  1.7917
 1900SOL     OW17332   4.311   2.999   8.758 -0.0856  0.4458  0.3332
 1900SOL    HW117333   4.358   2.915   8.759 -1.3210 -0.2438  0.1291
 1900SOL    HW217334   4.305   3.006   8.662  0.3759 -1.4367  0.1597
 1901SOL     OW17335   1.823   2.021  11.856  0.1098 -0.6346  0.9101
 1901SOL    HW117336   1.781   2.106  11.868  0.4879 -0.7442  3.1423
 1901SOL    HW217337   1.810   1.995  11.765 -0.3348  1.5953  0.3160
 1902SOL     OW17338   3.144   3.553   1.584  0.8461 -0.6841 -0.3095
 1902SOL    HW117339   3.131   3.495   1.659 -1.3497  0.0626 -0.1187
 1902SOL    HW217340   3.055   3.544   1.551  0.4437 -2.9858  1.3726
 1903SOL     OW17341   4.536   2.793   1.042 -0.3134 -0.2469 -0.4788
 1903SOL    HW117342   4.525   2.860   0.974 -2.2349 -3.4747 -3.3584
 1903SOL    HW217343   4.545   2.713   0.991  0.8574  0.0873 -0.8005
 1904SOL     OW17344   4.029   3.437   4.242 -0.0814 -0.2205 -0.0184
 1904SOL    HW117345   4.024   3.512   4.183  0.6202 -0.1745 -0.0222
 1904SOL    HW217346   4.105   3.457   4.297  0.8290  2.6969 -2.3355
 1905SOL     OW17347   4.710   3.089  10.591  0.2974  0.6086  0.0882
 1905SOL    HW117348   4.718   3.142  10.670 -1.2313 -0.0785  0.6999
 1905SOL    HW217349   0.066   3.063  10.573  0.1224  0.1448 -0.1143
 1906SOL     OW17350   1.669   4.419   6.969  0.1509  0.2177  0.0140
 1906SOL    HW117351   1.723   4.364   6.911 -1.1285  0.0607 -1.0197
 1906SOL    HW217352   1.595   4.360   6.980  0.4424 -0.2013 -0.2633
 1907SOL     OW17353   1.311   2.908   4.595 -0.4011  0.2904  0.5390
 1907SOL    HW117354   1.279   2.954   4.673  0.1614  0.3874  0.7090
 1907SOL    HW217355   1.287   2.818   4.618  0.8240 -0.9569 -3.0981
 1908SOL     OW17356   2.314   4.227  10.562 -0.3699 -0.0009 -0.4981
 1908SOL    HW117357   2.374   4.154  10.575 -0.8342 -0.2967 -0.0228
 1908SOL    HW217358   2.346   4.254  10.476  1.0547  0.1574  0.0772
 1909SOL     OW17359   3.324   2.451   3.260  0.1491 -0.0842 -0.1235
 1909SOL    HW117360   3.330   2.388   3.189 -0.1482 -1.6227  1.1955
 1909SOL    HW217361   3.336   2.530   3.208 -0.4290  1.8826  2.6783
 1910SOL     OW17362   0.167   2.144   2.338  0.2206  0.2116  0.5364
 1910SOL    HW117363   0.257   2.111   2.336 -0.2673 -1.0770 -0.5755
 1910SOL    HW217364   0.146   2.176   2.250  2.1250  0.8918  0.3419
 1911SOL     OW17365   1.225   4.008   2.618  0.0716 -0.4090  0.3269
 1911SOL    HW117366   1.253   4.074   2.555 -0.1607  1.6636  2.4030
 1911SOL    HW217367   1.231   3.930   2.563 -0.0383 -0.9160  1.0274
 1912SOL     OW17368   0.530   2.559   7.472 -0.4107 -0.4487 -0.4104
 1912SOL    HW117369   0.601   2.611   7.509 -0.0927 -1.3499  0.2304
 1912SOL    HW217370   0.572   2.503   7.407  0.7969 -0.2795  0.2399
 1913SOL     OW17371   2.357   2.994   9.722  0.1037 -0.2337 -0.0849
 1913SOL    HW117372   2.394   3.038   9.645  1.8537 -0.3275  0.6830
 1913SOL    HW217373   2.286   2.954   9.673  0.6184 -0.1214 -0.9253
 1914SOL     OW17374   1.856   3.166   2.111  0.0676 -0.3838 -0.1039
 1914SOL    HW117375   1.951   3.168   2.121  0.0404 -0.2244  0.1366
 1914SOL    HW217376   1.825   3.222   2.182 -1.0747  1.7549 -2.3157
 1915SOL     OW17377   3.671   2.186   1.403 -0.4417 -0.3061  0.7936
 1915SOL    HW117378   3.658   2.098   1.368  1.1977 -0.6055  0.9823
 1915SOL    HW217379   3.764   2.194   1.422  0.3261  0.7482 -3.2938
 1916SOL     OW17380   3.175   2.536   7.448 -0.3310 -0.0082 -0.7996
 1916SOL    HW117381   3.159   2.587   7.369  0.4332 -0.2673 -1.1162
 1916SOL    HW217382   3.123   2.588   7.509  0.1695 -0.1376 -0.2538
 1917SOL     OW17383   3.984   4.024   4.955  0.0038 -0.1766 -0.6114
 1917SOL    HW117384   4.036   3.979   5.021 -1.0880 -1.6037 -0.7109
 1917SOL    HW217385   3.897   4.023   4.995 -0.6531 -1.4668 -2.0745
 1918SOL     OW17386   0.739   3.436   4.291  0.0314  0.2165 -0.4333
 1918SOL    HW117387   0.665   3.401   4.241  0.2700  0.3482 -0.8806
 1918SOL    HW217388   0.768   3.351   4.325  0.2480  0.5665  0.2474
 1919SOL     OW17389   0.073   2.691  15.483 -0.1481  0.5189 -0.2946
 1919SOL    HW117390   0.110   2.762  15.430  3.2662 -1.8856 -1.1350
 1919SOL    HW217391   4.716   2.707  15.458 -0.3306  0.1787  0.1291
 1920SOL     OW17392   1.911   0.598   4.231  0.5159 -0.5508  0.3576
 1920SOL    HW117393   1.914   0.536   4.304  1.4521  0.3297  1.0713
 1920SOL    HW217394   1.875   0.675   4.276  1.5797 -0.4016  0.9586
 1921SOL     OW17395   0.884   1.296   2.833 -0.3717  0.3897 -0.4530
 1921SOL    HW117396   0.977   1.303   2.811 -0.4664 -0.4091 -1.1056
 1921SOL    HW217397   0.885   1.342   2.917 -2.8452  0.0328 -0.2149
 1922SOL     OW17398   2.881   2.957   2.528  0.5386  0.7525 -0.0540
 1922SOL    HW117399   2.856   3.023   2.464 -2.8879 -0.7656 -0.2790
 1922SOL    HW217400   2.815   2.895   2.498  0.3469  0.8630  0.1369
 1923SOL     OW17401   0.759   1.108   2.482 -0.2747  0.4586 -0.2969
 1923SOL    HW117402   0.790   1.019   2.501 -0.6047  0.4416  0.1560
 1923SOL    HW217403   0.835   1.155   2.514 -1.9909  1.7050  1.9411
 1924SOL     OW17404   3.300   1.675   4.420 -0.3997 -0.0952  0.2165
 1924SOL    HW117405   3.270   1.697   4.508  0.7373 -0.5231  0.7161
 1924SOL    HW217406   3.330   1.761   4.390 -0.2343  0.5301  2.1325
 1925SOL     OW17407   3.961   2.859   7.122  0.2896  0.4964  0.2037
 1925SOL    HW117408   4.045   2.815   7.127 -0.8569 -1.5719  1.2803
 1925SOL    HW217409   3.956   2.882   7.215  0.0781 -4.1542  1.3373
 1926SOL     OW17410   4.289   3.809   4.521 -0.1178  0.0460  0.5333
 1926SOL    HW117411   4.326   3.893   4.493 -0.5307  0.1630  0.3494
 1926SOL    HW217412   4.230   3.831   4.594  0.4387  1.1027  0.6706
 1927SOL     OW17413   3.374   1.517   6.113 -0.0713 -0.0083 -0.4345
 1927SOL    HW117414   3.455   1.566   6.131 -0.8335  0.8801  0.5830
 1927SOL    HW217415   3.407   1.427   6.109  0.3219  0.0773  0.8340
 1928SOL     OW17416   0.608   3.535   6.839  0.2595 -0.2090 -0.4507
 1928SOL    HW117417   0.525   3.556   6.796 -0.3314  0.4115  0.9738
 1928SOL    HW217418   0.590   3.447   6.872 -0.0983 -0.5202 -1.4842
 1929SOL     OW17419   2.557   3.952  15.078 -0.1243  0.2039 -1.0602
 1929SOL    HW117420   2.606   4.007  15.139 -2.5530  1.5640 -0.3069
 1929SOL    HW217421   2.525   3.877  15.128 -0.0628  1.1797  0.4336
 1930SOL     OW17422   1.474   0.985   3.876  0.0072  0.2239  0.4526
 1930SOL    HW117423   1.437   1.068   3.846  0.5615  0.7712  1.2724
 1930SOL    HW217424   1.493   0.936   3.795 -0.9573  0.3966  0.1288
 1931SOL     OW17425   0.350   3.706   9.338 -0.1793  0.5107  0.1619
 1931SOL    HW117426   0.263   3.711   9.299 -0.5834 -1.2740  0.7927
 1931SOL    HW217427   0.392   3.792   9.333  0.9832  0.0356  1.5553
 1932SOL     OW17428   3.134   3.733   3.528 -0.2133 -0.2909 -0.4451
 1932SOL    HW117429   3.119   3.704   3.618 -0.6180 -2.2983 -1.1595
 1932SOL    HW217430   3.228   3.725   3.515  0.0560 -0.0777  1.4486
 1933SOL     OW17431   1.994   4.438   6.261  0.1257 -0.1009  0.3226
 1933SOL    HW117432   2.041   4.455   6.343  3.4668 -1.5080 -1.2793
 1933SOL    HW217433   1.903   4.432   6.289  0.4849 -0.5730  1.3952
 1934SOL     OW17434   3.128   4.496   5.749  0.4456 -0.2100  0.0165
 1934SOL    HW117435   3.103   4.585   5.727  0.7169  0.0964  0.9490
 1934SOL    HW217436   3.054   4.444   5.716 -0.0683 -0.4008  1.4644
 1935SOL     OW17437   4.471   2.313  12.032 -0.1424  0.2135  0.3788
 1935SOL    HW117438   4.477   2.366  11.953 -0.8306 -0.8729 -0.3879
 1935SOL    HW217439   4.379   2.289  12.035  0.6837 -3.1179 -0.7410
 1936SOL     OW17440   2.846   1.804  10.651  0.2254  0.2086 -0.3971
 1936SOL    HW117441   2.783   1.848  10.708  1.6762 -1.2452  2.3323
 1936SOL    HW217442   2.865   1.858  10.575 -1.2358  0.2690 -0.7244
 1937SOL     OW17443   1.978   1.407   4.005 -0.3413 -0.2305 -0.2885
 1937SOL    HW117444   2.053   1.388   4.061 -0.6462 -0.0737  0.1770
 1937SOL    HW217445   2.021   1.431   3.923  0.3828  0.4726  0.3030
 1938SOL     OW17446   0.705   2.287   4.987 -0.2445 -0.5400  0.2232
 1938SOL    HW117447   0.694   2.201   4.946 -0.9813 -0.3081 -0.0601
 1938SOL    HW217448   0.750   2.324   4.911 -2.5834  0.1334 -0.8072
 1939SOL     OW17449   3.296   0.419   1.735  0.2448  0.6814  0.4771
 1939SOL    HW117450   3.208   0.412   1.696  0.3301 -2.2657  0.8177
 1939SOL    HW217451   3.320   0.491   1.677  0.2482  1.6993  1.7508
 1940SOL     OW17452   2.364   2.727   8.369  0.3954 -0.3390 -0.2312
 1940SOL    HW117453   2.297   2.660   8.367 -0.1842  0.1897  1.1832
 1940SOL    HW217454   2.335   2.774   8.448 -1.5540 -1.3862 -0.3297
 1941SOL     OW17455   0.015   2.658   6.872 -0.1272  0.1706 -0.2318
 1941SOL    HW117456   0.078   2.680   6.803 -0.5330 -2.2820 -1.3917
 1941SOL    HW217457   0.077   2.666   6.944  0.4058  0.7216 -0.7451
 1942SOL     OW17458   2.101   2.326   5.847  0.1729  0.2343  0.0776
 1942SOL    HW117459   2.059   2.363   5.925 -0.0563  1.5563 -0.6723
 1942SOL    HW217460   2.102   2.399   5.785  2.2054  0.8711  0.8584
 1943SOL     OW17461   4.656   1.097   1.762  0.0944  0.1564  0.2996
 1943SOL    HW117462   4.715   1.132   1.829  0.8182  0.6488 -0.5936
 1943SOL    HW217463   4.656   1.004   1.783 -0.4036  0.0296 -0.2845
 1944SOL     OW17464   0.894   2.093  12.390 -0.2261  0.0138  0.2466
 1944SOL    HW117465   0.955   2.124  12.323 -1.2645  0.4444 -0.5009
 1944SOL    HW217466   0.837   2.040  12.335  1.4486  2.0037 -3.3619
 1945SOL     OW17467   0.932   2.846  16.482  0.1297  0.1857  0.0953
 1945SOL    HW117468   0.842   2.842  16.450 -0.1157  2.0909  0.5352
 1945SOL    HW217469   0.989   2.809  16.416 -3.0421 -0.1970 -2.4174
 1946SOL     OW17470   1.371   3.582   1.682 -0.6125  0.1132 -0.2847
 1946SOL    HW117471   1.351   3.671   1.710  2.4929 -0.2226  2.9569
 1946SOL    HW217472   1.406   3.544   1.763 -1.6227 -3.8101 -1.6826
 1947SOL     OW17473   0.761   2.869  13.906 -0.4271  0.3283 -0.1818
 1947SOL    HW117474   0.666   2.861  13.895 -0.0446 -0.5487 -2.7113
 1947SOL    HW217475   0.779   2.837  13.995 -3.1900 -1.3050 -0.2225
 1948SOL     OW17476   4.475   3.894  17.126 -0.5957  0.2201 -0.3024
 1948SOL    HW117477   4.383   3.896  17.099 -0.0734  1.3132 -1.9453
 1948SOL    HW217478   4.480   3.922  17.218  0.5902  0.3919 -0.4187
 1949SOL     OW17479   2.765   4.466   7.308  0.4538  0.1721 -0.4702
 1949SOL    HW117480   2.726   4.380   7.289  0.5566 -0.3535  1.6601
 1949SOL    HW217481   2.843   4.428   7.348 -0.8325 -4.2800 -2.1119
 1950SOL     OW17482   3.800   3.611   3.981  0.6726 -0.0995  0.5144
 1950SOL    HW117483   3.847   3.534   3.949 -0.8300 -0.4972 -0.7302
 1950SOL    HW217484   3.722   3.618   3.926  0.8516  0.7749  0.3661
 1951SOL     OW17485   1.476   3.174   4.414  0.6427 -0.3766 -0.1090
 1951SOL    HW117486   1.515   3.192   4.328 -1.4101 -1.5381 -1.2692
 1951SOL    HW217487   1.424   3.098   4.389  1.3702 -1.0839  0.5216
 1952SOL     OW17488   3.888   2.050   3.980  0.4900 -0.3919  0.7091
 1952SOL    HW117489   3.820   2.114   4.003  1.2842  0.1557  1.5563
 1952SOL    HW217490   3.933   2.096   3.909  0.3463 -0.7338  0.3952
 1953SOL     OW17491   4.434   0.237   2.641  0.3197 -0.3684 -0.2123
 1953SOL    HW117492   4.364   0.274   2.587  1.1003  1.6419  0.1412
 1953SOL    HW217493   4.398   0.272   2.722  0.5392 -0.8295  0.0817
 1954SOL     OW17494   3.157   0.634   2.286 -0.0217  0.8440  0.4730
 1954SOL    HW117495   3.130   0.597   2.202  2.0028 -0.7238  0.5070
 1954SOL    HW217496   3.252   0.625   2.290 -0.1409 -0.5190  0.0599
 1955SOL     OW17497   1.535   3.338   3.747  0.2770 -0.1743  0.1238
 1955SOL    HW117498   1.532   3.369   3.838 -0.2158 -0.7092  0.2902
 1955SOL    HW217499   1.443   3.344   3.724  0.8367  1.5928 -1.6505
 1956SOL     OW17500   2.400   1.909   4.327 -0.0986 -0.4581  0.3815
 1956SOL    HW117501   2.305   1.898   4.327 -0.1383 -0.2461 -3.3732
 1956SOL    HW217502   2.418   1.967   4.253 -4.0799 -0.6301 -0.7072
 1957SOL     OW17503   3.383   3.933   9.808  0.7513 -0.2136 -0.5160
 1957SOL    HW117504   3.372   4.002   9.874  1.8117  2.1311 -2.7922
 1957SOL    HW217505   3.310   3.877   9.837  1.3555 -1.3890 -1.2733
 1958SOL     OW17506   3.922   0.871   3.657 -0.1376  0.1266 -0.2840
 1958SOL    HW117507   3.984   0.909   3.594 -1.7488 -1.7854 -3.0196
 1958SOL    HW217508   3.865   0.947   3.665 -0.0303 -0.0911  2.5292
 1959SOL     OW17509   1.984   3.710   3.236 -0.2323  0.1706  1.0559
 1959SOL    HW117510   1.906   3.759   3.210 -1.3336 -1.1036  1.9709
 1959SOL    HW217511   1.953   3.673   3.319  1.9489 -2.2111  0.8185
 1960SOL     OW17512   0.356   2.379   8.184  0.7728  0.4927  0.1649
 1960SOL    HW117513   0.378   2.336   8.101 -1.0417 -0.5022  0.1973
 1960SOL    HW217514   0.403   2.319   8.241  1.4019 -0.8070 -1.7412
 1961SOL     OW17515   1.966   0.661   8.350  0.1469 -0.4134  0.1573
 1961SOL    HW117516   1.990   0.621   8.433  1.9318  0.0317 -0.1336
 1961SOL    HW217517   1.915   0.739   8.373  1.3709  0.3030  0.4620
 1962SOL     OW17518   4.066   0.790  11.480  0.0791  0.5300 -0.6808
 1962SOL    HW117519   4.001   0.735  11.525  1.6808  0.1228  1.1427
 1962SOL    HW217520   4.030   0.776  11.393 -1.8111  4.0842 -0.4660
 1963SOL     OW17521   1.174   3.457   8.389 -0.3093  0.2122  0.4575
 1963SOL    HW117522   1.100   3.479   8.445 -0.8723 -2.5878  0.8040
 1963SOL    HW217523   1.155   3.365   8.371  1.0768  0.2125 -1.1190
 1964SOL     OW17524   0.920   1.707  16.914  0.1495  0.2194  0.1753
 1964SOL    HW117525   1.006   1.725  16.875 -0.9816  2.8544 -1.1604
 1964SOL    HW217526   0.938   1.681  17.004 -1.7151 -0.9609  0.2022
 1965SOL     OW17527   2.987   0.155  11.785 -0.5420 -0.0218 -1.0217
 1965SOL    HW117528   3.011   0.247  11.778 -2.1332  0.5290  0.7891
 1965SOL    HW217529   2.957   0.137  11.696 -1.3566 -0.0538 -0.7452
 1966SOL     OW17530   2.962   0.102   2.887 -0.2904  0.5363 -0.0359
 1966SOL    HW117531   2.887   0.113   2.946  0.5041 -0.9440  1.2523
 1966SOL    HW217532   2.971   0.007   2.896 -0.3490  0.6358  1.0594
 1967SOL     OW17533   4.671   0.907  10.332 -0.2203 -0.2110 -0.7395
 1967SOL    HW117534   4.600   0.915  10.395  0.4766  1.5304 -0.1746
 1967SOL    HW217535   4.679   0.990  10.284 -0.0643  0.0193 -0.3093
 1968SOL     OW17536   3.897   1.030   7.737 -0.5688 -0.2851 -0.0881
 1968SOL    HW117537   3.895   0.936   7.756 -0.9192  0.0639  1.6566
 1968SOL    HW217538   3.817   1.052   7.787 -0.3784  2.4570 -0.9783
 1969SOL     OW17539   3.887   2.412   3.583  1.2131  0.2769  0.1611
 1969SOL    HW117540   3.961   2.429   3.641  2.2320 -2.3338 -0.3856
 1969SOL    HW217541   3.896   2.319   3.562 -0.9775 -0.0240  0.5270
 1970SOL     OW17542   0.804   2.414   7.400  0.0350  0.1636  0.2209
 1970SOL    HW117543   0.889   2.387   7.436 -0.4614  0.9696  2.0163
 1970SOL    HW217544   0.799   2.365   7.318 -0.2168  0.4075  0.0912
 1971SOL     OW17545   1.632   4.439   7.381  0.0670  0.3267 -0.8574
 1971SOL    HW117546   1.649   4.516   7.326  0.7098 -0.4265 -1.7103
 1971SOL    HW217547   1.661   4.474   7.465 -1.1729 -0.3803 -0.1429
 1972SOL     OW17548   3.815   2.904  16.014 -0.1535  0.6525  0.5023
 1972SOL    HW117549   3.789   2.984  16.059 -2.8671 -1.0501  1.9977
 1972SOL    HW217550   3.807   2.943  15.927 -1.7977 -0.7317  0.0090
 1973SOL     OW17551   3.187   2.826   7.321 -0.4775  0.4073  0.1903
 1973SOL    HW117552   3.167   2.865   7.236  0.3233  0.5652  0.0753
 1973SOL    HW217553   3.105   2.843   7.369 -0.4755 -0.3710  0.4815
 1974SOL     OW17554   0.702   0.993   2.815  0.7053  0.2140 -0.7261
 1974SOL    HW117555   0.618   0.963   2.849  1.0292  1.3596  1.1308
 1974SOL    HW217556   0.690   1.085   2.838 -0.5501  0.1300 -1.0438
 1975SOL     OW17557   2.991   4.504   5.423  0.4556  0.1827 -0.0906
 1975SOL    HW117558   2.993   4.415   5.457  0.2420 -0.1290 -0.8870
 1975SOL    HW217559   2.898   4.522   5.439  0.3571 -0.4637  0.0467
 1976SOL     OW17560   2.853   2.025  15.343 -0.1891 -0.3689 -0.2341
 1976SOL    HW117561   2.837   1.971  15.266  2.3029 -1.8676  0.2963
 1976SOL    HW217562   2.914   1.965  15.388 -0.5333 -0.0068  0.7287
 1977SOL     OW17563   3.872   1.953   3.674 -0.2303  0.3830 -0.8211
 1977SOL    HW117564   3.784   1.973   3.643 -0.5914 -1.4286 -0.9797
 1977SOL    HW217565   3.838   1.908   3.751  2.1765  3.3647  2.0066
 1978SOL     OW17566   4.001   0.044   6.317  0.4739  0.1787 -0.3181
 1978SOL    HW117567   4.005   4.724   6.238 -1.9234  0.3762 -0.5707
 1978SOL    HW217568   3.908   0.066   6.328 -0.2714 -2.3514 -1.5024
 1979SOL     OW17569   0.864   0.507   5.121 -0.3069  0.3551 -0.3343
 1979SOL    HW117570   0.794   0.512   5.186  1.0961 -0.7277  1.2862
 1979SOL    HW217571   0.837   0.436   5.063  0.2025  0.6228 -0.9040
 1980SOL     OW17572   1.386   1.677   6.492  0.2095 -0.3680  0.2494
 1980SOL    HW117573   1.305   1.722   6.467  0.7092  1.0598  1.2025
 1980SOL    HW217574   1.370   1.587   6.463 -1.0800  0.1160 -0.5340
 1981SOL     OW17575   2.526   3.258   4.967 -0.4361 -0.5557 -0.0004
 1981SOL    HW117576   2.594   3.326   4.963  0.2510 -1.2812 -0.8771
 1981SOL    HW217577   2.450   3.308   4.937 -1.5521 -0.8331  2.4062
 1982SOL     OW17578   0.777   1.487   2.079  0.2402 -0.2893  0.2539
 1982SOL    HW117579   0.753   1.571   2.039  1.5425  0.4915  1.1162
 1982SOL    HW217580   0.867   1.468   2.050  0.0914  1.2634 -1.2278
 1983SOL     OW17581   3.616   3.759   2.672  0.4046  0.1856 -0.0087
 1983SOL    HW117582   3.564   3.820   2.725 -0.9849 -1.3025  0.3531
 1983SOL    HW217583   3.702   3.799   2.672  1.3760 -1.8723  0.0782
 1984SOL     OW17584   3.625   4.318   3.032 -0.0563  0.3303  0.1554
 1984SOL    HW117585   3.537   4.279   3.034 -0.1384  0.4484 -1.7899
 1984SOL    HW217586   3.660   4.268   3.106 -1.5095 -0.0359  0.6051
 1985SOL     OW17587   3.382   1.949   1.373  0.2186 -0.9440 -0.5831
 1985SOL    HW117588   3.330   1.868   1.380 -1.3527  0.0331 -0.8882
 1985SOL    HW217589   3.469   1.909   1.379 -0.0906 -1.5326  0.0623
 1986SOL     OW17590   2.213   0.171  16.806  0.1059 -0.6369  0.5151
 1986SOL    HW117591   2.209   0.076  16.789 -1.1941 -0.7967  1.6932
 1986SOL    HW217592   2.297   0.167  16.851  0.2463  0.5099  0.3331
 1987SOL     OW17593   3.006   0.785  17.412  0.0556  0.6278 -0.4913
 1987SOL    HW117594   2.961   0.709  17.376  2.0415 -0.8865  0.1877
 1987SOL    HW217595   2.971   0.860  17.364  1.1111  1.3080 -0.1992
 1988SOL     OW17596   2.174   4.380   4.002  0.6448 -0.6047 -0.6269
 1988SOL    HW117597   2.178   4.309   3.938 -1.6368 -0.1832 -1.2363
 1988SOL    HW217598   2.267   4.392   4.019  0.4276  0.2648  0.0185
 1989SOL     OW17599   2.654   1.322   3.693 -0.0663 -0.0233 -0.5225
 1989SOL    HW117600   2.671   1.392   3.629  1.4089  0.3171  0.2433
 1989SOL    HW217601   2.637   1.242   3.644 -1.0540 -0.1832  0.0862
 1990SOL     OW17602   2.350   1.596   9.750  0.0415 -0.0537  0.4226
 1990SOL    HW117603   2.380   1.569   9.837  0.3012  0.1552  0.3991
 1990SOL    HW217604   2.306   1.680   9.762  1.2706  0.6475 -0.0256
 1991SOL     OW17605   3.192   0.009   8.444  0.0242 -0.3623 -0.0109
 1991SOL    HW117606   3.154   4.656   8.454  0.4750 -0.3713  1.6873
 1991SOL    HW217607   3.186   0.021   8.350 -1.3992  0.8025  0.2172
 1992SOL     OW17608   2.536   4.589   4.925 -0.0391 -0.6568  0.0750
 1992SOL    HW117609   2.537   4.598   4.830  1.7450  0.9286  0.2508
 1992SOL    HW217610   2.605   4.650   4.949  0.5050 -0.5360 -1.8081
 1993SOL     OW17611   3.728   4.731   9.341  0.3751  0.1902  0.5735
 1993SOL    HW117612   3.772   0.002   9.426 -1.8618  1.1019  1.6869
 1993SOL    HW217613   3.653   4.679   9.368 -1.5416  3.2195  1.1329
 1994SOL     OW17614   1.071   0.004   8.709 -0.0036  0.3222 -0.1923
 1994SOL    HW117615   1.081   0.024   8.616  0.1623 -2.3880 -0.7582
 1994SOL    HW217616   0.996   4.679   8.710  1.3292 -1.3462  1.5774
 1995SOL     OW17617   1.478   1.901   9.466  0.1965 -0.4170  0.7344
 1995SOL    HW117618   1.480   1.888   9.561  1.7375 -0.4253  0.6993
 1995SOL    HW217619   1.557   1.955   9.462  0.4558 -0.8919 -0.4022
 1996SOL     OW17620   0.704   3.285   7.407 -0.1101  0.9654 -0.6105
 1996SOL    HW117621   0.632   3.283   7.470  0.7092 -1.6891  0.2579
 1996SOL    HW217622   0.648   3.287   7.329 -2.7015  1.6769  1.2864
 1997SOL     OW17623   1.494   3.940   2.272 -0.0326  0.0626  0.4607
 1997SOL    HW117624   1.407   3.901   2.270  1.1974 -2.7494  1.3723
 1997SOL    HW217625   1.493   3.975   2.362 -0.3226  0.2647  0.3796
 1998SOL     OW17626   3.871   0.602   6.795 -0.4572  0.1634  0.4753
 1998SOL    HW117627   3.845   0.614   6.886  0.3285 -1.9113  0.9517
 1998SOL    HW217628   3.873   0.689   6.754 -1.5689 -0.0779 -0.0772
 1999SOL     OW17629   2.334   1.553   7.021 -0.2145  0.7455  0.7794
 1999SOL    HW117630   2.260   1.521   7.072 -0.8711 -1.3619 -1.5363
 1999SOL    HW217631   2.408   1.529   7.077  0.7127  0.7107 -0.4583
 2000SOL     OW17632   1.940   0.526   8.752  0.4832 -0.1616  0.5756
 2000SOL    HW117633   1.985   0.479   8.682 -0.0871 -1.2081  0.9047
 2000SOL    HW217634   2.001   0.594   8.780 -2.8423  2.5678  1.1996
 2001SOL     OW17635   4.283   0.250   7.761  0.0467  0.0774 -0.0579
 2001SOL    HW117636   4.322   0.336   7.777  0.7242 -0.6372  2.2658
 2001SOL    HW217637   4.321   0.230   7.676 -0.5941 -0.2696 -0.2583
 2002SOL     OW17638   3.290   3.975   3.978  0.3106 -0.2085  0.3833
 2002SOL    HW117639   3.272   3.884   3.956  1.2921 -0.9896  2.6830
 2002SOL    HW217640   3.330   4.004   3.896 -2.0677  1.8671 -0.0313
 2003SOL     OW17641   3.521   0.885   4.840  0.0439 -0.0582  0.7968
 2003SOL    HW117642   3.485   0.878   4.928 -1.8066 -1.3297 -0.0669
 2003SOL    HW217643   3.486   0.809   4.793  0.7812  1.2018 -1.8087
 2004SOL     OW17644   3.955   0.699  17.284 -0.0983 -0.4169  0.4656
 2004SOL    HW117645   3.963   0.638  17.211 -0.4595  0.8863 -0.6438
 2004SOL    HW217646   3.863   0.707  17.306  0.0720 -0.1198  1.0904
 2005SOL     OW17647   1.943   3.187   3.062 -0.4606 -0.3659  0.8224
 2005SOL    HW117648   1.975   3.267   3.022 -0.0006 -0.4996  0.9182
 2005SOL    HW217649   1.933   3.219   3.152 -0.0543 -1.5740  1.3139
 2006SOL     OW17650   2.673   4.482  17.656 -0.0176 -0.2156 -0.0383
 2006SOL    HW117651   2.711   4.417  17.715 -1.7707 -0.6811  0.5853
 2006SOL    HW217652   2.581   4.489  17.684  0.1319 -0.0528  0.4041
 2007SOL     OW17653   3.375   0.271   6.000 -0.2962  0.3133  0.0696
 2007SOL    HW117654   3.357   0.263   6.093 -0.9458  0.6950 -0.0213
 2007SOL    HW217655   3.466   0.299   6.008 -0.8575  1.9933  0.6374
 2008SOL     OW17656   1.623   3.144   6.484  0.5728 -0.0433 -0.5399
 2008SOL    HW117657   1.628   3.231   6.444 -3.7761  0.2863 -0.2982
 2008SOL    HW217658   1.660   3.097   6.409 -1.3285  1.1883 -2.2340
 2009SOL     OW17659   4.711   2.352  15.580  0.2825  1.0407 -0.5092
 2009SOL    HW117660   4.672   2.347  15.493 -2.5680 -0.3560  0.8617
 2009SOL    HW217661   0.072   2.355  15.569  0.4640 -2.5345  0.2223
 2010SOL     OW17662   4.474   4.545   6.208 -0.3455  0.6354  0.6220
 2010SOL    HW117663   4.549   4.601   6.189  0.4014  0.3605  2.7842
 2010SOL    HW217664   4.412   4.618   6.219  0.4977  1.4714 -0.1823
 2011SOL     OW17665   0.761   2.662   3.487 -0.1102  0.4762  0.0360
 2011SOL    HW117666   0.691   2.706   3.536 -0.3249  1.3925 -1.0826
 2011SOL    HW217667   0.784   2.730   3.424 -0.4836  0.5876  0.0186
 2012SOL     OW17668   0.975   3.530   8.558  0.6003  0.5063  0.0662
 2012SOL    HW117669   0.946   3.576   8.637  1.3633  0.1380  0.5630
 2012SOL    HW217670   0.923   3.449   8.562  3.3613 -1.2918 -0.3594
 2013SOL     OW17671   1.229   0.897  13.618 -0.3104  0.1225 -0.1040
 2013SOL    HW117672   1.168   0.829  13.589 -1.1300  0.8228  0.0032
 2013SOL    HW217673   1.203   0.933  13.702 -1.4080 -1.5685  0.2863
 2014SOL     OW17674   2.023   4.443   8.737 -0.0219 -0.0214  0.1637
 2014SOL    HW117675   2.040   4.498   8.813  1.0878  0.4338 -0.4106
 2014SOL    HW217676   1.958   4.492   8.687  0.0578 -1.1410 -1.0558
 2015SOL     OW17677   4.155   2.448  12.970 -0.0020  0.3045 -0.0300
 2015SOL    HW117678   4.246   2.475  12.980  0.1400 -0.2358  0.1748
 2015SOL    HW217679   4.131   2.537  12.946 -0.1563  0.0625 -0.7946
 2016SOL     OW17680   1.587   1.541  11.782 -0.0193 -0.3806 -0.0588
 2016SOL    HW117681   1.541   1.522  11.863  1.5004  1.1601  1.1670
 2016SOL    HW217682   1.524   1.599  11.739  0.5576  0.8550  0.7352
 2017SOL     OW17683   4.038   2.361  11.180 -0.2564  0.2354  0.0318
 2017SOL    HW117684   4.021   2.268  11.162 -0.3580  0.2043  0.2904
 2017SOL    HW217685   4.124   2.375  11.140 -1.1279  0.6164 -1.7193
 2018SOL     OW17686   1.650   0.132   5.798  0.1968 -0.4699  0.0525
 2018SOL    HW117687   1.636   0.222   5.768  0.7802 -0.9669 -1.6898
 2018SOL    HW217688   1.621   0.142   5.889 -0.9485 -2.2165 -0.1249
 2019SOL     OW17689   2.741   0.362  17.498 -0.1011  0.2579 -0.5741
 2019SOL    HW117690   2.777   0.305  17.566  2.1106  1.1238 -1.0174
 2019SOL    HW217691   2.684   0.417  17.552 -1.6354 -2.4643  0.5935
 2020SOL     OW17692   3.253   2.313   2.932  0.2862  0.0183  0.2541
 2020SOL    HW117693   3.217   2.401   2.916 -0.7453 -0.6076 -0.8664
 2020SOL    HW217694   3.275   2.284   2.843 -0.8489 -0.5897  0.1689
 2021SOL     OW17695   1.770   4.733   3.403 -0.0984  0.0612  0.3523
 2021SOL    HW117696   1.769   4.719   3.498  0.0500 -0.0902  0.3312
 2021SOL    HW217697   1.797   4.650   3.363 -2.7267 -0.7757  0.3363
 2022SOL     OW17698   0.854   1.439   1.751 -0.4686  0.0680 -0.1964
 2022SOL    HW117699   0.891   1.406   1.833  2.4453  2.5011 -0.5372
 2022SOL    HW217700   0.906   1.516   1.728  0.4521 -0.6489 -0.5239
 2023SOL     OW17701   3.979   2.566   5.271 -0.2201 -0.3805  0.5505
 2023SOL    HW117702   3.964   2.471   5.275 -1.9442 -0.0972  0.7552
 2023SOL    HW217703   4.073   2.569   5.291  0.5114 -0.9101 -2.7712
 2024SOL     OW17704   2.430   1.213   3.081  0.1547 -0.0994 -0.2049
 2024SOL    HW117705   2.513   1.215   3.035  1.3694  0.6989  2.0234
 2024SOL    HW217706   2.365   1.231   3.013 -0.1579  0.5979  0.2768
 2025SOL     OW17707   0.498   3.997   7.667 -0.7118 -0.4670  0.0893
 2025SOL    HW117708   0.535   3.976   7.580  0.9354  1.6282  0.2808
 2025SOL    HW217709   0.577   4.014   7.719  0.8701  0.8908 -2.7544
 2026SOL     OW17710   4.501   4.365   1.783  0.4372 -0.5830  0.1115
 2026SOL    HW117711   4.443   4.313   1.728  1.3477 -0.5387 -0.8828
 2026SOL    HW217712   4.485   4.311   1.860  0.2898 -0.8982 -0.1396
 2027SOL     OW17713   0.515   1.124   5.025 -0.2748  0.3725 -0.1268
 2027SOL    HW117714   0.607   1.150   5.019 -1.0359  2.9062 -0.8971
 2027SOL    HW217715   0.477   1.200   5.068 -1.3393  0.2892 -0.9138
 2028SOL     OW17716   1.801   2.436   8.378 -0.2148 -0.1345 -0.5517
 2028SOL    HW117717   1.799   2.488   8.297 -1.0082 -0.5820 -0.8153
 2028SOL    HW217718   1.797   2.501   8.448 -1.3404 -0.8532  0.0531
 2029SOL     OW17719   3.356   1.072  16.824  0.1337  0.2390 -0.4290
 2029SOL    HW117720   3.367   1.124  16.745  0.8182 -0.1746 -0.6058
 2029SOL    HW217721   3.337   1.138  16.891 -0.8456 -0.6574  0.1767
 2030SOL     OW17722   0.887   1.893   3.626 -0.3051  0.2296 -0.3292
 2030SOL    HW117723   0.792   1.883   3.622 -0.1034 -1.7211 -0.3753
 2030SOL    HW217724   0.900   1.868   3.717  0.1791 -2.7450 -1.2019
 2031SOL     OW17725   1.889   1.632  13.834  0.3737 -0.2191 -0.1128
 2031SOL    HW117726   1.892   1.711  13.781  1.7175  0.4287  0.9334
 2031SOL    HW217727   1.803   1.595  13.812 -0.0285 -0.0631  1.1998
 2032SOL     OW17728   4.388   0.900   3.414  0.0439 -0.1545 -0.4463
 2032SOL    HW117729   4.360   0.977   3.464 -0.0481  0.2047 -1.0494
 2032SOL    HW217730   4.301   0.879   3.379 -0.3287 -0.5860  0.7588
 2033SOL     OW17731   0.001   0.264   0.431  0.3515  0.1350  0.2111
 2033SOL    HW117732   0.072   0.211   0.467 -0.1876 -1.4595 -1.0527
 2033SOL    HW217733   4.668   0.210   0.473 -0.7191  2.5559  1.6136
 2034SOL     OW17734   0.848   2.881   4.260  0.1562 -0.7326 -0.0825
 2034SOL    HW117735   0.930   2.915   4.296 -0.0265 -1.1137  0.6775
 2034SOL    HW217736   0.792   2.884   4.337  0.4401 -1.9731  0.1657
 2035SOL     OW17737   0.475   3.954   9.344  0.3485  0.6325 -0.0489
 2035SOL    HW117738   0.477   4.028   9.404  0.9624 -0.2853  1.0699
 2035SOL    HW217739   0.535   3.978   9.274 -0.7635  1.3012 -0.7725
 2036SOL     OW17740   2.040   1.009   8.284  0.2547  0.5783 -0.2728
 2036SOL    HW117741   1.967   0.990   8.343  0.1494  1.8143 -0.0107
 2036SOL    HW217742   2.083   1.077   8.335 -1.3608 -0.0315  1.8803
 2037SOL     OW17743   0.164   3.999   9.299 -0.0471  0.2063 -0.1324
 2037SOL    HW117744   0.211   3.985   9.382 -1.6649 -2.1494  0.3870
 2037SOL    HW217745   0.139   4.091   9.309  0.9274  0.2346  2.0289
 2038SOL     OW17746   3.480   3.254   2.218 -0.3762  0.0092  0.2942
 2038SOL    HW117747   3.559   3.279   2.266  0.0841 -1.0893  0.1187
 2038SOL    HW217748   3.418   3.309   2.266  0.6755  1.5181 -0.0763
 2039SOL     OW17749   0.313   4.029   8.380  0.0125  0.2374  0.0539
 2039SOL    HW117750   0.225   4.028   8.342 -0.2611 -0.7322  0.7057
 2039SOL    HW217751   0.357   4.078   8.311  0.4590 -3.1379 -2.0871
 2040SOL     OW17752   1.827   1.067  10.865 -0.1295  0.2718  0.4183
 2040SOL    HW117753   1.745   1.040  10.905 -0.1860  0.7423  0.6134
 2040SOL    HW217754   1.809   1.040  10.774 -0.8700  0.4883  0.5043
 2041SOL     OW17755   0.601   0.254   7.173  0.5786 -0.2358  0.4245
 2041SOL    HW117756   0.594   0.183   7.110 -1.5103 -0.4686  0.9193
 2041SOL    HW217757   0.691   0.253   7.207 -0.6440  0.3553  3.6563
 2042SOL     OW17758   3.493   3.884   7.752  0.6377 -0.2830  0.2296
 2042SOL    HW117759   3.500   3.928   7.667  0.6203 -0.5631  0.0839
 2042SOL    HW217760   3.398   3.875   7.753  0.4917  1.0258 -1.2973
 2043SOL     OW17761   0.527   3.678   8.229 -0.1661  0.0566 -0.3115
 2043SOL    HW117762   0.479   3.754   8.196 -1.2446 -0.9802 -1.1485
 2043SOL    HW217763   0.524   3.685   8.324  0.4830 -0.7643 -0.2345
 2044SOL     OW17764   3.914   3.028   6.896 -0.2722 -0.6272 -0.0052
 2044SOL    HW117765   3.957   2.984   6.969  2.1529 -2.5127 -2.5508
 2044SOL    HW217766   3.874   2.949   6.859 -3.9189  1.1319  0.2204
 2045SOL     OW17767   1.128   3.025  15.850  0.1223 -0.5528 -0.5896
 2045SOL    HW117768   1.119   3.038  15.756 -2.3376  0.7355 -0.1848
 2045SOL    HW217769   1.053   2.968  15.870  0.3048 -0.7116 -0.3520
 2046SOL     OW17770   3.782   2.666   3.552 -0.2791  0.0748 -0.6175
 2046SOL    HW117771   3.836   2.586   3.557  0.7381  0.7821 -0.2290
 2046SOL    HW217772   3.742   2.645   3.468  1.2734 -0.9709 -1.1128
 2047SOL     OW17773   3.614   4.132   0.729  0.7373  0.3846  0.1436
 2047SOL    HW117774   3.559   4.189   0.675 -0.1108 -1.0279 -0.4950
 2047SOL    HW217775   3.603   4.179   0.812 -1.2391  1.7653 -0.8922
 2048SOL     OW17776   3.203   2.220  15.251 -0.5067  0.0188 -0.2534
 2048SOL    HW117777   3.291   2.229  15.286 -0.1096 -1.4587 -0.8564
 2048SOL    HW217778   3.153   2.234  15.331 -1.1478 -3.1695 -0.0804
 2049SOL     OW17779   1.928   1.591   5.790  0.2069  0.6466  0.5132
 2049SOL    HW117780   1.955   1.633   5.708  0.2129  0.3737  0.3761
 2049SOL    HW217781   1.899   1.667   5.841  0.9076  1.2092  0.0621
 2050SOL     OW17782   1.450   3.210   8.854  0.5340  0.7937 -0.0730
 2050SOL    HW117783   1.481   3.193   8.765 -1.8639 -1.5673 -0.4470
 2050SOL    HW217784   1.507   3.146   8.896  1.2292  1.0921 -0.5645
 2051SOL     OW17785   2.566   3.681   6.483 -0.3833  0.2500 -0.2950
 2051SOL    HW117786   2.655   3.646   6.477 -0.3973  0.4358 -1.6911
 2051SOL    HW217787   2.592   3.769   6.510  1.2197 -0.4901  0.5721
 2052SOL     OW17788   0.173   3.647   6.421  0.0065 -0.5276  0.3600
 2052SOL    HW117789   0.176   3.741   6.404 -2.8069 -0.3792  0.6960
 2052SOL    HW217790   0.129   3.609   6.346 -0.2928  1.5512 -0.5136
 2053SOL     OW17791   1.600   4.010   6.549  0.4310 -0.6200  0.0012
 2053SOL    HW117792   1.611   4.105   6.547 -1.4014 -0.4427 -2.1916
 2053SOL    HW217793   1.552   3.992   6.468  1.0956  1.5402 -0.8567
 2054SOL     OW17794   4.501   0.289   5.485  0.1360  0.1050 -0.0265
 2054SOL    HW117795   4.527   0.211   5.435 -2.1202  0.5178 -1.8529
 2054SOL    HW217796   4.488   0.248   5.571 -0.3993 -1.0592 -0.6525
 2055SOL     OW17797   3.530   3.577   0.827  0.7755  0.1882 -0.2116
 2055SOL    HW117798   3.541   3.567   0.921  0.5915  0.6739 -0.1379
 2055SOL    HW217799   3.541   3.670   0.805 -0.8959  0.9775  2.3582
 2056SOL     OW17800   3.387   1.092   2.837 -0.5018  0.7164 -0.3863
 2056SOL    HW117801   3.323   1.032   2.875  0.7215 -1.8403 -2.3752
 2056SOL    HW217802   3.333   1.154   2.788 -1.6526  0.9018  1.1073
 2057SOL     OW17803   3.950   2.653   2.239 -0.2222  0.2403 -0.1191
 2057SOL    HW117804   4.032   2.680   2.279 -0.6243 -0.9006  1.4955
 2057SOL    HW217805   3.930   2.569   2.280 -1.6859  1.3129  1.3252
 2058SOL     OW17806   3.455   2.964   2.123 -0.1919  0.0834 -0.5486
 2058SOL    HW117807   3.473   2.926   2.208 -1.0489  0.8574 -0.0270
 2058SOL    HW217808   3.453   3.055   2.153 -0.9257  0.4458 -1.6716
 2059SOL     OW17809   2.544   2.746  13.153  1.1690 -0.2609 -0.1078
 2059SOL    HW117810   2.516   2.736  13.062 -1.6422  0.3316  0.6914
 2059SOL    HW217811   2.511   2.671  13.202  3.9822 -1.1783  0.3823
 2060SOL     OW17812   0.319   1.480   4.786 -0.4747  0.5592 -0.3860
 2060SOL    HW117813   0.249   1.511   4.729 -0.9619  0.7750  0.3314
 2060SOL    HW217814   0.330   1.555   4.844  0.6577 -0.4093  0.6469
 2061SOL     OW17815   1.266   4.623   8.502 -0.2023 -0.2326  0.6382
 2061SOL    HW117816   1.185   4.577   8.482 -0.6443  1.4583 -1.3999
 2061SOL    HW217817   1.339   4.578   8.460  0.8057  1.1469  0.9019
 2062SOL     OW17818   0.884   2.262  10.985  0.6479 -0.0376  0.3304
 2062SOL    HW117819   0.962   2.292  11.031  0.2514  0.4221  0.6953
 2062SOL    HW217820   0.905   2.168  10.987  2.2209  0.2467 -2.4079
 2063SOL     OW17821   3.416   0.956  17.623  0.7952 -0.3168 -0.6928
 2063SOL    HW117822   3.422   1.015  17.548 -1.0551  1.7543  0.7994
 2063SOL    HW217823   3.506   0.922  17.624  0.7010 -0.6123 -2.0725
 2064SOL     OW17824   0.029   0.403   2.775  0.1221  0.8530 -0.4073
 2064SOL    HW117825   0.075   0.406   2.691 -2.3360  0.8206 -1.7421
 2064SOL    HW217826   4.673   0.419   2.749 -0.5146  2.1796  2.5712
 2065SOL     OW17827   4.116   3.899   7.737  0.0330 -0.1000  0.1324
 2065SOL    HW117828   4.098   3.849   7.657  0.7992  0.1345 -0.1927
 2065SOL    HW217829   4.075   3.981   7.711  0.8231  0.4781  0.7039
 2066SOL     OW17830   1.347   0.273  13.903 -0.3061  0.0171  0.4774
 2066SOL    HW117831   1.381   0.184  13.889  0.0540  0.1595  0.4357
 2066SOL    HW217832   1.392   0.308  13.825 -1.5806  1.4825  0.4137
 2067SOL     OW17833   3.052   3.490   4.371 -0.2416  0.3714  0.0323
 2067SOL    HW117834   3.087   3.473   4.458  0.9354 -1.2649 -0.7446
 2067SOL    HW217835   2.982   3.554   4.380 -0.8279 -0.4105  1.0767
 2068SOL     OW17836   1.798   0.217  10.067 -0.0829  0.0300 -0.3620
 2068SOL    HW117837   1.815   0.205   9.973 -0.9792  1.6964 -0.7423
 2068SOL    HW217838   1.710   0.180  10.077  0.7380 -1.6429  0.6956
 2069SOL     OW17839   4.626   2.695   8.958 -0.4434 -0.0418 -0.2247
 2069SOL    HW117840   4.580   2.722   8.879  2.1079  1.6981 -1.1319
 2069SOL    HW217841   4.718   2.687   8.930 -1.1589 -0.4323 -2.4461
 2070SOL     OW17842   1.979   0.184   9.310 -0.5459 -0.6069 -0.1903
 2070SOL    HW117843   1.949   0.177   9.400 -0.5010 -2.6383 -0.3286
 2070SOL    HW217844   1.929   0.258   9.274 -1.2706 -0.4307  1.2015
 2071SOL     OW17845   1.625   1.363   8.947  0.1096  0.1700 -0.2708
 2071SOL    HW117846   1.566   1.296   8.912 -0.7284  0.6763  0.1805
 2071SOL    HW217847   1.614   1.361   9.042 -1.3722  2.4929 -0.3918
 2072SOL     OW17848   2.317   0.586   4.470 -0.0986  0.3325  0.7576
 2072SOL    HW117849   2.377   0.580   4.544  1.7654  1.3327 -0.6569
 2072SOL    HW217850   2.314   0.681   4.463 -2.1795  0.2442  0.6055
 2073SOL     OW17851   1.704   0.743  14.500 -0.1427  0.7773  0.2919
 2073SOL    HW117852   1.737   0.672  14.445  0.7812  1.1841  0.3128
 2073SOL    HW217853   1.638   0.697  14.552  2.7952 -0.7919  2.6272
 2074SOL     OW17854   2.803   4.662   2.618 -0.3899  0.0705 -0.6676
 2074SOL    HW117855   2.741   4.693   2.684  1.2311  2.2210 -0.1432
 2074SOL    HW217856   2.846   0.007   2.583 -0.6134  1.0491  1.2699
 2075SOL     OW17857   2.975   2.617   4.797 -0.4473  0.1632  0.0066
 2075SOL    HW117858   2.997   2.572   4.879 -0.4743 -0.8115 -0.5194
 2075SOL    HW217859   3.059   2.613   4.751 -0.2499  1.5842  0.2482
 2076SOL     OW17860   1.841   4.447   6.718 -0.3631 -0.6578 -0.4260
 2076SOL    HW117861   1.816   4.360   6.749  0.0807 -0.7145 -0.2218
 2076SOL    HW217862   1.878   4.478   6.801 -0.6514 -0.8071 -0.2412
 2077SOL     OW17863   3.305   4.458   6.411 -0.0289  0.0523  0.2278
 2077SOL    HW117864   3.384   4.437   6.360 -0.1475  1.3086 -0.4775
 2077SOL    HW217865   3.243   4.502   6.354 -1.1346 -1.2529  0.4274
 2078SOL     OW17866   3.889   0.811   7.347 -0.3524 -0.1412 -0.1549
 2078SOL    HW117867   3.811   0.836   7.297  0.5598 -0.2228 -1.6166
 2078SOL    HW217868   3.873   0.860   7.427  0.8686 -1.5653  0.9477
 2079SOL     OW17869   0.823   4.377   6.938 -0.3126 -0.3158  0.2956
 2079SOL    HW117870   0.836   4.303   6.878 -1.2308 -0.9982  0.9415
 2079SOL    HW217871   0.756   4.342   6.996 -0.2812 -0.9828 -0.0713
 2080SOL     OW17872   4.458   0.131   7.951 -0.6401  0.0428 -0.7129
 2080SOL    HW117873   4.371   0.171   7.949 -1.3541 -1.4363  1.3166
 2080SOL    HW217874   4.452   0.043   7.915 -1.2597 -0.0232 -0.4458
 2081SOL     OW17875   3.400   3.449   6.217 -0.3154 -0.1010 -0.2698
 2081SOL    HW117876   3.470   3.507   6.189  1.1370 -1.1136  1.3189
 2081SOL    HW217877   3.418   3.387   6.146 -0.4053 -1.2976  0.7643
 2082SOL     OW17878   3.440   3.634   3.436  0.6334  0.3776  0.0159
 2082SOL    HW117879   3.531   3.604   3.437 -0.1181 -1.9145  1.6851
 2082SOL    HW217880   3.441   3.708   3.375  1.4056 -0.0299 -0.4666
 2083SOL     OW17881   2.277   3.893   3.886 -0.0031 -0.1920  0.1213
 2083SOL    HW117882   2.273   3.987   3.869  0.9853 -0.4036 -1.3582
 2083SOL    HW217883   2.204   3.856   3.836  0.1375  0.3833 -0.5126
 2084SOL     OW17884   1.511   1.016   7.130 -0.0127 -0.1708  0.2889
 2084SOL    HW117885   1.547   0.951   7.189 -0.4840  0.0670  0.8330
 2084SOL    HW217886   1.420   0.989   7.139 -0.5830  1.6732  0.0900
 2085SOL     OW17887   1.572   1.378   2.638 -0.0026 -0.2830 -0.0931
 2085SOL    HW117888   1.568   1.315   2.710  1.1086 -1.4230 -1.0332
 2085SOL    HW217889   1.608   1.316   2.574  1.2109 -0.1142  0.4491
 2086SOL     OW17890   2.502   1.924  10.079  0.3321 -0.2936 -0.1275
 2086SOL    HW117891   2.585   1.969  10.093  0.7812 -0.0001 -3.6260
 2086SOL    HW217892   2.465   1.922  10.167  0.8593 -0.3386  0.0893
 2087SOL     OW17893   3.780   1.476   4.006 -0.3203  0.3838  0.4379
 2087SOL    HW117894   3.781   1.518   4.092 -2.0420  0.1725  0.5612
 2087SOL    HW217895   3.865   1.433   4.009  0.8059  2.5872 -0.7451
 2088SOL     OW17896   1.233   2.002   9.349  0.7937 -0.0554 -0.0254
 2088SOL    HW117897   1.285   2.071   9.308 -1.2218  0.5963 -1.4589
 2088SOL    HW217898   1.294   1.973   9.416 -1.0678 -1.0143  1.2599
 2089SOL     OW17899   4.018   2.524   4.630  0.2553  0.5389 -0.6008
 2089SOL    HW117900   3.997   2.432   4.620  0.8540 -0.1851  4.4888
 2089SOL    HW217901   4.081   2.543   4.561  0.3410 -0.4417 -0.7897
 2090SOL     OW17902   3.973   3.965   8.242  0.2698  0.5583  0.2770
 2090SOL    HW117903   4.008   4.052   8.224 -1.9676  1.6544  1.1345
 2090SOL    HW217904   4.032   3.939   8.313  0.3086  0.0064  0.0462
 2091SOL     OW17905   3.542   2.722  12.621 -0.0299  0.1745 -0.1855
 2091SOL    HW117906   3.622   2.773  12.621 -1.6030  2.6061  2.1047
 2091SOL    HW217907   3.572   2.632  12.607  0.1990  0.3898 -1.1254
 2092SOL     OW17908   3.727   3.115   6.680  0.0462  0.8863 -0.4434
 2092SOL    HW117909   3.770   3.185   6.632  1.9465  0.5976  0.8555
 2092SOL    HW217910   3.759   3.037   6.635  1.0150  0.8351  0.3243
 2093SOL     OW17911   1.700   1.063   8.207  0.1774 -0.0518 -0.1636
 2093SOL    HW117912   1.710   0.997   8.139  2.2995  0.5465 -0.4376
 2093SOL    HW217913   1.751   1.016   8.273 -1.7482 -2.5532 -0.4900
 2094SOL     OW17914   2.633   0.619   6.197  0.3518  0.4835  0.3928
 2094SOL    HW117915   2.565   0.599   6.262 -0.5271 -1.2653 -1.0676
 2094SOL    HW217916   2.610   0.709   6.174 -4.6417 -1.1583 -0.9922
 2095SOL     OW17917   1.554   1.158   9.645 -0.0543 -0.4652 -0.2707
 2095SOL    HW117918   1.507   1.238   9.624 -2.5554 -1.2682  2.3260
 2095SOL    HW217919   1.641   1.199   9.643  0.0925 -0.7800 -0.3317
 2096SOL     OW17920   2.065   3.634   4.727  0.3526  0.2647 -0.5947
 2096SOL    HW117921   1.972   3.625   4.751  0.1453  0.5748 -1.2674
 2096SOL    HW217922   2.114   3.621   4.808 -3.5391 -2.0412  1.3910
 2097SOL     OW17923   3.549   3.748  11.150  0.4769 -0.6326 -0.5618
 2097SOL    HW117924   3.486   3.679  11.132 -0.9115 -0.2668  2.7428
 2097SOL    HW217925   3.627   3.693  11.141  1.3928  0.6550 -0.5562
 2098SOL     OW17926   0.816   2.330  11.669  0.2722  1.0187 -0.3257
 2098SOL    HW117927   0.794   2.289  11.753 -1.0290 -1.0129 -1.6772
 2098SOL    HW217928   0.907   2.351  11.689  0.1676 -0.8253  2.1099
 2099SOL     OW17929   2.007   3.202  16.859  0.3930 -0.0952 -0.1373
 2099SOL    HW117930   1.914   3.206  16.836  0.1961  0.0003  0.6623
 2099SOL    HW217931   2.049   3.154  16.788  0.6844  3.0870 -2.0955
 2100SOL     OW17932   1.040   2.382   9.325 -0.2004  0.3443 -0.0745
 2100SOL    HW117933   0.951   2.385   9.359 -0.4205  0.8586 -0.7024
 2100SOL    HW217934   1.030   2.425   9.240 -0.8905  0.5311  0.1023
 2101SOL     OW17935   2.655   1.930  10.826 -0.2749 -0.7671  0.4074
 2101SOL    HW117936   2.580   1.983  10.798  0.5424  0.7814  1.1336
 2101SOL    HW217937   2.624   1.918  10.916 -1.2361  1.8297  0.4310
 2102SOL     OW17938   1.779   1.515   8.257 -0.3251  0.6580  0.4662
 2102SOL    HW117939   1.757   1.580   8.324 -0.6240  1.1549 -0.1176
 2102SOL    HW217940   1.815   1.437   8.300 -0.9096 -1.3172 -2.6300
 2103SOL     OW17941   0.056   4.490  16.963 -0.1185 -0.0284 -0.2638
 2103SOL    HW117942   0.116   4.416  16.976 -1.3307 -0.8326  0.8277
 2103SOL    HW217943   0.098   4.536  16.891  0.3460 -0.0657 -0.0167
 2104SOL     OW17944   2.380   0.377  16.506  0.3494 -0.5225  0.2887
 2104SOL    HW117945   2.363   0.379  16.412  0.1210 -2.3848  0.2867
 2104SOL    HW217946   2.437   0.453  16.519 -2.0876  1.3994 -0.3809
 2105SOL     OW17947   2.990   1.312   5.020  0.2741  0.8286  0.0318
 2105SOL    HW117948   2.961   1.371   4.950  0.6856 -0.1241 -0.9538
 2105SOL    HW217949   2.951   1.235   4.978 -0.9701  2.1088 -1.1287
 2106SOL     OW17950   3.437   0.043   6.390 -0.1333 -0.7177  0.2576
 2106SOL    HW117951   3.506   0.093   6.434  1.6612 -1.0523 -2.1615
 2106SOL    HW217952   3.408   4.721   6.461 -0.5015 -0.0423  0.6384
 2107SOL     OW17953   4.110   2.732  14.207  0.0650 -0.4124 -0.2350
 2107SOL    HW117954   4.056   2.656  14.229 -1.3652  0.8596  0.6361
 2107SOL    HW217955   4.180   2.694  14.153  0.5251  3.0277 -2.1145
 2108SOL     OW17956   2.214   3.286  12.120 -0.0447 -0.0691 -0.2284
 2108SOL    HW117957   2.120   3.291  12.107 -0.2476  0.7555  1.6464
 2108SOL    HW217958   2.227   3.255  12.209 -0.2003  0.1659 -0.1226
 2109SOL     OW17959   4.615   4.643   5.080  0.2069 -0.2659  0.1215
 2109SOL    HW117960   4.605   4.566   5.136  1.2036 -0.0615  0.5726
 2109SOL    HW217961   4.533   4.692   5.094  0.0225 -0.8959  1.2513
 2110SOL     OW17962   2.953   0.835  15.976  0.0445  0.1909 -0.1803
 2110SOL    HW117963   2.867   0.827  15.933 -0.5644 -2.3003  1.5416
 2110SOL    HW217964   3.004   0.892  15.919 -0.2943 -0.4692 -1.1542
 2111SOL     OW17965   4.121   0.331  11.592 -0.0229  0.1762 -0.4560
 2111SOL    HW117966   4.101   0.328  11.685  3.1666 -0.7240  0.2092
 2111SOL    HW217967   4.110   0.239  11.571  2.4798 -0.0650 -0.7948
 2112SOL     OW17968   1.686   2.531   2.530 -0.6200  0.4867  0.1270
 2112SOL    HW117969   1.746   2.573   2.592 -1.3031 -1.1644  1.8833
 2112SOL    HW217970   1.645   2.611   2.498 -1.4493 -0.6334 -1.6126
 2113SOL     OW17971   1.001   2.568  10.983  0.3343  0.5535 -0.2525
 2113SOL    HW117972   1.088   2.541  11.014  0.6471  3.6997  1.6323
 2113SOL    HW217973   0.950   2.570  11.064  1.2965 -1.6965  0.4138
 2114SOL     OW17974   3.043   0.406  11.776  0.6953  0.0420  0.0283
 2114SOL    HW117975   2.950   0.421  11.792  0.5182 -0.1882 -0.7539
 2114SOL    HW217976   3.037   0.432  11.683  0.5682  1.8257  0.5221
 2115SOL     OW17977   4.347   2.432   7.377 -0.1517  0.4690 -0.0223
 2115SOL    HW117978   4.441   2.414   7.382 -0.5381 -1.6147  0.0310
 2115SOL    HW217979   4.312   2.387   7.453  0.4055 -1.2268 -0.7572
 2116SOL     OW17980   1.434   0.019   9.106 -0.1098  0.1054  0.3811
 2116SOL    HW117981   1.529   0.016   9.116 -0.0025  0.7481 -0.4405
 2116SOL    HW217982   1.423   4.700   9.027 -1.2601 -0.1642  0.7195
 2117SOL     OW17983   2.034   1.491   5.136  0.1421 -0.1002  0.2872
 2117SOL    HW117984   2.006   1.496   5.227 -0.6454 -0.2351  0.0478
 2117SOL    HW217985   1.951   1.514   5.094  1.1300  1.5282 -0.7870
 2118SOL     OW17986   1.842   2.596   9.596  0.3495 -0.2380  0.3632
 2118SOL    HW117987   1.900   2.630   9.529 -1.1608 -0.3166 -0.9920
 2118SOL    HW217988   1.756   2.606   9.555  0.6774  2.9189  0.4686
 2119SOL     OW17989   4.212   0.510  15.504 -0.3123  0.1372 -0.1108
 2119SOL    HW117990   4.192   0.423  15.539  0.0977  0.5001  1.0218
 2119SOL    HW217991   4.137   0.563  15.529  0.5316  1.4750 -0.4101
 2120SOL     OW17992   0.117   3.224   2.260 -0.2122  0.3795  0.2409
 2120SOL    HW117993   0.111   3.222   2.164 -1.7079  0.4660  0.3348
 2120SOL    HW217994   0.031   3.264   2.269 -0.8873 -0.8333 -0.7523
 2121SOL     OW17995   1.683   3.851   1.861 -0.1152 -0.2167 -0.0623
 2121SOL    HW117996   1.760   3.795   1.868 -0.4507 -0.5784  0.7631
 2121SOL    HW217997   1.655   3.845   1.953 -1.2625 -1.5584 -0.4919
 2122SOL     OW17998   1.737   1.287   1.938  0.7807  0.1752  0.1917
 2122SOL    HW117999   1.800   1.353   1.966  1.1906 -0.3480  0.5189
 2122SOL    HW218000   1.786   1.204   1.937 -2.4917 -1.6971 -3.4923
 2123SOL     OW18001   2.126   1.978   8.867  0.3124 -0.4848  0.4775
 2123SOL    HW118002   2.165   1.905   8.915  1.1891 -0.6450 -0.4932
 2123SOL    HW218003   2.045   1.938   8.835 -0.4686  1.1223  0.4233
 2124SOL     OW18004   3.121   0.155  11.336 -0.7866 -0.4861  0.1521
 2124SOL    HW118005   3.087   0.180  11.251 -1.9341  0.8035  0.9908
 2124SOL    HW218006   3.208   0.120  11.316 -0.8080  0.1486 -1.0397
 2125SOL     OW18007   2.953   3.336   2.640  0.1703 -0.1621 -0.4323
 2125SOL    HW118008   2.954   3.357   2.546 -1.0377  2.1041  0.0652
 2125SOL    HW218009   3.043   3.308   2.654 -0.4828 -1.0921  1.8637
 2126SOL     OW18010   1.162   3.177   7.086 -0.5187  0.2412 -0.5807
 2126SOL    HW118011   1.119   3.092   7.081  0.6329 -0.3075 -1.3429
 2126SOL    HW218012   1.118   3.221   7.159  0.9985 -0.9828  1.0910
 2127SOL     OW18013   2.123   3.019   7.027  0.3063  0.2721 -0.2394
 2127SOL    HW118014   2.098   2.994   6.938  0.0725  1.1092 -0.4117
 2127SOL    HW218015   2.123   3.115   7.026 -0.0096  0.2652 -0.7822
 2128SOL     OW18016   4.058   2.482   7.862  0.6608  0.5817  0.4226
 2128SOL    HW118017   3.978   2.521   7.897  0.0172 -3.0673  3.0374
 2128SOL    HW218018   4.072   2.539   7.786  0.3089 -1.9627 -1.5485
 2129SOL     OW18019   2.004   2.691  10.698  0.2585 -0.3709 -0.0882
 2129SOL    HW118020   2.039   2.670  10.784  1.5693  2.7819  0.1660
 2129SOL    HW218021   1.981   2.782  10.717 -0.5129 -1.2658  3.2463
 2130SOL     OW18022   2.448   2.390   7.866  0.0175  0.0772 -0.3447
 2130SOL    HW118023   2.427   2.403   7.958 -0.9682 -2.5919 -0.1860
 2130SOL    HW218024   2.362   2.374   7.827 -0.5645  0.4057  0.8254
 2131SOL     OW18025   4.017   0.575   7.280  0.3874 -0.0995 -0.5245
 2131SOL    HW118026   4.062   0.658   7.260  0.3690  0.1693  0.5476
 2131SOL    HW218027   3.964   0.605   7.354 -0.0316  0.3089 -0.9847
 2132SOL     OW18028   2.104   0.954  13.983 -0.1318  0.5029 -0.0626
 2132SOL    HW118029   2.056   1.029  13.947 -0.8435  0.2282  0.3049
 2132SOL    HW218030   2.038   0.884  13.986 -1.7355  2.0051 -0.4587
 2133SOL     OW18031   0.684   2.286   3.254 -0.0012  0.9532  0.0090
 2133SOL    HW118032   0.656   2.333   3.332  0.9709  0.1853  0.8228
 2133SOL    HW218033   0.770   2.323   3.236  0.8544 -1.2772 -0.4744
 2134SOL     OW18034   2.211   4.533  16.798 -0.5564  0.6271  0.2328
 2134SOL    HW118035   2.222   4.449  16.752 -1.1951 -0.5145  2.1720
 2134SOL    HW218036   2.142   4.574  16.746  0.8565  1.7451 -0.7784
 2135SOL     OW18037   2.705   3.662   2.562 -0.7598 -0.0416 -0.2856
 2135SOL    HW118038   2.690   3.568   2.551 -0.8324  0.1647 -1.9600
 2135SOL    HW218039   2.707   3.698   2.473  0.7250  1.4781  0.3636
 2136SOL     OW18040   2.676   3.647   4.586  0.3025 -0.5240  0.2263
 2136SOL    HW118041   2.717   3.723   4.626 -0.5405  0.9757 -1.7860
 2136SOL    HW218042   2.755   3.609   4.548  1.6746  0.5470  2.0367
 2137SOL     OW18043   4.280   2.297   2.571 -0.7235 -0.2294  0.2044
 2137SOL    HW118044   4.221   2.303   2.495  0.8248  1.3525 -0.8567
 2137SOL    HW218045   4.341   2.367   2.550  2.1562 -3.7723 -3.3100
 2138SOL     OW18046   3.457   0.610   7.813  0.1830  0.2843  0.1614
 2138SOL    HW118047   3.497   0.526   7.836 -1.3895 -0.1660  1.2656
 2138SOL    HW218048   3.527   0.667   7.844  0.0040  0.7258 -0.2462
 2139SOL     OW18049   0.124   0.371   3.834 -0.1293 -0.8418  0.8300
 2139SOL    HW118050   0.141   0.344   3.744 -0.4906  3.2668 -0.4563
 2139SOL    HW218051   0.108   0.465   3.831 -0.8564 -1.0014 -0.3482
 2140SOL     OW18052   3.284   2.174  13.245 -0.0543 -0.0683 -0.3517
 2140SOL    HW118053   3.370   2.139  13.268 -1.0233 -2.7890 -0.9303
 2140SOL    HW218054   3.315   2.235  13.179 -0.1668  2.4885  1.9418
 2141SOL     OW18055   4.596   3.697   7.784 -0.1679 -0.0563 -0.3880
 2141SOL    HW118056   4.529   3.742   7.836 -0.9654 -1.2691 -0.3702
 2141SOL    HW218057   4.677   3.726   7.827 -0.1654 -0.6158 -0.0200
 2142SOL     OW18058   2.537   2.585   8.788  0.1893  0.9235 -0.0360
 2142SOL    HW118059   2.572   2.528   8.720 -0.4760  2.7534 -1.9092
 2142SOL    HW218060   2.530   2.522   8.860 -0.9280  1.9129  0.7291
 2143SOL     OW18061   1.375   1.318  17.673  0.0026  0.3044  0.0908
 2143SOL    HW118062   1.353   1.405  17.638 -1.9976 -0.7636 -1.2840
 2143SOL    HW218063   1.380   1.338   0.031 -1.9516  0.7254  0.1021
 2144SOL     OW18064   1.089   2.342   4.922  0.1337 -0.7180  0.7511
 2144SOL    HW118065   1.098   2.408   4.853 -0.4283  0.2635  1.6153
 2144SOL    HW218066   1.030   2.394   4.976  1.0194 -1.3500  2.3073
 2145SOL     OW18067   1.666   2.205   6.192  0.5071  0.2104 -0.3367
 2145SOL    HW118068   1.755   2.187   6.222  1.6184 -0.0528 -3.7822
 2145SOL    HW218069   1.676   2.174   6.102 -2.2005  2.2406 -1.3510
 2146SOL     OW18070   1.150   2.173   9.526 -0.5109 -0.1243 -0.3267
 2146SOL    HW118071   1.172   2.106   9.462  1.2120 -0.8268  1.0130
 2146SOL    HW218072   1.118   2.245   9.471  1.0736  2.0749  1.5850
 2147SOL     OW18073   3.882   4.092   6.659  0.8306  0.0027  0.5655
 2147SOL    HW118074   3.945   4.161   6.678  1.6448 -0.4015 -0.6857
 2147SOL    HW218075   3.939   4.016   6.670  0.7367 -0.3674 -1.5367
 2148SOL     OW18076   1.677   1.783   6.670 -0.1862  0.0461 -0.1132
 2148SOL    HW118077   1.734   1.850   6.709  1.0900 -1.0530 -0.0715
 2148SOL    HW218078   1.750   1.728   6.641 -0.0379  0.6487 -0.8813
 2149SOL     OW18079   4.374   2.631   5.687 -0.3231 -0.0821  0.1655
 2149SOL    HW118080   4.384   2.616   5.593  1.9265 -1.0447  0.5464
 2149SOL    HW218081   4.282   2.607   5.698 -0.0305 -1.8559 -1.1921
 2150SOL     OW18082   4.576   3.442  15.550  0.6880 -0.3291  0.0234
 2150SOL    HW118083   4.608   3.357  15.582  2.5091  0.0633 -0.7399
 2150SOL    HW218084   4.588   3.438  15.455 -1.3654  2.2505 -0.3542
 2151SOL     OW18085   0.963   2.603  14.784 -0.3914 -0.0856  0.2157
 2151SOL    HW118086   0.893   2.540  14.767  0.0406 -0.2423 -0.9796
 2151SOL    HW218087   0.918   2.658  14.848 -0.5067 -0.6033  0.5785
 2152SOL     OW18088   4.493   3.031  14.845 -0.1272  0.0513  0.0652
 2152SOL    HW118089   4.518   3.075  14.926 -2.6494  1.4931  0.0444
 2152SOL    HW218090   4.565   3.062  14.790 -0.1318 -1.3284 -0.7147
 2153SOL     OW18091   1.118   2.002  14.427  0.1578  0.1785  0.3351
 2153SOL    HW118092   1.075   1.921  14.400  0.9418 -0.2102  0.2708
 2153SOL    HW218093   1.117   2.052  14.346 -0.5855 -2.2244 -1.1370
 2154SOL     OW18094   3.222   3.032   3.828 -0.5150  0.3242 -0.1706
 2154SOL    HW118095   3.201   3.068   3.914 -0.7524  2.6597 -1.2028
 2154SOL    HW218096   3.311   3.064   3.810  0.7809 -2.5614  1.1555
 2155SOL     OW18097   4.100   3.028   5.166  0.1300 -0.4283  0.2934
 2155SOL    HW118098   4.075   2.950   5.117 -0.9131 -0.8904  1.5602
 2155SOL    HW218099   4.194   3.038   5.147  0.3475 -0.7373  1.1663
 2156SOL     OW18100   3.450   1.733   6.822  0.1215  0.5087  0.4169
 2156SOL    HW118101   3.377   1.703   6.876  0.0004  1.1174  0.5834
 2156SOL    HW218102   3.411   1.743   6.735 -1.3797  0.5936  1.1028
 2157SOL     OW18103   0.739   4.573   4.649 -0.3683  0.2178 -0.0249
 2157SOL    HW118104   0.752   4.663   4.680 -0.8588 -0.2442  1.5184
 2157SOL    HW218105   0.670   4.590   4.585 -2.0330 -2.0145  1.1727
 2158SOL     OW18106   1.928   3.405   9.271  0.0993  0.1119  0.3889
 2158SOL    HW118107   1.979   3.364   9.341 -0.4754 -2.3070 -0.6096
 2158SOL    HW218108   1.911   3.330   9.213 -0.3749 -0.4625  1.2707
 2159SOL     OW18109   4.571   2.548   5.850  0.2840 -0.3230  0.1242
 2159SOL    HW118110   4.504   2.573   5.785  0.8033 -0.4821 -0.4757
 2159SOL    HW218111   4.620   2.630   5.861  1.3347 -0.7856 -1.0449
 2160SOL     OW18112   4.341   1.459  16.220  0.1540  0.4012 -0.4046
 2160SOL    HW118113   4.389   1.449  16.302 -0.4718 -2.0575 -0.3361
 2160SOL    HW218114   4.358   1.552  16.201 -2.6885  1.1829  0.9053
 2161SOL     OW18115   2.978   1.424   3.912 -0.4918 -0.0938  0.0538
 2161SOL    HW118116   3.047   1.489   3.896 -1.7578  0.8089 -1.7445
 2161SOL    HW218117   2.973   1.404   3.818 -0.5723  0.6313 -0.0976
 2162SOL     OW18118   1.564   1.218   4.882 -0.2331  0.5014  0.1756
 2162SOL    HW118119   1.520   1.161   4.819  0.2060 -0.3361  0.6339
 2162SOL    HW218120   1.497   1.284   4.902  0.7690  0.8120  2.5813
 2163SOL     OW18121   1.657   1.338  14.976  0.1018  0.4992  0.0341
 2163SOL    HW118122   1.723   1.407  14.970  1.6578 -1.0323 -0.2973
 2163SOL    HW218123   1.694   1.270  15.032 -0.7205 -0.8867 -1.1144
 2164SOL     OW18124   3.540   1.588   1.791 -0.0658 -0.7246 -0.1590
 2164SOL    HW118125   3.575   1.634   1.867 -0.8703  2.1406 -1.4989
 2164SOL    HW218126   3.491   1.519   1.835 -0.3477 -0.3629  0.0951
 2165SOL     OW18127   0.842   1.113  10.853  0.0906 -0.1256 -0.2969
 2165SOL    HW118128   0.822   1.023  10.879  0.5497 -0.8733 -2.5333
 2165SOL    HW218129   0.824   1.155  10.937  1.1810  0.5078 -0.3909
 2166SOL     OW18130   1.925   4.038   7.332  0.2679 -0.8530 -0.2527
 2166SOL    HW118131   2.001   4.067   7.281  0.1949  0.0361  0.1447
 2166SOL    HW218132   1.917   4.108   7.396  3.1828 -1.0789  0.3556
 2167SOL     OW18133   1.775   3.248  12.878 -0.5169 -0.2834  0.4012
 2167SOL    HW118134   1.727   3.328  12.899 -1.9909 -1.5963  2.0571
 2167SOL    HW218135   1.743   3.218  12.793  3.7740  2.3967 -2.1250
 2168SOL     OW18136   0.025   3.103   8.578  0.3286  0.5609 -0.2013
 2168SOL    HW118137   0.072   3.183   8.601  0.0087  0.6725  0.0611
 2168SOL    HW218138   4.683   3.156   8.555  0.5335  1.0557  0.2758
 2169SOL     OW18139   0.306   0.971   4.981 -0.0189  0.5283 -0.4098
 2169SOL    HW118140   0.231   1.030   4.967 -0.6638 -0.3501 -0.6478
 2169SOL    HW218141   0.370   1.041   4.993 -0.4983  1.1105 -1.1770
 2170SOL     OW18142   4.342   0.639  16.082  0.3651 -0.0277  0.0528
 2170SOL    HW118143   4.251   0.617  16.062  0.4772  0.7694 -1.3534
 2170SOL    HW218144   4.339   0.731  16.054 -0.4596  0.1933  0.8646
 2171SOL     OW18145   4.439   2.960   2.488 -0.3877  0.1902  0.9572
 2171SOL    HW118146   4.502   2.897   2.454 -3.3252 -1.6901 -1.0042
 2171SOL    HW218147   4.495   2.991   2.559  0.3907  2.0815 -0.4759
 2172SOL     OW18148   3.450   2.072   4.009  0.5126  0.2447  0.6370
 2172SOL    HW118149   3.471   1.984   3.980  0.7826  0.8500 -1.0037
 2172SOL    HW218150   3.493   2.118   3.937  0.8908 -1.0659  0.0226
 2173SOL     OW18151   0.393   0.633   2.152  0.5674 -0.1008 -0.2730
 2173SOL    HW118152   0.391   0.542   2.183 -0.5162 -0.0723 -0.2506
 2173SOL    HW218153   0.420   0.626   2.060 -0.1064 -0.1132 -0.4735
 2174SOL     OW18154   4.537   2.042   7.562  0.0461 -0.3027  0.2911
 2174SOL    HW118155   4.615   2.043   7.506 -0.0569  1.1008  0.1626
 2174SOL    HW218156   4.469   2.075   7.503  0.6786  0.9399  0.2523
 2175SOL     OW18157   0.414   0.262  13.804 -0.0786 -0.2558 -0.1785
 2175SOL    HW118158   0.380   0.301  13.723 -1.1559 -1.0239 -0.0852
 2175SOL    HW218159   0.443   0.177  13.772 -0.3929 -0.3430 -0.2357
 2176SOL     OW18160   4.162   1.312   3.064  0.1339 -0.4292 -0.0073
 2176SOL    HW118161   4.098   1.344   2.999  0.3712  0.5730  0.2475
 2176SOL    HW218162   4.109   1.317   3.143  0.8455 -2.7432  0.6042
 2177SOL     OW18163   2.323   1.126   3.557 -0.1386 -0.3402 -0.1765
 2177SOL    HW118164   2.361   1.039   3.571 -0.6361 -0.5589 -0.2039
 2177SOL    HW218165   2.364   1.135   3.470 -2.7786 -0.5389 -1.4300
 2178SOL     OW18166   4.501   1.070   8.198  0.0959 -0.5801  0.2347
 2178SOL    HW118167   4.536   1.156   8.218  1.0781 -0.5708 -1.4951
 2178SOL    HW218168   4.513   1.070   8.103  0.3132  0.3015  0.2663
 2179SOL     OW18169   3.494   2.600   1.386  0.2670  0.5628 -0.0260
 2179SOL    HW118170   3.588   2.591   1.375  0.2049 -1.8723  1.5399
 2179SOL    HW218171   3.479   2.694   1.400  1.8973  0.7671  0.3117
 2180SOL     OW18172   0.870   0.625   7.120 -0.2905  0.7226 -0.0426
 2180SOL    HW118173   0.860   0.534   7.091 -0.5381  1.5365 -2.5879
 2180SOL    HW218174   0.834   0.665   7.040 -1.2747 -0.3175 -0.1190
 2181SOL     OW18175   1.473   3.252   1.969 -0.0187 -0.1665 -0.3756
 2181SOL    HW118176   1.511   3.246   2.056 -1.7760  0.0413  0.3962
 2181SOL    HW218177   1.508   3.336   1.941  0.6488 -0.9164 -1.8253
 2182SOL     OW18178   4.329   2.038  17.120  0.2375 -0.4074 -0.0326
 2182SOL    HW118179   4.415   2.012  17.152  0.2676  2.3542  2.2310
 2182SOL    HW218180   4.356   2.086  17.041  2.3991 -2.5226 -0.5761
 2183SOL     OW18181   3.529   3.526   6.530 -0.1344  0.0661 -0.3684
 2183SOL    HW118182   3.490   3.450   6.575 -1.2949  0.1584 -1.2266
 2183SOL    HW218183   3.523   3.500   6.439 -1.3734  1.4726 -0.6864
 2184SOL     OW18184   3.813   2.718   4.615 -0.6835 -0.8922 -0.3526
 2184SOL    HW118185   3.871   2.642   4.611 -1.4399 -1.4459 -0.7460
 2184SOL    HW218186   3.861   2.780   4.669 -0.4666 -1.5861  0.2456
 2185SOL     OW18187   1.265   4.273   8.776  0.7627 -0.3040  0.6919
 2185SOL    HW118188   1.188   4.272   8.833  0.6985  1.6431  0.6377
 2185SOL    HW218189   1.229   4.270   8.688  0.9687  1.8779  0.5416
 2186SOL     OW18190   3.353   4.377   8.185  0.8311  0.3278  0.2235
 2186SOL    HW118191   3.376   4.315   8.115 -2.4328 -2.0276  1.2326
 2186SOL    HW218192   3.417   4.356   8.253  0.0752 -1.7605  0.2982
 2187SOL     OW18193   3.697   3.267   1.000 -0.1274  0.1274  0.4989
 2187SOL    HW118194   3.635   3.195   1.003 -1.5113  1.3039  0.2868
 2187SOL    HW218195   3.697   3.300   1.090  1.9898 -1.1664  0.9667
 2188SOL     OW18196   2.630   4.302   4.070  0.0632 -0.5893  0.0019
 2188SOL    HW118197   2.570   4.295   4.144  0.3336  1.3774  0.4113
 2188SOL    HW218198   2.649   4.396   4.077 -0.4864 -0.1707 -3.7246
 2189SOL     OW18199   4.703   1.611   6.504 -0.5373  0.0478 -0.2119
 2189SOL    HW118200   4.709   1.701   6.472  0.8930  0.3560  0.9746
 2189SOL    HW218201   0.033   1.587   6.437 -3.1450 -2.0871 -1.9841
 2190SOL     OW18202   3.975   3.953  13.208  0.6544 -0.1553  0.3345
 2190SOL    HW118203   3.884   3.981  13.210  0.6659  0.2047 -3.6299
 2190SOL    HW218204   3.975   3.889  13.279  0.9274  0.8598  1.2390
 2191SOL     OW18205   0.334   0.864  16.061  0.0718 -0.0544 -0.1756
 2191SOL    HW118206   0.427   0.843  16.049  0.2765 -0.1323  1.5587
 2191SOL    HW218207   0.298   0.842  15.975  1.9435  0.9023 -1.2001
 2192SOL     OW18208   4.029   3.306   2.930 -0.6214 -0.8398 -0.0941
 2192SOL    HW118209   4.000   3.225   2.970  0.9582 -0.8568  1.0052
 2192SOL    HW218210   4.063   3.273   2.847 -2.1332  0.7193 -1.3587
 2193SOL     OW18211   2.479   1.240   1.446  0.3451 -0.0921  0.3055
 2193SOL    HW118212   2.564   1.203   1.467 -0.4830 -1.2317  1.6249
 2193SOL    HW218213   2.447   1.250   1.536  1.2815  0.3381  0.5859
 2194SOL     OW18214   2.585   1.409   6.439 -0.1194  1.0665  0.1521
 2194SOL    HW118215   2.595   1.321   6.404  0.5424  1.2205 -0.0409
 2194SOL    HW218216   2.517   1.399   6.506  0.9840 -0.0575  1.0860
 2195SOL     OW18217   2.292   1.377   9.147 -0.4100  0.1944 -0.4018
 2195SOL    HW118218   2.200   1.350   9.149 -0.5865  0.7650 -0.8469
 2195SOL    HW218219   2.335   1.328   9.077  1.6200 -1.2394  1.8305
 2196SOL     OW18220   2.412   3.207  15.929  0.0644  0.4262 -0.6024
 2196SOL    HW118221   2.354   3.137  15.958 -0.1086  0.9849  0.4158
 2196SOL    HW218222   2.443   3.159  15.852  1.2464 -0.6434  0.5515
 2197SOL     OW18223   3.095   4.731   3.592  0.9882  0.2457 -0.0112
 2197SOL    HW118224   3.062   4.684   3.669 -0.9894 -1.5821 -1.9726
 2197SOL    HW218225   3.155   4.664   3.559  0.1440 -0.4733 -0.0932
 2198SOL     OW18226   2.255   1.188   5.113  0.0025  0.0405 -0.1430
 2198SOL    HW118227   2.258   1.101   5.072  1.2788 -0.5481  1.1813
 2198SOL    HW218228   2.222   1.172   5.201  1.3960  0.3743  0.4508
 2199SOL     OW18229   1.981   3.337   3.344  0.1049 -0.1784 -0.3869
 2199SOL    HW118230   2.045   3.384   3.398 -0.7243  0.1142  0.3516
 2199SOL    HW218231   1.921   3.303   3.410  0.8825 -1.6758 -0.4587
 2200SOL     OW18232   2.149   1.764   6.883  0.3145  0.1204  0.5645
 2200SOL    HW118233   2.216   1.702   6.912 -1.3903 -1.0317  2.0287
 2200SOL    HW218234   2.189   1.848   6.905  1.1637  0.0973 -0.9526
 2201SOL     OW18235   0.459   0.673   9.817 -0.0400 -0.1919 -0.0531
 2201SOL    HW118236   0.496   0.743   9.870  1.6795 -0.1327 -1.3364
 2201SOL    HW218237   0.381   0.663   9.872  1.0340  0.0068  1.4857
 2202SOL     OW18238   1.066   2.843  11.128  0.5160 -0.1715 -0.0874
 2202SOL    HW118239   1.141   2.816  11.182  2.6983  0.2009 -2.9196
 2202SOL    HW218240   1.103   2.829  11.041 -2.1759 -0.8136 -1.1166
 2203SOL     OW18241   2.634   0.888   6.368 -0.4010  0.3638 -0.5270
 2203SOL    HW118242   2.612   0.814   6.425 -0.6963 -0.9864 -2.4113
 2203SOL    HW218243   2.713   0.918   6.413  0.6025  0.0380 -2.0700
 2204SOL     OW18244   0.194   2.561   9.834 -0.2004  0.2157 -0.2802
 2204SOL    HW118245   0.138   2.488   9.808 -0.6788  0.4328  0.1604
 2204SOL    HW218246   0.127   2.618   9.871 -0.4196  0.7418 -1.4646
 2205SOL     OW18247   0.567   3.846   6.455  0.1677 -0.0583 -0.1931
 2205SOL    HW118248   0.651   3.845   6.501 -0.6967 -2.1615  1.3443
 2205SOL    HW218249   0.562   3.756   6.421 -0.0178 -0.2224  0.2744
 2206SOL     OW18250   1.810   4.523   7.581 -0.2672  0.7990 -0.2998
 2206SOL    HW118251   1.831   4.475   7.661 -0.0663 -0.8277 -1.3332
 2206SOL    HW218252   1.869   4.598   7.574  0.7232 -0.1477 -2.1911
 2207SOL     OW18253   4.170   1.105   7.628 -0.3885 -0.5048 -0.7286
 2207SOL    HW118254   4.078   1.081   7.644 -0.7409 -0.3592 -2.6073
 2207SOL    HW218255   4.173   1.162   7.551  0.2284  0.9609  0.3660
 2208SOL     OW18256   0.253   4.260  10.506  0.3839  0.2530 -0.1353
 2208SOL    HW118257   0.345   4.279  10.522  0.2004  1.3254 -0.3450
 2208SOL    HW218258   0.217   4.273  10.594 -2.4547  2.5538 -1.6279
 2209SOL     OW18259   4.446   1.902   5.837  0.1623 -0.4320 -0.6618
 2209SOL    HW118260   4.515   1.967   5.821 -1.5154  1.6588  0.5230
 2209SOL    HW218261   4.497   1.822   5.828 -0.9631 -1.7103  4.3664
 2210SOL     OW18262   3.673   0.656   5.420 -0.4015 -0.3430 -0.9317
 2210SOL    HW118263   3.756   0.700   5.439 -0.6304 -0.8936  1.3454
 2210SOL    HW218264   3.617   0.731   5.399  0.1277 -0.2835 -2.1026
 2211SOL     OW18265   0.284   4.264  17.205 -0.4898 -0.3637 -0.0930
 2211SOL    HW118266   0.239   4.337  17.246 -1.2740 -1.9008  1.8071
 2211SOL    HW218267   0.259   4.190  17.261  2.2559 -0.9049  0.4367
 2212SOL     OW18268   1.392   1.760   8.055 -0.8176  0.0228  0.5549
 2212SOL    HW118269   1.450   1.685   8.064  0.1883  0.7751  0.3244
 2212SOL    HW218270   1.444   1.820   8.001 -1.6117  0.1406 -0.0730
 2213SOL     OW18271   4.463   3.047   7.784  0.3637 -0.0706  0.0690
 2213SOL    HW118272   4.459   2.953   7.768  2.1936 -0.0678 -0.3713
 2213SOL    HW218273   4.438   3.084   7.699  0.6220  0.8033  0.3756
 2214SOL     OW18274   2.961   2.445  14.718 -0.4996  0.6537  0.0272
 2214SOL    HW118275   2.918   2.499  14.784  0.7067 -0.7862  1.9682
 2214SOL    HW218276   2.935   2.359  14.748 -0.3850  0.3241 -0.8257
 2215SOL     OW18277   1.162   2.303   3.261  0.2873 -0.4675 -0.2859
 2215SOL    HW118278   1.169   2.397   3.277  1.0841 -0.6801  0.6024
 2215SOL    HW218279   1.225   2.295   3.189  1.9905 -0.9810  1.2624
 2216SOL     OW18280   1.882   2.623   4.259  0.1200  0.7427  0.1731
 2216SOL    HW118281   1.914   2.549   4.206 -0.4648 -0.0762  0.9535
 2216SOL    HW218282   1.819   2.585   4.320  0.6080  0.6031  0.5871
 2217SOL     OW18283   4.162   1.691   7.819  0.4668  0.3333  0.1894
 2217SOL    HW118284   4.169   1.747   7.741 -4.8476 -1.3849 -1.5178
 2217SOL    HW218285   4.130   1.755   7.882  0.3268  2.1421 -1.6993
 2218SOL     OW18286   3.226   3.773   9.118 -0.3350 -0.3669 -0.3863
 2218SOL    HW118287   3.253   3.728   9.038 -1.7102 -2.2341  0.1983
 2218SOL    HW218288   3.304   3.773   9.174 -1.0321 -0.0691  0.5847
 2219SOL     OW18289   1.732   4.686   4.887 -0.1667 -0.5137  0.5389
 2219SOL    HW118290   1.742   4.657   4.797  1.0847  0.1296  0.4735
 2219SOL    HW218291   1.644   4.722   4.887  0.0213 -0.0529  0.7072
 2220SOL     OW18292   2.572   3.524   3.426 -1.1017 -0.1471 -0.0065
 2220SOL    HW118293   2.551   3.608   3.385 -4.4934 -0.9715  0.0375
 2220SOL    HW218294   2.502   3.513   3.491  0.5979  0.8110  2.0180
 2221SOL     OW18295   2.516   3.338   9.511 -0.2604 -0.2231  0.1684
 2221SOL    HW118296   2.525   3.433   9.499 -0.3848 -0.3488 -0.9148
 2221SOL    HW218297   2.573   3.326   9.586  0.7241  3.7925  0.0720
 2222SOL     OW18298   1.336   0.886   1.869 -0.5969 -0.5140 -0.3531
 2222SOL    HW118299   1.273   0.855   1.934  1.3564 -1.6545  0.9716
 2222SOL    HW218300   1.411   0.854   1.918  0.9859  1.7177 -1.3042
 2223SOL     OW18301   2.484   2.275   1.207  0.0037  0.2435  0.3122
 2223SOL    HW118302   2.514   2.193   1.167 -1.4384 -1.0740  1.9247
 2223SOL    HW218303   2.487   2.332   1.130 -0.8996 -2.2393 -1.5704
 2224SOL     OW18304   1.122   1.751  16.138  0.3866  0.4874  0.2525
 2224SOL    HW118305   1.212   1.773  16.113  0.6704 -0.2576  0.6453
 2224SOL    HW218306   1.085   1.742  16.050 -2.0870  1.2365  1.1869
 2225SOL     OW18307   1.803   2.315  12.196  0.2597 -0.2437  0.2971
 2225SOL    HW118308   1.885   2.267  12.206  0.6857  0.0349 -1.8229
 2225SOL    HW218309   1.830   2.372  12.123  0.7889  0.1683  0.8097
 2226SOL     OW18310   4.280   3.204   4.197 -0.2802  0.1858 -0.6327
 2226SOL    HW118311   4.232   3.280   4.164 -0.9778  0.8862  1.9414
 2226SOL    HW218312   4.361   3.229   4.152  0.7385 -0.3100  0.9076
 2227SOL     OW18313   3.228   0.568   4.274 -0.3226  0.0884  1.3429
 2227SOL    HW118314   3.215   0.550   4.367 -3.1461 -1.5127  0.6451
 2227SOL    HW218315   3.149   0.531   4.235 -0.7111  2.3878 -0.0651
 2228SOL     OW18316   4.655   2.072   8.864 -0.4120 -0.2412 -0.5457
 2228SOL    HW118317   4.636   2.157   8.824  0.1620 -1.3028 -3.0619
 2228SOL    HW218318   0.016   2.078   8.863 -0.0889 -4.9361  1.7018
 2229SOL     OW18319   2.498   2.300   9.876  0.0739  0.6326  0.0376
 2229SOL    HW118320   2.437   2.353   9.927 -0.0940  0.0908  0.4096
 2229SOL    HW218321   2.468   2.215   9.910 -0.5710  1.9926  2.8535
 2230SOL     OW18322   2.444   2.391   3.864  0.3058  0.3302 -0.4829
 2230SOL    HW118323   2.497   2.313   3.876  1.8307  1.3914 -0.2215
 2230SOL    HW218324   2.512   2.459   3.867  0.7936 -0.1732 -0.1926
 2231SOL     OW18325   2.855   0.615   4.317 -0.0964  0.0225  0.0847
 2231SOL    HW118326   2.910   0.586   4.244 -1.7046  0.6320 -1.3799
 2231SOL    HW218327   2.771   0.629   4.274  0.6262 -0.0556 -1.3526
 2232SOL     OW18328   1.166   2.912   5.980 -0.3254  0.4203 -0.0436
 2232SOL    HW118329   1.097   2.978   5.983 -1.0372 -0.3391  0.4250
 2232SOL    HW218330   1.238   2.961   5.940 -0.5094  2.3410  1.9998
 2233SOL     OW18331   1.637   3.170   2.354  0.0290 -0.6388  0.0858
 2233SOL    HW118332   1.686   3.154   2.434  1.2437 -0.3231 -0.5888
 2233SOL    HW218333   1.685   3.249   2.329  0.4548 -1.2658 -1.0861
 2234SOL     OW18334   4.722   3.629  11.586  0.0840  0.0741 -0.7439
 2234SOL    HW118335   4.694   3.716  11.614  3.7188  0.8848  0.3903
 2234SOL    HW218336   0.053   3.603  11.652  0.8428 -1.1726 -2.0041
 2235SOL     OW18337   0.564   4.544  13.939 -0.4358 -0.2540 -0.0969
 2235SOL    HW118338   0.491   4.522  13.881 -0.5618  2.1196 -0.8453
 2235SOL    HW218339   0.532   4.618  13.990  0.0665  0.1747 -0.4024
 2236SOL     OW18340   1.159   1.395   7.525  0.2018  0.5891 -0.5098
 2236SOL    HW118341   1.198   1.472   7.565  1.1015 -0.2045  0.1582
 2236SOL    HW218342   1.216   1.327   7.562 -0.9426 -0.6308 -0.9895
 2237SOL     OW18343   1.976   0.719   4.507 -0.1357 -0.0607  0.5010
 2237SOL    HW118344   1.982   0.721   4.602 -0.3287  1.9270  0.4842
 2237SOL    HW218345   1.952   0.628   4.488 -1.0988  0.0952  0.9491
 2238SOL     OW18346   0.280   2.804   8.384 -0.1034  0.0448  0.1913
 2238SOL    HW118347   0.266   2.857   8.306  3.9806 -0.7857 -1.0945
 2238SOL    HW218348   0.334   2.732   8.351 -0.4342 -0.5638  0.9715
 2239SOL     OW18349   1.773   3.701   5.105  0.6371 -0.1745  0.2461
 2239SOL    HW118350   1.854   3.721   5.152 -0.3637  0.6666  1.5901
 2239SOL    HW218351   1.804   3.639   5.039  1.3107  1.1263 -0.6684
 2240SOL     OW18352   4.298   3.915   6.345  0.3255 -0.2586 -0.1469
 2240SOL    HW118353   4.279   3.935   6.254 -2.7247 -0.7055  0.4068
 2240SOL    HW218354   4.255   3.992   6.382 -1.0692 -0.7394 -0.7884
 2241SOL     OW18355   1.471   4.698   3.227 -0.5117  0.3587 -0.0299
 2241SOL    HW118356   1.532   4.665   3.160  0.1675  0.6159  0.4592
 2241SOL    HW218357   1.449   4.617   3.273 -0.4287 -0.7936 -1.9972
 2242SOL     OW18358   4.504   1.273   7.577 -0.4338  0.4290 -1.0730
 2242SOL    HW118359   4.452   1.318   7.511 -0.6837  3.6020  1.2806
 2242SOL    HW218360   4.562   1.343   7.606  0.0553 -0.9703  1.3881
 2243SOL     OW18361   2.361   0.786   8.568  0.1976  0.3986 -0.1701
 2243SOL    HW118362   2.344   0.727   8.494 -0.3630  0.7661 -0.3344
 2243SOL    HW218363   2.434   0.737   8.607 -1.3178 -1.9788 -0.3539
 2244SOL     OW18364   2.980   1.729  16.179  0.1974 -0.5390 -0.3464
 2244SOL    HW118365   3.002   1.817  16.147 -1.5226  0.0050 -0.0193
 2244SOL    HW218366   2.952   1.751  16.268 -0.8409 -0.9916 -0.5570
 2245SOL     OW18367   3.493   0.704  13.520  0.0348 -0.3376 -0.6559
 2245SOL    HW118368   3.570   0.660  13.485 -0.5238 -1.6790 -0.2115
 2245SOL    HW218369   3.527   0.738  13.602 -0.2101 -1.2064 -0.1921
 2246SOL     OW18370   4.141   2.678   8.516  0.5716  0.2215  0.5915
 2246SOL    HW118371   4.097   2.628   8.447 -0.8699 -0.1345  1.7756
 2246SOL    HW218372   4.186   2.745   8.464 -2.4093  0.9115 -1.0643
 2247SOL     OW18373   0.342   0.214   4.522  0.3258 -0.8860 -0.2762
 2247SOL    HW118374   0.258   0.202   4.565  0.1064 -3.2673 -1.3268
 2247SOL    HW218375   0.381   0.288   4.567 -0.1267  1.1686 -3.2461
 2248SOL     OW18376   3.476   2.687   3.592  0.2121  0.0178 -0.1399
 2248SOL    HW118377   3.457   2.727   3.507  1.3734  2.4825  0.7550
 2248SOL    HW218378   3.566   2.655   3.595 -0.0835 -0.7823  0.1812
 2249SOL     OW18379   3.416   2.279   4.181  0.1832 -0.2629 -0.4495
 2249SOL    HW118380   3.464   2.252   4.259 -1.1775  2.8145  1.4353
 2249SOL    HW218381   3.429   2.205   4.122  0.5365 -0.4616 -0.1244
 2250SOL     OW18382   2.268   4.030   6.978  0.5236  0.0930  0.1575
 2250SOL    HW118383   2.362   4.036   6.959  0.8575 -1.3011  1.3298
 2250SOL    HW218384   2.263   4.071   7.064 -0.0627  0.7326 -0.1840
 2251SOL     OW18385   4.542   2.552  15.634  0.6721 -0.4093 -0.5183
 2251SOL    HW118386   4.609   2.487  15.616  0.6000 -0.5348 -0.3315
 2251SOL    HW218387   4.542   2.542  15.729 -0.0105 -0.2154 -0.4971
 2252SOL     OW18388   2.069   0.967   5.960  0.1097 -0.0163  0.1899
 2252SOL    HW118389   2.160   0.994   5.976 -0.0659 -0.7895  2.5178
 2252SOL    HW218390   2.065   1.005   5.872  3.0595 -0.4031 -0.1370
 2253SOL     OW18391   1.216   0.112   3.451  0.4522  0.1993 -0.0610
 2253SOL    HW118392   1.215   0.025   3.411 -0.7206 -0.3386  1.1391
 2253SOL    HW218393   1.294   0.128   3.504 -0.7246  1.8341  1.1786
 2254SOL     OW18394   0.692   2.092  17.021 -0.0580 -0.2792 -0.8329
 2254SOL    HW118395   0.637   2.165  17.051  1.2979  0.7479 -0.8816
 2254SOL    HW218396   0.733   2.069  17.104  1.1036  0.1944 -1.2863
 2255SOL     OW18397   3.271   2.181   9.072 -0.1878 -0.0730  0.2218
 2255SOL    HW118398   3.272   2.086   9.059  0.0164  0.3525 -2.8902
 2255SOL    HW218399   3.201   2.183   9.137  0.8382  0.2143  1.3103
 2256SOL     OW18400   3.167   2.965   1.418  0.1190 -0.0457 -0.3254
 2256SOL    HW118401   3.143   3.038   1.360  0.6161  0.1135 -0.3282
 2256SOL    HW218402   3.080   2.925   1.429  0.0264 -0.1550 -1.4022
 2257SOL     OW18403   0.119   3.758  17.389  0.2005 -0.0203  0.6571
 2257SOL    HW118404   0.192   3.776  17.448 -0.9128  0.5310  1.8581
 2257SOL    HW218405   0.120   3.662  17.395  0.8702 -0.0118  0.7099
 2258SOL     OW18406   4.576   2.940   9.176 -0.3589 -0.1409 -0.4291
 2258SOL    HW118407   4.591   2.860   9.124  0.6495  0.7732 -1.5408
 2258SOL    HW218408   4.656   2.988   9.157  1.1989 -1.1488  3.6459
 2259SOL     OW18409   1.816   0.154  15.093 -0.2829  0.1567  0.1139
 2259SOL    HW118410   1.888   0.110  15.047  1.0881  1.1702  1.2948
 2259SOL    HW218411   1.861   0.182  15.172  1.1522 -1.7767 -0.0426
 2260SOL     OW18412   3.088   4.014  15.521 -0.3223 -0.2260  0.5131
 2260SOL    HW118413   3.074   3.934  15.469  1.3674 -1.2743  1.6702
 2260SOL    HW218414   3.050   3.981  15.603  1.2418 -0.8059  1.0038
 2261SOL     OW18415   4.367   4.177  17.683  0.3641 -0.3131 -0.7262
 2261SOL    HW118416   4.307   4.233  17.634 -0.1361  1.6444  2.1474
 2261SOL    HW218417   4.305   4.106  17.704  0.7112  0.2063  1.9906
 2262SOL     OW18418   4.375   4.173   0.584 -0.3364  0.1672  0.3708
 2262SOL    HW118419   4.461   4.208   0.609  0.5728 -0.5942 -1.7213
 2262SOL    HW218420   4.347   4.139   0.669 -1.7039  0.8885  0.2123
 2263SOL     OW18421   2.253   1.778   9.507  0.0506  0.4325  0.1891
 2263SOL    HW118422   2.348   1.783   9.492  0.3039 -1.1921  1.1846
 2263SOL    HW218423   2.229   1.730   9.428 -0.8741  1.4117 -0.1135
 2264SOL     OW18424   1.667   3.429   6.961  0.4408  0.0698  0.5564
 2264SOL    HW118425   1.757   3.408   6.986  1.1814  0.1483 -2.0300
 2264SOL    HW218426   1.668   3.524   6.969 -2.2347  0.3099 -2.2758
 2265SOL     OW18427   2.123   4.353   1.774 -0.3820 -0.0104  0.4378
 2265SOL    HW118428   2.078   4.416   1.718 -0.4096 -0.5663 -0.1693
 2265SOL    HW218429   2.189   4.315   1.715  1.4598  0.8928  1.9270
 2266SOL     OW18430   4.186   1.745   0.180 -0.7133  0.3588 -0.0570
 2266SOL    HW118431   4.225   1.826   0.147 -0.6519  0.5744  0.5382
 2266SOL    HW218432   4.255   1.697   0.226 -0.4630  1.8025  1.0724
 2267SOL     OW18433   1.941   1.435   7.200 -0.0072 -0.3127  0.0537
 2267SOL    HW118434   1.958   1.415   7.292  1.0172  0.1757 -0.0342
 2267SOL    HW218435   1.851   1.403   7.192 -0.6110  1.2686  0.4762
 2268SOL     OW18436   0.867   2.936   0.788  0.0875  0.4347 -0.0648
 2268SOL    HW118437   0.922   3.014   0.786 -1.1922  1.4147  2.9805
 2268SOL    HW218438   0.812   2.937   0.710 -1.4037  0.2137  0.9836
 2269SOL     OW18439   4.601   3.247   8.099 -0.5683 -0.3903 -0.3213
 2269SOL    HW118440   4.511   3.237   8.067 -0.1118 -0.6382 -1.5389
 2269SOL    HW218441   4.649   3.169   8.070  1.9886  1.3636 -0.7480
 2270SOL     OW18442   4.356   2.634  14.670 -0.4453 -0.1770  0.4869
 2270SOL    HW118443   4.351   2.728  14.687 -0.8188  0.1498 -1.3689
 2270SOL    HW218444   4.268   2.601  14.687 -0.9527  0.9649  0.0566
 2271SOL     OW18445   1.165   1.019   2.810 -0.8012  0.0739  0.3290
 2271SOL    HW118446   1.134   0.968   2.735  1.1572 -1.0668  0.2925
 2271SOL    HW218447   1.257   0.991   2.805 -0.2620  1.7274  0.8530
 2272SOL     OW18448   2.459   0.851   7.094 -0.4373 -0.3660 -0.6906
 2272SOL    HW118449   2.432   0.783   7.033 -0.9913  0.3859 -1.2709
 2272SOL    HW218450   2.494   0.798   7.166 -1.3482  0.1628  0.1329
 2273SOL     OW18451   1.755   0.909   6.379 -0.0510  0.5381  0.2972
 2273SOL    HW118452   1.810   0.853   6.434 -1.3042 -1.9862 -1.0389
 2273SOL    HW218453   1.763   0.987   6.434  1.1355 -0.1112  1.0427
 2274SOL     OW18454   2.036   2.872   1.160 -0.3230  0.7015 -0.3282
 2274SOL    HW118455   2.115   2.914   1.127 -0.6790  1.8780  0.3088
 2274SOL    HW218456   2.066   2.782   1.159 -0.3702  0.6925 -1.0512
 2275SOL     OW18457   2.754   2.415  14.998  0.8464  0.3502  0.4530
 2275SOL    HW118458   2.787   2.499  14.968  0.2211  0.5371  0.2856
 2275SOL    HW218459   2.834   2.369  15.024  2.2390  0.5938 -3.3424
 2276SOL     OW18460   2.025   1.234   4.705  0.1716  0.5825  0.4114
 2276SOL    HW118461   2.040   1.155   4.755  2.2961  1.0971  0.5698
 2276SOL    HW218462   2.068   1.300   4.760  1.8228 -1.1030  1.0909
 2277SOL     OW18463   1.788   1.309   9.615  0.4850  0.5643 -0.0443
 2277SOL    HW118464   1.866   1.255   9.602 -0.0249 -0.2573  0.3199
 2277SOL    HW218465   1.812   1.348   9.699  1.2371  1.3577 -0.6432
 2278SOL     OW18466   0.254   2.529  10.568 -0.0160  0.2424  0.3851
 2278SOL    HW118467   0.202   2.609  10.566 -1.0289 -0.4350 -0.7693
 2278SOL    HW218468   0.199   2.466  10.614  0.4693 -0.7293 -0.3667
 2279SOL     OW18469   1.280   4.175   8.172 -0.4400  0.1666 -0.4276
 2279SOL    HW118470   1.330   4.226   8.109  0.9089  1.6757  1.8808
 2279SOL    HW218471   1.193   4.175   8.132 -0.6386 -0.6919  0.0143
 2280SOL     OW18472   4.629   4.023  14.641  0.2825  0.6412 -0.2628
 2280SOL    HW118473   4.607   4.112  14.671  3.3484  1.6564 -0.9768
 2280SOL    HW218474   4.634   4.050  14.549  0.5646  0.5495 -0.2753
 2281SOL     OW18475   0.549   0.926   8.125 -0.2462  0.0902  0.1305
 2281SOL    HW118476   0.495   0.971   8.189 -0.5604  0.1513 -0.1778
 2281SOL    HW218477   0.535   0.986   8.052 -2.4327 -1.0926 -0.4252
 2282SOL     OW18478   3.872   0.034   2.034 -1.3177 -0.1613  0.2045
 2282SOL    HW118479   3.850   0.036   1.941  1.7775  0.3940 -0.5305
 2282SOL    HW218480   3.938   0.103   2.040 -0.5751 -0.7787 -0.8725
 2283SOL     OW18481   1.922   4.126  11.979  0.6182 -0.5268 -0.2028
 2283SOL    HW118482   1.949   4.151  12.067  1.9922 -2.6650 -0.0183
 2283SOL    HW218483   1.935   4.204  11.925  0.9710 -0.4098  0.0475
 2284SOL     OW18484   3.003   2.071   7.060  0.6312 -0.4278  0.6153
 2284SOL    HW118485   3.040   2.137   7.001  1.9927  0.6270  2.6465
 2284SOL    HW218486   2.928   2.120   7.096  0.3424 -0.5489  0.1807
 2285SOL     OW18487   4.057   0.586   6.084  0.2371  0.2685 -0.2374
 2285SOL    HW118488   4.017   0.531   6.017 -2.3031 -0.2137  1.6958
 2285SOL    HW218489   4.120   0.644   6.041  0.0879  1.1464  0.7081
 2286SOL     OW18490   3.482   3.377   1.240  0.4637 -0.5622  0.1511
 2286SOL    HW118491   3.549   3.437   1.272 -1.1611  1.1695  0.3331
 2286SOL    HW218492   3.440   3.359   1.324 -3.4396  0.2972 -1.6033
 2287SOL     OW18493   0.553   1.408   1.808  0.2017 -0.6742 -0.1178
 2287SOL    HW118494   0.519   1.474   1.747 -1.2912 -1.7135 -0.4352
 2287SOL    HW218495   0.642   1.398   1.775 -0.7680 -2.3593 -2.2702
 2288SOL     OW18496   2.802   4.298   0.079  0.0491 -0.0549 -0.3789
 2288SOL    HW118497   2.778   4.226   0.137  0.9896 -0.2620 -0.2475
 2288SOL    HW218498   2.897   4.292   0.077  0.1524 -0.0243  5.7176
 2289SOL     OW18499   1.396   3.307   4.621  0.2621  0.0798 -0.0155
 2289SOL    HW118500   1.418   3.248   4.549 -0.1894  1.8154 -1.5915
 2289SOL    HW218501   1.432   3.253   4.691  0.2114 -2.9298 -2.2984
 2290SOL     OW18502   2.623   2.887   6.486 -0.5096  0.1470  0.4875
 2290SOL    HW118503   2.578   2.910   6.405 -0.8499 -1.0638  0.3370
 2290SOL    HW218504   2.567   2.929   6.552 -1.7116  1.0411 -1.1235
 2291SOL     OW18505   4.297   2.823   6.598 -0.4470 -0.5927  0.5351
 2291SOL    HW118506   4.345   2.744   6.572 -1.2504 -1.1017  0.5939
 2291SOL    HW218507   4.293   2.857   6.509  1.6460  0.8670  0.9867
 2292SOL     OW18508   3.631   3.443   7.640  0.5915  0.5170 -0.0244
 2292SOL    HW118509   3.665   3.372   7.586  2.6667  0.7521  0.9797
 2292SOL    HW218510   3.624   3.393   7.721 -0.7907  2.1413  0.8666
 2293SOL     OW18511   3.156   3.191   1.600  0.3915 -0.4261 -0.2114
 2293SOL    HW118512   3.062   3.174   1.610 -0.0829  2.4175  0.0993
 2293SOL    HW218513   3.188   3.107   1.567 -0.5190 -0.9176  0.1867
 2294SOL     OW18514   4.115   4.104  11.527  1.1727  0.4425  0.6274
 2294SOL    HW118515   4.138   4.015  11.555  0.9820  0.4875  0.9251
 2294SOL    HW218516   4.134   4.098  11.433  0.4402  0.7602  0.4546
 2295SOL     OW18517   1.751   2.272   2.427  0.0719 -0.0730 -0.0064
 2295SOL    HW118518   1.842   2.287   2.399  0.1818  1.4518  1.1807
 2295SOL    HW218519   1.725   2.363   2.443  0.2142  0.0802 -0.6363
 2296SOL     OW18520   1.645   2.786   5.214  1.2646  0.0375  0.2416
 2296SOL    HW118521   1.717   2.815   5.269 -0.2056 -0.0592  2.2371
 2296SOL    HW218522   1.670   2.694   5.221  1.2355  0.1034  1.2196
 2297SOL     OW18523   2.218   0.572  12.294  0.1657 -0.4975 -0.9285
 2297SOL    HW118524   2.274   0.646  12.270 -0.5800  0.2406 -0.4199
 2297SOL    HW218525   2.152   0.586  12.226 -0.6885  0.4342  0.0847
 2298SOL     OW18526   0.156   2.637   4.225  0.0171  0.0387  0.3230
 2298SOL    HW118527   0.120   2.726   4.229  0.2654  0.1280  0.5811
 2298SOL    HW218528   0.077   2.585   4.240  0.5438 -1.2266 -1.3878
 2299SOL     OW18529   0.723   0.050   5.584  0.1341  0.9901  0.3706
 2299SOL    HW118530   0.801   0.026   5.532 -0.4234 -1.1506  0.5333
 2299SOL    HW218531   0.713   4.703   5.634  2.9338  1.0775  1.1181
 2300SOL     OW18532   3.242   1.772  13.397  0.2337 -0.4280  0.0979
 2300SOL    HW118533   3.271   1.691  13.438 -0.7336  0.2902  2.1865
 2300SOL    HW218534   3.149   1.787  13.417  0.0957  0.8560 -1.4430
 2301SOL     OW18535   4.264   0.589   7.026  0.0276  0.0726 -0.0888
 2301SOL    HW118536   4.332   0.623   6.968 -1.7519  3.0614 -0.3989
 2301SOL    HW218537   4.204   0.542   6.969 -0.1739 -2.3578  2.0797
 2302SOL     OW18538   0.177   1.063  10.665 -0.1534 -0.7088  0.9212
 2302SOL    HW118539   0.131   0.986  10.698  0.9448 -2.4832 -1.6671
 2302SOL    HW218540   0.140   1.094  10.583  1.6073 -1.4942 -0.1668
 2303SOL     OW18541   1.188   3.307   4.830 -0.2681  0.7616 -0.0978
 2303SOL    HW118542   1.237   3.318   4.912  0.1169 -0.8494 -0.1052
 2303SOL    HW218543   1.254   3.327   4.764  1.3540 -3.5162  0.2206
 2304SOL     OW18544   3.872   3.379   4.475 -0.4246 -0.0131 -0.2480
 2304SOL    HW118545   3.947   3.373   4.416  0.8803 -0.1697  1.4214
 2304SOL    HW218546   3.804   3.406   4.413  0.2986 -0.0787 -1.0745
 2305SOL     OW18547   0.807   0.110   7.879  0.0965  0.0454  0.3490
 2305SOL    HW118548   0.725   0.137   7.918 -0.6442  0.4019 -1.4351
 2305SOL    HW218549   0.819   0.177   7.812  0.7921 -0.6639 -0.2524
 2306SOL     OW18550   1.478   3.182   4.870  0.3955 -0.7301  0.8218
 2306SOL    HW118551   1.573   3.188   4.880  0.8096 -1.6305 -2.3611
 2306SOL    HW218552   1.476   3.112   4.935 -1.6998 -0.2772  1.2373
 2307SOL     OW18553   1.081   0.107   8.958 -0.0926 -0.0396 -0.7907
 2307SOL    HW118554   1.074   0.073   8.869 -0.1149 -0.1485 -0.7466
 2307SOL    HW218555   1.007   0.056   8.991  0.8241 -0.6965  0.2571
 2308SOL     OW18556   3.480   1.762   7.265  0.3399 -0.0762 -0.3706
 2308SOL    HW118557   3.439   1.690   7.216  0.8782 -0.4404 -0.2812
 2308SOL    HW218558   3.499   1.823   7.194  1.1556  1.8419  1.5309
 2309SOL     OW18559   0.925   0.357   8.625 -0.2525 -0.7293 -0.2493
 2309SOL    HW118560   0.830   0.358   8.640 -0.3607 -0.3933 -0.9586
 2309SOL    HW218561   0.962   0.312   8.701 -0.2403 -0.2468  0.0296
 2310SOL     OW18562   0.078   4.331   7.590 -0.4229  0.1000  0.2794
 2310SOL    HW118563   0.074   4.427   7.590  0.9355  0.1539 -2.0573
 2310SOL    HW218564   0.112   4.310   7.677  0.3437 -1.0639 -0.3081
 2311SOL     OW18565   2.703   1.631  15.405  0.0853  0.4417 -0.3733
 2311SOL    HW118566   2.730   1.607  15.317 -1.2270  0.2546 -0.7209
 2311SOL    HW218567   2.787   1.626  15.452  1.1550 -2.6151 -2.6473
 2312SOL     OW18568   2.842   1.010   6.519 -0.1276 -0.1411  0.2027
 2312SOL    HW118569   2.889   1.093   6.508 -1.9001  0.8293 -0.0132
 2312SOL    HW218570   2.910   0.949   6.547 -0.5485  0.1641  1.9051
 2313SOL     OW18571   0.643   0.182   2.611 -0.1873 -0.0923 -0.2776
 2313SOL    HW118572   0.637   0.090   2.639 -1.5728  1.0623  3.1832
 2313SOL    HW218573   0.551   0.204   2.599 -1.0076 -3.0589  0.6475
 2314SOL     OW18574   3.028   0.261  16.515 -0.0364  0.2784  0.1865
 2314SOL    HW118575   2.960   0.227  16.573 -0.6803  2.2888  0.6270
 2314SOL    HW218576   3.085   0.279  16.590  0.4770 -0.2475 -0.0789
 2315SOL     OW18577   3.359   0.688  11.629 -0.6818  0.8240 -0.0141
 2315SOL    HW118578   3.397   0.704  11.715 -0.3830  1.8098 -0.3343
 2315SOL    HW218579   3.418   0.621  11.593  1.5566  1.8196  1.8274
 2316SOL     OW18580   1.589   1.411   5.700 -0.4951  0.6358  0.2921
 2316SOL    HW118581   1.538   1.439   5.624 -0.8398 -0.9791 -0.0701
 2316SOL    HW218582   1.613   1.499   5.728 -1.5802  1.0307 -0.0124
 2317SOL     OW18583   4.299   4.732   6.254 -0.1450  0.1083 -0.1941
 2317SOL    HW118584   4.330   0.054   6.325 -2.2012 -0.2347  0.9969
 2317SOL    HW218585   4.217   4.700   6.292  0.0498  1.3164  1.2311
 2318SOL     OW18586   1.985   0.379   5.862 -0.3648  0.0509  0.2283
 2318SOL    HW118587   2.075   0.346   5.860 -0.2163  0.5253 -0.9637
 2318SOL    HW218588   1.971   0.350   5.952 -0.7606  1.2813  0.5623
 2319SOL     OW18589   3.370   2.413   2.585 -0.2885  0.0611 -0.1987
 2319SOL    HW118590   3.351   2.325   2.616 -0.0723  0.7890  2.0681
 2319SOL    HW218591   3.445   2.401   2.527  0.7773  2.5976  0.6430
 2320SOL     OW18592   1.899   3.464   4.960  0.4517  0.2748  0.5509
 2320SOL    HW118593   1.949   3.437   5.037 -0.9885 -1.6960  0.7928
 2320SOL    HW218594   1.842   3.388   4.949  1.1329 -0.4466  1.9974
 2321SOL     OW18595   3.499   1.287   4.769 -0.3197 -0.1160  0.0372
 2321SOL    HW118596   3.424   1.234   4.796 -0.4998  0.5403  0.8007
 2321SOL    HW218597   3.552   1.230   4.713 -2.6476  0.5369 -2.8208
 2322SOL     OW18598   1.599   1.381   3.821 -0.1861 -0.3184  0.2829
 2322SOL    HW118599   1.633   1.384   3.910 -0.5692 -0.4862  0.4363
 2322SOL    HW218600   1.509   1.350   3.833 -0.4688  0.3728 -0.0639
 2323SOL     OW18601   3.226   1.837   3.346 -0.0272 -0.8142  0.2426
 2323SOL    HW118602   3.215   1.747   3.376  1.3957 -0.8690  0.6531
 2323SOL    HW218603   3.137   1.852   3.316  0.9212 -1.6003 -2.9033
 2324SOL     OW18604   1.574   3.073   0.073  0.1142  0.2198  0.0379
 2324SOL    HW118605   1.669   3.072   0.069  0.2283 -1.7745  3.3515
 2324SOL    HW218606   1.556   2.995   0.124 -0.4218 -0.9391 -1.9019
 2325SOL     OW18607   4.448   2.550  17.626 -0.8200  0.1750 -0.1531
 2325SOL    HW118608   4.436   2.468  17.675 -3.9347  1.0160  0.5011
 2325SOL    HW218609   4.537   2.581  17.641 -1.7971  2.7737  0.2847
 2326SOL     OW18610   3.151   2.546  16.877 -0.1193 -0.0236 -0.2821
 2326SOL    HW118611   3.180   2.636  16.860 -1.8277  0.8949  1.6807
 2326SOL    HW218612   3.140   2.561  16.971 -1.2052 -0.4746 -0.3455
 2327SOL     OW18613   2.945   4.703  11.202 -0.7864 -0.0082 -0.3946
 2327SOL    HW118614   2.967   0.050  11.155 -1.2707  0.3504 -0.0021
 2327SOL    HW218615   2.979   4.727  11.288 -1.1450 -2.3282  0.3901
 2328SOL     OW18616   0.378   4.181  13.131 -1.4628 -0.1109  0.4130
 2328SOL    HW118617   0.388   4.240  13.205 -1.5561  1.8136 -1.0940
 2328SOL    HW218618   0.471   4.185  13.110 -1.3580 -0.0498  0.8898
 2329SOL     OW18619   0.065   3.698  16.880  0.0708  0.5523 -0.1972
 2329SOL    HW118620   4.713   3.733  16.854 -0.0466  0.0514 -0.4955
 2329SOL    HW218621   0.094   3.764  16.942 -2.4504  0.8685  0.6748
 2330SOL     OW18622   3.960   3.549   4.650  0.9427 -0.3255 -0.0503
 2330SOL    HW118623   4.048   3.516   4.667  1.3826  0.1148 -1.4486
 2330SOL    HW218624   3.925   3.477   4.598  2.4198 -0.7242 -0.4862
 2331SOL     OW18625   1.248   1.529   5.912  0.3239  0.3721  0.1183
 2331SOL    HW118626   1.214   1.553   5.998 -0.8719  1.7516 -0.7443
 2331SOL    HW218627   1.322   1.589   5.903  0.2942  0.3324 -0.3570
 2332SOL     OW18628   3.236   1.745   8.306 -0.8918 -0.0299 -0.7878
 2332SOL    HW118629   3.163   1.797   8.273 -0.5065 -1.0636 -3.2282
 2332SOL    HW218630   3.289   1.763   8.229  0.3903 -3.1952 -0.6805
 2333SOL     OW18631   1.477   3.602   2.487 -0.0258  0.5701 -0.0495
 2333SOL    HW118632   1.459   3.546   2.562  0.6007 -0.6880 -0.8329
 2333SOL    HW218633   1.399   3.656   2.490 -1.1622 -1.1173  0.9227
 2334SOL     OW18634   0.382   2.606  12.784 -0.3095  0.4024  0.0471
 2334SOL    HW118635   0.384   2.543  12.712 -0.3907 -0.0756  0.4621
 2334SOL    HW218636   0.351   2.552  12.857  1.0361 -0.8061 -0.2690
 2335SOL     OW18637   1.686   4.380   0.795 -0.1839  0.8408  0.1397
 2335SOL    HW118638   1.681   4.402   0.702  1.4472 -0.5228 -0.2651
 2335SOL    HW218639   1.772   4.405   0.827  0.3011 -0.8495  0.1411
 2336SOL     OW18640   0.495   2.378   3.015 -0.0950 -0.1191  0.7422
 2336SOL    HW118641   0.588   2.377   2.995 -0.1947 -1.3203  0.3698
 2336SOL    HW218642   0.483   2.437   3.090 -3.2478 -0.3600  0.4479
 2337SOL     OW18643   3.552   3.354   1.683  0.3608 -0.0650  0.4834
 2337SOL    HW118644   3.486   3.341   1.615 -0.3112  0.0446  1.1107
 2337SOL    HW218645   3.617   3.289   1.658  0.4885  0.3776 -0.3081
 2338SOL     OW18646   4.121   0.657   5.336  0.3640  0.1209  0.1861
 2338SOL    HW118647   4.088   0.741   5.306  2.3248  0.0622 -2.0732
 2338SOL    HW218648   4.214   0.680   5.336  0.5854 -0.7760 -0.9879
 2339SOL     OW18649   4.419   0.055   3.701 -0.0228 -0.5641 -0.0890
 2339SOL    HW118650   4.470   0.088   3.775  0.9502  0.2808 -1.1242
 2339SOL    HW218651   4.371   0.137   3.690 -0.3947 -1.2442 -3.5747
 2340SOL     OW18652   4.200   4.373  12.242  0.3075 -0.3023 -0.1837
 2340SOL    HW118653   4.249   4.349  12.163 -0.7436 -0.4617 -0.7820
 2340SOL    HW218654   4.181   4.285  12.272 -0.1349 -0.0331  0.3134
 2341SOL     OW18655   0.223   4.642   6.579  0.4789 -0.0356 -0.3775
 2341SOL    HW118656   0.229   4.674   6.669  1.0527 -2.1738  0.3480
 2341SOL    HW218657   0.285   4.708   6.548 -1.1831  0.0220 -3.5585
 2342SOL     OW18658   2.188   3.649   0.772 -0.0301 -0.0735 -0.3308
 2342SOL    HW118659   2.188   3.717   0.704 -0.0815 -0.0716 -0.3289
 2342SOL    HW218660   2.266   3.597   0.751  0.3095  0.4029 -0.2584
 2343SOL     OW18661   1.696   4.574   2.009  0.0870 -0.1287 -0.6475
 2343SOL    HW118662   1.752   4.651   1.998 -2.3937  1.9221  1.0432
 2343SOL    HW218663   1.609   4.610   2.024 -0.7259 -2.6115  0.4965
 2344SOL     OW18664   2.960   0.835   4.470 -0.1540 -0.8435 -0.1544
 2344SOL    HW118665   3.039   0.784   4.490 -0.4498 -0.8648  1.0161
 2344SOL    HW218666   2.930   0.788   4.392  0.4917 -0.0489 -0.8735
 2345SOL     OW18667   0.300   3.102   6.087 -0.4665  0.0707 -0.6051
 2345SOL    HW118668   0.268   3.049   6.014  1.4744  1.1902 -2.2725
 2345SOL    HW218669   0.211   3.128   6.112 -0.8973  0.4161 -2.4960
 2346SOL     OW18670   0.185   2.856   9.432  0.3654  0.1544 -0.9241
 2346SOL    HW118671   0.218   2.881   9.346  1.5902 -2.1674 -1.1120
 2346SOL    HW218672   0.216   2.766   9.427 -1.0014 -0.4394  1.2737
 2347SOL     OW18673   3.653   2.418  11.875 -0.0032  0.4987  0.2456
 2347SOL    HW118674   3.736   2.464  11.861  0.2365  0.3247  1.1048
 2347SOL    HW218675   3.666   2.343  11.817  1.8688  1.9592 -1.2140
 2348SOL     OW18676   0.192   4.272   1.150 -0.1051 -0.6922  0.0752
 2348SOL    HW118677   0.213   4.273   1.244  0.2777  2.7877 -0.0431
 2348SOL    HW218678   0.106   4.231   1.161 -1.4546  1.6041 -1.6995
 2349SOL     OW18679   2.533   2.269  14.195  0.3294  0.1667 -0.4496
 2349SOL    HW118680   2.487   2.278  14.112 -1.8728 -1.2519  0.5998
 2349SOL    HW218681   2.471   2.306  14.259 -0.7071 -0.1062 -1.2990
 2350SOL     OW18682   3.419   3.571   8.304  0.2282 -0.2549 -0.8287
 2350SOL    HW118683   3.492   3.572   8.242 -0.2721 -0.9264 -1.4220
 2350SOL    HW218684   3.352   3.574   8.236 -1.0304 -0.2975  0.4086
 2351SOL     OW18685   4.269   2.796   2.867  0.3879  0.3921  0.2134
 2351SOL    HW118686   4.359   2.822   2.888  0.5452  0.5428 -0.6517
 2351SOL    HW218687   4.227   2.813   2.952 -0.9764 -0.1727 -0.3530
 2352SOL     OW18688   3.850   4.696   5.777  0.6244  0.3261  0.3593
 2352SOL    HW118689   3.854   4.654   5.691  0.2963 -1.3936  1.1758
 2352SOL    HW218690   3.760   4.671   5.795  0.7458 -1.2711 -1.2110
 2353SOL     OW18691   2.741   2.720   2.463 -0.2666 -0.0713  0.3307
 2353SOL    HW118692   2.672   2.666   2.424  3.1527 -3.2262 -1.2563
 2353SOL    HW218693   2.812   2.683   2.411  3.3072  4.2252  2.1793
 2354SOL     OW18694   4.382   1.945   4.638  0.2951 -0.4781 -0.2226
 2354SOL    HW118695   4.469   1.964   4.604  0.8127 -0.0178  1.3273
 2354SOL    HW218696   4.359   1.864   4.592 -1.4368 -0.4175  0.5401
 2355SOL     OW18697   3.978   0.698   3.875  0.0399  1.1426 -0.2514
 2355SOL    HW118698   3.889   0.679   3.905  0.2335  0.7389  0.0761
 2355SOL    HW218699   3.963   0.748   3.795 -0.8647  0.2924 -0.6167
 2356SOL     OW18700   2.044   0.615   4.771  0.1910 -0.4834 -0.2223
 2356SOL    HW118701   1.990   0.663   4.833 -1.2833 -2.7001  0.2237
 2356SOL    HW218702   2.042   0.525   4.805 -0.1173 -0.3354  0.1514
 2357SOL     OW18703   3.405   1.390   6.877  0.3644  0.2944  0.4179
 2357SOL    HW118704   3.336   1.329   6.850  1.8684 -0.8602 -0.7844
 2357SOL    HW218705   3.466   1.382   6.804  0.2528 -0.4540  0.4004
 2358SOL     OW18706   3.653   0.193   2.592  0.3415  0.9195  0.3956
 2358SOL    HW118707   3.741   0.159   2.575 -0.1339 -0.4401  0.6185
 2358SOL    HW218708   3.610   0.114   2.626  0.5023  0.1939 -1.0629
 2359SOL     OW18709   0.559   0.736   8.424 -0.3136  0.2687  0.2276
 2359SOL    HW118710   0.554   0.657   8.372  1.1776 -0.0729  0.6105
 2359SOL    HW218711   0.635   0.778   8.383 -0.6534  1.0196  0.3526
 2360SOL     OW18712   1.196   2.521   6.532  0.3476  0.4260  0.1629
 2360SOL    HW118713   1.240   2.489   6.453 -0.2651  2.4663 -1.0184
 2360SOL    HW218714   1.206   2.616   6.524 -1.3438  0.5554 -0.3992
 2361SOL     OW18715   3.997   0.430   5.883 -0.0142  0.2525  0.5964
 2361SOL    HW118716   3.988   0.452   5.791 -2.6217 -0.4864  0.6804
 2361SOL    HW218717   3.970   0.338   5.885 -1.7015  0.7421  0.2240
 2362SOL     OW18718   0.270   2.459   2.248 -0.2854 -0.0423  0.6260
 2362SOL    HW118719   0.366   2.456   2.241 -0.2669 -1.5825  1.5881
 2362SOL    HW218720   0.250   2.406   2.171  1.1109 -0.5372  0.5951
 2363SOL     OW18721   1.277   0.432  16.458  0.0216  0.3194 -0.2623
 2363SOL    HW118722   1.185   0.455  16.446 -0.5964 -1.7874  0.5516
 2363SOL    HW218723   1.310   0.425  16.369 -2.4090  2.6069 -1.3583
 2364SOL     OW18724   0.530   1.288   7.517 -0.4298  0.2416 -0.5837
 2364SOL    HW118725   0.508   1.257   7.429  0.8713  0.2232 -0.8934
 2364SOL    HW218726   0.602   1.348   7.501  2.2843 -2.7730  0.3658
 2365SOL     OW18727   0.312   4.543  13.841  0.7548 -0.4185 -0.4102
 2365SOL    HW118728   0.269   4.587  13.915  1.2191 -1.7634  0.6700
 2365SOL    HW218729   0.262   4.461  13.835 -0.8830  0.3635  2.1098
 2366SOL     OW18730   4.712   4.025   0.545 -0.6856 -0.1115  0.2863
 2366SOL    HW118731   0.003   4.102   0.596 -0.2222  0.4051 -0.7024
 2366SOL    HW218732   0.062   3.984   0.527 -0.5288  0.2926  0.0749
 2367SOL     OW18733   2.865   1.022   7.809 -0.2105  0.0904  0.1438
 2367SOL    HW118734   2.895   0.998   7.897 -1.9712 -0.9887  0.4613
 2367SOL    HW218735   2.947   1.055   7.772 -1.0141 -0.7809 -2.3623
 2368SOL     OW18736   4.370   2.673  14.049  0.1500 -0.2622 -0.5125
 2368SOL    HW118737   4.356   2.767  14.049 -2.6312 -0.6736  2.2655
 2368SOL    HW218738   4.392   2.658  13.957 -0.0655  0.9477 -0.7517
 2369SOL     OW18739   1.698   2.960   8.454  0.1005 -0.2667 -0.4660
 2369SOL    HW118740   1.782   2.913   8.449  0.8070  0.7675  1.8171
 2369SOL    HW218741   1.656   2.926   8.375 -1.8139  2.9094 -0.8118
 2370SOL     OW18742   2.525   2.744   7.620 -0.2982  0.4375  0.0851
 2370SOL    HW118743   2.461   2.675   7.636 -0.4827  0.8155  0.9910
 2370SOL    HW218744   2.477   2.800   7.560 -1.5167 -1.4758 -0.7382
 2371SOL     OW18745   1.745   2.905   3.882  0.4282 -0.1353 -0.3043
 2371SOL    HW118746   1.747   2.985   3.829 -0.2452  0.1660  0.1226
 2371SOL    HW218747   1.651   2.919   3.898  0.5818  0.6131 -0.0700
 2372SOL     OW18748   0.177   2.493   5.372  0.2157  0.0238  0.0002
 2372SOL    HW118749   0.255   2.536   5.338  1.1743 -0.3039  1.7833
 2372SOL    HW218750   0.158   2.559   5.439 -0.6917  1.2644 -1.4938
 2373SOL     OW18751   4.465   4.393  12.069  0.3933 -0.3903  0.3303
 2373SOL    HW118752   4.527   4.374  11.999  1.0402 -1.1495  1.1152
 2373SOL    HW218753   4.520   4.414  12.144  0.4041 -0.3103  0.2997
 2374SOL     OW18754   2.056   2.350  12.618  0.3442  0.7097  0.4764
 2374SOL    HW118755   1.966   2.364  12.588  0.5739  2.3991  0.5830
 2374SOL    HW218756   2.038   2.282  12.683  2.0604 -1.1499 -0.9754
 2375SOL     OW18757   1.127   0.336   7.339 -0.1038 -0.0003  0.0881
 2375SOL    HW118758   1.144   0.317   7.247 -1.2390 -2.7303  0.4513
 2375SOL    HW218759   1.035   0.310   7.348  0.1432 -0.9512 -0.1262
 2376SOL     OW18760   3.996   2.371  16.359  0.1713  0.1384 -0.1263
 2376SOL    HW118761   3.915   2.417  16.339  1.4912  1.9089 -1.3738
 2376SOL    HW218762   4.006   2.303  16.292  1.3628 -0.4829  0.6838
 2377SOL     OW18763   4.411   4.236   8.233 -0.5334 -0.4314 -0.3248
 2377SOL    HW118764   4.338   4.288   8.201 -1.2558 -0.9539  0.4568
 2377SOL    HW218765   4.374   4.147   8.237  1.4894 -1.1071  3.2359
 2378SOL     OW18766   4.517   1.868   8.027 -0.1211  0.6228  0.3610
 2378SOL    HW118767   4.476   1.889   7.944  0.9326  0.6406 -0.1531
 2378SOL    HW218768   4.456   1.806   8.067  0.3886  0.6942  1.2527
 2379SOL     OW18769   3.436   3.276   8.092 -0.1629  0.4178 -0.1084
 2379SOL    HW118770   3.373   3.316   8.032 -1.3595  1.1537  1.6420
 2379SOL    HW218771   3.393   3.242   8.170  1.7246  0.3742  0.8986
 2380SOL     OW18772   4.203   4.130   6.497  0.2423  0.0455 -0.6813
 2380SOL    HW118773   4.129   4.144   6.556  1.6275  1.7277  0.6759
 2380SOL    HW218774   4.267   4.201   6.504 -2.0180  1.9650  0.2406
 2381SOL     OW18775   0.888   0.676  10.170  0.4817  0.1788  0.2607
 2381SOL    HW118776   0.859   0.753  10.218 -3.5872 -2.9468  2.8898
 2381SOL    HW218777   0.970   0.655  10.215 -0.5941 -1.5937  1.3827
 2382SOL     OW18778   3.858   1.762   8.817 -0.2711  0.2265 -0.1293
 2382SOL    HW118779   3.881   1.792   8.729  1.7267  3.2875  1.4170
 2382SOL    HW218780   3.937   1.787   8.865 -0.3688 -1.7518  1.0289
 2383SOL     OW18781   1.915   4.638   6.521  0.0023 -0.3446 -0.3064
 2383SOL    HW118782   1.973   4.701   6.563  0.4411 -1.2363  0.4212
 2383SOL    HW218783   1.910   4.580   6.597  1.3068  1.9874  1.5879
 2384SOL     OW18784   0.024   1.395  12.299  0.0761 -0.3241 -0.2529
 2384SOL    HW118785   0.091   1.381  12.366 -1.2330 -0.4816  1.0279
 2384SOL    HW218786   0.044   1.483  12.267  0.1385  0.0436  0.8013
 2385SOL     OW18787   2.870   1.113   4.897 -0.1839 -0.2055 -0.4743
 2385SOL    HW118788   2.780   1.118   4.864 -0.2300 -2.2393 -0.6655
 2385SOL    HW218789   2.893   1.028   4.859 -0.3341 -0.9761  1.1884
 2386SOL     OW18790   3.946   1.075  13.026 -0.0194 -0.0944  0.4421
 2386SOL    HW118791   3.958   1.099  12.934 -0.4077  0.3891  0.5177
 2386SOL    HW218792   4.029   1.095  13.069 -0.6070 -0.8228  1.9025
 2387SOL     OW18793   3.177   1.787   4.664  0.1830 -0.2625 -0.3032
 2387SOL    HW118794   3.151   1.698   4.688  1.0809 -0.2080  0.8844
 2387SOL    HW218795   3.119   1.835   4.723 -2.4989 -3.9327  0.0647
 2388SOL     OW18796   3.606   1.164   8.713  0.4085  0.7862 -0.4492
 2388SOL    HW118797   3.684   1.170   8.768 -0.5095 -0.4146  0.9897
 2388SOL    HW218798   3.573   1.254   8.716 -0.4502  0.4764 -0.6226
 2389SOL     OW18799   1.691   3.301  17.481  0.9379 -0.0497  0.4878
 2389SOL    HW118800   1.727   3.352  17.408 -0.8189  0.3586 -0.1018
 2389SOL    HW218801   1.770   3.298  17.534 -0.3408  0.7599  2.4490
 2390SOL     OW18802   2.631   0.918   8.169 -0.4458 -0.0793  0.2590
 2390SOL    HW118803   2.563   0.850   8.162  0.4032 -0.9161  0.1543
 2390SOL    HW218804   2.715   0.874   8.154 -0.0010  0.3097  1.6458
 2391SOL     OW18805   2.509   0.272   2.475 -0.3319 -0.1548 -0.4102
 2391SOL    HW118806   2.477   0.331   2.544 -1.5691 -0.8188 -0.4267
 2391SOL    HW218807   2.595   0.313   2.478 -0.2593 -0.4084  1.1479
 2392SOL     OW18808   3.775   2.049   1.631  0.2333  0.3348  0.7155
 2392SOL    HW118809   3.773   1.984   1.701  0.7423  0.3311  0.7280
 2392SOL    HW218810   3.843   2.113   1.652  1.0063  0.0934 -1.0232
 2393SOL     OW18811   2.579   2.709   9.572  0.0333  0.3888 -0.1175
 2393SOL    HW118812   2.674   2.699   9.577 -0.2143 -1.9426 -0.0084
 2393SOL    HW218813   2.539   2.676   9.652  1.0741 -1.8658 -0.5334
 2394SOL     OW18814   4.432   2.554   3.920 -0.2223  0.0721 -0.6803
 2394SOL    HW118815   4.512   2.502   3.920 -0.6219 -0.5485 -0.3253
 2394SOL    HW218816   4.454   2.639   3.958 -2.5390  0.6261 -0.5880
 2395SOL     OW18817   3.249   0.157  12.999  0.3243 -0.3027  0.1504
 2395SOL    HW118818   3.249   0.110  12.915  1.5620  0.7146 -0.4187
 2395SOL    HW218819   3.268   0.247  12.973  0.9983 -0.9743 -1.6920
 2396SOL     OW18820   0.984   0.569  17.685  0.2819 -0.1469  0.5156
 2396SOL    HW118821   1.019   0.572   0.039 -3.2375  0.0131  1.8948
 2396SOL    HW218822   0.917   0.635  17.702  0.9217  0.4123  0.9091
 2397SOL     OW18823   0.830   2.169  12.636 -0.8966  0.6673 -0.0066
 2397SOL    HW118824   0.852   2.153  12.545  0.6197 -0.4301  0.5542
 2397SOL    HW218825   0.906   2.129  12.678 -1.6659  1.7949  2.5004
 2398SOL     OW18826   0.316   2.963   4.365 -0.2728 -0.2861  0.7446
 2398SOL    HW118827   0.338   3.034   4.426 -1.3568  2.1919 -1.7456
 2398SOL    HW218828   0.388   2.958   4.301 -0.8120  0.0109  0.1117
 2399SOL     OW18829   3.071   3.061   0.972  0.1311 -0.0689  0.8579
 2399SOL    HW118830   2.994   3.008   0.958  2.1140 -2.3510 -1.2883
 2399SOL    HW218831   3.033   3.148   0.987 -2.9930 -1.3360  0.2395
 2400SOL     OW18832   0.330   1.547   7.719 -0.4522 -0.1414 -0.8222
 2400SOL    HW118833   0.418   1.546   7.757 -1.1297 -0.7017  0.7234
 2400SOL    HW218834   0.346   1.628   7.670 -0.6693 -0.6206 -1.6642
 2401SOL     OW18835   0.209   2.420   1.424 -0.0723  0.4037 -0.2934
 2401SOL    HW118836   0.174   2.368   1.496  1.6378 -0.4514 -0.0840
 2401SOL    HW218837   0.284   2.463   1.463  0.8908  1.0076 -2.8079
 2402SOL     OW18838   3.615   1.654   8.716 -0.0672 -0.0846 -0.1138
 2402SOL    HW118839   3.626   1.715   8.643  0.5154 -0.4453 -0.3313
 2402SOL    HW218840   3.694   1.675   8.766 -0.9634  2.5069  0.2434
 2403SOL     OW18841   3.213   0.708   4.875 -0.4314 -0.0760 -0.0083
 2403SOL    HW118842   3.155   0.710   4.799  0.0157  0.9608 -0.3217
 2403SOL    HW218843   3.219   0.614   4.893  0.6046 -0.0817 -0.3396
 2404SOL     OW18844   3.515   2.844   2.384 -0.3170 -0.2182 -0.9027
 2404SOL    HW118845   3.528   2.749   2.389 -0.3038 -0.1358  0.7545
 2404SOL    HW218846   3.589   2.881   2.431 -1.9669 -1.7943  2.9395
 2405SOL     OW18847   1.435   2.249   5.325  0.4401 -0.3424  0.1201
 2405SOL    HW118848   1.512   2.251   5.269  0.4142  1.9112  0.1613
 2405SOL    HW218849   1.446   2.334   5.368  1.9598 -1.3847  1.7438
 2406SOL     OW18850   3.658   3.877   9.181 -0.4202 -0.3755 -0.2815
 2406SOL    HW118851   3.583   3.876   9.240  1.9063  0.6761  2.6792
 2406SOL    HW218852   3.629   3.814   9.116  1.7078  0.4934 -2.0891
 2407SOL     OW18853   1.309   3.909   7.623 -0.1157  0.3638  0.7505
 2407SOL    HW118854   1.354   3.846   7.680 -0.1419  0.8715  1.3291
 2407SOL    HW218855   1.296   3.980   7.686 -0.2452  2.3736 -1.5863
 2408SOL     OW18856   1.961   0.045   7.594 -0.8185  0.3838 -0.0087
 2408SOL    HW118857   1.933   0.089   7.514  0.2227 -0.9421 -1.1089
 2408SOL    HW218858   1.911   0.090   7.661 -0.8866  0.4655 -0.1146
 2409SOL     OW18859   4.602   1.855  16.474 -0.0457  0.1281 -0.3590
 2409SOL    HW118860   4.691   1.889  16.470  0.2395 -0.3074  2.2865
 2409SOL    HW218861   4.595   1.852  16.570 -2.4808  1.3307 -0.4943
 2410SOL     OW18862   1.349   3.871   3.403 -0.3933  0.5256 -0.3790
 2410SOL    HW118863   1.346   3.966   3.411  1.8100  0.5821 -0.0625
 2410SOL    HW218864   1.375   3.850   3.493 -1.4823 -0.3641 -0.2693
 2411SOL     OW18865   0.527   0.204   4.326  0.7225  0.2745  0.3172
 2411SOL    HW118866   0.494   0.269   4.264 -1.0965 -0.7786  0.1952
 2411SOL    HW218867   0.460   0.212   4.393 -1.4554 -1.2394 -1.7094
 2412SOL     OW18868   0.283   0.013   6.809  0.9177  0.4448  0.1535
 2412SOL    HW118869   0.297   0.101   6.846  1.2309 -0.2241  1.6449
 2412SOL    HW218870   0.265   4.699   6.890 -2.6829 -1.2056 -1.6535
 2413SOL     OW18871   1.743   2.257   4.882  0.2463 -0.4179 -0.3926
 2413SOL    HW118872   1.798   2.330   4.853  0.6518 -0.6902 -0.3033
 2413SOL    HW218873   1.702   2.228   4.800 -1.0529  2.3685 -0.7251
 2414SOL     OW18874   2.294   3.384   9.350 -0.1503  0.0485  0.2058
 2414SOL    HW118875   2.215   3.349   9.390  1.1605 -0.1031  2.6418
 2414SOL    HW218876   2.365   3.367   9.412 -0.8108 -1.1046  0.6496
 2415SOL     OW18877   4.389   0.479  10.821  0.0993 -0.5900  0.7233
 2415SOL    HW118878   4.431   0.565  10.820 -0.3345 -0.3869 -0.4958
 2415SOL    HW218879   4.420   0.446  10.736 -0.6878  3.1144 -1.0049
 2416SOL     OW18880   2.749   3.631   6.749 -0.1138  0.5340  0.3257
 2416SOL    HW118881   2.706   3.693   6.808 -1.2192  0.0495  0.0380
 2416SOL    HW218882   2.829   3.617   6.799 -0.1585 -1.3491 -0.1307
 2417SOL     OW18883   3.925   4.309   2.954  0.1213 -0.2977  0.0580
 2417SOL    HW118884   3.951   4.355   3.033  2.0341  0.2596 -0.8904
 2417SOL    HW218885   3.846   4.354   2.926  1.3404  0.8931 -1.5255
 2418SOL     OW18886   3.800   3.434   5.181  0.4337  0.1565 -0.0431
 2418SOL    HW118887   3.722   3.385   5.206 -0.3364  0.5590 -1.6106
 2418SOL    HW218888   3.842   3.387   5.109  1.4175 -0.8200  1.1852
 2419SOL     OW18889   0.025   0.694   4.092  0.2148 -0.4388 -0.5423
 2419SOL    HW118890   4.725   0.699   4.182 -1.8945 -1.4955 -1.2931
 2419SOL    HW218891   4.710   0.620   4.057 -0.6266  0.0292 -0.3622
 2420SOL     OW18892   2.870   1.928   9.081 -0.0968 -0.3251  0.3294
 2420SOL    HW118893   2.885   1.849   9.134  0.0332 -1.3249 -1.1905
 2420SOL    HW218894   2.775   1.924   9.067 -0.2336 -1.9431  1.6609
 2421SOL     OW18895   1.427   1.653   9.277 -0.3944 -0.5843 -0.1630
 2421SOL    HW118896   1.362   1.706   9.232  2.4513  3.3076  0.3122
 2421SOL    HW218897   1.508   1.697   9.251  1.8820 -4.5584  0.1171
 2422SOL     OW18898   2.125   3.338   5.190 -0.0699  0.4560  0.3143
 2422SOL    HW118899   2.089   3.253   5.214  0.8662 -0.0886 -0.2239
 2422SOL    HW218900   2.160   3.315   5.104 -2.0278 -0.1275 -0.3442
 2423SOL     OW18901   1.085   3.671   5.311 -0.5472  0.1877 -0.1672
 2423SOL    HW118902   1.047   3.602   5.365  0.1675  1.2867  1.7196
 2423SOL    HW218903   1.084   3.742   5.374  1.6067 -0.4707  0.6063
 2424SOL     OW18904   3.717   2.337  11.233  0.3003 -0.0979  0.0580
 2424SOL    HW118905   3.809   2.357  11.251  0.0178  1.0878  0.1962
 2424SOL    HW218906   3.668   2.410  11.271  0.5007 -0.0545  0.2325
 2425SOL     OW18907   3.998   4.430  14.913 -0.1384  0.3913  0.1456
 2425SOL    HW118908   4.020   4.341  14.885 -2.0901  0.1085 -0.5397
 2425SOL    HW218909   3.928   4.451  14.851 -1.2170 -0.7632  0.9406
 2426SOL     OW18910   1.600   1.975   7.423 -0.5550 -0.2114 -0.5030
 2426SOL    HW118911   1.531   1.954   7.360 -0.5819  1.3436 -0.9953
 2426SOL    HW218912   1.571   2.054   7.469  0.1035 -0.4303  0.2694
 2427SOL     OW18913   4.111   1.060   3.572 -0.0182  0.0907  0.0061
 2427SOL    HW118914   4.126   1.115   3.649 -0.9541 -0.9662  0.9406
 2427SOL    HW218915   4.170   1.109   3.515  0.5216  1.0872  1.4078
 2428SOL     OW18916   3.547   0.411   2.707  0.1332  0.4198  0.4889
 2428SOL    HW118917   3.452   0.414   2.706  0.0687 -1.8076  0.5537
 2428SOL    HW218918   3.568   0.335   2.652 -0.1881 -0.9132  2.2051
 2429SOL     OW18919   1.841   0.744   5.805  0.1009 -0.2879 -0.2584
 2429SOL    HW118920   1.778   0.680   5.839  1.2890 -0.3197  1.8812
 2429SOL    HW218921   1.797   0.824   5.833  1.4047  0.3399 -0.0291
 2430SOL     OW18922   1.795   3.583   4.743 -0.2198  0.0465 -0.0493
 2430SOL    HW118923   1.837   3.539   4.816  1.2790  0.9398 -0.3820
 2430SOL    HW218924   1.710   3.596   4.785  0.5443 -1.8649  2.0178
 2431SOL     OW18925   3.435   1.489  17.601 -0.5234  0.0144 -0.3017
 2431SOL    HW118926   3.492   1.559  17.570  1.0035 -0.7306  0.8492
 2431SOL    HW218927   3.398   1.470  17.514 -0.5472  2.3519 -0.8216
 2432SOL     OW18928   1.542   3.330   2.613  0.6322 -0.3283 -0.3220
 2432SOL    HW118929   1.515   3.389   2.683  0.4436  0.3913 -1.0069
 2432SOL    HW218930   1.628   3.366   2.593  0.7796 -0.6953 -0.3562
 2433SOL     OW18931   4.639   3.019   2.660 -0.1286  0.2020  0.2964
 2433SOL    HW118932   4.713   3.047   2.606 -0.5103  0.4386 -0.1075
 2433SOL    HW218933   4.630   3.089   2.725  2.4543  1.8972 -1.1646
 2434SOL     OW18934   3.995   0.954   6.613  0.0017  0.0792  0.3396
 2434SOL    HW118935   3.918   0.904   6.585  1.7099 -1.8414 -1.0446
 2434SOL    HW218936   4.053   0.884   6.644 -1.5148 -1.7938 -1.0269
 2435SOL     OW18937   3.340   4.114  17.018 -0.4048 -0.1636  0.3618
 2435SOL    HW118938   3.380   4.029  16.999 -1.1616 -0.6913  1.1135
 2435SOL    HW218939   3.312   4.104  17.109  0.0624  0.4041  0.5735
 2436SOL     OW18940   2.732   4.179   2.933 -0.2757 -0.4489  0.0946
 2436SOL    HW118941   2.738   4.231   2.853  1.3188 -1.9615 -0.7607
 2436SOL    HW218942   2.640   4.154   2.924 -0.7937  1.7517 -0.7171
 2437SOL     OW18943   0.684   3.954   0.395  0.4918  0.4784 -0.3849
 2437SOL    HW118944   0.761   3.903   0.420 -0.0894 -0.0787  0.3029
 2437SOL    HW218945   0.682   4.024   0.460 -0.8895 -0.3921  0.5128
 2438SOL     OW18946   0.367   2.163   3.145 -0.8688 -0.2480 -0.0883
 2438SOL    HW118947   0.404   2.224   3.081  0.3952 -2.0910 -1.1698
 2438SOL    HW218948   0.290   2.124   3.104  0.2246 -2.6958  0.1649
 2439SOL     OW18949   1.650   0.720   7.081  0.4327  0.2570  0.1775
 2439SOL    HW118950   1.706   0.781   7.128 -0.9478 -0.1159  2.3012
 2439SOL    HW218951   1.709   0.675   7.021 -0.1879 -1.7655  1.0609
 2440SOL     OW18952   2.016   4.661   5.603 -0.8329  0.3935  0.2181
 2440SOL    HW118953   2.026   0.021   5.589 -2.1722  0.4879 -0.1124
 2440SOL    HW218954   1.960   4.670   5.680 -0.1932 -1.3522  0.8850
 2441SOL     OW18955   1.258   0.728   8.181  0.7238 -0.1879  0.1196
 2441SOL    HW118956   1.202   0.758   8.110  1.8712 -2.3491 -1.6964
 2441SOL    HW218957   1.310   0.662   8.136 -0.0606 -1.5938  1.2744
 2442SOL     OW18958   1.097   2.849   3.304  0.5460  1.1335 -0.1349
 2442SOL    HW118959   1.059   2.916   3.247  1.2922 -0.2732 -2.2870
 2442SOL    HW218960   1.144   2.894   3.375  1.1531 -2.6948  1.9045
 2443SOL     OW18961   0.590   3.207   3.944  0.7536 -0.2787  0.0190
 2443SOL    HW118962   0.653   3.148   3.986  1.7970  0.2878 -0.7689
 2443SOL    HW218963   0.577   3.265   4.020  0.5521 -0.2978 -0.0004
 2444SOL     OW18964   1.953   2.573   3.919  0.3182 -0.3610  0.0896
 2444SOL    HW118965   1.958   2.658   3.961 -0.8796 -0.1767 -0.1181
 2444SOL    HW218966   1.967   2.519   3.996  2.1807  0.8562  0.5928
 2445SOL     OW18967   0.589   0.489   5.208  0.7467 -0.1054 -0.4740
 2445SOL    HW118968   0.574   0.396   5.228 -2.7551  0.5146 -0.1781
 2445SOL    HW218969   0.580   0.523   5.297  1.4586  0.1650 -0.5107
 2446SOL     OW18970   4.591   0.949   7.359  0.2482 -0.1265  0.3961
 2446SOL    HW118971   4.543   0.920   7.436 -0.3008  0.3721  0.2408
 2446SOL    HW218972   4.631   1.035   7.373  0.4102  0.5341 -4.2898
 2447SOL     OW18973   1.298   4.694   6.734 -0.2292 -0.0537 -0.1114
 2447SOL    HW118974   1.384   4.712   6.771 -1.8821  1.1392  3.1410
 2447SOL    HW218975   1.325   4.681   6.643  0.3103 -1.4512  0.2431
 2448SOL     OW18976   3.412   2.455   4.889  0.2724  0.7937  0.2630
 2448SOL    HW118977   3.506   2.441   4.881  0.2492  1.1823 -0.6892
 2448SOL    HW218978   3.392   2.415   4.973  1.6120 -2.0803 -0.7889
 2449SOL     OW18979   0.473   3.485   1.891 -0.3156 -0.1269 -0.2498
 2449SOL    HW118980   0.525   3.404   1.895 -0.3856 -0.0845  1.7535
 2449SOL    HW218981   0.443   3.489   1.800  1.3611 -2.6793 -0.9097
 2450SOL     OW18982   1.076   0.287   2.686  0.3304  0.3946  0.1215
 2450SOL    HW118983   1.082   0.222   2.616 -0.9199 -0.2858  0.6272
 2450SOL    HW218984   1.051   0.367   2.640 -2.1119 -0.3368  0.1397
 2451SOL     OW18985   0.605   2.880   1.385 -0.4224 -0.3321 -0.5135
 2451SOL    HW118986   0.577   2.969   1.406 -0.6985 -0.2211 -1.3424
 2451SOL    HW218987   0.532   2.825   1.414 -0.9223  1.5754  1.9239
 2452SOL     OW18988   0.455   3.099   1.755  0.7012 -0.3157  0.2737
 2452SOL    HW118989   0.432   3.112   1.663 -0.6232  1.2066  0.8309
 2452SOL    HW218990   0.479   3.006   1.758 -1.3684 -0.9292 -1.4001
 2453SOL     OW18991   3.062   3.779   9.440 -0.5332  0.0609 -0.3437
 2453SOL    HW118992   3.036   3.871   9.443 -1.1749 -0.1772  1.4558
 2453SOL    HW218993   3.152   3.802   9.463 -1.0388  0.5826  1.1490
 2454SOL     OW18994   1.807   1.444   3.134  0.2535 -0.2092 -0.1150
 2454SOL    HW118995   1.795   1.371   3.194 -0.8019 -0.2415 -0.3763
 2454SOL    HW218996   1.826   1.403   3.049 -0.8673 -0.5145 -0.2139
 2455SOL     OW18997   3.705   0.811   6.077 -0.2227  0.4328 -0.0743
 2455SOL    HW118998   3.717   0.820   5.982  0.2951 -1.5954 -0.1917
 2455SOL    HW218999   3.610   0.805   6.082 -0.0820 -0.2693  1.6254
 2456SOL     OW19000   0.454   2.036  14.652 -0.0112 -0.2457  0.1491
 2456SOL    HW119001   0.460   1.995  14.566  2.5295  1.5169 -0.5147
 2456SOL    HW219002   0.381   1.990  14.693 -0.9177  0.8783 -0.1754
 2457SOL     OW19003   3.594   0.827  15.061 -0.3658 -0.0745  0.1648
 2457SOL    HW119004   3.678   0.815  15.017 -0.4127  2.2471 -0.5736
 2457SOL    HW219005   3.569   0.736  15.073  1.3625 -0.6270 -0.5267
 2458SOL     OW19006   3.214   4.041   3.219  0.1323 -0.1425 -0.0712
 2458SOL    HW119007   3.280   3.973   3.230 -0.5587 -0.7716  0.1998
 2458SOL    HW219008   3.156   4.037   3.295 -1.8767 -0.3771 -1.6013
 2459SOL     OW19009   0.098   1.898   9.469 -0.3737 -1.0509 -0.1429
 2459SOL    HW119010   0.112   1.968   9.532  0.3876 -2.0264  0.7781
 2459SOL    HW219011   0.017   1.928   9.429 -0.8645  1.3220  2.6659
 2460SOL     OW19012   0.815   1.131   8.160  0.5496 -0.1130  0.2496
 2460SOL    HW119013   0.819   1.127   8.256  1.0904 -2.7985  0.1221
 2460SOL    HW219014   0.813   1.225   8.143 -1.2252  0.1730  1.9884
 2461SOL     OW19015   0.883   4.574   4.049 -0.0701  0.1135 -0.3925
 2461SOL    HW119016   0.921   4.611   3.970 -0.2154 -3.3196 -2.0647
 2461SOL    HW219017   0.956   4.569   4.111 -0.8872 -3.6688  0.2608
 2462SOL     OW19018   1.129   1.883   6.952 -0.2865 -0.0885 -0.3784
 2462SOL    HW119019   1.162   1.973   6.949 -2.1310  0.5724 -0.7551
 2462SOL    HW219020   1.213   1.839   6.966 -0.2783  0.2476  0.6157
 2463SOL     OW19021   0.288   0.534   7.586 -0.5305  0.3191 -0.1243
 2463SOL    HW119022   0.291   0.532   7.682 -0.7479 -0.4117 -0.1311
 2463SOL    HW219023   0.267   0.627   7.571 -0.4939  0.4374  0.5595
 2464SOL     OW19024   3.758   2.945   5.200  0.2398 -0.1499  0.0550
 2464SOL    HW119025   3.808   2.979   5.275 -0.5287  4.0018 -1.3265
 2464SOL    HW219026   3.753   3.022   5.143  0.2648 -1.0180 -1.1052
 2465SOL     OW19027   0.289   2.502   0.090  0.4350 -0.2990 -0.3113
 2465SOL    HW119028   0.370   2.510   0.040  0.3081  0.8877 -0.3226
 2465SOL    HW219029   0.223   2.490   0.022  0.0142 -3.0385  0.5757
 2466SOL     OW19030   3.654   2.647   3.293 -0.2126  0.8092  0.3834
 2466SOL    HW119031   3.628   2.555   3.291  2.0840  0.1584  1.3332
 2466SOL    HW219032   3.571   2.695   3.288 -1.9333 -2.1820  0.0159
 2467SOL     OW19033   3.853   0.133   8.390 -0.1718 -0.3180 -0.5213
 2467SOL    HW119034   3.777   0.092   8.433 -0.9410 -0.5873 -2.1251
 2467SOL    HW219035   3.824   0.119   8.299 -1.8060  2.3614 -0.4113
 2468SOL     OW19036   4.111   0.876   5.615  0.2860  0.0710 -0.3309
 2468SOL    HW119037   4.141   0.873   5.705 -0.5367 -0.3903 -0.0687
 2468SOL    HW219038   4.040   0.812   5.617 -1.7003  2.2149 -1.2127
 2469SOL     OW19039   2.468   1.169  15.510 -0.5384 -0.5360  0.0582
 2469SOL    HW119040   2.391   1.223  15.492 -0.6992 -0.4342  1.0422
 2469SOL    HW219041   2.428   1.097  15.558  0.2382 -1.7493 -1.1429
 2470SOL     OW19042   3.660   1.556  13.424 -0.1962  0.4457 -0.0950
 2470SOL    HW119043   3.717   1.565  13.500 -0.9882 -0.0553  0.5451
 2470SOL    HW219044   3.655   1.461  13.429  0.4691  0.4121 -0.0227
 2471SOL     OW19045   1.394   0.921   8.334  0.8696 -0.6437  0.3546
 2471SOL    HW119046   1.345   0.856   8.284  1.9206 -1.8605  0.9012
 2471SOL    HW219047   1.479   0.878   8.333  1.0506 -0.2663 -0.0855
 2472SOL     OW19048   4.493   0.927  15.786 -0.0837 -0.7341  0.0843
 2472SOL    HW119049   4.522   0.923  15.877  2.5563  1.8612 -0.6679
 2472SOL    HW219050   4.409   0.972  15.800  0.1482 -0.1967 -0.2733
 2473SOL     OW19051   2.794   1.577   6.416 -0.4200 -0.3917  0.3444
 2473SOL    HW119052   2.742   1.630   6.356  1.5103  0.4684 -0.5791
 2473SOL    HW219053   2.737   1.506   6.444 -1.5973  0.3535 -0.1671
 2474SOL     OW19054   3.493   1.231   4.023 -0.2012  0.2700 -0.1099
 2474SOL    HW119055   3.499   1.260   4.114  1.5504  1.2886 -0.5553
 2474SOL    HW219056   3.400   1.208   4.022 -0.3543  0.8134  2.4449
 2475SOL     OW19057   2.166   0.716  10.223  0.3417 -0.3501  0.6337
 2475SOL    HW119058   2.206   0.786  10.172  0.9641  0.8316  2.7117
 2475SOL    HW219059   2.171   0.753  10.311 -0.3786 -2.5879  1.6258
 2476SOL     OW19060   1.301   0.301  11.063  0.2064 -1.1823  0.0437
 2476SOL    HW119061   1.262   0.225  11.019  1.7806 -1.8625 -0.2015
 2476SOL    HW219062   1.252   0.304  11.145 -1.6925  0.1487 -1.1596
 2477SOL     OW19063   3.368   2.993   6.315  0.6739  0.4156  0.8313
 2477SOL    HW119064   3.394   2.906   6.345  1.4225 -0.0214 -1.0859
 2477SOL    HW219065   3.311   3.020   6.386  0.4627  1.7671  0.1550
 2478SOL     OW19066   4.680   2.852  11.629  0.1288 -0.1364  0.1281
 2478SOL    HW119067   4.594   2.818  11.603  1.3436 -2.9648 -0.1518
 2478SOL    HW219068   4.718   2.777  11.674  1.0437 -0.6096 -1.4763
 2479SOL     OW19069   0.950   4.053  16.845 -0.5210 -0.0921 -0.8677
 2479SOL    HW119070   0.999   4.061  16.927 -0.0658 -0.6828 -1.0815
 2479SOL    HW219071   0.962   4.142  16.810 -1.2265  0.1586 -0.4693
 2480SOL     OW19072   0.534   0.783  16.406  0.3331  0.2312 -0.1498
 2480SOL    HW119073   0.589   0.813  16.334  0.3674  1.4746  0.3871
 2480SOL    HW219074   0.597   0.780  16.479  1.1798 -0.0890 -0.8949
 2481SOL     OW19075   3.225   3.908   4.488 -0.8077  0.2634  0.8731
 2481SOL    HW119076   3.234   4.002   4.505 -1.4538  0.0756  2.1822
 2481SOL    HW219077   3.142   3.901   4.440 -0.2985  1.4140 -0.1852
 2482SOL     OW19078   1.597   1.630  14.452 -0.0221  0.0961 -0.0755
 2482SOL    HW119079   1.503   1.639  14.436  0.0365  0.6061 -0.1380
 2482SOL    HW219080   1.640   1.680  14.382  0.8812  0.2536  0.5863
 2483SOL     OW19081   3.478   3.812  14.658  0.2692  0.2733 -0.0455
 2483SOL    HW119082   3.454   3.774  14.573  1.9398 -1.1556  0.1321
 2483SOL    HW219083   3.391   3.844  14.683 -0.1606 -0.2456 -0.8700
 2484SOL     OW19084   2.171   2.555   5.712 -0.1693 -0.2163 -0.0499
 2484SOL    HW119085   2.251   2.566   5.661  0.5728  0.6917  1.2985
 2484SOL    HW219086   2.205   2.590   5.794 -1.5626 -0.4340  0.6224
 2485SOL     OW19087   2.215   2.899   4.566  0.1589  0.4499  0.0383
 2485SOL    HW119088   2.299   2.917   4.523  0.7020  1.0561  1.3232
 2485SOL    HW219089   2.161   2.868   4.494  1.5003 -1.6966 -0.0460
 2486SOL     OW19090   2.449   0.654  11.833 -0.2294 -0.1977 -0.0080
 2486SOL    HW119091   2.479   0.697  11.753 -0.6607  2.6817  1.3853
 2486SOL    HW219092   2.504   0.576  11.830  1.0381  0.6992  0.1739
 2487SOL     OW19093   2.762   3.010   3.759 -0.8630  0.2218  0.4779
 2487SOL    HW119094   2.749   3.077   3.827  2.0015 -0.7762  2.0065
 2487SOL    HW219095   2.856   3.010   3.741 -1.2048 -2.5824 -1.3274
 2488SOL     OW19096   1.079   4.563   2.700 -0.4885 -0.0353  0.1727
 2488SOL    HW119097   1.023   4.513   2.760  0.7519  1.0040  2.2059
 2488SOL    HW219098   1.150   4.583   2.761  2.1201 -1.5475 -2.3565
 2489SOL     OW19099   0.147   2.229  11.387  0.1269  0.5878  0.7033
 2489SOL    HW119100   0.174   2.216  11.478  0.1576  0.0238  0.6160
 2489SOL    HW219101   0.128   2.137  11.369  0.7777  0.3752  1.1084
 2490SOL     OW19102   4.287   1.166   6.323  0.1791  1.1026 -0.0701
 2490SOL    HW119103   4.382   1.172   6.323  0.4078 -2.6800 -0.5936
 2490SOL    HW219104   4.278   1.071   6.324  1.5799  0.9776  0.9164
 2491SOL     OW19105   1.268   3.664   9.100  0.4953 -0.0077 -0.4392
 2491SOL    HW119106   1.325   3.593   9.070 -1.3017 -1.2501 -0.9265
 2491SOL    HW219107   1.202   3.611   9.145  0.9347  0.7494  1.1101
 2492SOL     OW19108   3.825   2.660   7.913  0.5602  0.0149 -0.0982
 2492SOL    HW119109   3.784   2.625   7.992 -1.0963 -1.9486 -1.8654
 2492SOL    HW219110   3.758   2.657   7.845  2.2844  1.2679 -1.8700
 2493SOL     OW19111   2.335   0.022   0.231  0.2949  0.4778  0.0128
 2493SOL    HW119112   2.406   4.693   0.223 -0.6877 -0.8268  1.5166
 2493SOL    HW219113   2.379   0.077   0.296 -0.4471  0.0988  0.8347
 2494SOL     OW19114   2.976   3.206   5.884 -0.2321  0.3114  0.4646
 2494SOL    HW119115   3.020   3.249   5.811  1.1865 -2.0820 -0.1276
 2494SOL    HW219116   2.884   3.210   5.860 -0.4146 -0.1740  1.0613
 2495SOL     OW19117   4.678   2.897   4.594 -0.5417  0.1676 -0.5300
 2495SOL    HW119118   4.690   2.806   4.567 -1.3593 -0.1386  0.1711
 2495SOL    HW219119   4.598   2.895   4.646 -0.3693 -2.0353 -0.3379
 2496SOL     OW19120   2.885   4.554   4.856  0.1387  0.4911 -0.0763
 2496SOL    HW119121   2.915   4.509   4.935  0.4790  0.7752 -0.0424
 2496SOL    HW219122   2.957   4.548   4.794 -0.5134 -2.2035 -0.5480
 2497SOL     OW19123   2.552   1.198  15.807  0.0964  0.4046 -0.4857
 2497SOL    HW119124   2.545   1.271  15.746  0.6467  1.0673  0.2406
 2497SOL    HW219125   2.499   1.129  15.769 -0.0079 -0.6930  1.6477
 2498SOL     OW19126   0.300   3.398   3.644 -0.6117  0.0864 -0.1166
 2498SOL    HW119127   0.262   3.447   3.717 -1.2264  0.6173 -0.7845
 2498SOL    HW219128   0.378   3.360   3.683  0.2191 -0.1581 -1.9885
 2499SOL     OW19129   3.812   2.268   7.705  0.2001  0.0450  0.0152
 2499SOL    HW119130   3.722   2.299   7.709  0.8253  1.8030  0.3615
 2499SOL    HW219131   3.841   2.317   7.628  2.2264 -0.8799  0.1862
 2500SOL     OW19132   1.295   4.110   6.613 -0.1272  0.0986  0.1138
 2500SOL    HW119133   1.333   4.186   6.657 -0.2529  1.4640 -2.1796
 2500SOL    HW219134   1.286   4.139   6.523  0.3651  2.3617  0.7983
 2501SOL     OW19135   4.638   0.593  13.063  0.7344 -0.2832  0.1988
 2501SOL    HW119136   4.588   0.532  13.009  2.3512 -1.1021 -0.3664
 2501SOL    HW219137   4.667   0.650  12.993 -1.6547 -0.7310 -1.1566
 2502SOL     OW19138   4.718   3.425  11.415  0.3154  0.5244  0.0447
 2502SOL    HW119139   4.713   3.506  11.465 -0.7279  0.9337 -0.7206
 2502SOL    HW219140   0.057   3.382  11.458 -1.6129 -2.4277  0.4157
 2503SOL     OW19141   3.401   4.392   0.850  0.3334  0.5011 -0.3947
 2503SOL    HW119142   3.449   4.475   0.843 -1.3148  1.5375  0.4632
 2503SOL    HW219143   3.444   4.354   0.926 -2.7066  2.9566  2.5631
 2504SOL     OW19144   1.018   3.880   5.949 -0.1656  0.1879 -0.6498
 2504SOL    HW119145   1.040   3.938   5.876  0.8654  0.3463 -0.2152
 2504SOL    HW219146   0.955   3.817   5.915  0.6368 -0.2613 -1.2922
 2505SOL     OW19147   2.234   3.921   6.687  0.0364  0.2777  0.0825
 2505SOL    HW119148   2.260   3.903   6.778  1.7470  2.6291  0.0426
 2505SOL    HW219149   2.141   3.943   6.693  0.7271  2.9226  0.7770
 2506SOL     OW19150   1.356   0.490   1.072 -0.6569 -0.3207  0.1878
 2506SOL    HW119151   1.371   0.396   1.067 -2.7364 -0.6624  0.3803
 2506SOL    HW219152   1.312   0.507   0.989 -2.2596 -2.3298  0.6337
 2507SOL     OW19153   3.185   2.365   1.042 -0.0259 -0.2762 -0.6074
 2507SOL    HW119154   3.225   2.285   1.076 -1.3427 -1.1306 -1.0732
 2507SOL    HW219155   3.152   2.334   0.957  1.1239  0.0702 -1.1875
 2508SOL     OW19156   1.998   3.110   3.689 -0.6731 -0.8179 -0.0398
 2508SOL    HW119157   1.908   3.138   3.707  0.1841 -0.2380  3.4061
 2508SOL    HW219158   2.040   3.130   3.773  0.4710 -0.8511 -0.6039
 2509SOL     OW19159   3.275   2.607  13.331  0.0999 -0.1375 -0.5594
 2509SOL    HW119160   3.183   2.628  13.317 -0.0048 -0.8879 -1.0421
 2509SOL    HW219161   3.284   2.545  13.403 -0.6466 -0.3175 -0.6199
 2510SOL     OW19162   0.240   1.045  11.613  0.4809  0.3624  0.2697
 2510SOL    HW119163   0.295   1.080  11.543  2.4340 -1.5384  0.8395
 2510SOL    HW219164   0.164   1.019  11.561  0.4085 -3.9315  2.5486
 2511SOL     OW19165   3.044   4.553   6.678  0.3133  0.3993  0.2381
 2511SOL    HW119166   2.983   4.497   6.631  1.1331 -0.0094 -0.3374
 2511SOL    HW219167   3.014   4.541   6.768 -1.5898  1.0139 -0.3391
 2512SOL     OW19168   1.089   1.134   9.428 -0.2380 -0.0944  0.2184
 2512SOL    HW119169   1.172   1.182   9.436 -0.5088  0.7243 -1.6707
 2512SOL    HW219170   1.043   1.214   9.401  0.7106  0.2879 -0.3071
 2513SOL     OW19171   1.900   4.711   5.840  0.1144 -0.1300 -0.5000
 2513SOL    HW119172   1.932   4.679   5.924  2.7541 -1.7172 -2.1142
 2513SOL    HW219173   1.818   0.023   5.861  0.9322  0.8909  0.4629
 2514SOL     OW19174   3.232   2.162   7.540 -0.1290 -0.0365 -0.1344
 2514SOL    HW119175   3.324   2.154   7.565 -0.1500  0.0933 -0.0175
 2514SOL    HW219176   3.189   2.219   7.604 -1.4551 -0.7990 -0.3498
 2515SOL     OW19177   4.017   3.547  17.419  0.0407 -0.2201 -0.0784
 2515SOL    HW119178   4.108   3.517  17.416 -0.0645 -0.5934  0.6218
 2515SOL    HW219179   4.009   3.598  17.338  0.3273  0.7467  0.5033
 2516SOL     OW19180   3.632   0.331   1.955 -0.2719 -0.8917  0.1768
 2516SOL    HW119181   3.625   0.416   2.000  1.5042 -0.5488 -0.1780
 2516SOL    HW219182   3.608   0.279   2.032 -0.8233  0.0560  0.6442
 2517SOL     OW19183   0.021   1.968  10.395 -0.3306 -0.1405 -0.5280
 2517SOL    HW119184   4.682   2.022  10.366  0.1202  1.3643  1.1938
 2517SOL    HW219185   0.089   2.036  10.400 -1.5989  1.1714 -1.2161
 2518SOL     OW19186   2.613   1.989   5.320 -0.7618  0.4624  0.5394
 2518SOL    HW119187   2.646   1.988   5.410  0.2903 -0.2504  0.1549
 2518SOL    HW219188   2.615   1.897   5.293 -1.2812  0.6014  0.0451
 2519SOL     OW19189   2.222   3.809   4.160  0.0333 -0.4488  0.2473
 2519SOL    HW119190   2.130   3.833   4.149  0.4882  1.6659  1.0515
 2519SOL    HW219191   2.251   3.836   4.073 -1.0935 -0.9906 -0.2974
 2520SOL     OW19192   1.931   3.074   5.296  0.4496  0.4416  0.2102
 2520SOL    HW119193   2.025   3.078   5.277  1.2925 -2.4436  3.8063
 2520SOL    HW219194   1.911   2.987   5.263 -0.4976 -0.4544  3.1404
 2521SOL     OW19195   3.239   2.114   5.262 -0.2023  0.2431  0.2911
 2521SOL    HW119196   3.246   2.203   5.229 -2.0065  0.3022  0.0648
 2521SOL    HW219197   3.226   2.070   5.178  2.0699  0.7388 -0.3250
 2522SOL     OW19198   2.798   2.161   0.904  0.3874  0.5257 -0.2775
 2522SOL    HW119199   2.871   2.169   0.842  1.0246 -1.5164  0.1820
 2522SOL    HW219200   2.726   2.175   0.843 -1.4353 -0.9714  1.5148
 2523SOL     OW19201   2.752   1.721   7.670 -0.5346  0.3321 -0.1596
 2523SOL    HW119202   2.700   1.672   7.734  0.0623 -0.4479 -0.2744
 2523SOL    HW219203   2.770   1.793   7.731 -1.8384  0.0921  0.4997
 2524SOL     OW19204   3.499   0.944   6.482 -0.2230 -0.2427 -0.3225
 2524SOL    HW119205   3.429   0.979   6.427 -1.3440 -2.5284 -0.3206
 2524SOL    HW219206   3.460   0.883   6.545  0.8929  0.4413  1.0402
 2525SOL     OW19207   3.072   1.805   3.794  0.3382 -0.0220  0.5715
 2525SOL    HW119208   3.073   1.901   3.791  0.0645 -0.0185  0.6143
 2525SOL    HW219209   2.988   1.774   3.828 -0.1954 -0.0685 -0.7642
 2526SOL     OW19210   3.478   0.139   7.766  0.0346 -0.4382  0.5065
 2526SOL    HW119211   3.507   0.075   7.701  0.9455 -0.1412  0.6178
 2526SOL    HW219212   3.393   0.153   7.725 -0.0392 -1.9589  0.1245
 2527SOL     OW19213   0.691   4.502   4.217  0.2245  0.1491 -0.1067
 2527SOL    HW119214   0.617   4.560   4.197 -1.6278 -2.5548 -1.1386
 2527SOL    HW219215   0.758   4.539   4.160 -0.2977  0.1503 -0.7239
 2528SOL     OW19216   0.571   4.256  17.174  0.1433  0.5816 -0.6203
 2528SOL    HW119217   0.488   4.268  17.220 -0.1791 -2.4493 -0.4073
 2528SOL    HW219218   0.546   4.232  17.085  0.3079  1.4626 -0.9009
 2529SOL     OW19219   4.005   3.829   9.194 -0.1433  0.2791 -0.5752
 2529SOL    HW119220   4.029   3.739   9.214 -0.5926  0.3138  0.1565
 2529SOL    HW219221   4.029   3.874   9.275  3.0245 -0.8874 -0.8686
 2530SOL     OW19222   3.496   2.302   2.061 -0.5399  0.0625  0.5220
 2530SOL    HW119223   3.531   2.303   1.973  0.7990 -1.6410  1.0249
 2530SOL    HW219224   3.555   2.350   2.119  2.9448 -0.5688 -2.5242
 2531SOL     OW19225   3.419   4.275  17.484  0.0855 -0.3804  0.1188
 2531SOL    HW119226   3.418   4.183  17.512  1.5451 -0.0119  1.4185
 2531SOL    HW219227   3.445   4.264  17.393  0.4676  1.5676 -0.0009
 2532SOL     OW19228   3.527   3.894   8.382  0.0813  0.4060  0.4232
 2532SOL    HW119229   3.552   3.848   8.302 -0.4902  0.2380  0.3414
 2532SOL    HW219230   3.612   3.909   8.422 -0.7475  0.4092  2.1893
 2533SOL     OW19231   0.012   3.782  12.306 -0.2583  0.2150 -0.1830
 2533SOL    HW119232   4.706   3.866  12.327 -0.8918 -0.0731 -0.2257
 2533SOL    HW219233   0.066   3.779  12.385 -1.2510 -1.4437  0.4249
 2534SOL     OW19234   0.858   0.462  12.988 -0.6544 -0.0796 -0.1861
 2534SOL    HW119235   0.839   0.414  13.068  0.8709  0.1207  0.2855
 2534SOL    HW219236   0.830   0.403  12.917  0.5549 -1.5721  0.5750
 2535SOL     OW19237   0.136   0.311  17.488  0.1062  0.2759  0.1595
 2535SOL    HW119238   0.063   0.258  17.457  0.5677 -0.7358  0.7930
 2535SOL    HW219239   0.180   0.322  17.404 -1.9186 -0.1409 -0.9452
 2536SOL     OW19240   1.558   2.794   2.646  0.1293 -0.3720 -0.0083
 2536SOL    HW119241   1.520   2.869   2.692  1.6002  1.7150 -2.2103
 2536SOL    HW219242   1.643   2.832   2.627 -0.3367  0.5266 -0.3106
 2537SOL     OW19243   0.525   3.411   8.286 -0.3799 -0.3381 -0.2018
 2537SOL    HW119244   0.526   3.500   8.250 -1.1212 -0.2663 -0.0359
 2537SOL    HW219245   0.602   3.407   8.344 -0.0329  0.6594 -0.5854
 2538SOL     OW19246   0.578   0.749   6.125 -0.0860 -0.0991  0.2541
 2538SOL    HW119247   0.626   0.832   6.124 -0.7736  0.2955 -0.2399
 2538SOL    HW219248   0.624   0.687   6.181 -2.3113 -1.4556  0.6013
 2539SOL     OW19249   3.405   1.898   4.246  0.3020 -0.5032  0.0990
 2539SOL    HW119250   3.408   1.935   4.158 -1.3721 -1.5501 -0.4207
 2539SOL    HW219251   3.353   1.965   4.290  1.5870 -0.7442  1.9364
 2540SOL     OW19252   1.797   3.881   4.311  0.4099 -0.3317 -0.1383
 2540SOL    HW119253   1.801   3.846   4.400 -2.8221 -2.7534 -0.9148
 2540SOL    HW219254   1.704   3.903   4.310  0.7841  1.2629  1.2721
 2541SOL     OW19255   0.404   0.286   2.095  0.1047 -1.0950 -0.5639
 2541SOL    HW119256   0.366   0.322   2.175  0.4958 -1.8788 -0.0314
 2541SOL    HW219257   0.444   0.205   2.126 -0.7419 -1.1612  0.3353
 2542SOL     OW19258   2.595   0.056  14.642  0.3156 -0.5840  0.7082
 2542SOL    HW119259   2.598   0.145  14.676 -1.3426 -0.4854  0.5893
 2542SOL    HW219260   2.664   0.012  14.692  1.1184  1.7502  1.6189
 2543SOL     OW19261   4.270   4.615   6.866  0.1754  0.8637 -0.0439
 2543SOL    HW119262   4.331   4.659   6.925  1.0154 -0.8716  0.3901
 2543SOL    HW219263   4.183   4.640   6.897 -0.9428 -1.9015 -0.9084
 2544SOL     OW19264   1.780   2.833  13.218 -0.0251 -0.0194  0.0986
 2544SOL    HW119265   1.743   2.802  13.136  1.7105 -1.0871 -0.2780
 2544SOL    HW219266   1.776   2.753  13.270  0.1951  0.2038  0.4591
 2545SOL     OW19267   2.292   4.006   1.325 -0.5101  0.7419 -0.0660
 2545SOL    HW119268   2.203   3.973   1.308  0.0819 -1.7242  1.6026
 2545SOL    HW219269   2.304   4.050   1.241 -2.1324  2.1091  0.4058
 2546SOL     OW19270   1.048   2.083   2.300 -0.1286 -0.2344 -0.0106
 2546SOL    HW119271   1.026   1.995   2.332 -1.0406  0.4406  1.2301
 2546SOL    HW219272   1.023   2.139   2.374  0.1835  0.8397 -0.7192
 2547SOL     OW19273   4.022   3.703   7.907 -0.6373 -0.0083  0.1966
 2547SOL    HW119274   4.071   3.757   7.845 -1.5152  0.2939 -0.2183
 2547SOL    HW219275   3.989   3.631   7.853 -0.2352 -1.3166  1.6940
 2548SOL     OW19276   1.787   0.868   4.297  0.0879 -0.1652 -0.4501
 2548SOL    HW119277   1.820   0.872   4.387 -0.6162 -2.5933 -0.0719
 2548SOL    HW219278   1.703   0.905   4.325  0.6974  0.6445  0.2715
 2549SOL     OW19279   0.717   2.006  14.696 -0.1560 -0.0060  0.2898
 2549SOL    HW119280   0.723   1.997  14.791 -4.0181 -0.1266  0.5076
 2549SOL    HW219281   0.630   2.044  14.687 -0.1671 -0.1836 -0.3291
 2550SOL     OW19282   3.225   1.424   5.115 -0.3042  0.1581  0.4489
 2550SOL    HW119283   3.217   1.499   5.174  0.5059  0.2235  0.4800
 2550SOL    HW219284   3.152   1.424   5.055  0.4810 -1.4078 -0.5006
 2551SOL     OW19285   0.362   1.778   7.976  0.0285 -0.0957  0.2713
 2551SOL    HW119286   0.353   1.692   7.935 -0.5802  1.2227 -2.2930
 2551SOL    HW219287   0.274   1.797   8.010  0.4069  3.3984 -0.7013
 2552SOL     OW19288   2.150   3.806   6.025  0.5653  0.3976  0.4625
 2552SOL    HW119289   2.224   3.833   5.971  0.4691  3.9689  2.1243
 2552SOL    HW219290   2.152   3.712   6.006 -0.2504  0.5017 -0.1384
 2553SOL     OW19291   2.379   2.171   6.560  0.6463 -0.2985 -0.0315
 2553SOL    HW119292   2.332   2.089   6.549  0.4725  0.0501 -1.8666
 2553SOL    HW219293   2.338   2.206   6.639  1.0960  2.4739 -1.0231
 2554SOL     OW19294   4.125   2.741  12.964 -0.1485  0.5814  0.1484
 2554SOL    HW119295   4.210   2.760  13.002 -0.3538 -0.8574  1.3465
 2554SOL    HW219296   4.083   2.825  12.979  1.3512  1.3592 -0.0925
 2555SOL     OW19297   3.173   2.830  16.799 -0.0977  0.5033 -0.2017
 2555SOL    HW119298   3.223   2.911  16.806 -0.0655  0.6684 -2.3700
 2555SOL    HW219299   3.169   2.826  16.703  0.7903  1.3166 -0.2650
 2556SOL     OW19300   0.099   3.433   6.568 -0.2513  0.2351  0.7412
 2556SOL    HW119301   0.127   3.447   6.659 -2.2859 -1.3611  1.5992
 2556SOL    HW219302   0.102   3.523   6.536  5.0849 -0.4686 -0.7266
 2557SOL     OW19303   0.614   0.543  11.252 -0.3891 -0.3305  0.2857
 2557SOL    HW119304   0.563   0.589  11.319 -0.2601 -0.2010  0.2945
 2557SOL    HW219305   0.681   0.495  11.300  1.4458  2.8566  0.8759
 2558SOL     OW19306   3.954   1.789   5.780 -0.0890  0.2448 -0.2038
 2558SOL    HW119307   4.030   1.830   5.820 -0.2918  1.1151 -0.7164
 2558SOL    HW219308   3.955   1.826   5.692 -0.7165  0.9856  0.1071
 2559SOL     OW19309   3.331   4.437   2.607  0.3096  0.3893 -0.3961
 2559SOL    HW119310   3.399   4.429   2.674 -1.3748 -0.3971  1.2283
 2559SOL    HW219311   3.378   4.487   2.541 -0.9635  1.0129 -0.8415
 2560SOL     OW19312   1.551   3.306  14.806  0.5149 -0.3762 -0.1481
 2560SOL    HW119313   1.525   3.231  14.859 -1.7798  0.3208 -0.3154
 2560SOL    HW219314   1.541   3.264  14.721 -1.5263  0.8992 -0.5465
 2561SOL     OW19315   1.175   2.936   4.362 -1.0912  0.1331 -0.6115
 2561SOL    HW119316   1.214   2.924   4.449 -1.2948  2.5248 -0.1941
 2561SOL    HW219317   1.146   3.027   4.373 -1.8478 -0.2358  0.4569
 2562SOL     OW19318   2.763   0.918   5.647 -0.8095  0.3922  0.3021
 2562SOL    HW119319   2.773   0.836   5.598  0.0541 -0.8767  2.5781
 2562SOL    HW219320   2.799   0.982   5.586  1.8529 -0.9412  0.4502
 2563SOL     OW19321   4.523   3.983  14.119  0.1577  0.3511  0.0089
 2563SOL    HW119322   4.509   4.066  14.074 -3.1164 -0.0697  0.2904
 2563SOL    HW219323   4.618   3.973  14.110 -0.2369 -1.4446 -2.0892
 2564SOL     OW19324   2.613   1.574  10.410 -0.2777  0.0145 -0.4673
 2564SOL    HW119325   2.605   1.479  10.413  0.9106 -0.0810 -0.6004
 2564SOL    HW219326   2.519   1.587  10.397 -0.6344 -0.6123  1.3887
 2565SOL     OW19327   3.737   3.987   5.089 -0.1153 -0.3048  0.5569
 2565SOL    HW119328   3.672   3.920   5.108  0.5676 -1.0439  0.2688
 2565SOL    HW219329   3.763   4.013   5.178 -2.3400  0.3891  1.0060
 2566SOL     OW19330   4.474   0.961  10.557 -0.1821 -0.6419  0.2614
 2566SOL    HW119331   4.403   0.974  10.620  0.2487  0.3812  0.5407
 2566SOL    HW219332   4.442   0.886  10.507  1.1092 -0.2658 -1.1434
 2567SOL     OW19333   3.271   2.470   2.181  0.8158  0.0599  0.1670
 2567SOL    HW119334   3.239   2.516   2.104  0.5744  0.9217  0.7796
 2567SOL    HW219335   3.332   2.409   2.139 -0.3113 -0.6330 -0.4776
 2568SOL     OW19336   1.176   1.901   5.640 -0.2425  0.3193 -0.0757
 2568SOL    HW119337   1.144   1.987   5.612 -2.9134 -0.6023  0.1951
 2568SOL    HW219338   1.158   1.906   5.734  0.1621 -1.7028  0.1032
 2569SOL     OW19339   3.244   3.230  12.006  0.1494  0.0441 -0.2632
 2569SOL    HW119340   3.248   3.320  11.974  1.0289  0.6404  1.5258
 2569SOL    HW219341   3.281   3.246  12.093 -0.1146 -1.5987  0.1395
 2570SOL     OW19342   4.688   3.118   7.552  0.2294 -0.3601  0.3576
 2570SOL    HW119343   4.704   3.026   7.571 -0.3046 -0.0409  2.3745
 2570SOL    HW219344   4.653   3.108   7.464 -0.6788  0.2405  0.6548
 2571SOL     OW19345   3.056   3.767   7.575  0.1304 -0.4077 -0.2205
 2571SOL    HW119346   2.989   3.708   7.541 -2.5209  1.9516  0.8813
 2571SOL    HW219347   3.010   3.851   7.568 -2.5790 -1.8374  0.6838
 2572SOL     OW19348   3.987   0.338   3.880  0.3951 -0.1307 -0.0780
 2572SOL    HW119349   4.038   0.256   3.877 -0.1218 -0.3595 -2.7775
 2572SOL    HW219350   3.958   0.331   3.971  2.0094 -3.2317  0.2189
 2573SOL     OW19351   0.415   3.881   2.724 -0.2596 -0.0115 -0.1222
 2573SOL    HW119352   0.476   3.927   2.782 -0.3853  0.8326 -0.6612
 2573SOL    HW219353   0.381   3.943   2.660 -1.2781 -2.8656 -2.3419
 2574SOL     OW19354   4.302   4.049   3.574 -0.6194 -0.0183 -0.3838
 2574SOL    HW119355   4.293   3.953   3.572 -1.0128  0.0036  0.3477
 2574SOL    HW219356   4.379   4.057   3.518 -0.9567  1.0886 -0.6758
 2575SOL     OW19357   4.218   0.257  12.753 -0.3129  0.2376  0.7079
 2575SOL    HW119358   4.180   0.170  12.739  0.0631  0.2328 -0.3457
 2575SOL    HW219359   4.235   0.288  12.663  0.0120  0.0617  0.7077
 2576SOL     OW19360   3.760   0.570   2.096  0.1253 -0.2724  0.7373
 2576SOL    HW119361   3.757   0.617   2.179  2.2385  1.9255 -0.4206
 2576SOL    HW219362   3.841   0.604   2.057 -0.3397 -1.6965 -1.4713
 2577SOL     OW19363   3.725   1.076   6.325 -0.2143 -0.3621  0.2426
 2577SOL    HW119364   3.661   1.030   6.272  0.3977 -0.3723 -0.4959
 2577SOL    HW219365   3.716   1.043   6.415 -0.3411 -0.7416  0.0884
 2578SOL     OW19366   3.615   0.060   6.919  0.3399  0.2244 -0.2218
 2578SOL    HW119367   3.596   0.150   6.894 -1.5356  0.5318  2.2554
 2578SOL    HW219368   3.683   0.031   6.859 -0.5969 -0.1396 -1.0997
 2579SOL     OW19369   1.319   0.686  17.287 -0.0143  0.0469  0.1165
 2579SOL    HW119370   1.265   0.650  17.358 -1.8976  0.3604 -1.1574
 2579SOL    HW219371   1.395   0.627  17.287 -0.0995 -0.0904 -2.3832
 2580SOL     OW19372   1.361   2.457   6.106 -0.5696  0.2131 -0.3026
 2580SOL    HW119373   1.424   2.475   6.037  1.9732 -3.5037  1.0924
 2580SOL    HW219374   1.274   2.446   6.067  0.3991  0.1261 -2.4550
 2581SOL     OW19375   0.333   4.455   7.306 -0.1393 -0.3287 -0.1129
 2581SOL    HW119376   0.415   4.498   7.284 -0.3571 -0.0967 -0.4681
 2581SOL    HW219377   0.368   4.370   7.334  1.0305 -0.1351 -1.0132
 2582SOL     OW19378   1.074   4.011  13.538  0.2475  0.3354  0.1074
 2582SOL    HW119379   1.106   3.927  13.572  1.8045  2.0704  2.8561
 2582SOL    HW219380   1.146   4.070  13.555  0.4621  0.8689 -2.5896
 2583SOL     OW19381   3.644   2.370   3.250  0.4508  0.0497  0.4205
 2583SOL    HW119382   3.596   2.334   3.175  0.9286  0.5261 -0.1124
 2583SOL    HW219383   3.604   2.322   3.323 -1.5231  1.4878  0.2723
 2584SOL     OW19384   0.422   1.732   2.978 -0.1626 -0.3091  0.0080
 2584SOL    HW119385   0.411   1.784   3.057 -1.8890  1.1959 -1.2100
 2584SOL    HW219386   0.343   1.754   2.928  0.6690 -0.9422 -1.5982
 2585SOL     OW19387   0.145   0.350   2.267  0.2013 -0.3581 -0.2234
 2585SOL    HW119388   0.087   0.365   2.192 -2.8015 -1.2363  1.9666
 2585SOL    HW219389   0.110   0.268   2.302 -1.5873  0.3114 -0.4482
 2586SOL     OW19390   4.027   0.825  15.287  0.1456  0.2157 -0.5984
 2586SOL    HW119391   3.982   0.783  15.361  0.5952  0.5056 -0.1554
 2586SOL    HW219392   4.019   0.918  15.310  0.0732  0.4127 -1.4168
 2587SOL     OW19393   2.653   2.728   1.199  0.5840  0.0232  0.3341
 2587SOL    HW119394   2.681   2.819   1.196 -0.0194  0.2191  0.5638
 2587SOL    HW219395   2.697   2.694   1.277  2.9344 -2.3939 -2.0308
 2588SOL     OW19396   2.750   4.264  13.214  0.1809  0.0733 -0.4285
 2588SOL    HW119397   2.709   4.187  13.253  2.5149 -0.4167  1.0563
 2588SOL    HW219398   2.769   4.231  13.127  0.5555 -2.1441  0.5017
 2589SOL     OW19399   2.339   4.040  11.182  0.4635  0.3529  0.1464
 2589SOL    HW119400   2.320   4.032  11.276  1.3260  2.1702  0.4666
 2589SOL    HW219401   2.286   3.970  11.144  0.9055 -0.5834  1.2279
 2590SOL     OW19402   1.635   0.457   8.310  0.8398 -0.5958 -0.1076
 2590SOL    HW119403   1.542   0.471   8.330  0.0620 -0.6052 -3.7829
 2590SOL    HW219404   1.645   0.382   8.369 -0.6123 -0.3947  0.4009
 2591SOL     OW19405   2.715   0.277   3.680 -0.0914 -0.1536  0.1581
 2591SOL    HW119406   2.706   0.317   3.593 -0.2057  0.7150  0.5807
 2591SOL    HW219407   2.795   0.318   3.712 -1.0905 -1.0016  3.6839
 2592SOL     OW19408   4.056   4.370   3.224 -0.2250  0.3292  0.1919
 2592SOL    HW119409   4.151   4.371   3.229 -0.0682 -1.8354 -2.5724
 2592SOL    HW219410   4.046   4.275   3.234 -1.4654  0.1861 -2.4931
 2593SOL     OW19411   2.333   4.725   8.679  0.3928  0.5896  0.0510
 2593SOL    HW119412   2.366   0.043   8.752  1.7185 -0.9515  0.5652
 2593SOL    HW219413   2.334   4.638   8.718  1.6553 -0.4852 -2.3409
 2594SOL     OW19414   0.324   0.481   6.348 -0.1717  0.5361  0.1139
 2594SOL    HW119415   0.412   0.458   6.318 -1.0272 -2.6804  0.0386
 2594SOL    HW219416   0.280   0.413   6.297  0.8140  0.6532 -0.8852
 2595SOL     OW19417   3.387   2.394   0.199  0.5221  0.0310 -0.0368
 2595SOL    HW119418   3.390   2.327   0.132 -0.5399  0.9587 -0.9997
 2595SOL    HW219419   3.455   2.451   0.162  0.3987  0.1124 -0.1337
 2596SOL     OW19420   3.000   2.381   5.253 -0.4231 -0.6140 -0.2412
 2596SOL    HW119421   2.949   2.308   5.289 -1.6890  1.1307  1.5577
 2596SOL    HW219422   3.003   2.440   5.328  0.8027 -2.3371  1.0631
 2597SOL     OW19423   0.722   3.338   2.598 -0.0399  0.1449  0.0947
 2597SOL    HW119424   0.790   3.401   2.620 -0.5596  1.2730 -1.5342
 2597SOL    HW219425   0.775   3.273   2.551  0.4985 -0.4617  1.5448
 2598SOL     OW19426   0.229   2.721   4.518 -0.1716  0.3422 -0.1095
 2598SOL    HW119427   0.234   2.625   4.512 -2.1858  0.2991 -1.2501
 2598SOL    HW219428   0.226   2.742   4.425 -1.6514  2.9987  0.5415
 2599SOL     OW19429   0.781   3.668   3.701  0.6737 -0.4103  0.2805
 2599SOL    HW119430   0.778   3.680   3.606  0.5474 -2.4312  0.0173
 2599SOL    HW219431   0.812   3.757   3.714  0.9497 -0.4939  0.1853
 2600SOL     OW19432   3.794   1.327   2.014 -0.2564  0.5011 -0.3738
 2600SOL    HW119433   3.828   1.246   2.052 -1.5891  0.2876  0.3690
 2600SOL    HW219434   3.705   1.319   2.049 -0.8577 -0.3294 -2.1169
 2601SOL     OW19435   0.117   3.213  13.991  0.6992  0.3844 -0.1725
 2601SOL    HW119436   0.083   3.129  14.021  2.4043 -0.2146  0.1040
 2601SOL    HW219437   0.160   3.181  13.912 -0.3583  1.3695 -1.1412
 2602SOL     OW19438   1.902   4.443   7.858 -0.1135  0.0868 -0.0721
 2602SOL    HW119439   1.906   4.522   7.912  0.4243  1.1765 -1.6844
 2602SOL    HW219440   1.994   4.420   7.851 -0.2901 -0.2429 -1.4398
 2603SOL     OW19441   0.500   2.804   4.588  0.4000  0.0705  0.0662
 2603SOL    HW119442   0.476   2.897   4.596 -2.4612 -0.7145  0.4701
 2603SOL    HW219443   0.415   2.774   4.555  0.7109  0.5692 -1.1923
 2604SOL     OW19444   0.612   4.594   7.860  0.0271 -0.3060  0.0795
 2604SOL    HW119445   0.642   4.661   7.798  3.0967 -2.3386 -0.6241
 2604SOL    HW219446   0.525   4.625   7.888  0.4573  0.8684  0.1315
 2605SOL     OW19447   4.539   0.621   4.785 -0.7027  0.4977 -0.5189
 2605SOL    HW119448   4.572   0.559   4.721  0.4688 -0.7484  1.2842
 2605SOL    HW219449   4.618   0.652   4.829 -1.4853  1.9515 -0.1411
 2606SOL     OW19450   0.530   4.555   4.442 -0.0586 -0.7781 -0.1328
 2606SOL    HW119451   0.442   4.588   4.420 -0.2194 -0.8519  0.4089
 2606SOL    HW219452   0.558   4.541   4.351 -0.0693  1.2184 -0.4452
 2607SOL     OW19453   0.801   1.009   5.416  0.1815  0.3492 -0.0318
 2607SOL    HW119454   0.715   0.967   5.420 -0.2425  1.4632  2.8581
 2607SOL    HW219455   0.819   1.026   5.509  1.3481 -3.0891  0.3749
 2608SOL     OW19456   3.315   1.161  15.716 -0.1616 -0.5526  0.7198
 2608SOL    HW119457   3.406   1.166  15.687  0.2258 -1.3180  1.8163
 2608SOL    HW219458   3.320   1.210  15.797  1.4055  0.0337  0.2625
 2609SOL     OW19459   2.231   2.689   8.964  0.1839  0.2005  0.6110
 2609SOL    HW119460   2.220   2.607   8.916  0.7207  0.7475 -0.4382
 2609SOL    HW219461   2.182   2.751   8.909  4.1671  2.4956 -0.3497
 2610SOL     OW19462   0.290   3.115  13.780  0.8656  0.1100  0.2050
 2610SOL    HW119463   0.381   3.137  13.761  1.7232 -1.8171  2.0776
 2610SOL    HW219464   0.251   3.082  13.700  1.3923 -1.4878  0.6099
 2611SOL     OW19465   0.316   1.769   2.001 -0.6073 -0.3655  0.4316
 2611SOL    HW119466   0.368   1.694   2.028 -0.2468 -0.8935 -1.7177
 2611SOL    HW219467   0.233   1.759   2.047 -1.2260  0.8619 -0.4206
 2612SOL     OW19468   3.201   2.716  12.005 -0.1647 -0.4549  0.1629
 2612SOL    HW119469   3.155   2.777  11.947  0.4507  0.2536  0.4092
 2612SOL    HW219470   3.248   2.663  11.940  0.4855  1.2886 -0.7932
 2613SOL     OW19471   2.321   0.897   6.765 -0.3927 -0.1490  0.1053
 2613SOL    HW119472   2.389   0.957   6.734 -0.9735  1.2593  1.5789
 2613SOL    HW219473   2.262   0.952   6.817 -0.9374 -2.3505  1.7954
 2614SOL     OW19474   1.328   0.416   9.306 -0.4458  0.3806  1.2805
 2614SOL    HW119475   1.390   0.364   9.358  2.7886  2.0656 -0.8976
 2614SOL    HW219476   1.279   0.342   9.269  0.5982 -1.9498  4.5021
 2615SOL     OW19477   1.071   1.767  13.429  0.0991  0.0880  0.1989
 2615SOL    HW119478   1.028   1.846  13.396  1.9433  1.1867  0.4371
 2615SOL    HW219479   1.130   1.735  13.361  0.9308  0.9582  0.5146
 2616SOL     OW19480   2.071   4.139   1.545  0.6475  0.2274 -0.4378
 2616SOL    HW119481   2.071   4.081   1.620 -0.4567 -1.6534 -1.9026
 2616SOL    HW219482   2.091   4.076   1.476 -0.2229 -0.9853  0.4359
 2617SOL     OW19483   1.362   2.485  13.210 -0.2694 -0.3289 -0.7160
 2617SOL    HW119484   1.406   2.419  13.264  0.4036  1.0545  0.4404
 2617SOL    HW219485   1.343   2.538  13.287  1.1194  0.6552 -1.0461
 2618SOL     OW19486   4.709   4.648   4.597 -0.1941  0.1465  0.0435
 2618SOL    HW119487   4.621   4.646   4.560  0.2423  3.6091 -1.1645
 2618SOL    HW219488   4.695   4.615   4.686 -0.8096 -2.2841 -0.9511
 2619SOL     OW19489   0.482   0.821   7.216  0.2350  0.6114 -0.4807
 2619SOL    HW119490   0.395   0.823   7.176  1.4052 -0.6897 -3.1433
 2619SOL    HW219491   0.497   0.727   7.224  0.5405  0.6584 -0.4896
 2620SOL     OW19492   1.527   4.203   1.840  0.5794 -0.4170 -0.2723
 2620SOL    HW119493   1.602   4.257   1.816 -0.7373  0.3721 -2.6246
 2620SOL    HW219494   1.555   4.131   1.784  0.5165 -1.5379  1.1508
 2621SOL     OW19495   1.502   0.639   9.497 -0.0965  0.1227  0.7906
 2621SOL    HW119496   1.472   0.703   9.561  0.5184  0.1570  1.0490
 2621SOL    HW219497   1.469   0.674   9.414 -0.8530 -0.5919  0.7801
 2622SOL     OW19498   2.024   3.651  11.959 -0.2244  0.3964 -0.0019
 2622SOL    HW119499   2.007   3.714  11.889 -0.0527  2.0700  1.4591
 2622SOL    HW219500   2.114   3.624  11.943  0.3387  2.1729  0.0875
 2623SOL     OW19501   3.003   0.758  11.686 -0.6112  0.1895 -0.1358
 2623SOL    HW119502   3.060   0.791  11.755  0.8784 -1.8468 -0.3987
 2623SOL    HW219503   3.066   0.700  11.642 -0.9915  0.6681 -1.3114
 2624SOL     OW19504   1.907   0.320   6.156 -0.2712 -0.4887  0.3240
 2624SOL    HW119505   1.931   0.319   6.248  0.8226  1.0901  0.0664
 2624SOL    HW219506   1.864   0.405   6.155 -0.1409 -0.4289 -1.0121
 2625SOL     OW19507   3.713   1.920   4.330  0.3536  0.4002  0.0992
 2625SOL    HW119508   3.631   1.885   4.294  0.4045 -0.4863  0.8527
 2625SOL    HW219509   3.706   1.885   4.419 -2.0114  1.4302  0.3282
 2626SOL     OW19510   4.382   0.281  15.871 -0.1438  0.1865  0.6098
 2626SOL    HW119511   4.409   0.373  15.867  0.0052  0.1624  1.1072
 2626SOL    HW219512   4.395   0.255  15.779 -0.9957 -0.3849  0.6558
 2627SOL     OW19513   0.265   4.027   3.993  0.0217 -0.0898 -0.0352
 2627SOL    HW119514   0.310   4.112   3.991  0.5037 -0.3540 -0.3215
 2627SOL    HW219515   0.184   4.041   3.944 -0.9678 -0.0529  1.6045
 2628SOL     OW19516   2.705   0.173   5.125 -0.2657  0.2253  0.6337
 2628SOL    HW119517   2.742   0.134   5.046 -2.3067 -0.1784 -0.1483
 2628SOL    HW219518   2.646   0.242   5.093  0.6902  1.4999  1.6230
 2629SOL     OW19519   1.810   0.586   9.447  0.3740 -0.2648 -0.2390
 2629SOL    HW119520   1.807   0.661   9.508  1.6981 -1.2333  1.0141
 2629SOL    HW219521   1.739   0.536   9.489 -0.0548 -0.7644 -1.5732
 2630SOL     OW19522   0.936   1.365   1.448  0.5239 -0.7749 -0.3735
 2630SOL    HW119523   1.022   1.331   1.422  0.6747 -0.3060 -0.4974
 2630SOL    HW219524   0.938   1.346   1.541 -0.8770 -0.7535 -0.3446
 2631SOL     OW19525   2.758   2.769   8.496 -0.2869  0.0748  0.0759
 2631SOL    HW119526   2.714   2.685   8.506 -0.9368  0.6371  2.0340
 2631SOL    HW219527   2.778   2.787   8.404 -2.7212 -2.3048 -0.9107
 2632SOL     OW19528   0.784   4.378   1.894  0.1361 -0.1265  0.1363
 2632SOL    HW119529   0.759   4.471   1.892 -0.0164 -0.2144 -1.3809
 2632SOL    HW219530   0.766   4.358   1.986  0.5465 -2.3154 -0.2639
 2633SOL     OW19531   0.805   2.366  11.392  0.0267  0.3998  0.1730
 2633SOL    HW119532   0.793   2.271  11.382  4.2074 -0.1192  0.2270
 2633SOL    HW219533   0.851   2.383  11.473  0.9365  1.3906 -0.5527
 2634SOL     OW19534   2.424   2.135   4.116 -0.0190 -0.1548 -0.3151
 2634SOL    HW119535   2.418   2.114   4.023  1.3152  0.6152 -0.5659
 2634SOL    HW219536   2.516   2.109   4.124  0.8182  2.1735 -2.4406
 2635SOL     OW19537   4.440   3.499   6.216  0.4690  0.0153 -0.3376
 2635SOL    HW119538   4.407   3.546   6.140  0.5747 -0.3001 -0.5779
 2635SOL    HW219539   4.397   3.539   6.292  0.3605  0.2940 -0.5454
 2636SOL     OW19540   2.464   3.005   3.728 -0.1721 -0.4923 -0.3379
 2636SOL    HW119541   2.543   2.954   3.710 -1.0221 -1.5200 -1.1930
 2636SOL    HW219542   2.446   2.984   3.820 -0.2674 -1.7505 -0.6342
 2637SOL     OW19543   2.498   3.753   6.912 -0.0368 -0.0593  0.4537
 2637SOL    HW119544   2.496   3.749   7.007  0.9947 -0.6812  0.4557
 2637SOL    HW219545   2.445   3.674   6.897 -0.9401  0.4484  1.0062
 2638SOL     OW19546   0.605   2.479   5.920 -0.1475 -0.2322 -0.2386
 2638SOL    HW119547   0.542   2.473   5.848  0.2430  2.2549 -0.7925
 2638SOL    HW219548   0.570   2.548   5.976 -1.1268  0.4647 -1.6928
 2639SOL     OW19549   1.800   1.021   4.698  0.6609  0.4049 -0.5352
 2639SOL    HW119550   1.889   0.992   4.717 -0.1910 -1.7538  0.2179
 2639SOL    HW219551   1.756   1.003   4.781 -0.0347  0.9370 -0.7879
 2640SOL     OW19552   0.265   3.331  15.595  0.3047 -0.0574  0.5398
 2640SOL    HW119553   0.299   3.420  15.592  0.5398 -0.0393  4.2875
 2640SOL    HW219554   0.266   3.325  15.691 -0.3109  0.1899  0.5632
 2641SOL     OW19555   1.001   0.876   6.516  0.4054  0.0675  0.8664
 2641SOL    HW119556   1.031   0.935   6.447 -0.6637 -0.8364 -0.3522
 2641SOL    HW219557   0.906   0.878   6.507  0.4946 -0.0920 -0.0778
 2642SOL     OW19558   3.966   3.566  10.537 -0.2271  0.2593 -0.2536
 2642SOL    HW119559   3.975   3.646  10.588  0.6017  0.5502 -0.8607
 2642SOL    HW219560   4.036   3.573  10.472  0.8559 -2.8400  0.6012
 2643SOL     OW19561   2.719   1.541   5.831  0.0248 -0.0071  0.5427
 2643SOL    HW119562   2.775   1.489   5.889 -2.0201 -3.6812 -0.7302
 2643SOL    HW219563   2.692   1.617   5.882 -1.0271 -1.4127  2.0806
 2644SOL     OW19564   0.946   0.804   7.574  0.2315  0.0324 -0.1478
 2644SOL    HW119565   0.926   0.793   7.667  0.8909 -0.9882 -0.1255
 2644SOL    HW219566   0.899   0.883   7.548  2.4852  1.1167 -0.8772
 2645SOL     OW19567   1.656   4.568  11.035  0.1904  0.2008  0.1070
 2645SOL    HW119568   1.688   4.559  10.945  0.6679  2.2162  0.0782
 2645SOL    HW219569   1.719   4.632  11.068  0.8831  0.0160 -0.8557
 2646SOL     OW19570   2.705   0.877   0.836  0.4146  0.1521  0.0400
 2646SOL    HW119571   2.778   0.935   0.813 -2.5448  2.1607 -4.1641
 2646SOL    HW219572   2.660   0.854   0.755 -1.6822 -0.5621  1.3939
 2647SOL     OW19573   0.313   4.721   4.734  0.0356  0.2710 -0.1006
 2647SOL    HW119574   0.232   0.037   4.748  0.6696  0.6689  2.1451
 2647SOL    HW219575   0.286   4.676   4.654 -1.1248 -0.9827  0.9916
 2648SOL     OW19576   3.084   4.518   7.446  0.0326 -0.0454  0.3912
 2648SOL    HW119577   3.026   4.551   7.515 -0.2970  0.3571 -0.0824
 2648SOL    HW219578   3.133   4.457   7.501 -0.8605 -0.5886  0.5882
 2649SOL     OW19579   3.590   0.680   8.723 -0.2011 -0.2125 -0.1266
 2649SOL    HW119580   3.527   0.625   8.769  0.4559 -0.5249  0.3973
 2649SOL    HW219581   3.614   0.744   8.790 -1.5702  0.4495 -0.2696
 2650SOL     OW19582   3.100   2.647   8.787 -0.1210  0.8382 -1.1069
 2650SOL    HW119583   3.145   2.567   8.758  1.3760  1.4306 -0.4057
 2650SOL    HW219584   3.158   2.687   8.852  0.7231 -2.5789  0.2301
 2651SOL     OW19585   0.884   4.406   3.734 -0.4539 -0.3090 -0.0511
 2651SOL    HW119586   0.840   4.489   3.715  1.0076  0.7456  1.2272
 2651SOL    HW219587   0.875   4.400   3.829 -0.8596 -4.2582 -0.3528
 2652SOL     OW19588   0.272   1.511   4.101  0.2717  0.1747  0.5095
 2652SOL    HW119589   0.227   1.460   4.169  1.1806 -1.6309 -0.2187
 2652SOL    HW219590   0.283   1.593   4.149  0.3248  0.6493 -0.3139
 2653SOL     OW19591   0.275   2.401   7.247 -0.4147  0.6085 -0.0644
 2653SOL    HW119592   0.256   2.330   7.309  2.3588  0.1040  0.1955
 2653SOL    HW219593   0.365   2.431   7.262 -1.1724  2.4900  0.6892
 2654SOL     OW19594   1.359   2.377  10.156 -0.3520 -0.2547  0.3005
 2654SOL    HW119595   1.264   2.385  10.144 -0.4119  0.2894  1.1305
 2654SOL    HW219596   1.386   2.345  10.070 -3.3421  2.8735 -1.8053
 2655SOL     OW19597   0.977   3.697  13.443  0.3839  0.0350  0.3562
 2655SOL    HW119598   1.052   3.638  13.436 -0.3124 -0.7005 -0.7935
 2655SOL    HW219599   0.936   3.660  13.521  2.0056 -0.3801  1.0100
 2656SOL     OW19600   3.638   4.498   5.624 -0.1495  0.6682 -0.4440
 2656SOL    HW119601   3.682   4.529   5.545  2.4476  1.0883  1.1713
 2656SOL    HW219602   3.606   4.577   5.668 -0.1715  1.5484 -2.0625
 2657SOL     OW19603   4.215   3.236   6.519 -0.0363 -0.2134  0.1728
 2657SOL    HW119604   4.303   3.267   6.541 -1.1387  1.9986  1.5029
 2657SOL    HW219605   4.178   3.235   6.608  0.6700  0.7545  0.4852
 2658SOL     OW19606   1.630   2.746   4.275  0.1429 -0.6859  0.4708
 2658SOL    HW119607   1.725   2.761   4.272 -0.2582  1.5647 -0.4643
 2658SOL    HW219608   1.629   2.653   4.250  0.1718 -0.7739  0.8012
 2659SOL     OW19609   2.498   0.998  12.356  0.1755 -0.1102  0.0251
 2659SOL    HW119610   2.578   1.010  12.304  0.9082 -0.2164  1.1216
 2659SOL    HW219611   2.549   1.001  12.437  1.3932 -0.6823 -0.7073
 2660SOL     OW19612   4.546   0.524  12.657  0.3285  0.3877  0.3369
 2660SOL    HW119613   4.452   0.520  12.676  0.1128  2.5548 -0.3620
 2660SOL    HW219614   4.547   0.529  12.562  0.6409  3.0328  0.4802
 2661SOL     OW19615   3.825   4.390  13.362 -0.5571  0.0276  0.1112
 2661SOL    HW119616   3.791   4.469  13.321  0.4919  0.9039  0.9443
 2661SOL    HW219617   3.917   4.416  13.373 -0.8613  1.4458 -0.7730
 2662SOL     OW19618   2.380   4.380   3.321  0.1396  0.2885 -0.1779
 2662SOL    HW119619   2.353   4.303   3.371  0.7027 -1.1085 -2.0206
 2662SOL    HW219620   2.304   4.433   3.342  0.4181 -0.0529  1.6793
 2663SOL     OW19621   3.014   4.558  17.565  0.4459 -0.8529 -0.8144
 2663SOL    HW119622   3.063   4.502  17.504  0.8401  0.8869 -2.1112
 2663SOL    HW219623   3.020   4.506  17.645 -3.0783 -0.3685 -0.2411
 2664SOL     OW19624   0.260   2.494   3.333  0.2420  0.3622  0.1134
 2664SOL    HW119625   0.327   2.541   3.283 -1.1111  0.7599 -1.3287
 2664SOL    HW219626   0.315   2.425   3.371 -1.7053 -0.7931  0.8042
 2665SOL     OW19627   3.699   1.828   9.049 -0.1349 -0.0652  0.0220
 2665SOL    HW119628   3.738   1.842   8.963 -0.8223 -2.0192 -0.6168
 2665SOL    HW219629   3.738   1.896   9.103  1.1740 -1.9650  1.4938
 2666SOL     OW19630   2.309   3.650   9.817 -0.1695 -0.6793  0.0010
 2666SOL    HW119631   2.336   3.657   9.726  2.5394  1.4531  0.9396
 2666SOL    HW219632   2.389   3.693   9.848 -0.6779  0.8525 -0.8040
 2667SOL     OW19633   0.717   0.668   7.334  0.4575  0.1323 -0.0141
 2667SOL    HW119634   0.694   0.758   7.354  3.2867  0.9335 -0.2810
 2667SOL    HW219635   0.772   0.681   7.256  2.0237 -0.2371  1.0349
 2668SOL     OW19636   4.573   1.937  11.904 -0.1644 -0.1094 -0.2202
 2668SOL    HW119637   4.630   1.865  11.875 -1.3502 -1.2428  0.2324
 2668SOL    HW219638   4.495   1.889  11.930 -1.4299  1.2672 -1.4888
 2669SOL     OW19639   4.074   1.149   5.830  0.4200  0.2778 -0.2484
 2669SOL    HW119640   4.164   1.166   5.801  0.5592  1.4891  0.9280
 2669SOL    HW219641   4.088   1.132   5.923  0.3095  0.3076 -0.2273
 2670SOL     OW19642   2.441   0.928   5.252  0.3448 -0.5697  0.3602
 2670SOL    HW119643   2.515   0.872   5.275  2.7785  2.2470 -0.5335
 2670SOL    HW219644   2.378   0.884   5.308 -0.5594 -0.0343 -0.2320
 2671SOL     OW19645   3.678   4.056   2.094  0.0949  0.3744  0.3929
 2671SOL    HW119646   3.642   3.979   2.050  1.3752 -0.6009  1.0552
 2671SOL    HW219647   3.772   4.040   2.093 -0.3667 -2.1970 -1.5750
 2672SOL     OW19648   2.320   0.497   5.937 -0.1364 -0.6259  0.1320
 2672SOL    HW119649   2.415   0.484   5.935 -0.0722 -0.3867  1.5478
 2672SOL    HW219650   2.308   0.579   5.890  0.2945 -1.0176 -0.6514
 2673SOL     OW19651   4.586   3.357  14.322 -0.0072  0.2169  0.0492
 2673SOL    HW119652   4.576   3.327  14.412  0.9219 -2.6126 -0.7679
 2673SOL    HW219653   4.539   3.440  14.317 -0.5727  0.0144  2.1809
 2674SOL     OW19654   1.061   2.810   3.776 -0.3343 -0.3494  0.2005
 2674SOL    HW119655   1.018   2.806   3.861  0.1667  1.5874  0.5337
 2674SOL    HW219656   1.070   2.715   3.775 -2.4041 -0.5499  0.0513
 2675SOL     OW19657   2.939   1.110  13.130  0.1460  0.0629 -0.0366
 2675SOL    HW119658   2.927   1.018  13.151 -0.6605  0.8129  2.6868
 2675SOL    HW219659   3.033   1.107  13.109 -0.2349  0.4395 -1.8202
 2676SOL     OW19660   2.125   3.866  14.248  0.5118  0.4586  0.0891
 2676SOL    HW119661   2.058   3.873  14.180  0.3335  0.6014  0.2796
 2676SOL    HW219662   2.187   3.938  14.237 -0.6143  1.5989  1.3371
 2677SOL     OW19663   4.349   4.303   7.127  0.3365  0.5040 -0.7180
 2677SOL    HW119664   4.383   4.286   7.039 -1.1286 -0.6064 -1.0592
 2677SOL    HW219665   4.260   4.337   7.121 -0.2432 -0.7217  0.6301
 2678SOL     OW19666   3.709   1.758  16.540 -0.0889 -0.0093 -0.3425
 2678SOL    HW119667   3.756   1.734  16.620 -2.7817 -1.2737  0.8667
 2678SOL    HW219668   3.670   1.844  16.560 -0.9230 -0.2017 -1.1399
 2679SOL     OW19669   2.112   4.661  17.500  0.0763 -0.1798  0.2511
 2679SOL    HW119670   2.080   0.011  17.534 -1.5489 -1.3411  1.6346
 2679SOL    HW219671   2.072   4.671  17.414 -0.2100  4.4564  0.9417
 2680SOL     OW19672   3.234   2.415   8.671 -0.0496 -0.0678 -0.4767
 2680SOL    HW119673   3.270   2.345   8.616  0.8795 -0.0941  0.1725
 2680SOL    HW219674   3.315   2.440   8.715 -0.7635  0.7437  0.3558
 2681SOL     OW19675   3.956   1.858   6.324 -0.0222  0.3948 -0.2335
 2681SOL    HW119676   3.917   1.776   6.357  0.1185  0.0627 -0.8892
 2681SOL    HW219677   3.870   1.891   6.297  0.5333  1.5401 -0.5681
 2682SOL     OW19678   2.620   4.664  13.602  0.4412 -0.0070 -0.1291
 2682SOL    HW119679   2.579   4.688  13.685  1.5908 -1.0655  0.7542
 2682SOL    HW219680   2.547   4.616  13.563  0.8914 -1.0243  0.2476
 2683SOL     OW19681   1.312   2.455   9.259  0.1939  0.4449 -0.3851
 2683SOL    HW119682   1.316   2.543   9.297  2.1368  1.1521 -2.2025
 2683SOL    HW219683   1.241   2.416   9.310  0.4717 -1.0273 -1.1250
 2684SOL     OW19684   3.361   1.989   5.462 -0.1733  0.5105  0.2787
 2684SOL    HW119685   3.310   2.051   5.410  1.2501 -1.4136 -3.3809
 2684SOL    HW219686   3.446   2.005   5.422 -0.1810  0.4154  0.2230
 2685SOL     OW19687   0.832   0.193   3.116 -0.3548 -0.1605 -0.0107
 2685SOL    HW119688   0.835   0.206   3.021  1.4889 -0.1817  0.0530
 2685SOL    HW219689   0.737   0.180   3.125 -0.2079 -0.0283  1.7134
 2686SOL     OW19690   4.531   2.768  15.416 -0.1470 -0.0533  0.1350
 2686SOL    HW119691   4.464   2.722  15.367 -2.3220  1.0857  2.0526
 2686SOL    HW219692   4.515   2.765  15.511 -2.1175  1.0594 -0.1672
 2687SOL     OW19693   0.493   2.195   6.690 -0.0986 -0.5521 -0.0162
 2687SOL    HW119694   0.453   2.110   6.674 -2.6972  0.7253 -0.2808
 2687SOL    HW219695   0.498   2.236   6.603 -0.4689  0.1557  0.2960
 2688SOL     OW19696   4.286   3.556   2.202  0.1652  0.1015  0.0113
 2688SOL    HW119697   4.263   3.492   2.269 -0.3641  1.7676  1.4130
 2688SOL    HW219698   4.267   3.505   2.123  1.7577 -0.6772  0.1169
 2689SOL     OW19699   3.476   1.500   4.304  0.7689  0.6787 -0.2122
 2689SOL    HW119700   3.420   1.555   4.358 -1.9222 -1.7201 -0.5719
 2689SOL    HW219701   3.442   1.412   4.320  4.1751 -0.2415  1.9299
 2690SOL     OW19702   2.384   0.418   3.136  0.8151  0.4915  0.3104
 2690SOL    HW119703   2.362   0.484   3.070  0.2659 -0.9420 -0.9598
 2690SOL    HW219704   2.317   0.424   3.205  0.1097  2.3290 -0.5324
 2691SOL     OW19705   0.554   2.363   2.252 -0.0245  0.1690 -0.0773
 2691SOL    HW119706   0.499   2.285   2.259  1.2942 -0.6346  1.2062
 2691SOL    HW219707   0.639   2.321   2.263  0.6423  1.9924  1.8667
 2692SOL     OW19708   0.588   1.246   2.872  0.4726  0.1326 -0.3226
 2692SOL    HW119709   0.678   1.278   2.871  0.4189  0.3231  0.7110
 2692SOL    HW219710   0.542   1.325   2.845 -1.2058 -0.2231  1.5131
 2693SOL     OW19711   0.411   1.956   5.947  0.5557  0.0186  0.1573
 2693SOL    HW119712   0.388   1.941   5.856 -0.4047  0.8074  0.2760
 2693SOL    HW219713   0.507   1.965   5.943  0.3420  2.3420 -0.2050
 2694SOL     OW19714   0.302   1.729   6.615  0.2682 -0.3157  0.0110
 2694SOL    HW119715   0.325   1.779   6.537  1.8350  0.6050  1.0591
 2694SOL    HW219716   0.228   1.676   6.587  0.8830 -1.7324  1.0287
 2695SOL     OW19717   0.828   3.626   6.202 -0.2936 -0.2594  0.5543
 2695SOL    HW119718   0.790   3.703   6.160 -0.2766  1.2033  3.2513
 2695SOL    HW219719   0.752   3.610   6.258  0.0599 -1.3659  0.7290
 2696SOL     OW19720   3.471   0.390   6.701  0.0935 -0.0720  0.3183
 2696SOL    HW119721   3.545   0.441   6.668 -0.3310  1.1782  1.2881
 2696SOL    HW219722   3.498   0.393   6.793 -2.5902  0.0974  1.0917
 2697SOL     OW19723   3.386   0.105   8.799  0.4786 -0.0836  0.2932
 2697SOL    HW119724   3.379   0.193   8.761 -2.2225 -0.0877  0.7332
 2697SOL    HW219725   3.476   0.098   8.769  0.8496  3.3909  0.5543
 2698SOL     OW19726   2.516   0.798   7.860 -0.2203  0.2695 -0.4620
 2698SOL    HW119727   2.491   0.765   7.947  0.8365  2.1880  0.5792
 2698SOL    HW219728   2.483   0.887   7.870 -0.5153  0.1870 -0.7161
 2699SOL     OW19729   1.023   0.144   5.666  0.3515 -0.1955  0.0035
 2699SOL    HW119730   0.985   0.077   5.609  1.9034  0.9539 -2.3784
 2699SOL    HW219731   1.099   0.095   5.699  0.6757  0.8953  0.8703
 2700SOL     OW19732   2.829   3.131   8.106 -0.0816  0.4492  0.0816
 2700SOL    HW119733   2.796   3.076   8.177 -1.4883 -0.6236 -1.4016
 2700SOL    HW219734   2.924   3.136   8.117 -0.2259 -0.1695  1.6018
 2701SOL     OW19735   0.044   2.714   5.880 -0.6008 -0.6069  0.3150
 2701SOL    HW119736   0.001   2.786   5.926 -0.3725  0.1430 -0.6491
 2701SOL    HW219737   0.125   2.712   5.931 -1.1239  1.5970  1.2341
 2702SOL     OW19738   2.027   1.894  16.014 -0.1173 -0.0986 -0.4799
 2702SOL    HW119739   2.076   1.917  15.935  1.9818 -0.1755  0.8083
 2702SOL    HW219740   2.038   1.967  16.074  0.1917 -0.2689 -0.3301
 2703SOL     OW19741   3.777   0.824   4.459  0.1026  0.0393  0.3502
 2703SOL    HW119742   3.767   0.848   4.367  0.9922  0.5292  0.3807
 2703SOL    HW219743   3.687   0.806   4.484  0.2164 -0.6548  0.2458
 2704SOL     OW19744   2.070   2.129   0.888 -0.0137  0.0211  0.1577
 2704SOL    HW119745   2.009   2.193   0.925 -1.1520 -1.3656  0.6974
 2704SOL    HW219746   2.153   2.169   0.913 -0.7271  0.2077  2.1843
 2705SOL     OW19747   0.700   4.186   3.303 -0.6225 -0.4321 -0.1912
 2705SOL    HW119748   0.646   4.191   3.224  1.3476  1.1669 -1.4401
 2705SOL    HW219749   0.633   4.157   3.365  0.3630 -0.0440  1.0580
 2706SOL     OW19750   3.988   1.689   3.412  0.1100 -0.0144  0.1413
 2706SOL    HW119751   4.013   1.708   3.321  0.2109 -0.0266  0.1661
 2706SOL    HW219752   3.896   1.663   3.406  0.1983 -0.0745 -0.8586
 2707SOL     OW19753   2.296   0.975  10.979 -0.4329  0.4189 -0.6409
 2707SOL    HW119754   2.362   1.010  10.919 -0.3177  0.8214 -0.2782
 2707SOL    HW219755   2.335   0.888  10.983 -1.9757 -0.2718 -0.5256
 2708SOL     OW19756   3.480   3.374   4.153 -0.1639 -0.0756 -0.3880
 2708SOL    HW119757   3.473   3.298   4.210 -1.4147  0.0009 -0.4511
 2708SOL    HW219758   3.514   3.338   4.071  2.1663  1.5241 -0.1205
 2709SOL     OW19759   1.085   0.859   8.346  0.0185 -0.3450 -0.0379
 2709SOL    HW119760   1.143   0.835   8.274  0.4284 -1.0473  0.5298
 2709SOL    HW219761   1.112   0.793   8.410 -0.2228  0.6894  1.1316
 2710SOL     OW19762   3.940   3.803   1.839 -0.3261 -0.2550 -0.1326
 2710SOL    HW119763   3.968   3.876   1.784  1.5758  0.4628  1.7744
 2710SOL    HW219764   4.021   3.752   1.841 -1.0389 -1.4207 -2.1663
 2711SOL     OW19765   1.298   1.597  15.043 -0.3835  0.4003 -0.0946
 2711SOL    HW119766   1.328   1.687  15.035 -0.7920  0.5434 -0.0157
 2711SOL    HW219767   1.361   1.559  15.105  2.1952 -0.8263 -3.4377
 2712SOL     OW19768   2.972   2.283   2.722  0.5385 -0.3004 -0.0209
 2712SOL    HW119769   2.972   2.191   2.696  1.0567 -0.2872 -0.0782
 2712SOL    HW219770   3.055   2.313   2.684  0.3050  0.3753  0.0051
 2713SOL     OW19771   3.591   2.621   4.492  0.0867  0.0955 -0.1040
 2713SOL    HW119772   3.540   2.674   4.553 -1.0803 -2.1814  0.9179
 2713SOL    HW219773   3.680   2.640   4.519  0.4937 -0.7880 -0.8435
 2714SOL     OW19774   0.719   0.780   5.745  0.3188  0.1224 -0.6375
 2714SOL    HW119775   0.712   0.711   5.679 -0.4225  0.1302 -0.5571
 2714SOL    HW219776   0.638   0.762   5.792  0.4094  0.8855 -0.1937
 2715SOL     OW19777   2.469   3.404   7.083  0.0481  0.1953  0.3742
 2715SOL    HW119778   2.473   3.490   7.125  2.5838  0.2465  0.0213
 2715SOL    HW219779   2.418   3.428   7.005  0.7049 -1.4237 -0.5610
 2716SOL     OW19780   4.009   0.239   1.746  0.1190 -0.1016 -0.7619
 2716SOL    HW119781   4.000   0.330   1.776 -0.3804  0.7735 -3.5888
 2716SOL    HW219782   3.924   0.227   1.704  0.0647  3.0024 -1.5406
 2717SOL     OW19783   1.686   4.690   9.170  0.2287 -0.2514 -0.1731
 2717SOL    HW119784   1.749   0.009   9.122 -1.2333  1.1586 -0.5187
 2717SOL    HW219785   1.741   4.615   9.194 -2.7303 -2.2984  0.2421
 2718SOL     OW19786   0.936   1.379   8.572  0.2387 -0.1698 -1.0099
 2718SOL    HW119787   1.017   1.383   8.623 -2.5361  1.0080  3.3194
 2718SOL    HW219788   0.955   1.440   8.501  1.6230  0.4123 -0.1277
 2719SOL     OW19789   0.107   1.616   8.272 -0.0977  0.2120  0.4002
 2719SOL    HW119790   0.013   1.599   8.273  0.1156 -1.0742 -0.4026
 2719SOL    HW219791   0.116   1.586   8.181  1.4779  0.5699  0.4337
 2720SOL     OW19792   0.703   4.121  12.938 -0.3625 -0.1343 -0.1450
 2720SOL    HW119793   0.758   4.069  12.879  0.3300 -0.5145  0.8470
 2720SOL    HW219794   0.716   4.082  13.024  1.0795  2.8664  0.9906
 2721SOL     OW19795   0.698   4.588   8.791  0.1875  0.1469 -0.6790
 2721SOL    HW119796   0.655   4.527   8.731 -0.6369 -0.2607  0.3196
 2721SOL    HW219797   0.708   4.533   8.869  0.7172  1.4853  0.1870
 2722SOL     OW19798   0.434   0.471   7.155 -0.1192  0.0709  0.1505
 2722SOL    HW119799   0.344   0.440   7.142  0.2023 -0.6599 -0.2977
 2722SOL    HW219800   0.484   0.391   7.169 -1.3697 -0.6782  0.3773
 2723SOL     OW19801   0.746   0.968   3.767  0.6716 -0.2156  0.3223
 2723SOL    HW119802   0.800   0.892   3.786  0.2195 -0.8970 -1.1270
 2723SOL    HW219803   0.715   0.984   3.856 -0.2218  0.9243 -0.1932
 2724SOL     OW19804   4.444   2.487  12.886 -0.3897 -0.6014  0.0541
 2724SOL    HW119805   4.479   2.475  12.797 -1.4806 -0.1916 -0.4273
 2724SOL    HW219806   4.486   2.418  12.937  0.1966 -0.6557 -0.4928
 2725SOL     OW19807   2.879   0.370   6.963  0.0629 -0.2880  0.1305
 2725SOL    HW119808   2.876   0.291   6.911 -1.2987 -0.5663  0.6226
 2725SOL    HW219809   2.973   0.375   6.979  0.4781 -0.9901 -2.2387
 2726SOL     OW19810   1.366   2.216  15.332 -0.1760 -0.1169  0.5171
 2726SOL    HW119811   1.313   2.185  15.258  0.9515  1.2609 -0.8511
 2726SOL    HW219812   1.338   2.306  15.346  0.7796 -0.0782  2.1243
 2727SOL     OW19813   3.085   2.787   5.037 -0.1772  0.1047 -0.2192
 2727SOL    HW119814   3.071   2.697   5.010 -0.8885  0.0259  0.4321
 2727SOL    HW219815   3.029   2.792   5.114  0.5223 -0.1266  0.3032
 2728SOL     OW19816   1.218   0.599   4.682  0.2633 -0.0884 -0.4296
 2728SOL    HW119817   1.158   0.638   4.746  2.3722 -1.2700  2.2531
 2728SOL    HW219818   1.279   0.671   4.669 -1.0174  1.2536  0.9899
 2729SOL     OW19819   1.822   2.621   2.744  0.0589 -0.3200 -0.2020
 2729SOL    HW119820   1.778   2.701   2.773  1.0202 -0.1454  0.7610
 2729SOL    HW219821   1.893   2.623   2.807 -2.2004  0.4937  2.2997
 2730SOL     OW19822   1.864   1.093   7.257 -0.0229 -0.3332 -0.0468
 2730SOL    HW119823   1.813   1.173   7.273  0.1088 -0.5177  1.2805
 2730SOL    HW219824   1.867   1.054   7.345  1.2788 -1.1127 -0.4393
 2731SOL     OW19825   3.201   4.444   4.383 -0.1379  0.0831 -0.5169
 2731SOL    HW119826   3.108   4.466   4.375  0.0163  0.6313 -0.7888
 2731SOL    HW219827   3.220   4.497   4.460 -2.7111 -1.2015  0.9873
 2732SOL     OW19828   0.269   0.010   4.332 -0.7447  0.2689 -0.4669
 2732SOL    HW119829   0.222   4.685   4.390  1.4944 -0.5256  0.5348
 2732SOL    HW219830   0.310   0.073   4.391  0.4025  2.2466 -3.3683
 2733SOL     OW19831   0.101   3.207   1.973  0.0597 -0.2413  0.0543
 2733SOL    HW119832   0.036   3.195   1.904  0.9178  1.2362 -1.0004
 2733SOL    HW219833   0.107   3.302   1.970 -1.0875 -0.1561  0.1483
 2734SOL     OW19834   0.575   0.223   7.968  0.3329  0.3210  0.3854
 2734SOL    HW119835   0.585   0.262   8.055  2.0362  2.1362 -0.6478
 2734SOL    HW219836   0.484   0.243   7.946  0.1740 -1.0316 -0.2115
 2735SOL     OW19837   3.887   1.622   5.444 -0.3189  0.3445 -0.1248
 2735SOL    HW119838   3.820   1.685   5.416 -0.3974  0.5035  0.4145
 2735SOL    HW219839   3.826   1.559   5.483 -0.3164 -1.7307 -3.4604
 2736SOL     OW19840   4.559   3.369   3.675 -0.1291 -0.4908 -0.1869
 2736SOL    HW119841   4.557   3.379   3.580  2.8793  1.0818 -0.0909
 2736SOL    HW219842   4.588   3.278   3.687 -0.6382 -0.9240 -2.1955
 2737SOL     OW19843   1.397   0.624   7.396 -0.5161 -0.1532  0.1897
 2737SOL    HW119844   1.349   0.562   7.450  0.4411 -0.1470  1.0599
 2737SOL    HW219845   1.322   0.667   7.355 -1.8715 -2.6129  0.0772
 2738SOL     OW19846   3.669   0.048   8.796  0.1831 -0.2573  0.6652
 2738SOL    HW119847   3.750   0.091   8.824 -0.2375  0.0334  1.4213
 2738SOL    HW219848   3.659   4.727   8.873 -1.2240 -0.5105  0.2962
 2739SOL     OW19849   0.956   4.672   5.475 -0.3728 -0.0996  0.3543
 2739SOL    HW119850   1.035   4.620   5.461  0.4908  0.9392  1.2924
 2739SOL    HW219851   0.918   4.657   5.388 -0.4526  0.9732  0.1991
 2740SOL     OW19852   4.687   1.027   5.475  0.3175 -0.2322  0.2353
 2740SOL    HW119853   0.014   1.100   5.469 -0.2902  0.2913  0.4960
 2740SOL    HW219854   4.635   1.040   5.397 -3.9925 -2.8258  2.6927
 2741SOL     OW19855   1.895   3.805  15.965  0.3274  0.0582  0.2208
 2741SOL    HW119856   1.961   3.751  15.921 -3.0250 -1.4477 -2.9327
 2741SOL    HW219857   1.819   3.748  15.958  1.9829 -2.0363 -0.8091
 2742SOL     OW19858   3.527   4.295   3.748  0.2139 -0.4136  0.0829
 2742SOL    HW119859   3.576   4.234   3.804 -0.8694 -1.4249 -0.0750
 2742SOL    HW219860   3.449   4.243   3.731  0.4448 -0.6365 -0.2956
 2743SOL     OW19861   1.184   2.062   2.729 -0.0161 -0.4671 -0.0363
 2743SOL    HW119862   1.220   1.992   2.784  0.6577 -0.6051 -0.6487
 2743SOL    HW219863   1.249   2.130   2.747  0.3871 -1.1515  1.0864
 2744SOL     OW19864   3.561   2.503   6.275  0.5650  0.9586  0.9288
 2744SOL    HW119865   3.484   2.553   6.249  0.0554 -0.1912  0.2346
 2744SOL    HW219866   3.552   2.518   6.369 -1.8908  0.7157  0.7128
 2745SOL     OW19867   4.378   1.574   5.173 -0.4474  0.4220  0.2307
 2745SOL    HW119868   4.422   1.649   5.132  0.6754 -1.0045 -1.1445
 2745SOL    HW219869   4.293   1.614   5.194 -0.5754  1.1922 -1.7843
 2746SOL     OW19870   2.088   4.108   3.606 -0.0809 -0.3672  0.4838
 2746SOL    HW119871   2.018   4.167   3.579 -0.9715 -0.7104  2.0403
 2746SOL    HW219872   2.099   4.049   3.531 -1.0410 -1.4754  1.2184
 2747SOL     OW19873   4.018   0.267   3.167 -0.3790  0.1457 -0.2711
 2747SOL    HW119874   4.030   0.176   3.139 -0.6623  1.0240 -3.2788
 2747SOL    HW219875   3.953   0.289   3.100  0.4757  0.7083 -0.9100
 2748SOL     OW19876   0.193   3.310  13.187 -0.0396  0.3130 -0.3517
 2748SOL    HW119877   0.223   3.386  13.237 -1.3738  1.8696 -1.9203
 2748SOL    HW219878   0.102   3.331  13.168 -0.5467 -0.5763  1.1529
 2749SOL     OW19879   3.520   3.856   2.312 -0.0011 -0.2392 -0.4623
 2749SOL    HW119880   3.592   3.905   2.274 -1.1026  2.6260  1.1847
 2749SOL    HW219881   3.571   3.785   2.351 -0.1437  0.3419  0.7697
 2750SOL     OW19882   4.726   0.290   0.747 -0.4836  0.0077  0.1302
 2750SOL    HW119883   4.638   0.257   0.729 -1.4102  1.7992  1.4080
 2750SOL    HW219884   0.045   0.223   0.704 -0.9594  1.2269 -2.3327
 2751SOL     OW19885   2.665   4.343   3.340  0.0534 -0.0502  0.1952
 2751SOL    HW119886   2.732   4.385   3.394  1.8460 -1.8962 -0.5815
 2751SOL    HW219887   2.594   4.370   3.398 -0.1559 -0.3881  0.0995
 2752SOL     OW19888   2.811   1.516   8.445 -0.0755  0.0512  0.3336
 2752SOL    HW119889   2.858   1.511   8.362 -1.6949  1.4024 -0.6461
 2752SOL    HW219890   2.850   1.596   8.480  1.8136 -0.6371 -0.1550
 2753SOL     OW19891   4.135   0.266  16.270 -0.3471  0.5535 -0.6064
 2753SOL    HW119892   4.225   0.292  16.290 -0.9765  0.7223  1.9815
 2753SOL    HW219893   4.136   0.284  16.176 -0.6720 -1.6566 -1.0334
 2754SOL     OW19894   3.689   3.515   6.203  0.0475 -0.1608 -0.0714
 2754SOL    HW119895   3.729   3.531   6.289 -3.0568 -0.3903  1.4082
 2754SOL    HW219896   3.733   3.589   6.161  0.5897 -1.0336 -1.0412
 2755SOL     OW19897   1.003   1.930  16.296  0.4537  0.1791  0.0829
 2755SOL    HW119898   0.917   1.921  16.256 -0.3248  0.6504  1.6469
 2755SOL    HW219899   1.045   1.850  16.264 -0.8828 -1.3270  2.1091
 2756SOL     OW19900   4.661   0.587   3.420 -0.2949  0.2027  0.1628
 2756SOL    HW119901   0.000   0.545   3.374 -0.5928 -1.0205  0.7933
 2756SOL    HW219902   4.628   0.520   3.480 -3.0237  0.7989 -0.6993
 2757SOL     OW19903   0.912   2.894   3.516  0.4213 -0.2084  0.1576
 2757SOL    HW119904   1.004   2.897   3.489  0.8183 -1.2260  1.4186
 2757SOL    HW219905   0.913   2.913   3.610 -0.2056  2.1881 -0.3393
 2758SOL     OW19906   2.038   3.890   4.584 -0.0096  0.6243  0.2641
 2758SOL    HW119907   1.944   3.872   4.583 -0.1205  1.2714 -0.5923
 2758SOL    HW219908   2.071   3.813   4.632 -0.7181  1.5711  2.2819
 2759SOL     OW19909   1.989   4.562  17.019  0.3286  0.0326  0.8268
 2759SOL    HW119910   1.930   4.584  16.947  1.2049 -1.1243 -0.2515
 2759SOL    HW219911   2.054   4.515  16.968  1.2183 -0.1066  2.0912
 2760SOL     OW19912   2.683   3.724   5.374 -0.1310 -0.2589  0.2298
 2760SOL    HW119913   2.649   3.739   5.286 -0.6313 -0.4144  0.3986
 2760SOL    HW219914   2.634   3.656   5.420 -0.0715 -0.2979  0.2359
 2761SOL     OW19915   4.107   0.867   4.786 -0.2086 -0.1615  0.3793
 2761SOL    HW119916   4.079   0.857   4.695  1.3509  2.4727 -0.3889
 2761SOL    HW219917   4.202   0.855   4.779 -0.4060 -1.4321 -0.1545
 2762SOL     OW19918   4.463   1.264   0.676 -0.3575 -0.0119 -0.1781
 2762SOL    HW119919   4.408   1.299   0.606  0.3637  0.6706 -0.4030
 2762SOL    HW219920   4.391   1.239   0.735 -1.0740  0.8365 -0.6866
 2763SOL     OW19921   1.112   1.637  13.666  0.1198  0.0553  0.3380
 2763SOL    HW119922   1.030   1.604  13.701  0.4598 -2.0147 -0.7923
 2763SOL    HW219923   1.085   1.667  13.579  1.3076 -0.5166 -0.2342
 2764SOL     OW19924   2.704   4.650  17.443 -0.3097 -0.0956  0.5596
 2764SOL    HW119925   2.708   4.615  17.532 -5.2034  0.9629  1.2188
 2764SOL    HW219926   2.770   4.601  17.394 -0.7523  0.2238 -0.3558
 2765SOL     OW19927   0.409   2.691  15.379 -0.1581 -0.2751 -0.1181
 2765SOL    HW119928   0.327   2.740  15.373  0.2948  0.2859 -1.6405
 2765SOL    HW219929   0.432   2.718  15.467 -0.5383 -0.0767 -0.0801
 2766SOL     OW19930   1.509   3.880   4.686  0.3574 -0.0512 -0.5014
 2766SOL    HW119931   1.552   3.906   4.767 -3.2132 -2.3724  2.1684
 2766SOL    HW219932   1.519   3.785   4.694 -1.6740 -0.1160  1.3555
 2767SOL     OW19933   1.689   3.637  15.920 -0.3745  0.4750  0.1811
 2767SOL    HW119934   1.668   3.567  15.981 -0.9870  0.7380  0.2692
 2767SOL    HW219935   1.719   3.574  15.854  1.9154  1.6961  0.0310
 2768SOL     OW19936   3.981   0.745   8.256 -0.0880  0.1565 -0.1258
 2768SOL    HW119937   3.888   0.728   8.270 -0.1236  0.6326  0.2396
 2768SOL    HW219938   3.972   0.804   8.181  0.1551 -0.4456 -0.6308
 2769SOL     OW19939   3.262   2.944   3.124  0.5877  0.2820 -0.1038
 2769SOL    HW119940   3.301   3.011   3.068  2.4866 -0.5183  0.2324
 2769SOL    HW219941   3.186   2.911   3.077  0.4694 -0.4922  0.6220
 2770SOL     OW19942   1.213   1.120   0.548  0.0180  0.6752  0.0727
 2770SOL    HW119943   1.240   1.207   0.518 -0.6388  0.8196 -0.1061
 2770SOL    HW219944   1.271   1.059   0.503  1.0728  1.8862 -0.1974
 2771SOL     OW19945   4.667   0.458   7.982 -0.6061 -0.2310  0.4166
 2771SOL    HW119946   4.712   0.441   7.899 -0.4869 -0.1363  0.4627
 2771SOL    HW219947   4.599   0.524   7.971  1.5074  2.1078  1.3332
 2772SOL     OW19948   4.420   3.045   4.700  0.5283 -0.1802 -0.2163
 2772SOL    HW119949   4.492   3.095   4.663 -1.1319  1.1792 -1.6009
 2772SOL    HW219950   4.454   3.038   4.789 -0.7189 -1.2489  0.1841
 2773SOL     OW19951   4.628   1.665   8.772 -0.4460  0.6390 -0.0369
 2773SOL    HW119952   4.670   1.732   8.826  0.1803 -0.2132  0.5207
 2773SOL    HW219953   4.592   1.615   8.845 -1.5345  0.9169 -0.3728
 2774SOL     OW19954   1.929   1.763  12.875 -0.0829 -0.0806 -0.6966
 2774SOL    HW119955   2.018   1.767  12.839  1.0372  0.1909  2.1196
 2774SOL    HW219956   1.929   1.845  12.924 -1.0908 -0.8295  0.5409
 2775SOL     OW19957   3.430   0.146   3.570 -0.4621 -0.2758  0.5544
 2775SOL    HW119958   3.383   0.184   3.496 -2.2761 -0.4036  1.6433
 2775SOL    HW219959   3.393   0.200   3.640 -0.9216  0.9001 -0.6043
 2776SOL     OW19960   0.414   2.011   4.597  0.0053 -0.4999 -0.2591
 2776SOL    HW119961   0.450   1.927   4.625  0.5057 -0.3520 -0.4625
 2776SOL    HW219962   0.442   2.021   4.507  0.5883 -1.9100 -0.2417
 2777SOL     OW19963   0.809   0.460   7.461  0.0886 -0.0656 -0.2110
 2777SOL    HW119964   0.719   0.428   7.457 -0.1298  0.6747 -1.1907
 2777SOL    HW219965   0.793   0.540   7.411  2.4875 -0.2990 -1.3436
 2778SOL     OW19966   4.407   4.345   1.120  0.0185 -0.5219 -0.3523
 2778SOL    HW119967   4.443   4.265   1.082 -3.2377 -1.2799 -1.8346
 2778SOL    HW219968   4.363   4.371   1.040 -2.4728 -1.6102  0.6605
 2779SOL     OW19969   4.374   3.433  10.702 -0.1651  0.0632 -0.4278
 2779SOL    HW119970   4.386   3.345  10.666 -3.2490 -0.9021  0.8549
 2779SOL    HW219971   4.364   3.404  10.793 -0.6582 -0.9004 -0.7898
 2780SOL     OW19972   3.943   0.882   5.250 -0.1321  0.0158  0.3011
 2780SOL    HW119973   3.869   0.843   5.204  0.0912 -1.0909  0.8692
 2780SOL    HW219974   3.980   0.917   5.170 -2.6728  2.3998  0.1756
 2781SOL     OW19975   2.267   1.481   8.605 -0.0511  0.2968 -0.0335
 2781SOL    HW119976   2.337   1.449   8.549 -0.5551 -0.6253 -0.1384
 2781SOL    HW219977   2.286   1.432   8.686 -0.2896 -1.5439 -1.0974
 2782SOL     OW19978   4.067   1.465   3.679 -0.4853  0.4773  0.0508
 2782SOL    HW119979   4.035   1.511   3.757 -0.1972  1.3877 -0.3624
 2782SOL    HW219980   3.986   1.464   3.627  0.5350  2.2896 -1.5721
 2783SOL     OW19981   3.471   2.179  13.695 -0.0226 -0.2550 -0.0524
 2783SOL    HW119982   3.470   2.142  13.607  1.2185  0.3904 -0.3461
 2783SOL    HW219983   3.509   2.103  13.740  1.4316  1.4259  1.5340
 2784SOL     OW19984   3.766   2.287  14.267  0.3964 -0.5456  0.1284
 2784SOL    HW119985   3.756   2.228  14.342 -0.3944 -2.1150 -1.2042
 2784SOL    HW219986   3.673   2.301  14.250  1.3104  1.3502 -3.1925
 2785SOL     OW19987   3.878   0.511  17.088 -0.3260  0.1393 -0.0789
 2785SOL    HW119988   3.861   0.420  17.110  0.3681  0.2215  0.7776
 2785SOL    HW219989   3.874   0.506  16.992 -1.3465  2.5312 -0.1694
 2786SOL     OW19990   2.956   4.623   2.081 -0.2900 -0.5062 -0.3518
 2786SOL    HW119991   2.956   4.542   2.030 -4.4115 -0.9722  0.3687
 2786SOL    HW219992   3.015   4.597   2.151  1.1528  0.8850 -1.0565
 2787SOL     OW19993   0.353   1.816   6.353  0.0797 -0.0989  0.2068
 2787SOL    HW119994   0.434   1.775   6.322  0.5232  0.4427  0.6512
 2787SOL    HW219995   0.303   1.818   6.271  0.9704 -0.3937 -0.3484
 2788SOL     OW19996   2.587   4.500   2.228  0.2173  0.2494 -0.5119
 2788SOL    HW119997   2.627   4.587   2.240 -0.8681  0.7994 -0.8802
 2788SOL    HW219998   2.603   4.463   2.314 -0.7654 -1.3337 -1.0227
 2789SOL     OW19999   2.133   1.618   8.271  0.0394  0.4342 -0.1402
 2789SOL    HW120000   2.213   1.667   8.252  0.5630 -0.2501  0.3032
 2789SOL    HW220001   2.116   1.658   8.356 -0.1418 -1.8344  0.8842
 2790SOL     OW20002   0.488   1.324   6.302  0.0830  0.1239 -0.3774
 2790SOL    HW120003   0.395   1.342   6.290  0.9910  5.0092 -0.5180
 2790SOL    HW220004   0.496   1.293   6.392 -0.4092 -0.3839 -0.5125
 2791SOL     OW20005   0.766   4.564   9.753  0.1302 -0.2105  0.5863
 2791SOL    HW120006   0.854   4.566   9.792  0.7130  2.1530 -0.8912
 2791SOL    HW220007   0.771   4.634   9.688 -1.2986 -0.4855  0.1807
 2792SOL     OW20008   0.175   3.668  14.859  0.1240  0.1208  0.4453
 2792SOL    HW120009   0.165   3.762  14.874  1.4762  0.2827  0.3131
 2792SOL    HW220010   0.188   3.654  14.765  0.2968 -1.1646  0.6640
 2793SOL     OW20011   3.573   4.255  16.454  0.3920  0.5756 -0.7080
 2793SOL    HW120012   3.570   4.322  16.523 -2.4515 -0.3675  0.0825
 2793SOL    HW220013   3.496   4.285  16.405  0.8251  0.2862 -1.5551
 2794SOL     OW20014   1.763   1.984   6.411  0.2559  0.9264 -0.6155
 2794SOL    HW120015   1.796   1.910   6.361  0.2639  0.1928  0.4724
 2794SOL    HW220016   1.827   2.055   6.403  0.0103  1.0801 -1.1995
 2795SOL     OW20017   2.503   3.576   1.679 -0.3656  0.2328  0.3299
 2795SOL    HW120018   2.516   3.669   1.697  1.0203  0.1436 -0.1748
 2795SOL    HW220019   2.408   3.574   1.682 -0.3881  1.3872  0.2537
 2796SOL     OW20020   0.311   4.331   5.261 -0.0897  1.4054  0.4619
 2796SOL    HW120021   0.361   4.250   5.264  0.6563  1.8937  1.2121
 2796SOL    HW220022   0.322   4.357   5.169  0.4446  0.0765  0.1525
 2797SOL     OW20023   0.482   3.993   6.854 -0.3931 -0.7499  0.3178
 2797SOL    HW120024   0.433   4.070   6.826  1.8500  0.4205 -0.3868
 2797SOL    HW220025   0.542   4.027   6.920  0.9332 -3.1940  0.3793
 2798SOL     OW20026   0.174   0.920   2.739 -0.6599 -0.6485  0.4034
 2798SOL    HW120027   0.267   0.936   2.720 -0.6853 -0.9932  0.0127
 2798SOL    HW220028   0.173   0.971   2.821  0.4287  2.3695 -1.4502
 2799SOL     OW20029   1.214   2.024   8.496 -0.3071  0.1189 -0.0572
 2799SOL    HW120030   1.262   2.105   8.478 -0.9450 -0.1902 -3.1845
 2799SOL    HW220031   1.243   1.999   8.584 -0.8631 -1.7473 -0.4042
 2800SOL     OW20032   3.322   3.749   1.892  0.1610  0.0715  0.2990
 2800SOL    HW120033   3.385   3.682   1.866  1.6863  0.8327  1.9769
 2800SOL    HW220034   3.335   3.744   1.987  1.1552 -0.6015  0.1265
 2801SOL     OW20035   0.202   4.515   0.944 -0.0931  0.0435  0.0618
 2801SOL    HW120036   0.242   4.459   0.877 -3.4333 -1.6870 -0.5265
 2801SOL    HW220037   0.143   4.454   0.990 -0.6596  2.2373  2.2709
 2802SOL     OW20038   1.687   0.958   2.295  0.2164 -0.0875  0.2819
 2802SOL    HW120039   1.700   0.982   2.203 -0.6830 -0.4277  0.0597
 2802SOL    HW220040   1.593   0.941   2.284 -0.1042  0.5845  2.0452
 2803SOL     OW20041   3.926   3.803   4.573 -0.0755 -0.3502  0.7889
 2803SOL    HW120042   4.004   3.820   4.626  0.6798  0.3735 -0.5531
 2803SOL    HW220043   3.925   3.707   4.573 -0.4514 -0.3456 -1.0851
 2804SOL     OW20044   4.364   2.958   1.366  0.1483  0.3272 -0.1127
 2804SOL    HW120045   4.444   3.006   1.387 -0.1327  2.0125 -2.8419
 2804SOL    HW220046   4.385   2.865   1.372 -1.0681  0.1361  1.0117
 2805SOL     OW20047   3.525   2.945   2.749  0.2692  0.3377  0.4699
 2805SOL    HW120048   3.431   2.933   2.736  0.2180  2.0636 -0.7972
 2805SOL    HW220049   3.551   2.854   2.768  1.4673  0.7994  1.0826
 2806SOL     OW20050   2.680   4.433  14.329 -0.1060  0.1739  0.0603
 2806SOL    HW120051   2.766   4.476  14.328  1.1149 -2.2875 -0.3939
 2806SOL    HW220052   2.634   4.516  14.338 -1.4656 -0.5468 -0.2862
 2807SOL     OW20053   4.514   2.471  12.638  0.0632 -0.2733 -0.2954
 2807SOL    HW120054   4.605   2.494  12.617  0.5931 -1.1211  1.0963
 2807SOL    HW220055   4.503   2.412  12.563 -1.8526  0.1961 -0.3891
 2808SOL     OW20056   2.578   2.111   9.313  0.1356 -0.5467 -0.8606
 2808SOL    HW120057   2.617   2.031   9.349 -1.2714  0.5346  3.0331
 2808SOL    HW220058   2.516   2.125   9.384  1.4157  2.1710 -0.2950
 2809SOL     OW20059   2.390   2.376  14.388  0.0627  0.3438  0.2729
 2809SOL    HW120060   2.295   2.379  14.396  0.2178 -0.6508  2.3943
 2809SOL    HW220061   2.418   2.425  14.466 -0.3088  2.3367 -0.8286
 2810SOL     OW20062   2.352   4.324   5.789  0.1161  0.1047  0.4678
 2810SOL    HW120063   2.383   4.382   5.859 -2.2586  2.0988 -0.1328
 2810SOL    HW220064   2.395   4.242   5.813  4.8827  2.4645 -0.1965
 2811SOL     OW20065   1.315   0.113  10.378  0.7580 -0.1423 -0.2993
 2811SOL    HW120066   1.318   0.036  10.435  1.5933 -0.4481 -0.7495
 2811SOL    HW220067   1.221   0.126  10.370  0.9129 -0.7909 -2.9208
 2812SOL     OW20068   2.197   0.772   8.234 -0.4505  0.3327 -0.3558
 2812SOL    HW120069   2.148   0.848   8.266 -1.3568  0.1947 -1.4170
 2812SOL    HW220070   2.122   0.714   8.221 -1.3333  1.5732 -0.8058
 2813SOL     OW20071   4.084   1.308   7.459 -0.8730  0.2284  0.5805
 2813SOL    HW120072   4.052   1.320   7.370 -2.3951 -2.9200  0.6932
 2813SOL    HW220073   4.021   1.348   7.519  0.2373  2.1908  0.4512
 2814SOL     OW20074   3.154   2.244  11.079  0.4870 -0.6091 -0.3004
 2814SOL    HW120075   3.157   2.235  11.174 -1.2273  5.4996  0.3340
 2814SOL    HW220076   3.062   2.236  11.053  0.1944  1.8794 -0.0339
 2815SOL     OW20077   3.599   3.349   2.534 -0.0634  0.1413 -0.1136
 2815SOL    HW120078   3.650   3.268   2.530 -1.5697 -0.7877 -0.2561
 2815SOL    HW220079   3.514   3.307   2.544  0.0173 -0.2015 -0.9055
 2816SOL     OW20080   2.257   4.609   6.765 -0.4272  0.4683  0.0087
 2816SOL    HW120081   2.334   4.613   6.708 -1.6255 -3.7505 -1.9445
 2816SOL    HW220082   2.242   4.515   6.755  1.7903  0.1966 -0.8216
 2817SOL     OW20083   2.767   0.732  17.201  0.8518 -0.3381 -0.0717
 2817SOL    HW120084   2.798   0.641  17.195  0.6054 -0.4690  0.6419
 2817SOL    HW220085   2.675   0.716  17.223  0.3096  0.7110 -1.6241
 2818SOL     OW20086   1.369   3.508   8.207 -0.5119  0.4297  0.1293
 2818SOL    HW120087   1.315   3.558   8.145 -1.5735  0.0232  0.7219
 2818SOL    HW220088   1.305   3.499   8.278 -0.8849 -0.4463 -0.3204
 2819SOL     OW20089   1.784   2.689   7.159 -0.2099 -0.4106 -0.0225
 2819SOL    HW120090   1.740   2.670   7.242  2.4601  1.0135  1.7217
 2819SOL    HW220091   1.825   2.773   7.181 -2.4679  0.9985 -1.2006
 2820SOL     OW20092   2.004   3.291  13.026  0.1803 -0.1014 -0.2186
 2820SOL    HW120093   1.917   3.285  12.986  0.0213 -0.3419  0.1607
 2820SOL    HW220094   2.008   3.204  13.067 -2.9283  0.6474  1.6467
 2821SOL     OW20095   1.877   3.275   7.126  0.2490  0.2771  0.2699
 2821SOL    HW120096   1.950   3.330   7.153  0.1732  0.0201  0.9909
 2821SOL    HW220097   1.861   3.224   7.206 -0.1370  0.0392  0.0422
 2822SOL     OW20098   4.250   0.468   1.893  0.1094 -0.4453 -0.0750
 2822SOL    HW120099   4.298   0.458   1.811 -0.7112 -0.4895 -0.5468
 2822SOL    HW220100   4.164   0.484   1.855  0.2517 -1.0699 -0.6552
 2823SOL     OW20101   2.370   1.421   6.626  0.2117 -0.4243 -0.2932
 2823SOL    HW120102   2.339   1.500   6.582  0.9797  0.0209 -0.0316
 2823SOL    HW220103   2.429   1.464   6.688  0.1234 -0.1317 -0.4133
 2824SOL     OW20104   0.162   0.317   7.793 -0.2829 -0.2518 -0.2592
 2824SOL    HW120105   0.186   0.317   7.886  0.4084 -0.5967 -0.4383
 2824SOL    HW220106   0.087   0.258   7.793  0.2579 -0.9471 -2.8917
 2825SOL     OW20107   4.529   1.084  13.038 -0.0153  0.3871 -0.2236
 2825SOL    HW120108   4.619   1.070  13.068 -0.8121 -1.6849  1.2193
 2825SOL    HW220109   4.510   0.991  13.022  0.7049  0.3181 -0.6765
 2826SOL     OW20110   3.889   1.705  14.972  0.0626 -0.5709 -0.3829
 2826SOL    HW120111   3.872   1.635  15.035 -1.3047 -1.2280 -1.5114
 2826SOL    HW220112   3.969   1.661  14.942 -0.1705 -1.7662  0.7368
 2827SOL     OW20113   3.415   2.541  11.892  0.4566  0.2787 -0.1669
 2827SOL    HW120114   3.452   2.607  11.833  1.7158  1.8023  2.3306
 2827SOL    HW220115   3.494   2.496  11.922  0.7555  0.4174 -0.7509
 2828SOL     OW20116   1.340   1.655   4.035 -0.7952 -0.0348  0.0330
 2828SOL    HW120117   1.384   1.634   3.953 -1.1306  0.6420 -0.3178
 2828SOL    HW220118   1.384   1.600   4.100  1.6642  0.8419 -0.9226
 2829SOL     OW20119   3.523   4.261   0.330  0.8712  0.2004  0.5609
 2829SOL    HW120120   3.578   4.337   0.310  0.1248 -0.7440 -4.8638
 2829SOL    HW220121   3.495   4.284   0.419  1.8493 -1.1935  1.2363
 2830SOL     OW20122   4.135   2.036   4.961  0.4867 -0.0296  0.7088
 2830SOL    HW120123   4.107   1.945   4.952  1.9472 -0.4626  0.4978
 2830SOL    HW220124   4.064   2.074   4.910  0.9309  0.7023  0.6412
 2831SOL     OW20125   3.737   0.660   3.659 -0.1648  0.3792 -0.4614
 2831SOL    HW120126   3.790   0.593   3.616 -0.3912  0.8244 -1.4342
 2831SOL    HW220127   3.799   0.733   3.653  0.6037 -0.0087  3.1910
 2832SOL     OW20128   1.701   2.600   3.288 -0.1289  0.0753  0.1899
 2832SOL    HW120129   1.702   2.549   3.369 -2.8683  1.9938  1.4393
 2832SOL    HW220130   1.649   2.551   3.224  1.9184  0.7027 -1.9841
 2833SOL     OW20131   2.754   1.436   1.293 -0.0307  0.1437 -0.1233
 2833SOL    HW120132   2.756   1.444   1.388  1.4259 -0.0740 -0.1364
 2833SOL    HW220133   2.837   1.478   1.273  0.3963  0.2640  1.9433
 2834SOL     OW20134   0.150   3.471   8.270  0.2669  0.4953 -0.3820
 2834SOL    HW120135   0.062   3.501   8.291 -0.2188 -0.7530 -0.6161
 2834SOL    HW220136   0.197   3.494   8.350  2.3951 -4.1555 -0.2944
 2835SOL     OW20137   4.458   2.196   9.528 -0.2525 -0.1468  0.5187
 2835SOL    HW120138   4.440   2.267   9.466  0.5365 -0.2763  0.1329
 2835SOL    HW220139   4.466   2.247   9.609 -1.8643  0.8265  0.0552
 2836SOL     OW20140   2.536   3.166   6.481  0.1758  0.0405  0.5329
 2836SOL    HW120141   2.463   3.217   6.446  1.5872  0.8197 -1.2775
 2836SOL    HW220142   2.523   3.186   6.574 -0.3537 -1.0468  0.6873
 2837SOL     OW20143   3.608   3.499   8.106  0.1712 -0.7138 -0.4047
 2837SOL    HW120144   3.557   3.418   8.115  0.2521 -0.4867  2.1117
 2837SOL    HW220145   3.692   3.469   8.071  0.0823 -2.5354  0.9668
 2838SOL     OW20146   3.636   0.360   1.483 -0.2838 -0.1014  0.2199
 2838SOL    HW120147   3.597   0.335   1.400 -0.2418  1.0146 -0.1397
 2838SOL    HW220148   3.661   0.451   1.467 -0.1443 -0.1475  0.1698
 2839SOL     OW20149   4.661   4.414   0.659 -0.2831 -0.5447 -0.5579
 2839SOL    HW120150   4.652   4.463   0.578  2.0106  0.9439  0.0756
 2839SOL    HW220151   4.631   4.475   0.727 -0.9783  0.3053 -1.6347
 2840SOL     OW20152   0.807   1.401   5.843 -0.1039 -0.0905 -0.3009
 2840SOL    HW120153   0.752   1.352   5.904 -0.4343  2.5766  1.4998
 2840SOL    HW220154   0.888   1.408   5.893  0.5510 -0.9615 -1.2174
 2841SOL     OW20155   1.194   3.796  17.532  1.0624 -0.3294  0.0731
 2841SOL    HW120156   1.157   3.829  17.614 -1.0226 -2.3567 -0.0471
 2841SOL    HW220157   1.283   3.781  17.562  0.9188 -0.5158  0.4081
 2842SOL     OW20158   4.106   1.507   1.722  0.1697 -0.2847 -0.4997
 2842SOL    HW120159   4.101   1.518   1.627  0.1410 -0.1632 -0.4852
 2842SOL    HW220160   4.051   1.581   1.748  0.5423 -0.9978  2.2719
 2843SOL     OW20161   1.732   3.487   0.049 -0.3116  0.4268  0.0961
 2843SOL    HW120162   1.770   3.445   0.127  0.6805  0.2214 -0.5029
 2843SOL    HW220163   1.782   3.450  17.712  0.4118  1.3361  0.1279
 2844SOL     OW20164   3.188   4.236   0.834 -0.0669 -0.0977  0.2417
 2844SOL    HW120165   3.109   4.281   0.801  1.6517  3.0975  0.4473
 2844SOL    HW220166   3.257   4.302   0.844  0.1134 -0.4465  1.2541
 2845SOL     OW20167   4.478   0.654  17.336 -0.3610  0.3897 -0.3543
 2845SOL    HW120168   4.513   0.612  17.257 -2.2204  0.7115 -1.3537
 2845SOL    HW220169   4.550   0.691  17.387 -0.4321  0.9406 -0.6578
 2846SOL     OW20170   0.194   1.712  11.814  0.6134  0.3611 -0.3882
 2846SOL    HW120171   0.202   1.623  11.848 -0.9345  0.7858  1.1316
 2846SOL    HW220172   0.098   1.719  11.809  0.5388 -0.3281  0.0470
 2847SOL     OW20173   0.699   2.207   8.851  0.1658  0.2745  0.2514
 2847SOL    HW120174   0.736   2.202   8.939  0.5107 -0.6693  0.0531
 2847SOL    HW220175   0.743   2.140   8.799  1.3829  0.0734  1.5169
 2848SOL     OW20176   0.871   2.983   1.309 -0.0759  0.0230 -0.1453
 2848SOL    HW120177   0.791   2.960   1.358  0.4076  1.6407  1.4096
 2848SOL    HW220178   0.862   2.929   1.230 -0.9728 -0.2320  0.1294
 2849SOL     OW20179   2.444   0.841   4.754  0.1750 -0.0569 -0.5956
 2849SOL    HW120180   2.405   0.876   4.834 -0.3625  0.9353 -1.2871
 2849SOL    HW220181   2.531   0.881   4.761  0.0012  0.0918  0.6260
 2850SOL     OW20182   4.271   0.331   5.125 -0.2457  0.4120 -0.1565
 2850SOL    HW120183   4.295   0.392   5.195 -1.3822  2.4921 -1.6057
 2850SOL    HW220184   4.314   0.373   5.050 -1.7118 -0.0960 -1.2798
 2851SOL     OW20185   4.049   3.535   1.227 -0.1625 -0.5558 -0.0581
 2851SOL    HW120186   4.049   3.476   1.152 -2.4037  1.5681 -1.7131
 2851SOL    HW220187   4.070   3.468   1.292  0.1820 -0.0120  0.3895
 2852SOL     OW20188   0.790   3.474  16.788 -0.0252  0.5489 -0.2365
 2852SOL    HW120189   0.818   3.563  16.807  0.1840  0.6325 -0.9471
 2852SOL    HW220190   0.798   3.420  16.867  0.1203 -0.2398 -0.7917
 2853SOL     OW20191   0.507   4.075   6.286  0.3762 -0.0185 -0.0153
 2853SOL    HW120192   0.520   3.990   6.328 -2.2121  0.4588  1.7083
 2853SOL    HW220193   0.557   4.137   6.339  1.5908 -0.0246 -1.1340
 2854SOL     OW20194   2.663   1.815   0.831  0.3749  0.6538  0.1182
 2854SOL    HW120195   2.689   1.748   0.768 -1.1802  0.7732 -0.6655
 2854SOL    HW220196   2.628   1.762   0.902 -0.3287  3.2708  1.7516
 2855SOL     OW20197   1.246   3.875   8.904 -0.7713  0.6567 -0.1158
 2855SOL    HW120198   1.238   3.835   8.817  1.3717 -2.7155  1.2219
 2855SOL    HW220199   1.235   3.802   8.965  1.1721  0.3724 -0.1019
 2856SOL     OW20200   3.730   0.412  10.266  0.0048  0.2493  0.0948
 2856SOL    HW120201   3.691   0.485  10.315 -1.0007 -0.4770  0.3803
 2856SOL    HW220202   3.724   0.346  10.336 -1.9717 -0.2068 -0.5008
 2857SOL     OW20203   1.807   0.885   7.995  0.0613 -0.1397 -0.3029
 2857SOL    HW120204   1.738   0.819   7.994  0.3140 -0.3925 -0.6609
 2857SOL    HW220205   1.791   0.942   7.920 -1.5964 -0.1890  0.0081
 2858SOL     OW20206   3.665   1.116   6.711 -0.6824  0.2184 -0.5286
 2858SOL    HW120207   3.613   1.038   6.691 -0.9172  0.4176 -0.6944
 2858SOL    HW220208   3.686   1.106   6.804 -2.8084  0.3085 -0.0487
 2859SOL     OW20209   4.183   3.147   8.979  0.3205 -0.5766 -0.4461
 2859SOL    HW120210   4.108   3.189   8.937  0.0403 -0.4067  0.2216
 2859SOL    HW220211   4.226   3.113   8.900  1.4079  1.4651 -0.7220
 2860SOL     OW20212   0.302   1.965   2.702 -0.0388  0.3763  0.7916
 2860SOL    HW120213   0.381   1.963   2.648 -1.1832 -0.0366 -0.8426
 2860SOL    HW220214   0.289   1.870   2.699  2.1456  0.0369  1.3133
 2861SOL     OW20215   2.823   3.907   6.334 -0.2171 -0.2263  0.4145
 2861SOL    HW120216   2.873   3.985   6.357  1.0417 -1.1416  0.8033
 2861SOL    HW220217   2.777   3.893   6.417 -0.5988  2.8366  0.7206
 2862SOL     OW20218   1.598   3.075   5.321  0.0946 -0.4331 -0.0626
 2862SOL    HW120219   1.628   3.078   5.230 -2.3177 -1.2589 -0.8896
 2862SOL    HW220220   1.587   2.983   5.344 -0.1574 -0.2757  0.4647
 2863SOL     OW20221   1.779   3.438   3.609 -0.1100  0.3053  0.6418
 2863SOL    HW120222   1.702   3.411   3.659 -0.5448  2.6502  1.2710
 2863SOL    HW220223   1.843   3.427   3.679  1.2519  0.1292 -0.6150
 2864SOL     OW20224   0.304   0.826   4.749 -0.0073 -0.2387 -0.0501
 2864SOL    HW120225   0.302   0.876   4.830 -0.6743 -1.7562  0.8840
 2864SOL    HW220226   0.351   0.881   4.687 -1.2279  3.8149  2.6486
 2865SOL     OW20227   0.960   3.135   7.355 -0.0194  0.3002 -0.7965
 2865SOL    HW120228   0.950   3.220   7.312  2.3804  0.1539 -1.6403
 2865SOL    HW220229   1.002   3.165   7.436 -0.7931 -1.3431  0.2107
 2866SOL     OW20230   0.007   4.457   3.321  0.1276 -0.0018  0.3350
 2866SOL    HW120231   4.673   4.471   3.256  0.6894  2.1898  0.2390
 2866SOL    HW220232   0.006   4.361   3.328 -0.2254 -0.0482 -0.3608
 2867SOL     OW20233   3.757   3.663  10.901  0.5187  0.0765 -0.4465
 2867SOL    HW120234   3.778   3.651  10.993  0.1059  0.7973 -0.2588
 2867SOL    HW220235   3.835   3.618  10.871  0.4557 -0.5817  0.3812
 2868SOL     OW20236   3.179   3.600  14.207 -0.0535 -0.1449  0.0855
 2868SOL    HW120237   3.259   3.602  14.154  0.5668  1.9241  1.1067
 2868SOL    HW220238   3.164   3.506  14.204  1.3765 -0.3456 -1.1793
 2869SOL     OW20239   2.071   1.934   2.824  0.7431  0.1575 -0.0116
 2869SOL    HW120240   2.028   2.006   2.779 -0.9632 -0.0801  1.2209
 2869SOL    HW220241   2.033   1.946   2.911  1.1008 -1.7653  0.4132
 2870SOL     OW20242   0.570   1.308   8.124 -0.9128  0.1425 -0.2073
 2870SOL    HW120243   0.539   1.246   8.058  1.5928 -3.1581  1.7078
 2870SOL    HW220244   0.616   1.366   8.064  0.1156  0.6013  1.0320
 2871SOL     OW20245   2.125   1.294   4.431  0.5127  0.6071 -0.0556
 2871SOL    HW120246   2.074   1.235   4.375 -0.4733  0.5149  0.9351
 2871SOL    HW220247   2.101   1.259   4.517  2.7853 -0.7448  0.0412
 2872SOL     OW20248   0.055   1.797   7.186  0.0117  0.1712 -0.5933
 2872SOL    HW120249   0.022   1.710   7.207 -1.3692  1.6163  3.1705
 2872SOL    HW220250   4.720   1.840   7.135 -1.7687 -1.3317  0.5480
 2873SOL     OW20251   3.404   3.072   8.823 -0.1784  0.2614  0.0455
 2873SOL    HW120252   3.325   3.053   8.874 -1.1398 -1.9651 -2.3155
 2873SOL    HW220253   3.453   2.990   8.832  0.8608  0.9039  0.1597
 2874SOL     OW20254   0.535   2.874  14.144  0.2876  0.2777  0.8122
 2874SOL    HW120255   0.584   2.955  14.156  1.4828 -0.4424  0.8091
 2874SOL    HW220256   0.444   2.892  14.122  0.7382  3.4628  1.6151
 2875SOL     OW20257   4.532   3.972  16.889  0.0307 -0.1264 -0.2255
 2875SOL    HW120258   4.518   4.061  16.922  0.6917  0.2896 -1.0943
 2875SOL    HW220259   4.500   3.920  16.964  0.7559  0.9574  0.8353
 2876SOL     OW20260   1.768   0.368   7.637  0.2107 -0.0657 -0.2784
 2876SOL    HW120261   1.720   0.288   7.658  1.5086 -1.0420 -1.0426
 2876SOL    HW220262   1.794   0.400   7.723 -0.2177  1.2700 -0.6503
 2877SOL     OW20263   0.143   3.216   2.942 -0.1126 -0.0075 -0.5322
 2877SOL    HW120264   0.074   3.219   2.876 -0.8455 -0.2605  0.2277
 2877SOL    HW220265   0.211   3.167   2.895  0.6330  1.4623 -0.9748
 2878SOL     OW20266   0.509   2.256  17.113 -0.1619  0.3782  0.1548
 2878SOL    HW120267   0.452   2.332  17.121 -1.0050 -0.1135 -1.1047
 2878SOL    HW220268   0.464   2.187  17.162 -0.6884  0.1563 -0.6573
 2879SOL     OW20269   3.394   3.870  11.435  0.1456 -0.1702 -0.1316
 2879SOL    HW120270   3.488   3.862  11.446  0.8295  3.3060 -3.5911
 2879SOL    HW220271   3.373   3.928  11.509 -0.3117 -0.3591 -0.1080
 2880SOL     OW20272   0.619   2.533   6.973  0.2644  0.3514  0.5430
 2880SOL    HW120273   0.570   2.525   6.892  2.7348 -0.6591 -0.8521
 2880SOL    HW220274   0.711   2.536   6.946  0.1881 -2.3020 -0.0037
 2881SOL     OW20275   3.022   2.179   4.040 -0.1606 -0.1989  0.4640
 2881SOL    HW120276   3.021   2.148   3.949  2.8214 -1.8530  1.0182
 2881SOL    HW220277   3.025   2.094   4.083 -0.0269 -0.2839  0.2884
 2882SOL     OW20278   3.523   2.091  12.219  0.0692  0.0518 -0.0418
 2882SOL    HW120279   3.474   2.166  12.254 -1.6219  0.2027 -2.6679
 2882SOL    HW220280   3.474   2.019  12.258 -1.7222  1.2779  0.0038
 2883SOL     OW20281   0.294   4.605   8.542 -0.4015  0.1851 -0.2099
 2883SOL    HW120282   0.261   4.616   8.631 -0.6112  1.2657 -0.4231
 2883SOL    HW220283   0.212   4.625   8.498  0.5460 -0.1486 -2.1498
 2884SOL     OW20284   3.180   0.930   9.064  0.3074  0.1139 -0.3143
 2884SOL    HW120285   3.233   1.006   9.085  0.7954 -0.1904 -0.4404
 2884SOL    HW220286   3.090   0.962   9.060  0.4067  0.3869 -0.3580
 2885SOL     OW20287   0.514   3.997   2.958  0.4911 -0.2146  0.1087
 2885SOL    HW120288   0.548   3.960   3.040 -1.6544  0.4801  1.2994
 2885SOL    HW220289   0.580   4.064   2.943  0.3984  0.1623  1.3836
 2886SOL     OW20290   4.635   1.037   6.139 -0.7401 -0.6030 -0.0971
 2886SOL    HW120291   4.586   1.057   6.218  0.9703  0.5213  0.6913
 2886SOL    HW220292   4.618   1.114   6.083 -1.4094  1.1940  2.5957
 2887SOL     OW20293   1.241   1.320   8.086  0.4096 -0.2936 -0.2942
 2887SOL    HW120294   1.268   1.252   8.025 -1.1479 -0.9758 -0.2409
 2887SOL    HW220295   1.305   1.308   8.156  1.2407 -0.5276 -1.0994
 2888SOL     OW20296   1.343   0.439   6.293  0.5875  0.4407  0.5682
 2888SOL    HW120297   1.283   0.380   6.248 -1.3050  1.0501  2.2920
 2888SOL    HW220298   1.333   0.416   6.386 -1.8255 -0.8526 -0.0038
 2889SOL     OW20299   2.210   1.972   6.506 -0.4433  0.5670  0.7080
 2889SOL    HW120300   2.162   1.893   6.532 -2.4294  1.5381 -0.0043
 2889SOL    HW220301   2.181   1.963   6.415 -0.1781  1.6046  0.5310
 2890SOL     OW20302   0.250   1.211   5.833  0.1380  0.7231  0.4265
 2890SOL    HW120303   0.219   1.280   5.774 -2.6874  0.0616  1.1796
 2890SOL    HW220304   0.194   1.218   5.910 -0.7221  0.3092 -0.1581
 2891SOL     OW20305   3.034   0.909   8.321  0.1942 -0.6393 -0.7689
 2891SOL    HW120306   3.025   0.895   8.416  1.5763  2.0089 -0.2397
 2891SOL    HW220307   3.129   0.902   8.316  0.4371  1.4104  0.7605
 2892SOL     OW20308   3.477   2.025   2.086 -0.3126  0.5076 -0.2474
 2892SOL    HW120309   3.480   2.118   2.065 -1.8462  0.7808  0.7597
 2892SOL    HW220310   3.564   1.998   2.114  0.8297  3.9958 -0.4348
 2893SOL     OW20311   2.549   3.709   2.303 -0.0771 -0.5193 -0.6783
 2893SOL    HW120312   2.478   3.696   2.366  0.8439 -1.4951  0.1659
 2893SOL    HW220313   2.514   3.666   2.225 -0.6416 -1.9632  0.3738
 2894SOL     OW20314   4.345   3.708   0.374  0.0504 -0.5976  0.2036
 2894SOL    HW120315   4.345   3.697   0.279  0.6537  1.1600 -0.0009
 2894SOL    HW220316   4.391   3.791   0.381 -1.1637  0.0052  1.0539
 2895SOL     OW20317   0.464   1.166  16.560  0.1286 -0.0587 -0.0287
 2895SOL    HW120318   0.506   1.208  16.636  0.1750 -4.6139  2.4820
 2895SOL    HW220319   0.534   1.158  16.495  0.2152  1.2348 -0.0914
 2896SOL     OW20320   3.987   0.643  14.126  0.0093 -0.2517 -0.0911
 2896SOL    HW120321   3.987   0.555  14.164 -1.2827 -0.4102 -0.4474
 2896SOL    HW220322   3.989   0.618  14.033  3.1556  0.1414 -0.1193
 2897SOL     OW20323   1.202   1.790   9.182  0.6067  0.0325  0.1780
 2897SOL    HW120324   1.130   1.741   9.221  1.2000 -0.8899  0.1046
 2897SOL    HW220325   1.198   1.868   9.238  0.8553 -0.7782  1.3314
 2898SOL     OW20326   3.233   1.196   3.976 -0.4126 -0.2798  0.2056
 2898SOL    HW120327   3.172   1.204   4.049 -1.6620 -0.7358 -0.7848
 2898SOL    HW220328   3.175   1.175   3.903 -1.2340  0.1270  0.7357
 2899SOL     OW20329   0.777   1.821   7.726 -0.1361  1.2649  0.3969
 2899SOL    HW120330   0.787   1.804   7.632  0.7648 -0.7831  0.8795
 2899SOL    HW220331   0.685   1.847   7.729 -0.7595 -0.6668 -1.7353
 2900SOL     OW20332   2.346   2.462   9.586  0.0695 -0.3368  0.0670
 2900SOL    HW120333   2.431   2.505   9.578  0.5667 -1.1700  0.9097
 2900SOL    HW220334   2.313   2.504   9.666 -0.5996 -0.1136 -0.3269
 2901SOL     OW20335   3.317   4.005  11.889  0.2902  0.1229 -0.2661
 2901SOL    HW120336   3.381   3.946  11.929 -1.5921 -1.4599  0.3868
 2901SOL    HW220337   3.281   4.041  11.970 -2.3051 -0.6943 -1.0684
 2902SOL     OW20338   3.134   0.540   3.262 -0.0427  0.3365  0.2119
 2902SOL    HW120339   3.130   0.461   3.316  0.7496 -0.0577 -0.3143
 2902SOL    HW220340   3.185   0.508   3.187  1.4865  1.7164  0.6618
 2903SOL     OW20341   4.597   3.580  15.767 -0.4220  0.2729 -0.3431
 2903SOL    HW120342   4.677   3.539  15.799 -1.0609  0.9559  2.0817
 2903SOL    HW220343   4.580   3.531  15.686 -0.6138 -1.4732  0.7600
 2904SOL     OW20344   4.130   1.833   5.205  0.1085  0.4033 -0.2653
 2904SOL    HW120345   4.063   1.888   5.245  0.5668 -0.3808  1.6096
 2904SOL    HW220346   4.108   1.829   5.112  2.0095  3.5947 -0.8581
 2905SOL     OW20347   2.114   2.608   4.626  0.0075  0.7016  0.1711
 2905SOL    HW120348   2.195   2.597   4.577  0.0183 -2.8530  0.9801
 2905SOL    HW220349   2.126   2.702   4.641 -2.0059  1.3538 -2.3088
 2906SOL     OW20350   4.457   2.957   4.992 -0.0729  0.4172  0.2280
 2906SOL    HW120351   4.430   2.912   5.073  0.3836  1.5696  1.0255
 2906SOL    HW220352   4.426   3.046   5.005  1.6669  1.0700 -0.1250
 2907SOL     OW20353   3.439   0.117   1.308 -0.4357  0.1072  0.3281
 2907SOL    HW120354   3.443   0.045   1.371  1.3828 -0.4401 -0.3806
 2907SOL    HW220355   3.376   0.170   1.356 -1.4563  0.0860 -0.9804
 2908SOL     OW20356   1.393   4.587   5.504  0.0159 -0.0083  0.0588
 2908SOL    HW120357   1.421   4.665   5.456 -2.2407  2.0191  2.0421
 2908SOL    HW220358   1.466   4.552   5.554 -0.2115 -0.7626 -0.1337
 2909SOL     OW20359   1.536   4.149  14.491 -0.0052 -0.0518  0.4364
 2909SOL    HW120360   1.455   4.139  14.542 -0.9729 -0.2775 -1.1307
 2909SOL    HW220361   1.533   4.062  14.452 -0.5376 -0.2553  0.9198
 2910SOL     OW20362   1.242   2.323   0.517  0.1898  0.1341 -0.6550
 2910SOL    HW120363   1.172   2.328   0.452  0.5574  2.7265 -0.8818
 2910SOL    HW220364   1.215   2.376   0.592  0.2757 -1.0086  0.1838
 2911SOL     OW20365   1.227   0.263   8.582 -0.0458 -0.6861  0.3688
 2911SOL    HW120366   1.187   0.305   8.658 -0.1534 -1.0217  0.4992
 2911SOL    HW220367   1.153   0.216   8.544 -2.7685  1.2003  3.3309
 2912SOL     OW20368   2.484   1.710  15.540 -0.3346 -0.1509 -0.0022
 2912SOL    HW120369   2.560   1.691  15.485 -0.6507 -0.1526 -0.4416
 2912SOL    HW220370   2.527   1.730  15.623  0.3698 -2.6097  0.2436
 2913SOL     OW20371   3.305   1.138   8.873  0.0655  0.1337 -0.2374
 2913SOL    HW120372   3.272   1.183   8.796  0.9657  0.0576 -0.6736
 2913SOL    HW220373   3.321   1.206   8.938  0.1504  0.4553 -0.5973
 2914SOL     OW20374   0.677   3.580  10.780 -0.0244 -0.0257  0.1200
 2914SOL    HW120375   0.636   3.617  10.702  0.3273 -0.4939 -0.2934
 2914SOL    HW220376   0.606   3.589  10.843  1.5356 -0.8765  2.0023
 2915SOL     OW20377   1.173   2.857   4.092 -0.2718 -0.2043  0.1320
 2915SOL    HW120378   1.176   2.762   4.098 -5.5909 -0.1556  2.8494
 2915SOL    HW220379   1.182   2.885   4.183  0.3058 -1.0553  0.3342
 2916SOL     OW20380   1.574   2.771  12.309  0.0877  0.1726  0.1233
 2916SOL    HW120381   1.541   2.689  12.346  1.5945 -0.8239 -0.7373
 2916SOL    HW220382   1.645   2.733  12.257  0.1029 -1.5514  1.3967
 2917SOL     OW20383   0.166   0.387   4.201 -0.1625 -0.1551 -0.8458
 2917SOL    HW120384   0.262   0.386   4.207 -0.1705  0.3817 -0.6205
 2917SOL    HW220385   0.147   0.480   4.210 -0.2550  0.0405 -3.2223
 2918SOL     OW20386   2.456   0.404   2.235  0.1173  0.1781  0.1393
 2918SOL    HW120387   2.433   0.358   2.155 -1.7838 -0.1715  0.8949
 2918SOL    HW220388   2.455   0.324   2.286 -1.3448 -0.3548 -0.7536
 2919SOL     OW20389   4.456   2.616   5.401 -0.1171 -0.1563  0.1527
 2919SOL    HW120390   4.517   2.544   5.383 -0.7298 -0.1762 -1.7886
 2919SOL    HW220391   4.369   2.575   5.410  0.9576 -1.9455  2.5789
 2920SOL     OW20392   1.762   2.001   5.993 -0.8055 -0.6609 -0.6932
 2920SOL    HW120393   1.850   1.965   5.999  0.7159  2.9435 -1.3232
 2920SOL    HW220394   1.714   1.933   6.040 -1.2458  0.1303  0.0100
 2921SOL     OW20395   1.437   0.192   2.275 -0.2214 -0.4602 -0.6549
 2921SOL    HW120396   1.497   0.169   2.205  0.0290  0.6967 -0.8058
 2921SOL    HW220397   1.498   0.223   2.341  0.5112 -0.0313 -1.5489
 2922SOL     OW20398   4.100   3.635   6.028 -0.0655 -0.6851  0.1725
 2922SOL    HW120399   4.018   3.652   6.074 -1.0882 -1.0858 -1.5106
 2922SOL    HW220400   4.095   3.542   6.004  0.2523 -0.1770 -1.8361
 2923SOL     OW20401   4.012   0.308   2.695 -0.2729 -0.0400 -0.0555
 2923SOL    HW120402   3.976   0.392   2.722  1.0115  0.1118  1.2004
 2923SOL    HW220403   3.967   0.295   2.612 -0.7185 -0.0019  0.1812
 2924SOL     OW20404   0.755   4.097  13.208 -0.3977 -0.0951 -0.0038
 2924SOL    HW120405   0.768   4.045  13.287  0.3249 -0.2542 -0.2277
 2924SOL    HW220406   0.699   4.165  13.245 -3.1120 -1.5145 -1.4695
 2925SOL     OW20407   1.769   2.849   7.970  0.4749  0.1266 -0.0773
 2925SOL    HW120408   1.807   2.772   7.929 -0.0484 -0.7863  1.1724
 2925SOL    HW220409   1.811   2.913   7.913 -0.8918 -0.5619 -1.8425
 2926SOL     OW20410   0.110   4.173   7.880 -0.0162  0.4886  0.3375
 2926SOL    HW120411   0.087   4.102   7.819  0.3161  0.1931  0.5564
 2926SOL    HW220412   0.201   4.182   7.854 -0.2833  0.6202 -0.5477
 2927SOL     OW20413   4.672   0.462   8.708 -0.0966  0.1574  0.2816
 2927SOL    HW120414   4.663   0.385   8.651  0.9441  1.0372 -1.0609
 2927SOL    HW220415   4.610   0.523   8.668 -0.7941 -0.3909  0.5281
 2928SOL     OW20416   0.824   0.877   8.429 -0.1180  0.1603  0.6956
 2928SOL    HW120417   0.841   0.966   8.458  0.0224  0.8453 -1.4628
 2928SOL    HW220418   0.903   0.862   8.377 -1.5252 -0.6334 -1.2034
 2929SOL     OW20419   0.659   3.560   6.443  0.0068  0.0625  0.0438
 2929SOL    HW120420   0.567   3.560   6.470 -0.3949  0.5966 -1.3202
 2929SOL    HW220421   0.685   3.476   6.482  1.2537  0.6434  0.4600
 2930SOL     OW20422   0.812   2.881   5.372 -0.1680 -0.2994 -0.4370
 2930SOL    HW120423   0.857   2.953   5.416  0.1774 -1.5972  1.3381
 2930SOL    HW220424   0.893   2.833   5.352 -0.6671 -0.7575 -1.3554
 2931SOL     OW20425   1.265   3.180   9.127 -0.1338 -0.1324 -0.1421
 2931SOL    HW120426   1.243   3.175   9.034  0.1374  2.9842 -0.3621
 2931SOL    HW220427   1.277   3.088   9.150  0.3979  0.4883  2.0131
 2932SOL     OW20428   3.730   1.648   3.185  0.5037  0.2619 -0.2473
 2932SOL    HW120429   3.703   1.738   3.167 -0.6805 -0.0766 -0.1343
 2932SOL    HW220430   3.685   1.621   3.265  0.9779 -1.7309 -0.6477
 2933SOL     OW20431   3.741   0.367   5.418 -0.7713 -0.1539 -0.5345
 2933SOL    HW120432   3.720   0.460   5.415 -2.1592 -0.4534  0.3357
 2933SOL    HW220433   3.665   0.341   5.469 -1.9424  1.6671 -1.3705
 2934SOL     OW20434   0.867   3.559   6.686  0.6290 -0.0252  0.2466
 2934SOL    HW120435   0.795   3.548   6.748 -0.1104  2.4995 -0.1561
 2934SOL    HW220436   0.917   3.621   6.738  1.2325 -2.3060  2.3394
 2935SOL     OW20437   1.854   2.044   7.384 -0.0519 -0.2001 -0.3294
 2935SOL    HW120438   1.909   1.993   7.444 -0.0468  0.9374  0.6330
 2935SOL    HW220439   1.767   2.011   7.407  0.3898 -0.6358  0.7134
 2936SOL     OW20440   3.287   3.015   7.939  0.0594  0.9359 -0.1000
 2936SOL    HW120441   3.238   3.025   7.857 -1.8299 -1.9312  0.7113
 2936SOL    HW220442   3.370   2.973   7.914 -1.2050 -0.2384 -2.3424
 2937SOL     OW20443   2.126   1.407   8.879 -0.2095 -0.1743 -0.6637
 2937SOL    HW120444   2.111   1.366   8.964  2.7318  1.1562  0.4887
 2937SOL    HW220445   2.135   1.330   8.823 -3.9936 -1.3133  0.2722
 2938SOL     OW20446   1.411   3.255   7.214 -0.4745  0.9729 -0.0383
 2938SOL    HW120447   1.355   3.213   7.149 -0.7656  0.4487  0.5557
 2938SOL    HW220448   1.408   3.345   7.181 -1.5500  2.3555  3.8715
 2939SOL     OW20449   4.130   2.494   6.995  0.5547 -0.2409 -0.1281
 2939SOL    HW120450   4.204   2.477   7.053 -1.2940  0.0242  2.3047
 2939SOL    HW220451   4.092   2.406   6.984  1.1099 -0.2266 -2.0715
 2940SOL     OW20452   2.025   4.169  16.835  0.0329  0.2638 -0.0497
 2940SOL    HW120453   1.976   4.094  16.867  0.4549  0.4887  1.1566
 2940SOL    HW220454   2.009   4.146  16.744  0.0334  0.8404 -0.2010
 2941SOL     OW20455   3.824   3.335   8.036  0.1985 -0.7003  0.2590
 2941SOL    HW120456   3.916   3.330   8.009  0.1607  0.3158 -0.0626
 2941SOL    HW220457   3.818   3.261   8.095  0.1882  1.4733  2.9743
 2942SOL     OW20458   3.124   4.328  17.428  0.1536 -0.4326  0.3326
 2942SOL    HW120459   3.116   4.249  17.481 -1.9835 -0.0793  0.5217
 2942SOL    HW220460   3.213   4.340  17.395 -0.8829 -2.5853 -3.2201
 2943SOL     OW20461   0.648   4.549   5.734  0.4118  0.2811 -0.4863
 2943SOL    HW120462   0.726   4.578   5.781  0.2803 -0.5814  0.2704
 2943SOL    HW220463   0.620   4.475   5.788  0.7183 -0.5218 -1.4353
 2944SOL     OW20464   3.795   4.136   0.516 -0.2369 -1.0998  1.0207
 2944SOL    HW120465   3.826   4.049   0.490  0.9541 -0.0564 -1.0486
 2944SOL    HW220466   3.708   4.122   0.554 -1.6338 -0.9906 -2.0818
 2945SOL     OW20467   2.459   4.536   4.066 -0.9161 -0.7140 -0.6400
 2945SOL    HW120468   2.495   4.518   3.980 -0.2710  2.3954 -1.0068
 2945SOL    HW220469   2.414   4.614   4.036 -0.1762 -0.2359 -0.5088
 2946SOL     OW20470   4.117   2.639   5.705  0.0115 -0.6062  0.0710
 2946SOL    HW120471   4.067   2.717   5.726 -0.4684 -0.6836 -0.7859
 2946SOL    HW220472   4.077   2.575   5.764  0.8447  1.5143  2.9096
 2947SOL     OW20473   1.240   4.215   9.261 -0.0033 -0.1869 -0.0540
 2947SOL    HW120474   1.211   4.127   9.286 -0.5353  0.5912  2.0281
 2947SOL    HW220475   1.210   4.260   9.339 -0.9945 -0.8156 -0.0721
 2948SOL     OW20476   0.227   1.913   3.017 -0.7235  0.0672 -0.3526
 2948SOL    HW120477   0.144   1.876   3.047 -0.9751  1.2041  0.3447
 2948SOL    HW220478   0.220   1.958   2.932 -2.1986  1.2068  0.3743
 2949SOL     OW20479   3.241   4.053   6.894 -0.2706  0.5524  0.1791
 2949SOL    HW120480   3.194   4.033   6.813 -0.1957 -0.0475  0.2878
 2949SOL    HW220481   3.330   4.046   6.858 -0.2822 -1.3584  0.5533
 2950SOL     OW20482   0.046   2.153  11.891 -0.4915  0.0801  0.0698
 2950SOL    HW120483   4.712   2.095  11.924  0.3405  0.1034  1.7784
 2950SOL    HW220484   0.060   2.202  11.972 -0.4362 -0.8017  0.5943
 2951SOL     OW20485   3.026   0.074   0.002  0.0516  0.6152 -0.1487
 2951SOL    HW120486   2.941   0.116  17.726 -0.3049 -1.0400 -3.5610
 2951SOL    HW220487   3.028   4.724  17.691 -1.1272 -0.7986  2.3167
 2952SOL     OW20488   2.626   2.029   2.352 -0.2054 -0.7347 -0.1521
 2952SOL    HW120489   2.608   2.072   2.436 -1.3229  0.0329 -0.7841
 2952SOL    HW220490   2.553   2.059   2.297 -1.8386  1.0911  3.0057
 2953SOL     OW20491   3.441   1.296  13.681 -0.1305 -0.3773  0.1898
 2953SOL    HW120492   3.442   1.385  13.716  0.4967 -0.8516  1.4039
 2953SOL    HW220493   3.507   1.248  13.732  0.3345 -1.3381 -1.3294
 2954SOL     OW20494   0.444   1.793  14.480 -0.3587 -0.2408  0.4687
 2954SOL    HW120495   0.407   1.709  14.451  1.6213 -0.4135 -1.5341
 2954SOL    HW220496   0.520   1.770  14.532 -0.5956 -0.7339  0.6027
 2955SOL     OW20497   1.487   1.382   9.909 -0.4811 -0.1004 -0.7790
 2955SOL    HW120498   1.561   1.420   9.862  0.2193  2.3499  2.3297
 2955SOL    HW220499   1.512   1.294   9.935  1.2670  0.6288 -0.0099
 2956SOL     OW20500   4.520   0.818   5.996 -0.1351 -0.4924  0.5555
 2956SOL    HW120501   4.467   0.869   5.934  0.6376  0.5020  0.7192
 2956SOL    HW220502   4.555   0.891   6.046  0.2014 -0.2687 -0.0046
 2957SOL     OW20503   4.572   1.598  13.348  0.5269 -0.0278  0.2858
 2957SOL    HW120504   4.561   1.508  13.317 -0.4640  0.4229 -0.6623
 2957SOL    HW220505   4.513   1.606  13.423  1.0770  0.9543  0.6133
 2958SOL     OW20506   2.860   2.268  14.393 -0.8017  0.3102  0.3864
 2958SOL    HW120507   2.846   2.198  14.457  1.9338 -0.4687  0.1695
 2958SOL    HW220508   2.955   2.258  14.388 -0.8853  0.2511 -0.9651
 2959SOL     OW20509   2.477   4.300   6.359 -0.0558  0.6839  0.7013
 2959SOL    HW120510   2.392   4.261   6.339  0.1049  2.0427 -2.6870
 2959SOL    HW220511   2.492   4.267   6.447  0.5105  1.2445  0.8186
 2960SOL     OW20512   3.759   0.299   0.604 -0.0056  0.4126  0.5472
 2960SOL    HW120513   3.753   0.393   0.624 -1.0677  0.4034  0.2692
 2960SOL    HW220514   3.838   0.297   0.550 -0.3640 -0.9856  0.0881
 2961SOL     OW20515   4.709   3.990   4.433  0.2256 -0.5681  0.5455
 2961SOL    HW120516   4.656   4.001   4.354 -0.0328 -2.5258  0.4338
 2961SOL    HW220517   4.726   3.896   4.438 -1.4447 -0.8687  0.3643
 2962SOL     OW20518   2.444   3.496   4.634  0.2913 -0.0682 -0.6995
 2962SOL    HW120519   2.443   3.517   4.727 -0.0326 -0.3784 -0.6336
 2962SOL    HW220520   2.522   3.545   4.606 -0.6015  0.2378 -2.6862
 2963SOL     OW20521   2.282   2.970  15.977  0.3110 -0.2940  0.7794
 2963SOL    HW120522   2.332   2.909  16.030  1.9936  1.5801  1.3365
 2963SOL    HW220523   2.236   2.896  15.937  1.0810 -0.2922 -0.0999
 2964SOL     OW20524   1.657   3.684  15.162  0.0585  0.6186 -0.9265
 2964SOL    HW120525   1.676   3.613  15.100  0.3503  0.7436 -0.9830
 2964SOL    HW220526   1.568   3.695  15.128 -0.8641 -1.4964  0.8439
 2965SOL     OW20527   4.709   3.181   0.607  0.0426 -0.3546 -0.6868
 2965SOL    HW120528   0.034   3.182   0.531  0.4668  1.4570 -0.3499
 2965SOL    HW220529   4.705   3.088   0.627 -3.8037  0.5489  2.7202
 2966SOL     OW20530   4.620   2.934   6.897 -0.5795  0.1878 -0.3442
 2966SOL    HW120531   4.690   2.881   6.857 -0.0580 -0.6378  1.6768
 2966SOL    HW220532   4.665   2.950   6.980  0.9077  0.6757 -1.2493
 2967SOL     OW20533   0.150   2.685   7.361 -0.3893  0.3933  0.2445
 2967SOL    HW120534   0.177   2.601   7.397 -1.0940 -0.3232 -0.8747
 2967SOL    HW220535   0.068   2.664   7.316 -0.9987  0.0815  1.5042
 2968SOL     OW20536   1.108   0.345   8.818 -0.4387  0.6360  0.7325
 2968SOL    HW120537   1.114   0.270   8.877  0.6179  0.3563  0.2632
 2968SOL    HW220538   1.143   0.415   8.874  3.2375 -0.5333 -0.1097
 2969SOL     OW20539   3.083   0.622  17.177 -0.2722  0.9835  0.4960
 2969SOL    HW120540   3.138   0.561  17.127  2.1715  0.6548  3.5504
 2969SOL    HW220541   3.010   0.569  17.209 -0.0310  0.2656 -0.1295
 2970SOL     OW20542   1.169   4.503   2.092 -0.2026 -0.0311 -0.1091
 2970SOL    HW120543   1.157   4.423   2.143  0.8577  0.1757  0.4491
 2970SOL    HW220544   1.152   4.475   2.002 -1.3844  1.7209 -0.4502
 2971SOL     OW20545   1.018   0.967   4.977 -0.2083 -1.2493  0.6934
 2971SOL    HW120546   0.943   0.910   4.959  1.1899 -3.1372  0.8002
 2971SOL    HW220547   1.026   0.964   5.072 -3.8915  2.9609  1.1465
 2972SOL     OW20548   1.274   1.351   4.512  0.4585 -0.1992  0.5223
 2972SOL    HW120549   1.338   1.383   4.576  1.6258  0.3977 -0.9676
 2972SOL    HW220550   1.326   1.316   4.440 -1.0409 -0.0605 -0.6370
 2973SOL     OW20551   3.183   2.854   4.675 -0.3694 -0.7365 -0.2005
 2973SOL    HW120552   3.093   2.874   4.700 -0.2752 -1.6882  0.9115
 2973SOL    HW220553   3.211   2.819   4.759  1.3651  1.0523 -0.0425
 2974SOL     OW20554   3.501   4.408   6.226  0.3288 -0.0348  0.2213
 2974SOL    HW120555   3.593   4.435   6.234 -0.3591  2.1428  0.7391
 2974SOL    HW220556   3.511   4.313   6.224 -0.6677 -0.1466  0.8493
 2975SOL     OW20557   3.687   3.763   7.124  0.0184 -0.5941 -0.2514
 2975SOL    HW120558   3.687   3.684   7.178 -1.1481 -0.8758 -0.6579
 2975SOL    HW220559   3.755   3.740   7.060 -0.7242  1.0726 -1.6462
 2976SOL     OW20560   3.107   1.231   6.167 -0.3862  0.3221 -0.5273
 2976SOL    HW120561   3.088   1.311   6.216  0.2433  0.3735 -0.3587
 2976SOL    HW220562   3.084   1.257   6.078  0.9098 -0.0968 -0.9868
 2977SOL     OW20563   0.859   2.808   5.889 -0.3169 -0.0629  0.6693
 2977SOL    HW120564   0.911   2.816   5.969  0.6796  3.3410 -0.2998
 2977SOL    HW220565   0.901   2.872   5.832 -2.1315  1.4998  1.0844
 2978SOL     OW20566   3.097   3.026   4.891  0.1832  0.4320  0.5947
 2978SOL    HW120567   3.013   3.026   4.845  1.0790 -0.6180 -1.0208
 2978SOL    HW220568   3.098   2.940   4.932  1.5421 -0.8780 -2.2242
 2979SOL     OW20569   3.461   4.033   5.785 -0.7342 -0.4273 -0.0844
 2979SOL    HW120570   3.431   4.011   5.874  0.7811 -0.9624  0.3127
 2979SOL    HW220571   3.387   4.083   5.751  1.6356  1.5117 -2.4080
 2980SOL     OW20572   1.838   1.531  11.735 -0.5499 -0.2862 -0.0464
 2980SOL    HW120573   1.847   1.440  11.706  0.6248 -0.5232  1.0650
 2980SOL    HW220574   1.744   1.540  11.752 -0.6551 -0.0309 -0.7902
 2981SOL     OW20575   4.419   0.317   2.229  0.0129 -0.3308 -0.2189
 2981SOL    HW120576   4.353   0.324   2.298  0.9567 -1.4368  0.8011
 2981SOL    HW220577   4.466   0.238   2.257 -0.1969 -0.4168 -0.1072
 2982SOL     OW20578   3.404   1.336   0.480 -0.1153 -0.6626  0.5450
 2982SOL    HW120579   3.412   1.241   0.475  1.2325 -0.5602  0.6817
 2982SOL    HW220580   3.313   1.344   0.450  0.3727 -0.4606 -0.8935
 2983SOL     OW20581   1.748   0.761   3.001 -0.5427  0.1340 -0.1462
 2983SOL    HW120582   1.675   0.784   3.059  0.0174  1.5141  0.0024
 2983SOL    HW220583   1.812   0.824   3.034 -0.5306  0.5707 -0.9901
 2984SOL     OW20584   2.484   1.180   6.870 -0.1446 -0.4504 -0.1561
 2984SOL    HW120585   2.527   1.154   6.789  0.9468  1.4776 -0.1907
 2984SOL    HW220586   2.407   1.213   6.824  0.2945  0.2503 -0.3912
 2985SOL     OW20587   2.785   0.582   7.384  0.0009  0.2874 -0.4266
 2985SOL    HW120588   2.756   0.494   7.409 -1.0445  0.6585 -0.3327
 2985SOL    HW220589   2.857   0.599   7.445  0.1418  0.9701 -0.7874
 2986SOL     OW20590   1.757   4.022  12.733  0.3069 -0.6928 -0.3557
 2986SOL    HW120591   1.723   4.111  12.728  1.9351 -0.1673 -2.0693
 2986SOL    HW220592   1.737   3.984  12.647  0.7529  1.8639 -1.5919
 2987SOL     OW20593   0.769   3.787   0.888  0.2475 -0.0460  0.3679
 2987SOL    HW120594   0.785   3.701   0.850  0.7577 -0.1166  0.7429
 2987SOL    HW220595   0.761   3.764   0.981  0.0215  2.0358  0.8688
 2988SOL     OW20596   3.306   2.489  10.940 -0.1534 -0.0775  0.5883
 2988SOL    HW120597   3.213   2.493  10.963 -0.8441 -1.7380 -1.9798
 2988SOL    HW220598   3.302   2.426  10.868 -1.0780  0.2520  0.3588
 2989SOL     OW20599   1.707   1.970   9.877  0.0535  0.1006 -0.4172
 2989SOL    HW120600   1.649   1.895   9.863 -0.6802  0.4647  0.7001
 2989SOL    HW220601   1.725   1.960   9.970 -0.5328  1.4620 -0.1583
 2990SOL     OW20602   3.706   1.640   2.019 -0.2027 -0.4255 -0.7889
 2990SOL    HW120603   3.716   1.725   2.062  0.7444 -0.8520 -0.1775
 2990SOL    HW220604   3.688   1.581   2.093  3.5562 -1.3583 -0.6564
 2991SOL     OW20605   0.970   1.489   7.858  0.0172 -0.0229 -0.0655
 2991SOL    HW120606   0.927   1.440   7.788 -0.0534 -1.4873  1.0018
 2991SOL    HW220607   1.017   1.556   7.808  0.8441  0.4680  1.3772
 2992SOL     OW20608   2.300   0.614   9.292 -0.0404  0.0765 -0.3570
 2992SOL    HW120609   2.217   0.632   9.337 -0.4458 -3.5739  0.3908
 2992SOL    HW220610   2.285   0.524   9.264  0.3606 -0.4645  1.1314
 2993SOL     OW20611   4.442   2.522   3.016 -0.1664  0.2714  0.3746
 2993SOL    HW120612   4.389   2.445   3.001 -1.5640  1.4592 -0.7198
 2993SOL    HW220613   4.377   2.592   3.008  1.2095  1.6474  1.1380
 2994SOL     OW20614   3.689   1.785   5.411  0.1181 -0.3969 -0.2801
 2994SOL    HW120615   3.632   1.858   5.386  0.0901  0.0033  0.9179
 2994SOL    HW220616   3.650   1.759   5.495 -0.2818  1.2372  0.0417
 2995SOL     OW20617   2.790   0.469  11.369  0.1164  0.2287 -0.0909
 2995SOL    HW120618   2.781   0.439  11.459  2.4322  2.1756  0.8095
 2995SOL    HW220619   2.794   0.385  11.324 -2.8556 -0.6632  1.3363
 2996SOL     OW20620   0.611   0.344   1.919  0.2396 -0.2002  0.4933
 2996SOL    HW120621   0.519   0.332   1.942 -0.2795  1.8505 -0.5173
 2996SOL    HW220622   0.611   0.437   1.895  2.5290 -0.7809 -1.7894
 2997SOL     OW20623   2.642   2.356   7.082  0.0145  0.2074  0.0815
 2997SOL    HW120624   2.581   2.307   7.136 -0.2101 -0.7425 -1.0330
 2997SOL    HW220625   2.716   2.372   7.141  0.9044 -0.3487 -0.8889
 2998SOL     OW20626   4.200   1.275   4.695  0.0847  0.0001  0.0862
 2998SOL    HW120627   4.263   1.265   4.623  0.8127 -0.3334  0.7763
 2998SOL    HW220628   4.251   1.232   4.763  1.0827  0.8436 -0.1219
 2999SOL     OW20629   4.249   0.211  13.178  0.1670 -0.0632 -0.4477
 2999SOL    HW120630   4.303   0.263  13.117 -1.5582  3.8149  1.3117
 2999SOL    HW220631   4.300   0.133  13.200 -0.7163 -0.2149  0.9923
 3000SOL     OW20632   0.775   4.720   9.497  0.3928 -0.4264  0.0373
 3000SOL    HW120633   0.836   4.675   9.438  1.4298 -0.4215  1.0968
 3000SOL    HW220634   0.842   0.042   9.537  1.4840 -1.6699 -0.0452
 3001SOL     OW20635   0.143   1.558  10.154 -0.2919  0.6791  0.0153
 3001SOL    HW120636   0.106   1.590  10.072  0.3544 -0.7832 -0.8417
 3001SOL    HW220637   0.206   1.627  10.175  0.6269 -0.1740  0.0173
 3002SOL     OW20638   2.350   4.257   2.473  0.2256  0.3236 -0.1293
 3002SOL    HW120639   2.306   4.332   2.514  0.1563 -0.3450  1.0258
 3002SOL    HW220640   2.324   4.270   2.382 -3.0429 -0.1425  0.7406
 3003SOL     OW20641   4.447   0.527   1.032  0.2787 -0.5227  0.1235
 3003SOL    HW120642   4.520   0.510   0.972 -0.1643 -0.1887 -0.5049
 3003SOL    HW220643   4.419   0.437   1.023 -2.3173  0.1475  1.7022
 3004SOL     OW20644   4.698   1.278   9.460  0.4775 -0.3224 -0.1011
 3004SOL    HW120645   0.034   1.223   9.424  1.7352 -0.3590  2.3771
 3004SOL    HW220646   0.007   1.362   9.475  1.7446 -0.9072 -0.4780
 3005SOL     OW20647   3.563   4.656   0.907  0.6810 -0.1817 -0.0300
 3005SOL    HW120648   3.637   4.605   0.938  2.0243 -0.1465 -3.1806
 3005SOL    HW220649   3.592   4.720   0.842 -1.2387 -0.0759 -0.7790
 3006SOL     OW20650   2.679   3.014   2.242 -0.1387  0.2093  0.6363
 3006SOL    HW120651   2.707   3.077   2.176  1.9108 -1.0683  0.2593
 3006SOL    HW220652   2.689   2.926   2.206  1.7381 -0.0610  1.8061
 3007SOL     OW20653   0.348   2.821   2.677  0.1740  0.1403  0.1858
 3007SOL    HW120654   0.314   2.910   2.669  0.2207  0.2569  1.3429
 3007SOL    HW220655   0.413   2.816   2.607  1.5709  0.4301  1.4494
 3008SOL     OW20656   3.711   2.900   2.037  0.0501 -0.3051 -0.5726
 3008SOL    HW120657   3.724   2.982   2.085 -0.7468 -0.2549 -0.4279
 3008SOL    HW220658   3.616   2.914   2.031  0.1953  1.4803  1.2945
 3009SOL     OW20659   0.430   2.980  10.692 -0.5917  0.1469 -0.3280
 3009SOL    HW120660   0.435   2.884  10.694 -0.4986  0.0869 -2.5474
 3009SOL    HW220661   0.498   2.992  10.757  0.4999  0.4894 -1.5276
 3010SOL     OW20662   0.032   2.579   2.330 -0.0709 -0.3258  0.0559
 3010SOL    HW120663   0.055   2.571   2.423 -1.3134 -0.6576  0.3267
 3010SOL    HW220664   0.118   2.559   2.292 -0.0454 -1.5828  0.7720
 3011SOL     OW20665   4.057   0.618  14.549 -0.3679  0.6065  0.1948
 3011SOL    HW120666   4.124   0.668  14.502 -0.1703 -1.6947 -1.9776
 3011SOL    HW220667   4.094   0.530  14.540 -1.1087  0.2992  0.1541
 3012SOL     OW20668   1.909   2.523   6.011  0.1268  0.0820  0.1043
 3012SOL    HW120669   1.876   2.494   6.096  1.8058  0.2078  0.8040
 3012SOL    HW220670   1.933   2.615   6.023 -2.1806  0.7901 -0.7524
 3013SOL     OW20671   0.534   0.461   7.484 -0.1928 -0.2236  0.0844
 3013SOL    HW120672   0.564   0.528   7.422 -1.0872 -0.2018 -0.3228
 3013SOL    HW220673   0.441   0.474   7.498 -0.1808 -1.4408  1.2804
 3014SOL     OW20674   2.333   3.113  15.002 -0.0850 -0.4516  0.1588
 3014SOL    HW120675   2.383   3.186  14.966 -0.4756 -0.4766 -0.4195
 3014SOL    HW220676   2.406   3.058  15.031  1.1390  1.2842  0.4134
 3015SOL     OW20677   2.865   4.474   9.086 -0.6644  0.0343 -0.0801
 3015SOL    HW120678   2.948   4.446   9.048 -1.6956  0.5047 -2.6394
 3015SOL    HW220679   2.884   4.568   9.098 -1.4008 -0.0701  1.8604
 3016SOL     OW20680   2.050   3.826   7.023 -0.0242 -0.5051  0.2241
 3016SOL    HW120681   2.137   3.858   6.999  0.6926 -1.7213  1.1649
 3016SOL    HW220682   1.999   3.824   6.942 -0.0863 -0.7940  0.2689
 3017SOL     OW20683   2.215   2.372   8.555 -0.2795 -0.0496 -0.1912
 3017SOL    HW120684   2.282   2.366   8.487  0.3460  0.9262  0.3389
 3017SOL    HW220685   2.178   2.284   8.548 -0.1422 -0.1555  0.4462
 3018SOL     OW20686   4.519   3.650   4.440  0.0953 -0.2144  0.8818
 3018SOL    HW120687   4.458   3.701   4.492  3.2300  1.6805  2.6814
 3018SOL    HW220688   4.534   3.577   4.501  1.8473 -1.6911 -1.2994
 3019SOL     OW20689   1.452   1.274   6.203  0.0514 -0.1594 -0.4714
 3019SOL    HW120690   1.446   1.179   6.205  2.0526 -0.2825  0.5116
 3019SOL    HW220691   1.520   1.286   6.137  0.1862 -0.7639 -0.4410
 3020SOL     OW20692   4.535   2.801  17.292  0.5957  0.0902 -0.3717
 3020SOL    HW120693   4.444   2.781  17.313  0.7031  1.5430  1.4583
 3020SOL    HW220694   4.542   2.829  17.201  1.7970  0.0470 -0.3000
 3021SOL     OW20695   3.064   4.244  14.643  0.2613 -0.0069  0.2016
 3021SOL    HW120696   2.974   4.275  14.654 -0.1258 -0.8112 -0.7576
 3021SOL    HW220697   3.056   4.186  14.568 -1.7610 -0.0431  0.4428
 3022SOL     OW20698   3.725   1.700   7.927  0.1283 -0.1500 -0.0613
 3022SOL    HW120699   3.711   1.622   7.873 -1.0901 -0.0852  0.1582
 3022SOL    HW220700   3.644   1.699   7.978 -0.0236 -0.3020 -0.3073
 3023SOL     OW20701   2.680   2.157   2.805 -0.2763  0.0473  0.2213
 3023SOL    HW120702   2.756   2.216   2.799 -1.4350  1.5069  0.0268
 3023SOL    HW220703   2.638   2.178   2.722  0.3583 -0.4278 -0.2185
 3024SOL     OW20704   3.952   4.393   4.928 -0.6920  0.1224 -0.2419
 3024SOL    HW120705   3.958   4.324   4.862  0.1336 -0.8856  0.8858
 3024SOL    HW220706   4.010   4.454   4.882 -2.3011  2.3796  0.7154
 3025SOL     OW20707   1.449   1.318   3.541 -0.0924  0.0360 -0.1191
 3025SOL    HW120708   1.540   1.348   3.534  0.0729 -0.1096  1.4766
 3025SOL    HW220709   1.399   1.398   3.552 -1.1531 -0.8452  1.4862
 3026SOL     OW20710   1.737   1.525   8.766  0.3771 -0.2071 -0.2231
 3026SOL    HW120711   1.701   1.476   8.840 -0.4081 -0.0460 -0.4950
 3026SOL    HW220712   1.793   1.457   8.729  1.1783  1.0145 -1.2254
 3027SOL     OW20713   2.253   0.735   2.298 -0.3721 -0.2488  0.1222
 3027SOL    HW120714   2.228   0.693   2.380 -1.4224 -0.7842 -0.4869
 3027SOL    HW220715   2.196   0.679   2.246  0.0607  1.7544 -2.5336
 3028SOL     OW20716   2.862   1.724   1.655 -0.1069 -0.2217  0.0582
 3028SOL    HW120717   2.896   1.804   1.613  0.9180  0.6374  2.5440
 3028SOL    HW220718   2.938   1.702   1.708  0.4960 -1.0191 -1.1376
 3029SOL     OW20719   2.002   1.918   3.140  0.6671  0.2398  0.0388
 3029SOL    HW120720   1.921   1.881   3.176  0.1495  1.1194 -0.2354
 3029SOL    HW220721   2.048   1.836   3.120  0.6908  0.9364 -2.7433
 3030SOL     OW20722   0.995   1.592   9.798  0.3584  0.3813  0.7378
 3030SOL    HW120723   0.963   1.598   9.888 -3.0402  0.7208 -0.4820
 3030SOL    HW220724   0.939   1.530   9.751 -2.0495  3.8865 -0.9900
 3031SOL     OW20725   3.837   2.731   6.041 -0.4625  0.1801 -0.0602
 3031SOL    HW120726   3.919   2.771   6.010  0.2265  1.2233  3.1794
 3031SOL    HW220727   3.879   2.660   6.088 -0.1436  0.4244  0.0237
 3032SOL     OW20728   2.236   1.029   9.866 -0.2961  0.0752 -0.0714
 3032SOL    HW120729   2.141   1.022   9.875 -0.2948 -1.0678 -1.0816
 3032SOL    HW220730   2.258   1.055   9.956 -2.1579  3.7267 -0.6536
 3033SOL     OW20731   2.689   3.365   8.477 -0.0840 -0.1702  0.4142
 3033SOL    HW120732   2.697   3.397   8.567 -0.8649  0.3528  0.2942
 3033SOL    HW220733   2.719   3.274   8.478 -0.7783 -0.3861  1.5063
 3034SOL     OW20734   3.999   1.836   8.322 -0.2179 -0.0007 -0.3540
 3034SOL    HW120735   3.945   1.815   8.398 -0.4786  0.9523 -0.2829
 3034SOL    HW220736   4.019   1.926   8.346 -0.9275 -0.4311  1.8494
 3035SOL     OW20737   0.396   4.716  11.402  0.1566 -1.2112  0.2753
 3035SOL    HW120738   0.317   0.019  11.365  0.1455 -1.6137 -0.1080
 3035SOL    HW220739   0.359   4.642  11.450 -1.3853 -0.1868  0.6387
 3036SOL     OW20740   3.048   2.538  11.041  0.3743 -0.5356  0.0566
 3036SOL    HW120741   3.032   2.544  11.136  0.3688 -0.4839  0.0526
 3036SOL    HW220742   2.993   2.464  11.018 -0.6161  0.0340  0.5689
 3037SOL     OW20743   4.104   0.257   8.377  0.8582  0.1484 -0.9730
 3037SOL    HW120744   4.027   0.204   8.400  1.0928  0.9486  1.7208
 3037SOL    HW220745   4.064   0.322   8.320  3.0353  2.0287 -0.3403
 3038SOL     OW20746   2.115   4.073  10.847  0.5653 -0.0088  0.1696
 3038SOL    HW120747   2.025   4.079  10.816 -0.1167 -2.2544  1.6711
 3038SOL    HW220748   2.153   4.008  10.788 -1.1280 -0.4981 -0.3832
 3039SOL     OW20749   0.580   0.731   3.597 -0.6480 -0.1830  0.1786
 3039SOL    HW120750   0.527   0.788   3.653 -2.2018 -0.3941 -1.0607
 3039SOL    HW220751   0.552   0.760   3.510 -0.8139  0.0702  0.3166
 3040SOL     OW20752   1.368   3.863   1.984  0.3140 -0.3394 -0.2393
 3040SOL    HW120753   1.355   3.937   2.043  2.0446 -0.5879  0.4724
 3040SOL    HW220754   1.355   3.892   1.894  1.9447 -0.8361 -0.6293
 3041SOL     OW20755   0.621   0.142   6.435  0.2521  0.1169  0.3170
 3041SOL    HW120756   0.529   0.166   6.423  0.8523  1.9023 -0.6864
 3041SOL    HW220757   0.637   0.168   6.525 -1.4205  0.3305  0.5453
 3042SOL     OW20758   2.833   0.695   5.429  0.3656  0.0653 -0.5169
 3042SOL    HW120759   2.878   0.704   5.345 -1.0648 -3.0055 -1.5962
 3042SOL    HW220760   2.741   0.711   5.406  0.5597  0.5979 -0.9149
 3043SOL     OW20761   3.979   2.532   1.602 -0.5563  0.4844 -0.1414
 3043SOL    HW120762   4.021   2.602   1.551  0.6500  0.4951  0.8915
 3043SOL    HW220763   3.892   2.571   1.611 -0.3558  0.9025 -0.0008
 3044SOL     OW20764   3.525   2.673  17.515 -0.0980  0.0418 -0.0469
 3044SOL    HW120765   3.515   2.734  17.588  0.9429  0.4286 -0.2298
 3044SOL    HW220766   3.596   2.617  17.546 -0.2313  0.7448  1.5213
 3045SOL     OW20767   1.176   0.566   9.559 -0.3820  0.2544 -0.3644
 3045SOL    HW120768   1.154   0.597   9.472 -0.9594  2.2174  0.4894
 3045SOL    HW220769   1.267   0.596   9.559  0.2458 -1.6124  1.6569
 3046SOL     OW20770   2.235   4.335   6.663 -0.4528  0.2207 -0.0078
 3046SOL    HW120771   2.295   4.389   6.611 -1.8611  0.7177 -1.1484
 3046SOL    HW220772   2.213   4.279   6.588  0.9773  2.9615 -2.4986
 3047SOL     OW20773   0.035   2.110  13.352 -0.2962 -0.0822  0.2172
 3047SOL    HW120774   0.124   2.103  13.317  0.8638 -2.2047  3.5503
 3047SOL    HW220775   4.715   2.107  13.273 -2.6374  1.7473  1.7684
 3048SOL     OW20776   4.536   1.094   7.942  0.1684  0.4024  0.0699
 3048SOL    HW120777   4.540   1.189   7.950 -1.1814  0.3078  1.8792
 3048SOL    HW220778   4.445   1.094   7.913  0.2217 -0.3150 -0.1112
 3049SOL     OW20779   2.023   3.965   1.754 -0.7039 -0.6123 -0.2603
 3049SOL    HW120780   1.966   3.896   1.788 -0.5273 -0.1946  0.8865
 3049SOL    HW220781   2.102   3.958   1.808 -0.2463 -0.4871 -0.9063
 3050SOL     OW20782   4.261   0.646  13.058 -0.2349  0.7098 -0.5493
 3050SOL    HW120783   4.254   0.632  13.153  0.8358 -1.6870 -0.8156
 3050SOL    HW220784   4.170   0.628  13.033  0.1842 -1.2094 -0.6676
 3051SOL     OW20785   2.562   0.942   9.477 -0.3782  0.3223  0.4091
 3051SOL    HW120786   2.645   0.957   9.433 -1.3235 -2.5240 -2.3194
 3051SOL    HW220787   2.574   0.853   9.512  0.3742  0.0996 -0.4276
 3052SOL     OW20788   0.094   2.615   3.164 -0.2141  0.2052 -0.1807
 3052SOL    HW120789   0.118   2.571   3.083  0.5075  1.0955 -0.4476
 3052SOL    HW220790   0.161   2.587   3.228  0.0262  0.1805 -0.4455
 3053SOL     OW20791   2.993   0.583   1.786 -0.1381 -0.0416 -0.2592
 3053SOL    HW120792   2.929   0.642   1.747  2.1048  1.2595 -1.9546
 3053SOL    HW220793   3.071   0.609   1.737  1.3188  0.0380  2.0907
 3054SOL     OW20794   3.767   0.001   1.767  0.1120 -0.8564  0.2730
 3054SOL    HW120795   3.765   0.091   1.735 -1.4967 -0.8521  0.3701
 3054SOL    HW220796   3.678   4.702   1.752 -0.1237 -0.2785  0.4151
 3055SOL     OW20797   3.021   1.583   7.133 -0.1431 -0.0094  0.0337
 3055SOL    HW120798   3.045   1.660   7.082 -0.7149  0.3732  0.3409
 3055SOL    HW220799   2.992   1.614   7.219  1.1349  1.2309  0.0101
 3056SOL     OW20800   2.897   1.663   4.495 -0.1472 -0.1873 -0.4356
 3056SOL    HW120801   2.956   1.628   4.428  1.8669 -0.4794  1.4699
 3056SOL    HW220802   2.918   1.621   4.579  0.6137 -0.3704 -0.7194
 3057SOL     OW20803   0.008   4.309  15.861 -0.2163  0.0644  0.0912
 3057SOL    HW120804   4.686   4.383  15.882  0.0028  0.6413 -1.3686
 3057SOL    HW220805   0.091   4.350  15.886 -0.5289  0.9525 -0.3436
 3058SOL     OW20806   3.669   2.483   8.859 -0.3125 -0.3298  0.0668
 3058SOL    HW120807   3.623   2.550   8.809  0.7531  0.6214  0.3519
 3058SOL    HW220808   3.595   2.425   8.878 -1.1933  1.2325  1.4357
 3059SOL     OW20809   2.116   0.141   3.453 -0.7395  0.0454 -0.5316
 3059SOL    HW120810   2.050   0.166   3.389 -1.6838  0.0766  0.4556
 3059SOL    HW220811   2.155   0.228   3.454  2.8342 -1.5143 -1.1818
 3060SOL     OW20812   1.089   2.966   8.813 -0.1284 -0.0310  0.1882
 3060SOL    HW120813   1.042   2.973   8.896 -1.4913 -0.6461 -0.5414
 3060SOL    HW220814   1.162   3.026   8.829  0.3667 -0.4093 -0.6152
 3061SOL     OW20815   2.172   1.965  13.704 -0.8800  0.0483  0.8193
 3061SOL    HW120816   2.192   1.975  13.797 -2.0772  2.0986  0.8623
 3061SOL    HW220817   2.091   1.914  13.702 -0.5586 -0.5143  1.8147
 3062SOL     OW20818   3.065   4.095  17.549  0.5100 -0.5363  0.0723
 3062SOL    HW120819   3.050   4.008  17.585  0.0632 -0.9765 -1.1724
 3062SOL    HW220820   2.974   4.118  17.530  0.7739  0.2461 -0.2255
 3063SOL     OW20821   3.012   0.457  14.561  0.0937 -0.3340 -0.1615
 3063SOL    HW120822   3.010   0.362  14.550  1.0769 -0.5067  1.1516
 3063SOL    HW220823   3.010   0.499  14.475 -1.7552 -0.7028 -0.3020
 3064SOL     OW20824   1.345   2.865   5.300 -0.0660 -0.6789 -0.9357
 3064SOL    HW120825   1.284   2.863   5.373  1.0333 -2.1436 -0.0542
 3064SOL    HW220826   1.427   2.843   5.345  0.6772  1.4232 -1.2645
 3065SOL     OW20827   3.527   3.242  12.470  0.5645 -0.5640 -0.1493
 3065SOL    HW120828   3.583   3.165  12.455 -0.5206 -1.1007 -1.5180
 3065SOL    HW220829   3.594   3.285  12.523  0.5186 -3.1427  1.9646
 3066SOL     OW20830   2.232   3.722   5.638  0.5004 -0.0821 -0.2698
 3066SOL    HW120831   2.189   3.636   5.635 -1.2270  0.7212  1.4988
 3066SOL    HW220832   2.204   3.769   5.560  1.9192  1.0386 -0.0996
 3067SOL     OW20833   0.842   2.719  10.699 -0.0889  0.2720  0.4884
 3067SOL    HW120834   0.841   2.623  10.694 -0.1022  0.3576 -0.8864
 3067SOL    HW220835   0.824   2.736  10.792 -1.1588  0.6244  0.2122
 3068SOL     OW20836   2.627   1.197   7.889  0.1959  0.6324  0.1321
 3068SOL    HW120837   2.661   1.157   7.809  1.3282  1.4654  0.1972
 3068SOL    HW220838   2.551   1.139   7.900  0.3864  0.3187 -0.2545
 3069SOL     OW20839   2.384   2.067   8.033  0.2460 -0.2356  0.4064
 3069SOL    HW120840   2.384   2.009   8.109 -2.0986  0.7404  1.1366
 3069SOL    HW220841   2.406   2.015   7.955  0.7596  1.3761 -0.5261
 3070SOL     OW20842   3.019   2.456   6.322 -0.2389 -0.2284  0.0113
 3070SOL    HW120843   2.954   2.400   6.365  0.3098 -1.1596 -0.3574
 3070SOL    HW220844   2.998   2.547   6.341  0.3841  0.2846 -1.7198
 3071SOL     OW20845   3.102   2.582   1.225  0.4430 -0.1668 -0.6931
 3071SOL    HW120846   3.144   2.516   1.168  0.0337  0.1636 -1.3774
 3071SOL    HW220847   3.077   2.643   1.156 -2.4048 -0.2454  0.3152
 3072SOL     OW20848   4.130   0.272  13.422  0.2207 -0.0097  1.0042
 3072SOL    HW120849   4.158   0.252  13.333 -0.7113 -0.1301  0.7342
 3072SOL    HW220850   4.199   0.326  13.460  1.1961  0.4808 -1.5069
 3073SOL     OW20851   3.840   1.636   6.409  0.3494 -0.3322 -0.7370
 3073SOL    HW120852   3.888   1.562   6.372 -2.4250 -2.9552  0.9260
 3073SOL    HW220853   3.786   1.606   6.482 -3.0767  2.4234 -2.1808
 3074SOL     OW20854   3.287   2.386  12.877  0.3300  0.2724 -0.0797
 3074SOL    HW120855   3.309   2.475  12.852  0.5598  0.2294 -0.0295
 3074SOL    HW220856   3.294   2.399  12.972  0.7121 -1.4709  0.1400
 3075SOL     OW20857   0.246   3.344  11.571 -0.1322 -0.3018  0.0916
 3075SOL    HW120858   0.305   3.418  11.584 -1.5872  1.1526 -1.5702
 3075SOL    HW220859   0.227   3.310  11.659 -0.7278  1.1861  0.5242
 3076SOL     OW20860   1.354   0.092  17.167  0.4879 -0.2644 -0.4184
 3076SOL    HW120861   1.388   0.008  17.137  3.3285  0.8686 -0.4314
 3076SOL    HW220862   1.400   0.108  17.250 -1.7750  1.4965  0.4939
 3077SOL     OW20863   2.477   0.254   8.588  0.3683 -0.2974 -0.2814
 3077SOL    HW120864   2.533   0.184   8.555  1.0803  0.9170 -1.6528
 3077SOL    HW220865   2.457   0.218   8.674  2.4264 -0.2374  0.2140
 3078SOL     OW20866   3.978   0.811   2.419  0.0001  0.0581  0.3190
 3078SOL    HW120867   3.895   0.775   2.388  1.1641  0.3908 -3.1955
 3078SOL    HW220868   3.983   0.883   2.356 -0.1775 -1.4057 -1.3347
 3079SOL     OW20869   0.148   4.630   4.054  0.6539  0.3746  0.9752
 3079SOL    HW120870   0.105   4.614   4.139  0.2664 -0.1666  0.6713
 3079SOL    HW220871   0.149   4.726   4.061  1.9669  0.3022  1.8458
 3080SOL     OW20872   1.892   0.205  11.400 -0.4178 -0.3909 -0.6215
 3080SOL    HW120873   1.873   0.234  11.489  0.9510 -1.7067  0.0995
 3080SOL    HW220874   1.804   0.176  11.376 -0.2260 -1.0815 -0.4869
 3081SOL     OW20875   4.628   3.941   6.686  0.1035  0.4773  0.5213
 3081SOL    HW120876   4.713   3.968   6.723  1.0180 -0.6013 -0.8042
 3081SOL    HW220877   4.624   4.001   6.612 -2.8240  0.4576  0.6727
 3082SOL     OW20878   4.232   1.031  12.704 -0.4148  0.6944 -0.4553
 3082SOL    HW120879   4.285   1.095  12.751  0.5799 -0.1248 -0.4740
 3082SOL    HW220880   4.142   1.048  12.731 -0.8917 -2.3646 -0.1352
 3083SOL     OW20881   1.021   4.376  16.314 -0.3307  0.2720  0.1410
 3083SOL    HW120882   1.033   4.326  16.233  0.3415 -2.4047  1.8660
 3083SOL    HW220883   0.928   4.357  16.328 -0.2010 -1.8953 -2.0173
 3084SOL     OW20884   3.899   2.012  16.682  0.2850  0.4496  0.2543
 3084SOL    HW120885   3.908   2.045  16.771 -3.8441  3.0469 -0.2747
 3084SOL    HW220886   3.835   2.075  16.651 -0.0539  0.1252  0.2880
 3085SOL     OW20887   1.685   3.437  15.531  0.1514  0.2441 -0.0272
 3085SOL    HW120888   1.603   3.488  15.526  2.3035  3.6814 -0.3008
 3085SOL    HW220889   1.720   3.471  15.449 -2.4930  2.2791 -0.3176
 3086SOL     OW20890   2.140   0.872   9.530  0.2615  0.2548  0.0005
 3086SOL    HW120891   2.093   0.874   9.447  0.9300 -0.6624 -0.3903
 3086SOL    HW220892   2.132   0.780   9.553  4.8927 -0.1000  0.2366
 3087SOL     OW20893   0.385   4.510   8.053  0.1930 -0.0480  0.0030
 3087SOL    HW120894   0.317   4.485   8.116  0.4322  1.2508  0.7693
 3087SOL    HW220895   0.386   4.605   8.064  2.9452  0.0185 -0.7860
 3088SOL     OW20896   0.879   1.587   4.231 -0.5258  0.4084  0.0152
 3088SOL    HW120897   0.972   1.579   4.255 -0.8142 -0.3577  0.8893
 3088SOL    HW220898   0.882   1.632   4.146  0.2142  0.0760 -0.1368
 3089SOL     OW20899   4.691   1.704   4.163  0.1191 -0.1819  0.2687
 3089SOL    HW120900   0.042   1.744   4.179 -0.2812  0.7288  0.1213
 3089SOL    HW220901   4.672   1.725   4.072 -1.8105 -1.1769  0.4436
 3090SOL     OW20902   1.237   1.016   6.917 -0.0911 -0.0472  0.2847
 3090SOL    HW120903   1.145   1.000   6.894 -0.2135  0.6645  0.2727
 3090SOL    HW220904   1.253   1.106   6.890 -2.2275  0.4270  0.5842
 3091SOL     OW20905   4.528   0.418   3.595  0.4139 -0.5192 -0.1371
 3091SOL    HW120906   4.500   0.495   3.645  0.4882 -0.3072 -0.4159
 3091SOL    HW220907   4.531   0.352   3.663  1.0157  2.7097  2.9901
 3092SOL     OW20908   1.264   0.155  12.693  0.5215  0.4441 -0.2395
 3092SOL    HW120909   1.236   0.194  12.776 -0.2648 -3.3574  1.2887
 3092SOL    HW220910   1.234   0.226  12.636  0.9625 -0.2339 -1.3058
 3093SOL     OW20911   0.976   0.616   5.576  0.5473  0.2168 -0.1396
 3093SOL    HW120912   0.994   0.707   5.600  2.2926 -0.2196  0.1531
 3093SOL    HW220913   1.059   0.593   5.533  0.0624  0.7154 -1.3567
 3094SOL     OW20914   1.552   1.566   8.103 -0.3024 -0.6328  0.7834
 3094SOL    HW120915   1.506   1.524   8.176 -2.7460  1.8995  0.6719
 3094SOL    HW220916   1.641   1.559   8.138  1.1250  0.6016 -2.5831
 3095SOL     OW20917   2.046   3.205   4.338 -0.1993  0.1100 -0.8063
 3095SOL    HW120918   2.126   3.166   4.304  0.6701 -0.4227  1.8272
 3095SOL    HW220919   2.028   3.261   4.263  0.6690  1.6886  0.1535
 3096SOL     OW20920   2.794   2.751   5.867  0.2343  0.0912  0.1195
 3096SOL    HW120921   2.826   2.751   5.957 -0.7229 -0.0975  0.4629
 3096SOL    HW220922   2.841   2.672   5.839 -1.3823  0.0178 -2.3425
 3097SOL     OW20923   0.263   3.242   6.465 -0.3157 -0.4957  0.3549
 3097SOL    HW120924   0.190   3.201   6.418 -0.4222 -1.0545  1.0069
 3097SOL    HW220925   0.222   3.326   6.484  0.2460 -0.5024  1.5676
 3098SOL     OW20926   3.373   3.353   7.456 -0.0789 -0.2152  0.0746
 3098SOL    HW120927   3.393   3.352   7.549 -1.4296  0.5681  0.3770
 3098SOL    HW220928   3.325   3.434   7.437 -1.0117 -0.4314  1.5932
 3099SOL     OW20929   3.829   3.789   5.596 -0.5823  0.0956 -0.5566
 3099SOL    HW120930   3.754   3.798   5.654  0.9696  2.3114  1.1091
 3099SOL    HW220931   3.794   3.743   5.520  1.8824  1.0869 -2.3042
 3100SOL     OW20932   2.564   0.850   0.606 -0.1613 -0.2095 -0.1726
 3100SOL    HW120933   2.493   0.789   0.627  0.5150 -0.4799  1.2925
 3100SOL    HW220934   2.547   0.859   0.512 -2.0686 -0.2026  0.1815
 3101SOL     OW20935   2.694   2.397   4.188 -0.2264 -0.1545 -0.2215
 3101SOL    HW120936   2.737   2.318   4.221  0.1875 -0.3910 -1.3306
 3101SOL    HW220937   2.771   2.454   4.189  0.7054 -1.4360  1.3921
 3102SOL     OW20938   1.262   4.299   9.802  0.1545  0.2907  0.1411
 3102SOL    HW120939   1.315   4.370   9.839 -0.2896  2.4711 -3.3782
 3102SOL    HW220940   1.229   4.335   9.720  0.4344 -0.7668 -0.4274
 3103SOL     OW20941   4.141   4.102  12.267 -0.7261  0.1103  0.4499
 3103SOL    HW120942   4.193   4.026  12.241 -0.6979  0.8150 -1.5741
 3103SOL    HW220943   4.107   4.123  12.179  0.3405 -4.7528 -1.1236
 3104SOL     OW20944   0.758   2.801   9.157  0.6696  0.5183  0.1842
 3104SOL    HW120945   0.725   2.791   9.246  3.0603 -3.0022  0.6796
 3104SOL    HW220946   0.734   2.716   9.119 -1.9748  0.7944  1.2815
 3105SOL     OW20947   3.581   1.726  15.116  0.5020  0.4854  0.3547
 3105SOL    HW120948   3.651   1.660  15.117 -0.3616 -0.4658 -1.2773
 3105SOL    HW220949   3.631   1.802  15.087  0.8347 -0.3588 -1.3450
 3106SOL     OW20950   1.402   1.685   8.684 -0.0382 -0.1751  0.8581
 3106SOL    HW120951   1.432   1.612   8.740  0.6238 -0.1880  0.4871
 3106SOL    HW220952   1.389   1.757   8.745 -2.0100  1.2246 -1.2208
 3107SOL     OW20953   4.725   3.451   3.953 -0.3990 -0.3630 -0.0757
 3107SOL    HW120954   4.647   3.455   3.898 -0.1026 -0.6164 -0.5175
 3107SOL    HW220955   4.698   3.484   4.039 -0.7030  0.5512 -0.5241
 3108SOL     OW20956   4.172   0.821   3.272  0.6932  0.2273 -0.0232
 3108SOL    HW120957   4.090   0.785   3.305  0.5367  0.1563 -0.4975
 3108SOL    HW220958   4.161   0.803   3.179 -1.6100 -0.8275  0.4466
 3109SOL     OW20959   3.265   2.632   5.195  0.4130 -0.2622  0.1287
 3109SOL    HW120960   3.205   2.686   5.143 -1.9687 -2.0824  1.0176
 3109SOL    HW220961   3.344   2.686   5.200 -0.0871  0.3185  1.7874
 3110SOL     OW20962   1.235   4.398   7.281 -0.0298  0.0670 -0.0571
 3110SOL    HW120963   1.291   4.446   7.220  0.5459 -2.0151 -1.2068
 3110SOL    HW220964   1.283   4.404   7.363 -1.4168  2.8518  0.5407
 3111SOL     OW20965   1.958   3.937   8.750  0.8852  0.2610  0.1426
 3111SOL    HW120966   1.991   3.881   8.679 -0.8857  0.0695 -0.5209
 3111SOL    HW220967   1.991   4.023   8.724  0.7381  0.2131 -0.1946
 3112SOL     OW20968   2.537   4.270  11.428  0.3069  0.1902  0.5313
 3112SOL    HW120969   2.475   4.201  11.454 -0.0420 -0.0919 -1.0256
 3112SOL    HW220970   2.564   4.312  11.509  1.8419 -2.0154  1.1607
 3113SOL     OW20971   4.025   1.478   4.417  0.0357 -0.2072 -0.4836
 3113SOL    HW120972   3.938   1.513   4.398  0.0663  0.4932  0.6915
 3113SOL    HW220973   4.059   1.484   4.327  0.4923 -0.6994 -0.3446
 3114SOL     OW20974   4.212   2.080   6.849 -0.0876 -0.2383 -0.0137
 3114SOL    HW120975   4.135   2.088   6.793 -0.2217  0.0366  0.2083
 3114SOL    HW220976   4.263   2.149   6.807 -3.1230  1.8402 -0.2681
 3115SOL     OW20977   0.348   2.985   9.611  0.3994 -0.3096  0.1817
 3115SOL    HW120978   0.303   2.951   9.688 -0.4070  0.1120 -0.1035
 3115SOL    HW220979   0.290   2.946   9.546  0.3725  0.1730 -0.0834
 3116SOL     OW20980   0.413   2.634   3.162 -0.0069 -0.0390  0.4332
 3116SOL    HW120981   0.463   2.696   3.215 -0.0546  1.8514 -1.7237
 3116SOL    HW220982   0.385   2.693   3.091  1.9892  0.6926  0.2412
 3117SOL     OW20983   4.350   3.262   7.625 -0.0470  0.4114 -0.3085
 3117SOL    HW120984   4.415   3.262   7.555 -1.1938 -0.0395 -1.3594
 3117SOL    HW220985   4.394   3.332   7.675 -1.7774  0.9115  0.5035
 3118SOL     OW20986   4.134   1.371   5.437 -0.0625 -0.2948  0.0602
 3118SOL    HW120987   4.103   1.441   5.379 -0.0717 -1.5852 -1.4781
 3118SOL    HW220988   4.151   1.303   5.372 -3.3732 -0.0755 -1.0294
 3119SOL     OW20989   0.345   4.636   5.014 -0.6479 -0.2006 -0.1841
 3119SOL    HW120990   0.361   4.659   4.923 -0.8746 -0.9031 -0.3976
 3119SOL    HW220991   0.436   4.623   5.043 -0.2264  2.3291 -0.2972
 3120SOL     OW20992   2.956   1.357   8.852  0.4604  0.7260 -0.1659
 3120SOL    HW120993   2.971   1.272   8.810 -2.3441 -0.7432  1.8315
 3120SOL    HW220994   2.869   1.370   8.815  0.8028  0.6411 -0.9997
 3121SOL     OW20995   2.183   3.365   9.778 -0.5407  0.2743  0.0900
 3121SOL    HW120996   2.203   3.399   9.866  1.6901  0.8448 -0.6511
 3121SOL    HW220997   2.098   3.407   9.762 -0.2069  0.8039 -0.2616
 3122SOL     OW20998   3.164   1.238   9.354  0.1709 -0.0084 -0.4662
 3122SOL    HW120999   3.162   1.142   9.359  1.5067 -0.0551 -1.0341
 3122SOL    HW221000   3.068   1.249   9.357  0.4936  2.2487  1.6099
 3123SOL     OW21001   1.251   0.824   0.996  0.0952 -0.2456  0.7150
 3123SOL    HW121002   1.162   0.798   0.971 -0.0502  2.2091 -1.3145
 3123SOL    HW221003   1.270   0.744   1.045  1.3214  0.0413  0.7200
 3124SOL     OW21004   1.969   3.029  13.123 -0.6412 -0.4317  0.1639
 3124SOL    HW121005   1.919   2.998  13.047 -2.3593 -0.0480  1.1422
 3124SOL    HW221006   1.924   2.986  13.196 -0.4736 -0.3423  0.3183
 3125SOL     OW21007   1.093   4.286   2.233 -0.1805 -0.1852 -0.0142
 3125SOL    HW121008   1.066   4.318   2.319 -1.5900 -1.7202  0.1177
 3125SOL    HW221009   1.009   4.279   2.187  1.0532 -1.4826 -2.0523
 3126SOL     OW21010   3.131   3.040   7.729  0.5657  0.0172 -0.5856
 3126SOL    HW121011   3.099   2.980   7.661 -3.0624 -0.4094  1.4893
 3126SOL    HW221012   3.114   3.117   7.674  0.7809 -0.2931 -1.0934
 3127SOL     OW21013   1.513   3.672   6.668  0.0153  0.0869 -0.7560
 3127SOL    HW121014   1.485   3.761   6.649  1.5945  0.5517 -0.9242
 3127SOL    HW221015   1.430   3.631   6.690  1.0338 -1.3912  0.3270
 3128SOL     OW21016   1.202   3.977   9.379 -0.4063  0.3390  0.2013
 3128SOL    HW121017   1.136   3.910   9.361 -0.2450  0.6232 -1.3900
 3128SOL    HW221018   1.223   3.962   9.471  1.5209 -0.1673 -0.3145
 3129SOL     OW21019   2.430   2.828   0.920  0.0145  0.4088  0.3801
 3129SOL    HW121020   2.474   2.758   0.871  0.6641  0.6338  0.6304
 3129SOL    HW221021   2.390   2.776   0.990 -0.1834  1.4223  1.0209
 3130SOL     OW21022   2.890   2.524   8.681  0.2189  0.6399 -0.2918
 3130SOL    HW121023   2.852   2.457   8.739  0.2982  0.8258 -0.0288
 3130SOL    HW221024   2.952   2.576   8.731 -0.0998  0.3947  0.3666
 3131SOL     OW21025   0.452   4.174   7.333  0.1242 -0.2345  0.2820
 3131SOL    HW121026   0.506   4.140   7.261  0.7646 -3.0151  2.0884
 3131SOL    HW221027   0.525   4.207   7.385 -0.9401  1.6198  0.6125
 3132SOL     OW21028   1.604   2.256   6.637  0.0716 -0.7211  0.1969
 3132SOL    HW121029   1.602   2.186   6.571 -0.1299 -1.7461  1.2857
 3132SOL    HW221030   1.516   2.237   6.669  0.1129 -1.2282  0.0244
 3133SOL     OW21031   1.609   1.571   6.451  0.7495  0.6878  0.4839
 3133SOL    HW121032   1.527   1.613   6.479 -1.3556 -1.2146 -2.7823
 3133SOL    HW221033   1.572   1.491   6.413  1.8361 -0.8236  2.6413
 3134SOL     OW21034   1.817   4.693   5.376  0.3567  0.2458  0.5005
 3134SOL    HW121035   1.759   4.632   5.421 -0.6222  1.0544  0.3257
 3134SOL    HW221036   1.897   4.685   5.429  0.0952  0.7463  0.9729
 3135SOL     OW21037   0.834   3.370  12.381  0.0143 -0.4137  0.0108
 3135SOL    HW121038   0.842   3.309  12.454 -2.2776 -1.9349 -1.0412
 3135SOL    HW221039   0.830   3.447  12.438 -1.7356 -0.1418 -0.4824
 3136SOL     OW21040   0.718   4.634   6.460 -0.4417 -0.4596  0.3790
 3136SOL    HW121041   0.672   4.717   6.465  2.7391  1.4030 -1.5459
 3136SOL    HW221042   0.806   4.670   6.461 -0.0942 -1.2852 -0.0404
 3137SOL     OW21043   4.506   3.802  14.766 -0.9187  0.0845  0.5043
 3137SOL    HW121044   4.544   3.738  14.706 -0.0747  0.8837  0.1734
 3137SOL    HW221045   4.531   3.884  14.723 -3.2887  0.5457  0.0057
 3138SOL     OW21046   0.762   2.999   4.034 -0.2631 -0.2515  0.2695
 3138SOL    HW121047   0.849   3.038   4.028 -0.9249  1.6104  2.4788
 3138SOL    HW221048   0.778   2.940   4.108  0.2541 -0.6475 -0.1623
 3139SOL     OW21049   4.643   0.923   8.416 -0.2408  0.4204 -0.4077
 3139SOL    HW121050   4.581   0.861   8.454 -1.7472  1.5767 -0.9389
 3139SOL    HW221051   4.588   0.968   8.352 -2.8071 -2.2428 -0.0606
 3140SOL     OW21052   1.807   3.351   0.340 -0.2257  0.0700 -0.6827
 3140SOL    HW121053   1.785   3.270   0.386 -2.0222 -0.1334 -1.9240
 3140SOL    HW221054   1.767   3.418   0.395 -0.8971 -1.3119  0.5125
 3141SOL     OW21055   3.526   2.284   5.803  0.3864 -0.2058 -0.1437
 3141SOL    HW121056   3.494   2.289   5.893  0.7835 -2.8934  0.1526
 3141SOL    HW221057   3.457   2.236   5.758  0.4987  2.2034 -2.8624
 3142SOL     OW21058   2.757   4.215   9.051  0.3296  0.7656 -0.3219
 3142SOL    HW121059   2.795   4.303   9.039  0.7900  0.3431 -1.9720
 3142SOL    HW221060   2.822   4.150   9.026  0.6669  1.3323 -0.9159
 3143SOL     OW21061   0.453   3.848   3.921  0.3323 -0.0269  0.0142
 3143SOL    HW121062   0.516   3.891   3.978  0.7394 -0.0128 -0.4450
 3143SOL    HW221063   0.381   3.910   3.922  0.4732  0.1206  0.6657
 3144SOL     OW21064   2.038   2.817   4.385 -0.1058 -0.1440  0.4039
 3144SOL    HW121065   1.966   2.877   4.364 -2.0840 -1.6504  2.9635
 3144SOL    HW221066   1.999   2.736   4.353 -0.8320  0.1028  0.6411
 3145SOL     OW21067   2.306   2.481   4.096  0.4322 -0.1407  0.6357
 3145SOL    HW121068   2.325   2.569   4.064 -1.5990  0.5236  1.2683
 3145SOL    HW221069   2.330   2.429   4.020  0.1431 -0.0733  0.4991
 3146SOL     OW21070   0.195   1.228   2.418  0.4382  0.0762  0.5254
 3146SOL    HW121071   0.231   1.227   2.507  1.6307 -0.4020  0.0276
 3146SOL    HW221072   0.236   1.143   2.401  0.1484  0.7019 -3.3673
 3147SOL     OW21073   1.257   4.570   3.409 -0.1808 -0.0797 -0.1874
 3147SOL    HW121074   1.242   4.478   3.387 -0.5426  0.4554 -2.2459
 3147SOL    HW221075   1.339   4.564   3.459  0.4632 -1.8900 -1.4461
 3148SOL     OW21076   4.034   3.735   4.137 -0.4682  0.1470 -1.0314
 3148SOL    HW121077   4.014   3.810   4.194 -0.3327  0.0744 -0.8883
 3148SOL    HW221078   3.948   3.716   4.101 -0.7211 -0.3294 -0.1566
 3149SOL     OW21079   1.026   2.329  11.195 -0.1318  0.1379  0.0169
 3149SOL    HW121080   0.992   2.240  11.209  1.3062 -0.2993  0.6979
 3149SOL    HW221081   1.093   2.329  11.263  0.9044  0.9367 -1.0054
 3150SOL     OW21082   2.194   2.764   6.579  0.7405 -0.8154  0.2711
 3150SOL    HW121083   2.244   2.759   6.661 -1.1360 -0.6112  1.4128
 3150SOL    HW221084   2.243   2.707   6.520 -0.8460 -0.6269 -1.2108
 3151SOL     OW21085   4.412   3.148   1.658  0.3270  0.2628 -0.4457
 3151SOL    HW121086   4.404   3.224   1.600  0.6125  0.0116 -0.8109
 3151SOL    HW221087   4.344   3.174   1.720 -0.5466  2.5424 -2.3361
 3152SOL     OW21088   2.729   0.754   8.449  0.1945  0.8218  0.0284
 3152SOL    HW121089   2.799   0.691   8.465 -1.1344  0.1281  3.1002
 3152SOL    HW221090   2.761   0.771   8.360  1.0944  2.1278  0.6048
 3153SOL     OW21091   4.315   2.888  14.721 -0.2990  0.7895 -0.2662
 3153SOL    HW121092   4.399   2.935  14.727 -0.2986  0.5099  1.6434
 3153SOL    HW221093   4.277   2.904  14.807  1.2130 -2.5479  1.0113
 3154SOL     OW21094   3.828   1.177  10.815  0.4290 -0.0029  0.1878
 3154SOL    HW121095   3.913   1.150  10.851  0.9806  0.3272 -0.8768
 3154SOL    HW221096   3.769   1.108  10.846 -2.6253  2.5375  0.0439
 3155SOL     OW21097   1.665   1.673   9.628  0.5276 -0.6013 -0.0067
 3155SOL    HW121098   1.736   1.611   9.608  0.9649 -0.5618  1.4577
 3155SOL    HW221099   1.708   1.753   9.599  1.6253 -0.1842  2.8079
 3156SOL     OW21100   0.986   4.307   8.289 -0.0690  0.3291 -0.2826
 3156SOL    HW121101   1.042   4.329   8.214  1.3494  0.5781  0.8678
 3156SOL    HW221102   0.910   4.274   8.240 -1.9941  3.8366  0.3139
 3157SOL     OW21103   3.936   4.675   2.470  0.1940  0.8693 -0.0469
 3157SOL    HW121104   3.953   0.032   2.446  0.1831  0.6231 -0.9834
 3157SOL    HW221105   3.864   4.654   2.411 -1.3236  0.7570  1.8285
 3158SOL     OW21106   2.764   3.427   4.789  0.3823  0.0261 -0.5169
 3158SOL    HW121107   2.730   3.516   4.792 -3.9292 -1.5567 -2.2655
 3158SOL    HW221108   2.857   3.443   4.776  0.4213 -0.8461 -1.3133
 3159SOL     OW21109   0.006   3.172   9.698 -0.3173  0.1037  0.4199
 3159SOL    HW121110   0.007   3.111   9.625 -1.7753 -1.0485  1.3656
 3159SOL    HW221111   4.646   3.180   9.717  0.0076 -2.0645  2.8748
 3160SOL     OW21112   3.723   0.086   1.236 -0.3538 -0.3874 -0.4917
 3160SOL    HW121113   3.637   0.129   1.229 -1.3833 -1.7501  3.2807
 3160SOL    HW221114   3.734   0.070   1.143 -2.5932 -0.6734 -0.7032
 3161SOL     OW21115   0.118   2.003   3.909 -0.7467  0.2841  0.3863
 3161SOL    HW121116   0.078   1.968   3.829  0.4421  1.0322 -0.5367
 3161SOL    HW221117   0.171   1.926   3.933 -1.8418  0.6432  3.8878
 3162SOL     OW21118   0.229   2.051   4.826  0.6863 -0.3157 -0.1535
 3162SOL    HW121119   0.323   2.035   4.815  0.6422  0.1084 -1.1104
 3162SOL    HW221120   0.210   1.982   4.889 -1.9419  0.1612 -0.4326
 3163SOL     OW21121   0.760   3.031  10.768 -0.0521  0.0743  0.3395
 3163SOL    HW121122   0.756   3.057  10.860  0.3648 -1.5579  0.8153
 3163SOL    HW221123   0.854   3.021  10.751 -0.2870 -2.6868  0.7146
 3164SOL     OW21124   1.317   0.398  13.176  0.2803  0.1074 -0.1557
 3164SOL    HW121125   1.330   0.454  13.252  0.5325  1.8688 -1.4836
 3164SOL    HW221126   1.252   0.457  13.138 -1.4997 -1.6986  0.1573
 3165SOL     OW21127   1.294   4.565   7.800 -0.5566  0.3932 -0.0652
 3165SOL    HW121128   1.377   4.608   7.817 -1.0706  1.1766  0.4160
 3165SOL    HW221129   1.232   4.601   7.863 -1.6747 -0.8387 -0.4415
 3166SOL     OW21130   0.354   3.655   3.161 -0.0261 -0.0913  0.0580
 3166SOL    HW121131   0.444   3.681   3.182  0.2457 -1.0672  0.0798
 3166SOL    HW221132   0.368   3.571   3.117  2.2291  0.6655 -0.6889
 3167SOL     OW21133   2.370   1.982   2.031 -0.4767  0.2465  0.2417
 3167SOL    HW121134   2.334   1.908   1.982  1.6999 -1.6711  1.5532
 3167SOL    HW221135   2.341   2.054   1.975 -1.4428 -0.8542 -0.6726
 3168SOL     OW21136   2.066   0.323  15.993  0.6804 -0.3202  0.4932
 3168SOL    HW121137   2.123   0.309  15.918 -0.2113  1.8387 -0.5735
 3168SOL    HW221138   2.120   0.298  16.068  1.1095 -0.9355 -0.0230
 3169SOL     OW21139   0.951   0.477   7.937 -0.1103 -0.2331  1.1838
 3169SOL    HW121140   0.908   0.433   7.864  0.3371 -0.8233  1.2752
 3169SOL    HW221141   0.880   0.470   8.000 -2.0332 -1.0555 -1.0848
 3170SOL     OW21142   0.952   2.188  10.265 -0.1127  1.0759 -0.4760
 3170SOL    HW121143   1.026   2.221  10.214  2.6835 -1.8282  1.7288
 3170SOL    HW221144   0.958   2.230  10.350 -2.7350  0.5736 -0.0491
 3171SOL     OW21145   2.388   2.513   3.394  0.7121  0.1346  0.5500
 3171SOL    HW121146   2.426   2.489   3.309 -1.4091  0.3497 -0.4374
 3171SOL    HW221147   2.452   2.573   3.432  0.2643  2.2973 -2.1018
 3172SOL     OW21148   1.906   0.463   4.481  0.3511 -0.5684 -0.1994
 3172SOL    HW121149   1.977   0.403   4.459  0.1354 -0.6616 -0.6579
 3172SOL    HW221150   1.860   0.411   4.546 -0.6990  0.7049  0.0726
 3173SOL     OW21151   0.796   3.174   4.361 -0.3437  0.4632  0.7736
 3173SOL    HW121152   0.855   3.133   4.425  0.8307 -1.2919 -1.4485
 3173SOL    HW221153   0.720   3.117   4.364  0.1579 -0.0951  3.0715
 3174SOL     OW21154   1.726   1.293   4.651  0.0072 -0.0663  0.5025
 3174SOL    HW121155   1.773   1.210   4.663 -1.2779 -0.9823 -0.7491
 3174SOL    HW221156   1.776   1.358   4.700 -0.4041 -1.0646  2.2528
 3175SOL     OW21157   3.082   2.310   3.292 -0.3742  0.7099  0.3844
 3175SOL    HW121158   3.036   2.354   3.221  0.5800  0.3035 -0.4741
 3175SOL    HW221159   3.154   2.371   3.308  0.0219  0.0874  1.0113
 3176SOL     OW21160   2.086   2.872   8.192 -0.4708 -0.3184 -0.1291
 3176SOL    HW121161   2.094   2.786   8.152 -2.7094 -0.4506 -0.3128
 3176SOL    HW221162   2.089   2.925   8.113 -0.9916  0.2416  0.2239
 3177SOL     OW21163   3.664   1.287  13.015  0.2920 -0.6066 -0.3240
 3177SOL    HW121164   3.605   1.322  12.949 -1.2821  1.6630  2.3015
 3177SOL    HW221165   3.599   1.234  13.061 -1.0821 -0.5611 -2.2380
 3178SOL     OW21166   0.746   4.182   1.521  0.0361  0.2960  0.1092
 3178SOL    HW121167   0.719   4.118   1.587 -0.2464 -0.8774 -1.1308
 3178SOL    HW221168   0.672   4.242   1.511  0.8916  0.9083 -2.6152
 3179SOL     OW21169   2.088   3.341   9.494  0.1274  0.1387  0.1009
 3179SOL    HW121170   2.124   3.379   9.574  1.3436 -2.5810  0.8103
 3179SOL    HW221171   2.050   3.261   9.530  0.9252  0.6162  2.0116
 3180SOL     OW21172   4.301   3.357   3.909  0.7817  0.4899 -0.5552
 3180SOL    HW121173   4.361   3.286   3.932  0.3169 -0.2548 -1.6036
 3180SOL    HW221174   4.230   3.322   3.855  0.1597 -0.7192  1.0377
 3181SOL     OW21175   0.617   0.056  11.241  0.6413  0.0820 -0.3809
 3181SOL    HW121176   0.622   4.704  11.200  0.7784  0.1737 -0.5535
 3181SOL    HW221177   0.542   0.042  11.299  0.3171 -0.8927 -1.0312
 3182SOL     OW21178   0.104   4.286   9.355  0.1530  0.3149  0.3323
 3182SOL    HW121179   0.024   4.338   9.357 -0.3571 -0.3764 -2.2340
 3182SOL    HW221180   0.123   4.283   9.261 -0.3751 -0.6679  0.2563
 3183SOL     OW21181   1.367   2.974   6.962 -0.2273  0.5730  0.2248
 3183SOL    HW121182   1.382   3.060   6.923 -1.3530  0.2563 -0.9072
 3183SOL    HW221183   1.283   2.995   7.001 -0.9222  0.1743 -1.0419
 3184SOL     OW21184   1.751   3.132   0.958  0.3568  0.0702 -0.6046
 3184SOL    HW121185   1.773   3.199   1.022  0.6383 -1.2130  0.6190
 3184SOL    HW221186   1.707   3.062   1.005  0.9197 -0.2574 -0.5733
 3185SOL     OW21187   1.299   1.955   8.771  0.7356 -0.5383  0.2521
 3185SOL    HW121188   1.237   2.018   8.808  0.0907 -0.7521 -0.4588
 3185SOL    HW221189   1.273   1.885   8.831 -1.6551 -1.4890 -1.8817
 3186SOL     OW21190   2.091   3.751   6.476  0.8844 -0.1612 -0.2595
 3186SOL    HW121191   2.169   3.788   6.518  1.2379  0.0849 -1.1287
 3186SOL    HW221192   2.037   3.830   6.470 -0.7715 -1.2285  0.4980
 3187SOL     OW21193   3.956   4.300   5.927 -0.4923 -0.2883  0.6721
 3187SOL    HW121194   4.017   4.372   5.942 -0.4339  0.2685 -2.4079
 3187SOL    HW221195   3.960   4.287   5.833 -0.9541  0.3579  0.5682
 3188SOL     OW21196   2.759   2.367   5.683 -0.2954 -0.2694  0.2918
 3188SOL    HW121197   2.751   2.455   5.646  1.9310 -0.6635 -1.1446
 3188SOL    HW221198   2.845   2.349   5.644 -1.0342 -1.2618 -0.8999
 3189SOL     OW21199   2.218   0.027  14.902 -0.5974 -0.6278  0.2035
 3189SOL    HW121200   2.268   4.711  14.837  2.4282  0.6788  1.5326
 3189SOL    HW221201   2.282   0.098  14.913  0.3558 -1.7662  1.9536
 3190SOL     OW21202   3.211   3.418   5.965 -0.0858  0.2059  0.1416
 3190SOL    HW121203   3.152   3.380   6.031 -2.9674 -0.5660 -2.8877
 3190SOL    HW221204   3.198   3.510   5.988  0.7962  0.6903 -1.3235
 3191SOL     OW21205   0.101   2.296   1.658 -0.3158  0.4553  0.2223
 3191SOL    HW121206   0.091   2.332   1.746  0.6000  1.3103 -0.0349
 3191SOL    HW221207   0.166   2.230   1.680  1.4297  2.6197  1.5392
 3192SOL     OW21208   1.637   2.972   3.103  0.1907  0.2597  0.4432
 3192SOL    HW121209   1.583   3.044   3.136 -0.8407  0.2399 -1.1912
 3192SOL    HW221210   1.699   2.946   3.171 -0.0315 -3.8574 -0.9086
 3193SOL     OW21211   2.693   0.148  11.820 -0.8487  0.2700  0.2159
 3193SOL    HW121212   2.779   0.148  11.863 -0.9653 -0.9164  0.4416
 3193SOL    HW221213   2.648   0.222  11.863 -2.9409  1.1579 -3.4552
 3194SOL     OW21214   1.768   1.168   5.086  0.1858 -0.8352 -0.1838
 3194SOL    HW121215   1.793   1.080   5.058  0.3295 -1.4640  1.9166
 3194SOL    HW221216   1.741   1.204   5.001  3.4829  0.3694 -0.7314
 3195SOL     OW21217   0.052   4.378  16.475  0.0530 -0.1615 -0.4285
 3195SOL    HW121218   4.696   4.392  16.444 -0.3158  0.1726  0.7766
 3195SOL    HW221219   0.079   4.306  16.418 -1.3455  0.4862 -1.8950
 3196SOL     OW21220   0.582   3.561   3.520  0.2152 -0.4676  0.6743
 3196SOL    HW121221   0.495   3.520   3.523 -0.7301  1.5909  1.3494
 3196SOL    HW221222   0.638   3.485   3.537  0.4295 -0.3503  0.4840
 3197SOL     OW21223   1.986   0.055   3.947 -0.2107 -0.3157 -0.3703
 3197SOL    HW121224   1.918   0.062   4.014  1.9495 -1.6001  1.9582
 3197SOL    HW221225   1.999   0.149   3.935  0.6920 -0.1813  1.6367
 3198SOL     OW21226   3.079   3.764  12.198  0.1923 -0.5443 -0.0511
 3198SOL    HW121227   3.159   3.713  12.194  0.3416 -0.2749 -0.4070
 3198SOL    HW221228   3.117   3.847  12.170 -2.0707  0.4883 -0.1300
 3199SOL     OW21229   4.206   3.052   5.658  0.3844 -0.4649  0.3927
 3199SOL    HW121230   4.220   2.994   5.583  0.7527  0.3004 -0.1161
 3199SOL    HW221231   4.122   3.093   5.637  0.9938  0.6309  0.1431
 3200SOL     OW21232   3.786   1.642   4.988 -0.0634 -0.5972 -0.4471
 3200SOL    HW121233   3.699   1.670   5.016  0.0827  0.9465 -1.5655
 3200SOL    HW221234   3.803   1.579   5.057  0.0878 -0.2318 -0.1551
 3201SOL     OW21235   2.995   2.391   2.055  0.0916 -0.1737 -0.3667
 3201SOL    HW121236   3.032   2.312   2.017  2.1308  0.4752  0.2457
 3201SOL    HW221237   3.060   2.455   2.026 -1.2966  0.5047 -1.9278
 3202SOL     OW21238   0.777   3.128   6.017  0.1654  0.1966  0.3579
 3202SOL    HW121239   0.694   3.083   6.029  0.2518  0.5540  2.4063
 3202SOL    HW221240   0.831   3.101   6.092 -0.5238  0.1416  0.8351
 3203SOL     OW21241   4.022   3.559  10.837  0.2984 -0.0850  0.0622
 3203SOL    HW121242   4.044   3.548  10.929  1.7605 -2.0777 -0.5353
 3203SOL    HW221243   4.100   3.607  10.807  0.0605 -1.6882 -3.1434
 3204SOL     OW21244   1.443   0.116   0.193 -0.2661  0.1777  0.9618
 3204SOL    HW121245   1.470   0.129   0.284  0.8780  0.4746  0.5801
 3204SOL    HW221246   1.387   0.194   0.189 -0.5186 -0.0161  0.6765
 3205SOL     OW21247   3.710   2.544  10.487  0.7398 -0.5511  0.5390
 3205SOL    HW121248   3.779   2.575  10.546 -0.9934 -1.0762  2.8194
 3205SOL    HW221249   3.647   2.615  10.494  1.0317 -0.2673  0.3227
 3206SOL     OW21250   4.313   1.160   5.685 -0.1669 -0.0875 -0.0362
 3206SOL    HW121251   4.307   1.091   5.619  2.1289  2.5595 -3.0428
 3206SOL    HW221252   4.334   1.235   5.628  0.8647  1.4865  2.4197
 3207SOL     OW21253   3.697   1.532   7.100  0.0802 -0.7115  0.5519
 3207SOL    HW121254   3.745   1.449   7.094  0.3277 -0.4686 -0.6857
 3207SOL    HW221255   3.606   1.503   7.107  0.0515 -0.3375  1.7194
 3208SOL     OW21256   0.350   3.149   1.275 -0.2289  0.2843 -0.3800
 3208SOL    HW121257   0.285   3.220   1.276 -2.3978 -1.6991  0.1570
 3208SOL    HW221258   0.329   3.103   1.194 -2.8146  1.4139 -0.3553
 3209SOL     OW21259   2.834   4.096   5.628 -0.3486 -0.1097 -0.3757
 3209SOL    HW121260   2.875   4.014   5.657 -2.9887 -1.6600 -1.0013
 3209SOL    HW221261   2.848   4.155   5.702 -2.3088 -0.5199  0.3227
 3210SOL     OW21262   0.273   4.348   9.565 -0.3241 -0.0881 -0.2977
 3210SOL    HW121263   0.212   4.356   9.491 -0.6653 -0.2325 -0.0315
 3210SOL    HW221264   0.331   4.406   9.516  1.9174 -2.9769 -1.0737
 3211SOL     OW21265   4.263   0.009  17.168 -0.2847 -0.6666 -0.6873
 3211SOL    HW121266   4.207   4.705  17.101  0.0831 -2.0049 -0.2344
 3211SOL    HW221267   4.319   0.065  17.114 -0.7722 -0.1685 -0.6792
 3212SOL     OW21268   3.574   4.504   3.540 -0.3598 -0.1024  0.3274
 3212SOL    HW121269   3.569   4.413   3.569 -2.5959 -0.1701 -0.2883
 3212SOL    HW221270   3.636   4.495   3.468 -1.1768 -1.1625 -0.2472
 3213SOL     OW21271   3.838   3.584   6.410  0.3015 -0.4852 -0.1636
 3213SOL    HW121272   3.869   3.674   6.422  2.0816 -1.0742 -0.4998
 3213SOL    HW221273   3.921   3.538   6.409 -0.1743 -1.3355 -1.0478
 3214SOL     OW21274   3.964   0.278   7.302  0.3156 -0.0065 -0.2410
 3214SOL    HW121275   3.873   0.270   7.329 -0.0419  1.1236 -1.1209
 3214SOL    HW221276   3.968   0.369   7.273 -0.6741  0.4914  1.2220
 3215SOL     OW21277   0.612   1.104   4.713  0.4102 -0.2888  0.6261
 3215SOL    HW121278   0.607   1.037   4.645  3.4323 -0.3707  0.5089
 3215SOL    HW221279   0.620   1.055   4.795  2.2291 -0.9812  0.0243
 3216SOL     OW21280   2.083   4.332   5.779 -0.1486  0.0746  0.1302
 3216SOL    HW121281   2.057   4.384   5.854 -1.6151 -1.1052  0.4537
 3216SOL    HW221282   2.167   4.371   5.756 -0.1746  0.5070  0.7702
 3217SOL     OW21283   4.400   1.981   1.251 -0.4012  0.3489  0.4254
 3217SOL    HW121284   4.443   2.007   1.333 -1.3661  2.0889  0.3766
 3217SOL    HW221285   4.351   2.056   1.219 -1.8733  0.1678  2.1995
 3218SOL     OW21286   2.211   2.492   9.989 -0.1239  0.5248  0.0696
 3218SOL    HW121287   2.152   2.552  10.034 -1.0403 -1.5606  1.6449
 3218SOL    HW221288   2.234   2.554   9.920  1.4539 -1.0936 -0.8632
 3219SOL     OW21289   0.586   3.375   3.116 -0.1992  0.1914  0.0962
 3219SOL    HW121290   0.594   3.447   3.053 -2.8330  0.1287 -0.3012
 3219SOL    HW221291   0.492   3.369   3.133  0.3216 -1.7294  2.2421
 3220SOL     OW21292   2.988   1.181   1.429  0.0869  0.0919 -0.3591
 3220SOL    HW121293   2.896   1.203   1.418 -0.4679 -1.3961  1.1531
 3220SOL    HW221294   3.010   1.148   1.342  1.1538 -1.4774  0.5085
 3221SOL     OW21295   3.532   3.284  12.029  0.4192 -0.1102 -0.1487
 3221SOL    HW121296   3.508   3.195  12.054  1.0464 -0.3173 -0.2987
 3221SOL    HW221297   3.613   3.295  12.079  0.2916  1.6787 -0.3336
 3222SOL     OW21298   1.808   3.306  13.783  0.0876 -0.7754  0.7906
 3222SOL    HW121299   1.787   3.214  13.770 -0.2621 -0.7024  0.8222
 3222SOL    HW221300   1.897   3.316  13.750 -0.8874 -1.5564 -2.0370
 3223SOL     OW21301   3.605   4.222   1.038 -0.1231 -0.2116  0.0121
 3223SOL    HW121302   3.691   4.181   1.045 -0.5367 -0.7362  2.0450
 3223SOL    HW221303   3.565   4.193   1.120 -0.7263 -2.5481 -1.1129
 3224SOL     OW21304   3.235   3.067  15.302 -0.2778  0.4560 -0.3805
 3224SOL    HW121305   3.240   2.995  15.366 -0.2870  1.0078  0.2399
 3224SOL    HW221306   3.330   3.079  15.297 -0.4948  2.2269 -0.1691
 3225SOL     OW21307   1.234   2.625   4.634  0.4992  0.4147  0.1633
 3225SOL    HW121308   1.297   2.576   4.580  0.2090 -0.1112  0.3032
 3225SOL    HW221309   1.259   2.608   4.724 -2.1106  3.1444  1.3971
 3226SOL     OW21310   2.407   0.301   2.747  0.5938  0.1380  0.2304
 3226SOL    HW121311   2.335   0.360   2.724  0.2937 -0.6836 -0.9504
 3226SOL    HW221312   2.375   0.255   2.824  3.8835  0.6515  1.8824
 3227SOL     OW21313   1.737   3.410  13.411  0.5473  0.4369 -0.2097
 3227SOL    HW121314   1.719   3.362  13.331  1.0225  1.5070 -0.9616
 3227SOL    HW221315   1.790   3.344  13.455 -0.1937 -0.4770 -0.6967
 3228SOL     OW21316   3.647   4.523   6.523 -0.5256  0.5075 -0.8914
 3228SOL    HW121317   3.684   4.542   6.609  0.0750 -0.5740 -0.9021
 3228SOL    HW221318   3.716   4.545   6.461 -1.4064  1.9687 -1.3467
 3229SOL     OW21319   1.334   3.654   7.800 -0.2485 -0.5719  0.0577
 3229SOL    HW121320   1.362   3.571   7.837 -1.2695  0.8184  3.9982
 3229SOL    HW221321   1.374   3.639   7.715  0.9346 -0.4471  0.5936
 3230SOL     OW21322   1.439   1.327  16.286 -0.1691 -0.1568 -0.5232
 3230SOL    HW121323   1.514   1.314  16.228 -2.2359  0.2069 -3.2929
 3230SOL    HW221324   1.378   1.261  16.252  1.6957 -2.0765 -0.1478
 3231SOL     OW21325   1.498   0.561  14.553  0.3627  0.1642 -0.0524
 3231SOL    HW121326   1.502   0.517  14.468 -0.6521 -0.7166  0.3601
 3231SOL    HW221327   1.553   0.503  14.605  2.0303  2.2782  0.5398
 3232SOL     OW21328   0.093   3.805   5.676 -0.0195  0.6091 -0.1279
 3232SOL    HW121329   0.042   3.760   5.609 -0.1164  1.4686 -0.6225
 3232SOL    HW221330   0.120   3.887   5.634  0.4745  1.0959  1.1205
 3233SOL     OW21331   2.296   1.375   1.632  0.4716 -0.0590 -0.2850
 3233SOL    HW121332   2.264   1.363   1.543  0.6984 -0.5648 -0.3002
 3233SOL    HW221333   2.255   1.302   1.679  0.5965  0.6616  0.9628
 3234SOL     OW21334   0.177   2.581  11.055 -0.0195 -0.3915  0.0589
 3234SOL    HW121335   0.202   2.654  11.111  0.6363 -0.1617 -0.5341
 3234SOL    HW221336   0.264   2.541  11.051  0.4374  0.7087 -1.0671
 3235SOL     OW21337   2.243   1.218  12.021 -0.4105  0.2821  0.6993
 3235SOL    HW121338   2.244   1.122  12.019  2.0985  0.3876 -1.9819
 3235SOL    HW221339   2.216   1.228  12.113 -0.4563  1.0161  0.6050
 3236SOL     OW21340   1.261   1.943   9.786  0.1244  0.0602  0.2474
 3236SOL    HW121341   1.327   1.885   9.826  1.8257 -0.6763 -3.6538
 3236SOL    HW221342   1.328   2.000   9.749 -0.9081  2.1914  1.6874
 3237SOL     OW21343   3.149   4.011   6.573 -0.0433 -0.3013 -0.5535
 3237SOL    HW121344   3.121   4.098   6.543  0.5108  0.1157  0.1314
 3237SOL    HW221345   3.243   4.011   6.556  0.2821  2.0924  1.1874
 3238SOL     OW21346   3.504   4.116   1.473  0.1560  0.4544 -0.0678
 3238SOL    HW121347   3.425   4.074   1.508  0.4364 -0.9416 -1.1147
 3238SOL    HW221348   3.528   4.164   1.552  1.0074  0.2277 -0.1852
 3239SOL     OW21349   4.394   2.461  14.471  0.5516 -0.0537 -0.9889
 3239SOL    HW121350   4.431   2.520  14.405  1.7617  1.9988  1.5157
 3239SOL    HW221351   4.390   2.520  14.546 -1.5829  1.3383 -2.1812
 3240SOL     OW21352   1.272   3.128   5.287 -0.5210  0.2865 -0.1574
 3240SOL    HW121353   1.300   3.039   5.270 -1.0181  0.1128 -0.0582
 3240SOL    HW221354   1.305   3.183   5.216  2.2463  0.4606  1.2747
 3241SOL     OW21355   3.692   0.299   7.353  0.6858 -0.3912 -0.6656
 3241SOL    HW121356   3.666   0.211   7.379  0.4467  0.1479  0.8891
 3241SOL    HW221357   3.623   0.357   7.385  0.8993 -0.3040 -0.3647
 3242SOL     OW21358   3.282   3.025  13.313  0.5728 -0.1158  0.2344
 3242SOL    HW121359   3.227   3.003  13.238  1.3418  5.1298 -1.8896
 3242SOL    HW221360   3.231   3.066  13.383 -0.5217  0.9026 -1.1596
 3243SOL     OW21361   0.958   3.551   3.375 -0.3586  0.2254  0.4999
 3243SOL    HW121362   1.011   3.472   3.377 -1.9339 -0.8184  1.0247
 3243SOL    HW221363   1.010   3.615   3.425 -1.4845  1.7435 -0.2718
 3244SOL     OW21364   4.389   3.363  17.129  0.6973 -0.0824 -0.3924
 3244SOL    HW121365   4.408   3.457  17.128 -1.1133  0.2447 -2.4224
 3244SOL    HW221366   4.369   3.338  17.039 -0.7023 -1.4828  0.3138
 3245SOL     OW21367   1.528   0.658   1.191 -0.3431  0.3838 -0.5146
 3245SOL    HW121368   1.606   0.609   1.214  0.1083  2.3109  2.1943
 3245SOL    HW221369   1.477   0.588   1.150 -0.4438  2.0430 -3.2381
 3246SOL     OW21370   4.554   3.091   6.668 -0.1354  0.0266  0.8106
 3246SOL    HW121371   4.537   3.067   6.759  0.3363  1.1457  1.1940
 3246SOL    HW221372   4.470   3.133   6.652 -0.1476 -1.1259 -2.0516
 3247SOL     OW21373   0.360   1.142   3.638 -0.2971  0.2066  0.7080
 3247SOL    HW121374   0.301   1.198   3.588  0.2380  0.2713  0.1371
 3247SOL    HW221375   0.377   1.207   3.705  0.8428  1.3853 -0.7162
 3248SOL     OW21376   0.872   1.835   5.393  0.0368 -0.1494  0.1891
 3248SOL    HW121377   0.937   1.775   5.430 -0.5640 -0.3250  0.9539
 3248SOL    HW221378   0.891   1.843   5.299 -1.1568  2.3114  0.1629
 3249SOL     OW21379   4.031   0.976  12.503 -0.3653  0.7393  0.2205
 3249SOL    HW121380   4.084   1.010  12.431  0.6839 -2.3011 -0.4432
 3249SOL    HW221381   4.013   1.052  12.559  1.0237  1.2060  0.0328
 3250SOL     OW21382   3.449   1.424   7.435 -0.1997 -0.6483  0.6256
 3250SOL    HW121383   3.373   1.482   7.434  0.4413  0.2043  1.5142
 3250SOL    HW221384   3.436   1.359   7.366 -1.5435 -1.5037  1.6656
 3251SOL     OW21385   2.766   1.468   2.871 -0.3847 -0.4476  0.5630
 3251SOL    HW121386   2.679   1.477   2.831 -0.0607  1.2835  0.2439
 3251SOL    HW221387   2.815   1.488   2.790  2.9007 -3.1733  1.8562
 3252SOL     OW21388   4.579   1.121   5.243  0.0765  0.3268  0.0463
 3252SOL    HW121389   4.538   1.207   5.250 -3.0865 -1.1962 -0.0527
 3252SOL    HW221390   4.538   1.085   5.164 -0.0771 -1.3303  0.8743
 3253SOL     OW21391   4.698   0.680   7.305 -0.0549  0.0565 -0.1543
 3253SOL    HW121392   4.663   0.769   7.308  0.1655  0.1791 -1.5079
 3253SOL    HW221393   0.037   0.679   7.368  1.3602  1.9020 -1.7515
 3254SOL     OW21394   2.549   0.266   5.557  0.5154  0.0905 -0.2280
 3254SOL    HW121395   2.552   0.194   5.493  0.7832 -1.0316  1.0501
 3254SOL    HW221396   2.615   0.325   5.521  0.9430  0.6853  1.5480
 3255SOL     OW21397   0.664   0.281  12.864 -1.1236  0.2118 -0.0993
 3255SOL    HW121398   0.660   0.297  12.769  0.0467  0.3368 -0.1314
 3255SOL    HW221399   0.591   0.221  12.877  0.2920 -1.3476  0.5806
 3256SOL     OW21400   4.366   2.767   5.222  0.3296  0.4493 -0.3343
 3256SOL    HW121401   4.398   2.704   5.286 -1.6629  1.1439  1.3321
 3256SOL    HW221402   4.304   2.720   5.166 -1.0578 -0.7534  2.2089
 3257SOL     OW21403   1.348   3.957   5.724 -0.7786  0.2926 -0.2344
 3257SOL    HW121404   1.378   3.965   5.633  0.8206 -0.4786  0.2150
 3257SOL    HW221405   1.410   4.014   5.772 -1.3554 -0.2843  1.1975
 3258SOL     OW21406   3.328   3.891   1.302  0.4274 -0.0142  0.1881
 3258SOL    HW121407   3.300   3.840   1.378  1.4350  1.0574  1.2697
 3258SOL    HW221408   3.240   3.916   1.272  0.3568  0.2107  0.5878
 3259SOL     OW21409   0.486   0.726   5.857  0.2258  0.0419  0.5721
 3259SOL    HW121410   0.507   0.700   5.947  0.7038 -0.1278  0.4128
 3259SOL    HW221411   0.451   0.810   5.888  0.9939  1.0212 -1.2263
 3260SOL     OW21412   0.982   3.014  12.714 -0.0946  1.0088  0.2673
 3260SOL    HW121413   0.934   2.944  12.757 -2.6320  1.7768 -1.2890
 3260SOL    HW221414   1.073   2.988  12.728 -0.3324  1.2814  2.2703
 3261SOL     OW21415   2.567   0.201  16.596  0.8253 -0.5330 -0.2141
 3261SOL    HW121416   2.516   0.273  16.559  1.1770  0.8900  2.0688
 3261SOL    HW221417   2.551   0.208  16.690  2.0167  0.7112 -0.1001
 3262SOL     OW21418   0.440   3.303   8.041  0.2042 -0.5432 -0.7233
 3262SOL    HW121419   0.438   3.326   8.134 -1.6892  0.6489 -1.0747
 3262SOL    HW221420   0.500   3.367   8.003 -0.7889  0.1317 -1.1525
 3263SOL     OW21421   2.311   3.691  16.397  0.1076 -0.1658 -0.1843
 3263SOL    HW121422   2.343   3.602  16.382 -1.7435 -1.1299  1.6542
 3263SOL    HW221423   2.349   3.703  16.484  0.2514  2.0399 -0.5550
 3264SOL     OW21424   2.022   0.305   5.261 -0.5669 -0.4666  0.2623
 3264SOL    HW121425   2.072   0.246   5.205 -1.0826  0.9107 -1.6668
 3264SOL    HW221426   1.940   0.264   5.233 -1.0842 -0.4131  1.7059
 3265SOL     OW21427   1.080   2.401   6.288 -0.0923  0.1111 -0.2334
 3265SOL    HW121428   1.009   2.340   6.265 -1.1582  1.0858  0.5148
 3265SOL    HW221429   1.052   2.476   6.235 -0.0455  0.3567  0.0919
 3266SOL     OW21430   1.661   1.569   6.051  0.3904 -0.4349 -0.4010
 3266SOL    HW121431   1.665   1.474   6.036  2.5287 -0.5513  0.8852
 3266SOL    HW221432   1.753   1.584   6.074  0.2704  0.4893 -0.5383
 3267SOL     OW21433   4.056   2.706   6.622  0.2735  0.4057  0.0905
 3267SOL    HW121434   4.130   2.765   6.635  0.5578 -0.3089  1.7033
 3267SOL    HW221435   4.009   2.693   6.704  1.3937  0.2622  0.6963
 3268SOL     OW21436   3.369   3.535   3.694  0.3900 -0.0048  0.1585
 3268SOL    HW121437   3.336   3.447   3.675  0.9744 -0.2135  0.1302
 3268SOL    HW221438   3.372   3.568   3.604 -3.3210 -0.3821 -0.1024
 3269SOL     OW21439   0.067   0.170   4.579 -0.1069  0.7735 -0.0485
 3269SOL    HW121440   0.046   0.077   4.589  0.2904  0.8271  1.3609
 3269SOL    HW221441   4.730   0.190   4.519 -0.0519  2.3897  0.4356
 3270SOL     OW21442   0.730   2.924   4.489 -0.6695 -0.1603 -0.1105
 3270SOL    HW121443   0.802   2.888   4.540 -0.7832 -0.2791 -0.0330
 3270SOL    HW221444   0.657   2.880   4.534 -1.5172  0.0740 -1.2839
 3271SOL     OW21445   3.445   2.584   5.852  0.0509  0.3272  0.3604
 3271SOL    HW121446   3.428   2.519   5.920  1.0974  0.1427  0.4433
 3271SOL    HW221447   3.482   2.657   5.903 -0.4735  1.1128 -0.3902
 3272SOL     OW21448   4.381   1.733  16.143 -0.1901 -0.5171  0.1603
 3272SOL    HW121449   4.372   1.767  16.054 -1.7647 -0.0613  0.5048
 3272SOL    HW221450   4.361   1.809  16.198  0.1283 -0.4509  0.1879
 3273SOL     OW21451   0.564   0.513   1.273 -0.4200  0.0203  0.1687
 3273SOL    HW121452   0.540   0.442   1.214 -2.9273 -0.9807  2.4076
 3273SOL    HW221453   0.657   0.502   1.252 -0.2483 -0.2565  1.0543
 3274SOL     OW21454   3.317   3.258  12.276 -0.0316 -0.2893 -0.3336
 3274SOL    HW121455   3.314   3.163  12.269 -1.1229 -0.1388 -2.1746
 3274SOL    HW221456   3.390   3.266  12.337 -0.2527 -0.3533 -0.0601
 3275SOL     OW21457   4.301   0.435   3.390 -0.2469 -0.5340  0.1021
 3275SOL    HW121458   4.370   0.414   3.453  2.9306  3.6326 -1.9636
 3275SOL    HW221459   4.341   0.504   3.336 -0.6493 -0.7987 -0.5361
 3276SOL     OW21460   3.008   1.357  12.013  0.6010 -0.3014  0.3563
 3276SOL    HW121461   3.047   1.403  11.938  0.9441  0.7379  1.1685
 3276SOL    HW221462   3.088   1.334  12.061  1.0134  0.1464 -0.1169
 3277SOL     OW21463   3.975   3.539  13.311 -0.2601 -0.1683 -0.1226
 3277SOL    HW121464   4.051   3.583  13.351  0.0408 -0.5062 -0.3227
 3277SOL    HW221465   3.910   3.555  13.379  1.2758  1.1017  1.0580
 3278SOL     OW21466   0.914   4.275  11.771  0.1622  0.5803  0.0602
 3278SOL    HW121467   0.958   4.292  11.688 -1.3557 -0.0534 -0.8679
 3278SOL    HW221468   0.839   4.227  11.736  1.6012 -0.0829 -2.1095
 3279SOL     OW21469   1.450   0.966   6.205 -0.1248 -0.4490 -0.2678
 3279SOL    HW121470   1.424   0.969   6.297 -1.0865  2.6377 -0.6578
 3279SOL    HW221471   1.410   0.884   6.175  1.2696 -1.2986  0.2229
 3280SOL     OW21472   3.361   2.312   3.498 -0.2800  0.0514  0.2771
 3280SOL    HW121473   3.442   2.360   3.516 -1.1017  1.1180  1.0689
 3280SOL    HW221474   3.336   2.358   3.418  1.2024  1.7208  0.7581
 3281SOL     OW21475   2.714   3.451  14.933 -0.6364  0.1980 -0.1342
 3281SOL    HW121476   2.716   3.529  14.877  2.5412 -0.2243 -0.6166
 3281SOL    HW221477   2.727   3.492  15.018  0.2716  0.9031 -0.6161
 3282SOL     OW21478   0.007   4.206  12.670 -0.1141  0.5142 -0.2458
 3282SOL    HW121479   4.712   4.128  12.717  0.7829 -0.0339 -0.6159
 3282SOL    HW221480   4.715   4.181  12.582  0.2341  1.4155 -0.6049
 3283SOL     OW21481   1.005   1.076   2.105 -0.3521 -0.1347 -0.2161
 3283SOL    HW121482   1.028   1.151   2.160 -2.5835  0.6972 -0.3881
 3283SOL    HW221483   0.977   1.121   2.025 -0.1287 -1.7110 -1.1817
 3284SOL     OW21484   4.268   3.249   7.248 -0.5048 -0.3075 -0.5755
 3284SOL    HW121485   4.202   3.317   7.232 -1.7244 -1.4397 -0.4132
 3284SOL    HW221486   4.292   3.229   7.157  0.1340  2.1327 -0.9413
 3285SOL     OW21487   2.142   1.542   4.315  0.4953  0.0032 -0.2708
 3285SOL    HW121488   2.151   1.461   4.367 -0.6578  0.2968  0.3871
 3285SOL    HW221489   2.234   1.567   4.321  0.0943  1.2800  0.5670
 3286SOL     OW21490   1.714   3.703   1.331 -0.2150  0.3513  0.2431
 3286SOL    HW121491   1.620   3.709   1.351 -0.5915 -0.9751 -1.1328
 3286SOL    HW221492   1.746   3.691   1.421  1.4804  0.1734 -0.3864
 3287SOL     OW21493   3.734   4.151   8.227 -0.4989  0.3454  0.4416
 3287SOL    HW121494   3.736   4.231   8.279  0.4731  0.1204  0.7382
 3287SOL    HW221495   3.791   4.090   8.273 -0.4741 -0.3669 -0.5097
 3288SOL     OW21496   1.036   2.106   6.587  0.1592  0.7473 -0.1874
 3288SOL    HW121497   1.103   2.157   6.542  3.0818 -0.8110  2.4152
 3288SOL    HW221498   0.977   2.079   6.518 -1.7722 -1.2108  2.2281
 3289SOL     OW21499   2.438   0.863   1.589  0.6707 -0.0773  0.1351
 3289SOL    HW121500   2.533   0.849   1.586  0.4964 -1.7700  2.5194
 3289SOL    HW221501   2.411   0.835   1.677 -0.1468  0.9084  0.1973
 3290SOL     OW21502   3.501   1.480   5.118  0.1080 -0.2021  0.2342
 3290SOL    HW121503   3.465   1.524   5.041  0.1489  2.4927  1.7606
 3290SOL    HW221504   3.417   1.439   5.138  0.7407 -1.5980  0.0403
 3291SOL     OW21505   1.437   1.170  14.909 -0.2081 -0.4105 -0.2730
 3291SOL    HW121506   1.413   1.257  14.879  0.8475 -0.3392 -0.9223
 3291SOL    HW221507   1.522   1.198  14.943  0.1422 -1.7188 -0.0564
 3292SOL     OW21508   0.893   2.435  10.771  0.0021 -0.1346  0.2094
 3292SOL    HW121509   0.926   2.502  10.830 -2.2032  2.0237 -1.0131
 3292SOL    HW221510   0.853   2.378  10.837  1.0054 -2.6269 -1.3300
 3293SOL     OW21511   3.998   2.275   5.658  0.1276 -0.4325  0.1145
 3293SOL    HW121512   4.024   2.346   5.716  0.3171  2.1847 -3.1473
 3293SOL    HW221513   3.962   2.219   5.727  0.3640 -0.5557  0.1362
 3294SOL     OW21514   1.571   0.562   6.429 -0.3755 -0.0179 -0.2804
 3294SOL    HW121515   1.552   0.630   6.493  0.9839 -0.0426  0.1470
 3294SOL    HW221516   1.497   0.503   6.415 -2.0335  1.4949  2.2037
 3295SOL     OW21517   3.053   3.034   5.553  0.0112  0.2343 -0.2736
 3295SOL    HW121518   2.998   3.046   5.475 -0.4744 -0.2829 -0.0100
 3295SOL    HW221519   2.983   3.028   5.618  0.1561  2.1874  0.0775
 3296SOL     OW21520   0.404   2.656  13.581  0.2968 -0.1289 -0.0296
 3296SOL    HW121521   0.327   2.681  13.633 -0.7904  3.5937 -3.4301
 3296SOL    HW221522   0.415   2.566  13.613 -1.9905 -0.5231 -0.3171
 3297SOL     OW21523   3.769   3.594  11.191 -0.1556  0.3760 -0.5153
 3297SOL    HW121524   3.807   3.681  11.201  0.3800  0.2284 -1.3101
 3297SOL    HW221525   3.730   3.577  11.277 -0.9193  1.1539 -0.7061
 3298SOL     OW21526   1.843   0.680   2.228 -0.0853 -0.3589 -0.4735
 3298SOL    HW121527   1.807   0.762   2.262  3.3248  0.9133  0.1267
 3298SOL    HW221528   1.780   0.619   2.265  0.9925 -1.4818 -0.5054
 3299SOL     OW21529   3.022   1.313   5.573 -0.2809 -0.1946  0.0161
 3299SOL    HW121530   2.965   1.382   5.537  0.9579 -0.7073 -2.9541
 3299SOL    HW221531   2.975   1.246   5.523  1.9286 -0.6687 -1.4264
 3300SOL     OW21532   0.014   4.241   6.925  0.6484 -0.7698  0.4476
 3300SOL    HW121533   4.705   4.267   6.844  0.4549 -0.7251  0.5655
 3300SOL    HW221534   4.698   4.272   7.000  0.4692  1.8794 -0.7953
 3301SOL     OW21535   1.401   4.290   6.418  0.3398  0.0912 -0.3822
 3301SOL    HW121536   1.375   4.381   6.437  0.7981  0.1024  0.1913
 3301SOL    HW221537   1.481   4.293   6.472 -0.2040 -2.7261  0.5411
 3302SOL     OW21538   0.176   0.420  15.832 -0.1174  0.6214 -0.0748
 3302SOL    HW121539   0.101   0.446  15.886 -0.2019 -0.0128  0.1059
 3302SOL    HW221540   0.128   0.354  15.783  0.9370 -2.0780  2.5568
 3303SOL     OW21541   1.383   1.441  16.742  0.2732 -0.0345 -0.1520
 3303SOL    HW121542   1.467   1.396  16.749 -0.8065 -1.9398  0.6957
 3303SOL    HW221543   1.392   1.461  16.649  0.0965 -1.1110 -0.4062
 3304SOL     OW21544   1.473   2.711   7.731  0.9137  0.3261 -0.0565
 3304SOL    HW121545   1.400   2.746   7.783  1.2552  0.3462  0.4023
 3304SOL    HW221546   1.461   2.616   7.729 -3.6950  0.8846  0.0640
 3305SOL     OW21547   0.102   1.268   3.141 -0.6139  0.1466 -0.0608
 3305SOL    HW121548   0.058   1.350   3.162 -0.4205  0.2189  0.0668
 3305SOL    HW221549   0.192   1.271   3.175 -1.0066  0.0270  0.9882
 3306SOL     OW21550   1.858   4.327   3.625 -0.1988 -0.3158 -0.1026
 3306SOL    HW121551   1.789   4.286   3.574 -1.5187 -0.8973  2.2119
 3306SOL    HW221552   1.843   4.306   3.717 -0.6542 -0.5598 -0.2332
 3307SOL     OW21553   4.031   4.039  16.565  0.0661 -0.1916  0.3109
 3307SOL    HW121554   4.054   4.095  16.491 -0.5282 -1.0250 -0.5006
 3307SOL    HW221555   3.950   3.997  16.536  0.2839  2.0950 -3.6013
 3308SOL     OW21556   4.462   0.671   7.925  0.4361  0.6398  0.5812
 3308SOL    HW121557   4.456   0.689   7.831  1.2583 -1.1499  0.1798
 3308SOL    HW221558   4.372   0.682   7.955 -1.3771 -2.7122 -3.5086
 3309SOL     OW21559   1.306   1.606  14.422  0.3393 -0.0784 -0.5771
 3309SOL    HW121560   1.293   1.527  14.475 -0.9062  1.2591  1.1265
 3309SOL    HW221561   1.217   1.636  14.403 -0.9732 -3.4407  0.2535
 3310SOL     OW21562   0.492   1.098  15.095 -0.8485  0.4467 -0.0536
 3310SOL    HW121563   0.536   1.020  15.060 -1.1500  0.9878 -1.6556
 3310SOL    HW221564   0.525   1.173  15.046 -1.0023  0.1601 -0.6093
 3311SOL     OW21565   2.181   1.576   4.712 -0.1578 -0.4237 -0.7484
 3311SOL    HW121566   2.233   1.497   4.699  1.9959  0.7748  0.5470
 3311SOL    HW221567   2.227   1.602   4.792 -1.8765  2.2939 -0.6701
 3312SOL     OW21568   2.482   3.299   3.760  0.5856 -0.3750 -0.6549
 3312SOL    HW121569   2.457   3.208   3.746  1.7638 -0.6114 -1.2214
 3312SOL    HW221570   2.575   3.288   3.781  1.0933  0.9963 -2.1259
 3313SOL     OW21571   0.976   1.649  14.561 -0.0212  0.9326 -0.0023
 3313SOL    HW121572   0.980   1.665  14.655  0.4551  0.6518  0.0221
 3313SOL    HW221573   0.918   1.720  14.532 -2.2840 -0.7136  0.4703
 3314SOL     OW21574   1.135   4.207   4.431  0.3269  0.2352 -0.3013
 3314SOL    HW121575   1.183   4.146   4.374  0.5063 -0.8102  0.9553
 3314SOL    HW221576   1.190   4.200   4.509 -0.4701 -3.0432 -0.0312
 3315SOL     OW21577   4.198   4.495   5.647  0.0432 -0.0813  0.3670
 3315SOL    HW121578   4.132   4.460   5.587  2.2965 -0.3789 -1.9169
 3315SOL    HW221579   4.281   4.450   5.638 -0.2409 -0.4499 -0.4039
 3316SOL     OW21580   4.317   3.793  14.165 -0.3289 -0.0307 -0.6627
 3316SOL    HW121581   4.382   3.862  14.151  0.4682 -0.7025 -0.2433
 3316SOL    HW221582   4.231   3.835  14.173 -0.8321 -1.2406  0.2037
 3317SOL     OW21583   0.717   0.973   6.018 -0.1104  0.1502  0.1062
 3317SOL    HW121584   0.635   0.967   5.969  0.6529  0.1742 -1.1698
 3317SOL    HW221585   0.716   1.063   6.051  0.7171 -1.0531  3.4097
 3318SOL     OW21586   0.845   1.730   8.708 -0.4655  0.1851 -0.2502
 3318SOL    HW121587   0.780   1.683   8.761  0.0466 -0.3435 -0.0921
 3318SOL    HW221588   0.929   1.719   8.754 -0.6206 -2.4115 -0.5498
 3319SOL     OW21589   2.612   2.610   4.986 -0.1781 -0.2223  0.3153
 3319SOL    HW121590   2.656   2.671   4.927 -0.0725  0.5241  1.1582
 3319SOL    HW221591   2.553   2.560   4.930 -1.9762  1.1237  0.9933
 3320SOL     OW21592   3.522   2.853   4.688 -0.1709  0.2090 -0.5813
 3320SOL    HW121593   3.472   2.779   4.722  1.5168  0.0542  1.5707
 3320SOL    HW221594   3.588   2.862   4.756 -2.2471 -0.2219  1.4842
 3321SOL     OW21595   0.369   0.709   1.393 -0.1298 -0.3591  0.5621
 3321SOL    HW121596   0.439   0.652   1.363 -1.6579 -1.5668 -0.6825
 3321SOL    HW221597   0.317   0.640   1.435  1.7792 -2.0291  0.1594
 3322SOL     OW21598   3.034   4.001  11.068 -0.3768 -0.1366  0.0254
 3322SOL    HW121599   3.094   4.071  11.043 -2.2045  0.2423 -3.1891
 3322SOL    HW221600   3.084   3.952  11.133  2.9899  1.3224 -1.4489
 3323SOL     OW21601   1.041   1.980  14.696  0.0518  0.0926  0.6313
 3323SOL    HW121602   0.950   1.975  14.666  1.4521 -0.0844 -3.7008
 3323SOL    HW221603   1.086   1.985  14.611  0.1410  2.2967  0.8038
 3324SOL     OW21604   2.855   3.559  14.700  0.3578 -0.0229 -0.7277
 3324SOL    HW121605   2.873   3.596  14.613 -0.7466  1.4006 -0.3428
 3324SOL    HW221606   2.931   3.505  14.720 -0.1248  0.0649  1.3016
 3325SOL     OW21607   1.352   0.652   5.821 -0.5032  0.5452  0.2702
 3325SOL    HW121608   1.342   0.747   5.811 -0.7101  0.7526  2.5294
 3325SOL    HW221609   1.383   0.623   5.735 -0.9148 -1.1302  0.6965
 3326SOL     OW21610   4.547   4.172  14.981 -0.1896  0.2810  0.5082
 3326SOL    HW121611   4.573   4.262  14.962  1.0146 -0.3225 -0.7089
 3326SOL    HW221612   4.473   4.177  14.921 -0.7333  0.8100  1.2279
 3327SOL     OW21613   2.947   3.381   7.331 -0.6477  0.1615 -0.2890
 3327SOL    HW121614   2.965   3.355   7.422  0.0611 -1.0506 -0.7861
 3327SOL    HW221615   2.928   3.297   7.288 -1.5226  0.7268 -1.0135
 3328SOL     OW21616   0.157   2.699   8.868  0.1087 -0.7225 -0.6068
 3328SOL    HW121617   0.226   2.632   8.864 -0.5916 -1.3475 -2.1877
 3328SOL    HW221618   0.189   2.750   8.793  1.2697  0.6102  0.8034
 3329SOL     OW21619   0.025   2.963  10.282 -0.0905 -0.3767 -0.0775
 3329SOL    HW121620   0.118   2.980  10.295  0.1459 -1.7337 -0.0687
 3329SOL    HW221621   4.726   3.049  10.311 -1.2829 -1.0206  0.4961
 3330SOL     OW21622   2.411   4.393   6.039 -0.3282  0.4438  0.1652
 3330SOL    HW121623   2.432   4.484   6.018 -1.6284  0.5749 -0.5492
 3330SOL    HW221624   2.445   4.394   6.129  1.4105 -0.4199 -0.4888
 3331SOL     OW21625   3.005   0.404   6.003 -0.0893  0.1581  0.4600
 3331SOL    HW121626   2.955   0.483   6.020 -0.3756 -0.1661  1.1235
 3331SOL    HW221627   2.946   0.343   5.959  1.6221 -0.9125 -0.3642
 3332SOL     OW21628   3.585   3.792   5.770  0.3753  0.1583  0.3732
 3332SOL    HW121629   3.531   3.723   5.810 -0.6454  1.9590  2.1123
 3332SOL    HW221630   3.524   3.864   5.756  1.2750  0.8410 -0.0426
 3333SOL     OW21631   2.511   1.120   6.405  0.4402 -0.2297  0.2308
 3333SOL    HW121632   2.562   1.048   6.369 -0.1934 -0.3982 -0.3067
 3333SOL    HW221633   2.453   1.126   6.329  0.7575  1.8844  0.1608
 3334SOL     OW21634   1.311   4.719   5.729 -0.1992 -0.4811 -0.6468
 3334SOL    HW121635   1.333   0.056   5.669 -1.1621  0.5306  0.1774
 3334SOL    HW221636   1.350   4.648   5.678  1.5702 -1.2736  1.8067
 3335SOL     OW21637   4.317   0.488   4.295 -0.0108  0.0220  0.1318
 3335SOL    HW121638   4.257   0.507   4.223 -0.3233  1.1210  0.6942
 3335SOL    HW221639   4.378   0.420   4.267  0.3979  0.2733  0.4031
 3336SOL     OW21640   3.230   3.102   7.371  0.4671  0.1070  0.1339
 3336SOL    HW121641   3.288   3.164   7.415  0.7120  0.0467 -0.1055
 3336SOL    HW221642   3.301   3.052   7.332  0.7363  0.0394  0.7104
 3337SOL     OW21643   3.106   3.386   3.586 -0.3946 -0.0689  0.3801
 3337SOL    HW121644   3.053   3.367   3.509  0.1321  0.4989 -0.1240
 3337SOL    HW221645   3.185   3.335   3.565  0.0935  0.1683  1.6440
 3338SOL     OW21646   2.217   3.604   2.264  0.6710  0.3527 -0.8866
 3338SOL    HW121647   2.241   3.628   2.354 -5.3919 -0.7108  1.0079
 3338SOL    HW221648   2.145   3.664   2.245  1.2532  0.9495 -1.2169
 3339SOL     OW21649   4.726   1.667   2.404 -0.2945 -0.4046  0.1158
 3339SOL    HW121650   4.688   1.755   2.402  0.0383 -0.2370  1.0319
 3339SOL    HW221651   0.020   1.666   2.495  2.3795  1.2801 -0.6962
 3340SOL     OW21652   1.266   4.171   6.053 -0.1013  0.4875 -0.0192
 3340SOL    HW121653   1.222   4.105   6.106  3.3937 -3.1900 -1.6569
 3340SOL    HW221654   1.355   4.136   6.053 -0.2992 -0.0079  0.3404
 3341SOL     OW21655   2.947   1.143  16.292  0.6074 -0.2840  0.4641
 3341SOL    HW121656   2.920   1.135  16.200 -1.6706 -1.2405  1.2047
 3341SOL    HW221657   2.933   1.236  16.306 -0.9156 -0.6146  1.2080
 3342SOL     OW21658   2.064   1.964   1.747 -0.5854  0.4093  0.0183
 3342SOL    HW121659   2.004   1.966   1.822  1.3687  0.4703  1.5945
 3342SOL    HW221660   2.131   1.904   1.780  0.3298  1.4913  0.1157
 3343SOL     OW21661   4.079   2.877  11.122 -0.0888  0.1590 -0.6395
 3343SOL    HW121662   4.010   2.812  11.108  0.2989 -0.1493 -1.1152
 3343SOL    HW221663   4.134   2.841  11.193  0.5053 -0.4069 -1.3847
 3344SOL     OW21664   3.683   1.872  12.044 -0.2275 -1.0090  0.0084
 3344SOL    HW121665   3.718   1.812  12.110 -0.4805 -1.8683 -0.6375
 3344SOL    HW221666   3.642   1.806  11.989 -1.0714  1.8709 -2.8236
 3345SOL     OW21667   3.532   1.067   3.114  0.0646  0.1456  0.3802
 3345SOL    HW121668   3.576   1.004   3.057 -0.6674  0.5802 -0.6533
 3345SOL    HW221669   3.470   1.092   3.046  0.4391 -1.4925 -0.5598
 3346SOL     OW21670   4.438   3.840   4.202 -0.6351 -0.2180 -0.0326
 3346SOL    HW121671   4.453   3.773   4.269 -0.2750  1.1619  1.2796
 3346SOL    HW221672   4.397   3.792   4.131 -2.4518  2.0912 -0.5307
 3347SOL     OW21673   1.874   3.327   8.499  0.5134  0.3177  0.1236
 3347SOL    HW121674   1.829   3.287   8.573 -2.8544  1.5113 -1.3129
 3347SOL    HW221675   1.929   3.396   8.537 -0.2335  1.0217 -0.0780
 3348SOL     OW21676   2.181   2.332   2.481  0.3273  0.1655  0.2660
 3348SOL    HW121677   2.252   2.364   2.425  0.5013 -0.5008  0.1019
 3348SOL    HW221678   2.124   2.300   2.410  0.1842 -1.4503  1.1232
 3349SOL     OW21679   0.043   3.061   0.965  0.4017 -0.0934 -0.3306
 3349SOL    HW121680   4.690   3.072   0.928  0.4773  0.0453 -0.4691
 3349SOL    HW221681   0.014   3.068   1.056 -2.0691  1.0454 -1.2130
 3350SOL     OW21682   2.892   2.423   7.894  0.1273  0.1575  0.0354
 3350SOL    HW121683   2.963   2.425   7.958  0.1865 -1.3253  0.0047
 3350SOL    HW221684   2.836   2.491   7.933  0.7468  0.9823 -0.5037
 3351SOL     OW21685   4.348   2.298   8.986  0.5679 -0.3239  0.0298
 3351SOL    HW121686   4.360   2.355   8.910 -2.6984 -0.5518 -0.6576
 3351SOL    HW221687   4.322   2.369   9.045  3.4927  1.3265 -0.6964
 3352SOL     OW21688   2.969   4.716   9.075 -0.4041 -0.4251  0.7669
 3352SOL    HW121689   2.961   0.062   9.023 -0.3448  1.3818  3.6029
 3352SOL    HW221690   3.061   4.727   9.098 -0.7015  0.6051  1.4442
 3353SOL     OW21691   2.578   3.067   0.217 -0.3970  0.2308  0.4642
 3353SOL    HW121692   2.529   3.130   0.270 -1.7708 -1.1308  0.8243
 3353SOL    HW221693   2.646   3.130   0.191  0.3229 -0.0573  1.6605
 3354SOL     OW21694   2.744   1.234  11.318  0.2502  0.0641 -0.5252
 3354SOL    HW121695   2.731   1.169  11.248 -1.9408 -1.4679  1.2859
 3354SOL    HW221696   2.736   1.180  11.397  1.9727 -0.0071 -0.4136
 3355SOL     OW21697   1.557   0.514  17.266 -0.4141  0.5266  0.1884
 3355SOL    HW121698   1.645   0.552  17.256 -0.1053  0.3617  2.2282
 3355SOL    HW221699   1.572   0.455  17.340  1.7693 -0.6621 -1.2125
 3356SOL     OW21700   1.187   0.569   5.393  0.4713  0.1619  0.4155
 3356SOL    HW121701   1.188   0.479   5.362 -1.4299 -0.0275  0.8692
 3356SOL    HW221702   1.132   0.605   5.323  2.1096  0.8768 -0.4887
 3357SOL     OW21703   1.649   2.215   4.491  0.4952 -0.2713 -0.6295
 3357SOL    HW121704   1.690   2.134   4.522 -0.5334 -0.0227  1.3836
 3357SOL    HW221705   1.583   2.179   4.430  0.8553  0.0449 -1.2028
 3358SOL     OW21706   1.331   3.437   6.628 -1.0457  0.2598 -0.1965
 3358SOL    HW121707   1.337   3.342   6.639  0.4093  0.3310 -0.2968
 3358SOL    HW221708   1.294   3.454   6.715  0.8911 -3.9841  1.4411
 3359SOL     OW21709   1.359   3.022   9.464  0.2024  0.7583 -0.7124
 3359SOL    HW121710   1.387   3.003   9.554 -0.7711  0.2073 -0.5309
 3359SOL    HW221711   1.439   3.060   9.428  0.4069  2.3797  1.4143
 3360SOL     OW21712   3.335   4.069   6.015  0.0276 -0.2850  0.1147
 3360SOL    HW121713   3.258   4.125   6.002  0.1463  0.2639  1.8410
 3360SOL    HW221714   3.295   4.013   6.081  1.0361 -1.0203  0.0993
 3361SOL     OW21715   0.162   0.167   4.052  0.4347  0.6143  0.3322
 3361SOL    HW121716   0.157   0.214   3.969  1.7495 -0.2297 -0.2181
 3361SOL    HW221717   0.153   0.241   4.112  0.5461  1.2807 -0.4759
 3362SOL     OW21718   0.121   2.136  11.640  0.4133 -0.0734 -0.3206
 3362SOL    HW121719   0.054   2.201  11.616  1.1488  1.6176  2.2816
 3362SOL    HW221720   0.088   2.108  11.725  1.1504  2.3090  0.7220
 3363SOL     OW21721   4.698   3.845   3.603  0.1419  0.4559  0.0334
 3363SOL    HW121722   4.703   3.752   3.580 -0.6579  1.5043 -4.2453
 3363SOL    HW221723   4.657   3.829   3.689 -1.2902  2.4993 -0.2594
 3364SOL     OW21724   4.171   0.204   1.957  0.3630 -0.2144  0.1964
 3364SOL    HW121725   4.113   0.215   1.882 -0.5637  0.9059  1.0878
 3364SOL    HW221726   4.210   0.291   1.965  1.5655 -0.7112 -0.1735
 3365SOL     OW21727   1.548   1.469   0.497 -0.6068  0.7055  0.0058
 3365SOL    HW121728   1.564   1.557   0.532  0.3732  0.9273 -1.0075
 3365SOL    HW221729   1.453   1.469   0.490 -0.5103 -1.1005 -1.3446
 3366SOL     OW21730   4.544   3.763  12.141 -0.5610  0.5343 -0.2255
 3366SOL    HW121731   4.607   3.743  12.210 -0.0530 -0.7690 -1.0751
 3366SOL    HW221732   4.567   3.696  12.077  0.3041 -0.0145  0.6575
 3367SOL     OW21733   3.507   1.399   6.365  0.4303  0.0825  0.3649
 3367SOL    HW121734   3.510   1.342   6.288 -1.0102 -0.3183  0.5982
 3367SOL    HW221735   3.555   1.474   6.333  0.9701 -0.0156  0.9376
 3368SOL     OW21736   3.425   1.642   7.760 -0.4055  0.8551  0.4158
 3368SOL    HW121737   3.472   1.688   7.690 -0.3212  1.4863  0.8922
 3368SOL    HW221738   3.401   1.558   7.719 -1.0766  1.2992 -0.1021
 3369SOL     OW21739   1.670   2.882   4.767  0.9063 -0.2295  0.0094
 3369SOL    HW121740   1.692   2.945   4.698 -0.7955  1.0898  0.6767
 3369SOL    HW221741   1.640   2.807   4.715 -0.7742  0.9451 -0.6800
 3370SOL     OW21742   1.700   1.604   5.332  0.0217 -0.2122  0.0228
 3370SOL    HW121743   1.696   1.698   5.353 -0.5517 -0.2753  0.2086
 3370SOL    HW221744   1.762   1.558   5.388 -0.9428 -0.8055  0.6090
 3371SOL     OW21745   4.115   4.732   1.714  0.5105  0.7021 -0.0486
 3371SOL    HW121746   4.069   0.081   1.728  0.2543  0.2886  1.4515
 3371SOL    HW221747   4.179   0.025   1.647 -0.2007  3.7222  0.4650
 3372SOL     OW21748   2.057   2.274   1.154 -0.4825 -0.5006  0.9740
 3372SOL    HW121749   2.073   2.183   1.179  0.1508 -0.0808  2.0887
 3372SOL    HW221750   2.129   2.315   1.201  0.5755 -0.4846 -0.6878
 3373SOL     OW21751   4.658   4.463   1.240 -0.4774  0.0813 -0.4376
 3373SOL    HW121752   4.652   4.409   1.319  0.6551  0.4507 -0.0919
 3373SOL    HW221753   4.621   4.405   1.174  0.6355  1.1880 -2.0411
 3374SOL     OW21754   3.253   1.267  16.985 -0.1453  0.0309  0.7248
 3374SOL    HW121755   3.220   1.239  17.070  0.4245 -2.7465  0.0301
 3374SOL    HW221756   3.254   1.360  17.006  0.3040  0.6978 -2.1792
 3375SOL     OW21757   2.354   0.122   4.943 -0.0266 -0.1535  0.3147
 3375SOL    HW121758   2.388   0.033   4.930  2.1784  0.7903 -0.4142
 3375SOL    HW221759   2.381   0.142   5.033  0.7689  0.4524 -0.0595
 3376SOL     OW21760   3.402   1.190  11.348 -0.6905  0.9130 -0.4712
 3376SOL    HW121761   3.326   1.147  11.388  1.0657  0.1915  2.1518
 3376SOL    HW221762   3.459   1.128  11.302  0.5994  0.6368  1.4815
 3377SOL     OW21763   1.152   0.356   8.204  0.2524 -0.1833  0.2432
 3377SOL    HW121764   1.170   0.435   8.254  0.2499 -0.1969  0.2655
 3377SOL    HW221765   1.108   0.304   8.271 -1.2483  0.2746 -0.4020
 3378SOL     OW21766   0.654   4.599   2.633 -0.6217  0.9146 -0.5091
 3378SOL    HW121767   0.683   4.517   2.673 -1.1059 -0.5668 -3.1848
 3378SOL    HW221768   0.732   4.618   2.581 -1.3841  0.1463 -1.9256
 3379SOL     OW21769   1.007   4.585   7.132  0.2072 -0.2997 -0.3000
 3379SOL    HW121770   0.960   4.507   7.101 -0.0347 -1.1689  2.1625
 3379SOL    HW221771   1.084   4.576   7.077  0.9060 -1.5920  0.8601
 3380SOL     OW21772   0.639   2.598   8.410  0.7160 -0.0622  0.0640
 3380SOL    HW121773   0.682   2.526   8.455 -1.5926 -0.9372  0.9037
 3380SOL    HW221774   0.636   2.661   8.481  0.1682 -0.1166  0.0906
 3381SOL     OW21775   3.738   0.590  13.496  0.9503  0.3807  0.3593
 3381SOL    HW121776   3.789   0.627  13.568  1.8697  0.5580 -0.3971
 3381SOL    HW221777   3.799   0.527  13.458 -1.9814 -0.8109 -2.4288
 3382SOL     OW21778   0.193   1.416   6.536  0.1194  0.0971  0.3507
 3382SOL    HW121779   0.129   1.374   6.595 -0.4045  0.0090 -0.2780
 3382SOL    HW221780   0.257   1.425   6.606  0.8996 -1.5297 -0.1408
 3383SOL     OW21781   0.691   1.699   2.950 -0.0612 -0.3824  0.6531
 3383SOL    HW121782   0.600   1.721   2.973  0.0884  0.7879  0.1457
 3383SOL    HW221783   0.731   1.785   2.966  0.3315 -0.9057  2.4616
 3384SOL     OW21784   1.649   2.933   1.346  0.0912  0.2051  0.5661
 3384SOL    HW121785   1.738   2.967   1.331 -0.6453  2.0498  0.3770
 3384SOL    HW221786   1.647   2.942   1.442  0.9542  0.3082  0.5762
 3385SOL     OW21787   1.246   3.439   5.337  0.2171 -0.1371  0.4701
 3385SOL    HW121788   1.165   3.428   5.386 -1.0492  3.2277 -0.9357
 3385SOL    HW221789   1.263   3.533   5.334  0.5917 -0.2542 -1.1602
 3386SOL     OW21790   4.606   0.479   5.645 -0.2509 -0.5562  0.1547
 3386SOL    HW121791   4.583   0.420   5.573 -2.8016  2.4398 -1.4820
 3386SOL    HW221792   4.690   0.518   5.618 -1.6917  1.3273 -1.6554
 3387SOL     OW21793   0.750   2.938  15.096  0.6508 -0.8848 -0.0543
 3387SOL    HW121794   0.701   3.012  15.132 -0.7424 -1.1624 -1.3633
 3387SOL    HW221795   0.787   2.898  15.175 -2.7552 -0.7676  1.6325
 3388SOL     OW21796   0.007   2.269  12.124  0.1567  0.2029 -0.3510
 3388SOL    HW121797   4.646   2.254  12.118  0.0994  0.5097 -0.2188
 3388SOL    HW221798   0.007   2.361  12.150  0.7339  0.2328 -0.4626
 3389SOL     OW21799   3.553   1.345   6.635  0.1508 -0.5368  0.0155
 3389SOL    HW121800   3.602   1.265   6.648 -2.1290 -1.6725  1.6490
 3389SOL    HW221801   3.539   1.344   6.540 -1.8348  0.7599  0.2741
 3390SOL     OW21802   2.758   0.362   8.913 -0.1626  0.1968  0.3288
 3390SOL    HW121803   2.718   0.282   8.948 -1.2880  0.5414 -0.1751
 3390SOL    HW221804   2.739   0.429   8.979 -0.3210  1.8976 -1.4555
 3391SOL     OW21805   2.507   4.108   5.798 -0.1392 -0.4433 -0.2013
 3391SOL    HW121806   2.447   4.035   5.813 -0.3968 -0.3097 -0.5838
 3391SOL    HW221807   2.564   4.084   5.725  1.2717 -1.5960  1.2825
 3392SOL     OW21808   2.814   2.775  13.209  0.6544 -0.2496  0.0341
 3392SOL    HW121809   2.824   2.859  13.164 -1.3005 -1.0757 -1.9832
 3392SOL    HW221810   2.722   2.755  13.194  1.1899 -1.2168 -1.9828
 3393SOL     OW21811   2.072   2.210   5.092  0.2167  0.4950 -0.3272
 3393SOL    HW121812   2.145   2.247   5.143 -0.9002  0.2746  1.4184
 3393SOL    HW221813   2.042   2.282   5.036  2.1825  1.7945  0.2519
 3394SOL     OW21814   3.824   3.732   1.099 -0.1952 -0.5218  0.2870
 3394SOL    HW121815   3.882   3.682   1.157  4.2083  2.5469 -1.4740
 3394SOL    HW221816   3.736   3.701   1.121 -0.7195  0.7951  0.0430
 3395SOL     OW21817   3.788   0.704   7.054  0.3758 -0.5302  0.4260
 3395SOL    HW121818   3.859   0.756   7.017 -2.0579  0.4593 -2.8713
 3395SOL    HW221819   3.756   0.759   7.125 -0.7921  0.0629 -0.5557
 3396SOL     OW21820   2.652   1.037   4.086  0.1721 -0.3643 -0.0782
 3396SOL    HW121821   2.580   1.087   4.048  0.8968  0.3598 -0.5153
 3396SOL    HW221822   2.717   1.106   4.073  0.4818 -0.8066 -0.9166
 3397SOL     OW21823   2.334   3.773  11.539  0.0156  0.3759  0.2705
 3397SOL    HW121824   2.239   3.765  11.532 -0.1007  1.3034  0.7028
 3397SOL    HW221825   2.338   3.842  11.606  0.5716  0.7498 -0.1451
 3398SOL     OW21826   3.961   0.357   4.156 -0.0439  0.5404 -0.9205
 3398SOL    HW121827   4.018   0.412   4.209  1.3945 -1.3222 -0.5075
 3398SOL    HW221828   3.892   0.423   4.155 -1.6990 -1.1846 -0.2030
 3399SOL     OW21829   1.761   3.924   2.510  0.2401 -0.1713 -0.3871
 3399SOL    HW121830   1.675   3.963   2.493 -0.6060 -1.3315  1.1726
 3399SOL    HW221831   1.816   4.001   2.521  1.7630 -1.3181  0.0016
 3400SOL     OW21832   0.438   3.931  10.970 -0.0025 -0.2648  0.4139
 3400SOL    HW121833   0.508   3.866  10.978 -1.7854 -2.3950 -0.9138
 3400SOL    HW221834   0.405   3.926  10.880 -0.2795  0.3453  0.4805
 3401SOL     OW21835   3.736   0.898   4.212  0.1579 -0.1968  0.1070
 3401SOL    HW121836   3.778   0.968   4.162  0.4375  0.3489  1.1080
 3401SOL    HW221837   3.701   0.840   4.144 -1.4312  0.9818 -0.0753
 3402SOL     OW21838   3.563   1.595  12.668 -0.0068 -0.2722  0.5420
 3402SOL    HW121839   3.617   1.601  12.747 -1.0450  1.3354  1.1313
 3402SOL    HW221840   3.479   1.564  12.701 -0.9190 -1.3277 -2.7851
 3403SOL     OW21841   3.159   0.207  16.292 -0.4239 -0.0200  0.5690
 3403SOL    HW121842   3.121   0.230  16.376  1.1419  0.8494  1.0443
 3403SOL    HW221843   3.238   0.262  16.285 -0.5139  0.2241  1.5003
 3404SOL     OW21844   4.613   1.355  11.873 -0.1831  0.8405  0.2035
 3404SOL    HW121845   4.567   1.271  11.875  2.4689 -0.6563 -2.2309
 3404SOL    HW221846   4.697   1.329  11.836  0.2166  0.1657  1.5818
 3405SOL     OW21847   3.765   3.134   8.221 -0.1833 -0.2264  0.2174
 3405SOL    HW121848   3.695   3.167   8.277 -1.8122 -2.2623 -0.5982
 3405SOL    HW221849   3.834   3.110   8.283  1.3401  0.0392 -1.4037
 3406SOL     OW21850   1.713   4.431   5.009  0.7164 -0.3679 -0.1196
 3406SOL    HW121851   1.730   4.517   4.971  0.0220  1.3797  3.4727
 3406SOL    HW221852   1.670   4.456   5.091  1.9410  0.8798  0.1508
 3407SOL     OW21853   3.146   3.289   2.251 -0.0773  0.3468  0.1495
 3407SOL    HW121854   3.212   3.353   2.278  1.2642 -0.5085 -1.1154
 3407SOL    HW221855   3.071   3.308   2.307 -0.0678  2.1424 -0.4420
 3408SOL     OW21856   0.596   0.853   5.131  0.2288  0.3389  0.2929
 3408SOL    HW121857   0.593   0.879   5.223 -0.2304  1.9880 -0.1788
 3408SOL    HW221858   0.552   0.930   5.094  2.4609  0.4068 -2.2025
 3409SOL     OW21859   3.344   3.135  10.681  0.3859 -0.1804  0.0314
 3409SOL    HW121860   3.279   3.176  10.738 -0.3135  0.6960 -1.4250
 3409SOL    HW221861   3.414   3.197  10.701  2.5364 -2.3486 -0.7803
 3410SOL     OW21862   3.350   1.862  12.267  0.2585  0.6608  0.2789
 3410SOL    HW121863   3.284   1.870  12.336 -0.5919 -2.3107 -0.2011
 3410SOL    HW221864   3.401   1.787  12.296  1.1425  0.4840 -1.7069
 3411SOL     OW21865   2.746   0.196  11.306 -0.4342  0.2689  0.4377
 3411SOL    HW121866   2.720   0.105  11.292 -1.9127  0.4851  1.6972
 3411SOL    HW221867   2.657   0.234  11.302 -1.5092 -2.3849 -0.4694
 3412SOL     OW21868   3.236   3.862   4.959 -0.2952 -0.2455 -0.4663
 3412SOL    HW121869   3.300   3.852   4.889 -0.1336  0.2731 -0.3958
 3412SOL    HW221870   3.238   3.777   5.003  1.5885 -2.2894 -4.5373
 3413SOL     OW21871   2.902   1.607  14.839 -0.1378  0.0470  0.8061
 3413SOL    HW121872   2.960   1.626  14.765  0.6396 -0.6845  1.2249
 3413SOL    HW221873   2.815   1.644  14.824  0.0201  0.5761  1.1983
 3414SOL     OW21874   1.245   4.115   2.071 -0.3419  0.0991  0.1234
 3414SOL    HW121875   1.293   4.177   2.017 -0.0086 -0.5829 -0.3666
 3414SOL    HW221876   1.193   4.183   2.114  1.4474  2.3798 -1.3669
 3415SOL     OW21877   2.508   0.447   9.352  0.4049  0.3079  0.2481
 3415SOL    HW121878   2.426   0.424   9.394  1.1717 -1.0189  1.0109
 3415SOL    HW221879   2.527   0.537   9.376  0.3133  0.9110 -1.9074
 3416SOL     OW21880   2.226   0.816   0.863 -0.1017 -0.4192  0.4394
 3416SOL    HW121881   2.152   0.768   0.827  1.9550 -3.2502 -0.0131
 3416SOL    HW221882   2.302   0.789   0.812  0.7282 -2.0904  2.5494
 3417SOL     OW21883   2.533   4.071   1.857 -0.0559  0.4365  0.1183
 3417SOL    HW121884   2.459   4.107   1.905 -1.2331 -2.4025  0.4637
 3417SOL    HW221885   2.600   4.116   1.908  0.1473 -0.2683  0.4770
 3418SOL     OW21886   2.656   2.767   7.322  0.0682  0.1146 -0.3868
 3418SOL    HW121887   2.618   2.846   7.285 -0.0121  0.0600 -0.4203
 3418SOL    HW221888   2.593   2.703   7.290 -1.1935  0.6997  0.9424
 3419SOL     OW21889   0.945   1.312  15.614  0.4957  0.5240  0.2807
 3419SOL    HW121890   0.976   1.224  15.597  0.2731  0.2784  1.1349
 3419SOL    HW221891   1.016   1.361  15.572  1.1142  0.4931  1.3055
 3420SOL     OW21892   2.754   4.671   6.711 -0.1068 -0.0259  0.9557
 3420SOL    HW121893   2.758   4.604   6.779 -1.2971  0.2855  1.3383
 3420SOL    HW221894   2.762   4.617   6.632  0.7618  0.6829  0.5642
 3421SOL     OW21895   0.746   0.180   2.356 -0.7753  0.3918  0.1502
 3421SOL    HW121896   0.725   0.167   2.449 -2.5874 -1.5960 -0.5402
 3421SOL    HW221897   0.767   0.273   2.366 -1.8413  0.5731  0.6982
 3422SOL     OW21898   4.276   2.364   2.856 -0.4525 -0.4914  0.8230
 3422SOL    HW121899   4.318   2.283   2.884 -1.8066 -1.7180 -0.7350
 3422SOL    HW221900   4.276   2.360   2.761 -3.1142  3.8398  0.6127
 3423SOL     OW21901   1.827   1.932   3.504 -0.3996 -0.1893 -0.1134
 3423SOL    HW121902   1.896   1.867   3.519  1.5934  1.5488 -1.5850
 3423SOL    HW221903   1.782   1.888   3.432 -0.8158 -0.5888  0.3952
 3424SOL     OW21904   3.528   2.896   8.341 -0.1192 -0.3196  0.2857
 3424SOL    HW121905   3.482   2.831   8.395 -0.3761  0.0962  0.5682
 3424SOL    HW221906   3.458   2.956   8.315 -0.8477 -1.8520 -1.2560
 3425SOL     OW21907   3.903   2.171  16.910 -0.2322  0.0831 -0.5601
 3425SOL    HW121908   3.955   2.146  16.986  1.1130  0.2188 -1.4325
 3425SOL    HW221909   3.869   2.254  16.943  1.5287  0.1016  1.2064
 3426SOL     OW21910   2.639   2.944   9.826 -0.1696 -0.6761  0.8302
 3426SOL    HW121911   2.628   2.853   9.854 -0.8180 -0.7687  0.3048
 3426SOL    HW221912   2.546   2.951   9.804 -0.2281  0.4103  1.4187
 3427SOL     OW21913   0.474   0.971   3.041 -0.3692 -0.2432  0.1689
 3427SOL    HW121914   0.480   0.877   3.024 -2.6203 -0.3271 -0.2051
 3427SOL    HW221915   0.379   0.986   3.051 -0.1642  1.5447 -0.5847
 3428SOL     OW21916   3.554   2.365   7.747 -0.6231 -0.3447  0.6214
 3428SOL    HW121917   3.523   2.293   7.694 -1.7958  0.8188 -0.2716
 3428SOL    HW221918   3.499   2.440   7.726 -0.7197 -0.4698  0.4313
 3429SOL     OW21919   2.674   2.041   1.365  0.0448 -0.2632 -0.1454
 3429SOL    HW121920   2.621   2.065   1.289  1.8121 -0.2132 -1.3631
 3429SOL    HW221921   2.689   1.949   1.346 -0.0202  0.0856 -1.8735
 3430SOL     OW21922   3.720   3.082   7.294  0.1615 -0.4092  0.3032
 3430SOL    HW121923   3.719   3.134   7.375 -0.1833  1.6168 -1.0143
 3430SOL    HW221924   3.794   3.023   7.311  0.3506  0.3525  2.1072
 3431SOL     OW21925   0.666   3.692   9.983  0.6042 -0.0499 -0.1970
 3431SOL    HW121926   0.708   3.608   9.963  2.3524  1.0788 -1.2631
 3431SOL    HW221927   0.700   3.729  10.064 -0.5236  0.2148  0.1508
 3432SOL     OW21928   2.294   4.060   7.846 -0.1789 -1.2233  0.0688
 3432SOL    HW121929   2.244   4.059   7.764 -1.2523  0.4414  0.7109
 3432SOL    HW221930   2.229   4.056   7.916 -1.5350  1.1728 -1.0200
 3433SOL     OW21931   4.070   3.592   0.308  0.1974 -0.2195  0.1738
 3433SOL    HW121932   4.157   3.631   0.319  0.8714 -1.6059 -0.2259
 3433SOL    HW221933   4.080   3.579   0.214  4.0584  0.9045  0.4409
 3434SOL     OW21934   2.036   4.697  17.252 -0.2240  0.6263 -0.3398
 3434SOL    HW121935   2.023   4.640  17.176 -0.7510  0.1944  0.0767
 3434SOL    HW221936   2.109   0.016  17.219 -1.6438  2.0342 -1.2413
 3435SOL     OW21937   4.069   0.461   4.470  0.2216 -0.4541  0.0949
 3435SOL    HW121938   4.156   0.456   4.430  0.7458 -3.2224  1.6154
 3435SOL    HW221939   4.087   0.468   4.564  0.5032  1.8169 -0.1176
 3436SOL     OW21940   4.717   2.657  10.332  0.5530  0.2347  0.6376
 3436SOL    HW121941   4.679   2.742  10.309 -1.7891 -0.4943  1.8264
 3436SOL    HW221942   0.044   2.687  10.399  0.6586  0.1002  0.6012
 3437SOL     OW21943   4.374   4.155  17.292 -0.5597  0.2564 -0.0660
 3437SOL    HW121944   4.463   4.136  17.322 -0.7168 -1.7102 -0.9021
 3437SOL    HW221945   4.390   4.211  17.216  1.0963  0.6006  0.5433
 3438SOL     OW21946   0.049   2.891   0.084 -0.4626  0.2093 -0.4528
 3438SOL    HW121947   4.711   2.903   0.146 -0.4406  0.6364 -0.5068
 3438SOL    HW221948   0.122   2.872   0.143  1.4473  2.0817 -2.2040
 3439SOL     OW21949   0.572   3.019   3.584  0.2474  0.5263 -0.3771
 3439SOL    HW121950   0.550   2.928   3.562  0.7440  0.8192 -2.0614
 3439SOL    HW221951   0.519   3.032   3.663  2.9646  1.0710  1.3735
 3440SOL     OW21952   0.943   1.792   2.235  0.1647 -0.3937 -0.0456
 3440SOL    HW121953   0.954   1.743   2.316  2.8418 -0.7841 -0.6640
 3440SOL    HW221954   1.025   1.778   2.188  0.0461  1.2655 -0.7368
 3441SOL     OW21955   0.337   1.128   5.474  0.0523  0.6584  0.3193
 3441SOL    HW121956   0.355   1.194   5.541  1.1165 -0.0908  0.7686
 3441SOL    HW221957   0.293   1.061   5.526  0.4086  1.2482  1.3908
 3442SOL     OW21958   3.262   3.456  10.057  0.0642  0.2932 -0.5035
 3442SOL    HW121959   3.299   3.397   9.991 -0.4683 -2.0036  1.2807
 3442SOL    HW221960   3.169   3.450  10.033 -0.0285  0.8161 -0.2648
 3443SOL     OW21961   1.650   2.816  12.960 -0.2164 -0.1193  0.1761
 3443SOL    HW121962   1.651   2.850  12.871 -1.1633 -0.7985 -0.0991
 3443SOL    HW221963   1.645   2.723  12.939 -0.2070  0.4248 -2.2087
 3444SOL     OW21964   2.246   2.400   1.300 -0.0682 -0.3227  0.5912
 3444SOL    HW121965   2.315   2.337   1.280 -0.2293 -0.8654  1.7377
 3444SOL    HW221966   2.295   2.476   1.331 -1.3044  0.6767  0.0651
 3445SOL     OW21967   4.310   1.101  15.093  0.1847 -0.4818 -0.8073
 3445SOL    HW121968   4.340   1.108  15.183 -0.3036  2.3105 -0.8624
 3445SOL    HW221969   4.346   1.182  15.059  2.7663 -0.4018  2.1966
 3446SOL     OW21970   3.552   2.400  13.575  0.3691  0.4237  0.3237
 3446SOL    HW121971   3.478   2.397  13.514  1.7755 -1.6663 -1.2806
 3446SOL    HW221972   3.530   2.328  13.634 -3.0898  0.2120 -1.1945
 3447SOL     OW21973   2.748   3.677  10.166  0.2616  0.2989 -0.5379
 3447SOL    HW121974   2.658   3.706  10.180  0.2695 -0.0434  0.2196
 3447SOL    HW221975   2.781   3.671  10.256  0.6326 -1.4921 -0.7945
 3448SOL     OW21976   2.348   0.010   3.902  0.0037 -0.1156 -0.1663
 3448SOL    HW121977   2.265   0.025   3.857 -1.6834 -0.9140  2.6740
 3448SOL    HW221978   2.397   0.090   3.881 -0.9077  0.9291  1.6305
 3449SOL     OW21979   1.158   2.121   6.070  0.5077 -0.5409 -0.5785
 3449SOL    HW121980   1.070   2.141   6.102  0.1399  0.5784 -2.2730
 3449SOL    HW221981   1.158   2.172   5.989 -0.8031  2.3731  1.2802
 3450SOL     OW21982   2.858   4.322   5.777  0.4290  0.3693 -0.2255
 3450SOL    HW121983   2.813   4.302   5.859 -0.1694  0.5888 -0.5027
 3450SOL    HW221984   2.785   4.352   5.723  2.3613  1.9060 -1.9639
 3451SOL     OW21985   2.726   2.788   8.911  0.6582  0.0692  0.2774
 3451SOL    HW121986   2.657   2.724   8.892 -1.1712  2.0949  0.2364
 3451SOL    HW221987   2.689   2.844   8.978  0.1374  0.4357 -0.3202
 3452SOL     OW21988   4.478   3.459   7.802  0.3058  0.3424  0.5440
 3452SOL    HW121989   4.531   3.535   7.777  1.7589 -0.4504  1.1696
 3452SOL    HW221990   4.424   3.502   7.868  0.4391  2.9303 -1.0564
 3453SOL     OW21991   2.391   0.519   6.366  0.3883  0.4238  0.0737
 3453SOL    HW121992   2.328   0.578   6.326 -2.1832 -1.8234  0.8099
 3453SOL    HW221993   2.369   0.436   6.324 -2.3164  2.5433 -2.6072
 3454SOL     OW21994   2.272   2.565   7.106  0.2545 -0.2127 -0.4287
 3454SOL    HW121995   2.197   2.611   7.142  0.7433 -0.7827  1.2903
 3454SOL    HW221996   2.220   2.489   7.080  0.1259 -0.6304  1.0726
 3455SOL     OW21997   2.996   1.518   2.202  0.0456  0.0608  0.2710
 3455SOL    HW121998   2.935   1.539   2.131 -1.2210 -0.2287  1.2484
 3455SOL    HW221999   2.984   1.596   2.256  1.5593  0.9942 -0.7814
 3456SOL     OW22000   1.543   2.318   3.803  0.2999 -0.2047  0.2266
 3456SOL    HW122001   1.558   2.272   3.720  0.8431 -1.0693  0.8101
 3456SOL    HW222002   1.551   2.244   3.864  0.8975  1.8093  2.5551
 3457SOL     OW22003   1.550   1.891   9.210 -0.1371  0.1979  0.6942
 3457SOL    HW122004   1.518   1.891   9.300  0.0956  0.1111  0.7781
 3457SOL    HW222005   1.506   1.963   9.164 -1.0763 -1.1804 -0.5230
 3458SOL     OW22006   2.361   1.061   9.337  0.1583 -0.0832  0.3001
 3458SOL    HW122007   2.310   1.015   9.270 -1.7232  3.5786 -0.7650
 3458SOL    HW222008   2.417   1.001   9.386  2.2829  0.7096 -1.1962
 3459SOL     OW22009   4.501   3.327   6.028 -0.3416  0.4876 -0.0268
 3459SOL    HW122010   4.458   3.374   5.956  0.4714  1.9776  0.4786
 3459SOL    HW222011   4.494   3.382   6.106 -1.1484  1.3754 -0.7216
 3460SOL     OW22012   0.495   2.734   7.112  0.2098 -0.2592  0.3114
 3460SOL    HW122013   0.576   2.754   7.159 -1.0711  2.6256  1.2922
 3460SOL    HW222014   0.524   2.663   7.056  0.5323  0.9647 -1.0906
 3461SOL     OW22015   2.466   4.239   9.726  0.2627  0.6264 -0.1757
 3461SOL    HW122016   2.466   4.233   9.631 -0.3607  1.7452 -0.2397
 3461SOL    HW222017   2.392   4.294   9.751 -0.7748 -0.2770 -1.3191
 3462SOL     OW22018   3.582   3.720   9.914 -0.3343  0.2787 -0.3722
 3462SOL    HW122019   3.538   3.796   9.876 -0.3378  1.7385  2.5217
 3462SOL    HW222020   3.561   3.654   9.849  1.3485  0.6301 -1.2724
 3463SOL     OW22021   0.463   3.800   2.145 -0.3138  0.1661 -0.1170
 3463SOL    HW122022   0.476   3.886   2.186  1.9552  0.4533 -1.3806
 3463SOL    HW222023   0.550   3.774   2.115 -0.4359 -1.8665  1.3612
 3464SOL     OW22024   1.907   1.279   9.878  0.4031  0.2303  0.7753
 3464SOL    HW122025   1.993   1.263   9.839  1.1734  3.3986  1.1102
 3464SOL    HW222026   1.877   1.188   9.879  1.8607 -0.2529 -0.2209
 3465SOL     OW22027   3.053   2.179   9.243 -0.3721 -0.3629  0.5081
 3465SOL    HW122028   3.007   2.100   9.215  1.9240 -2.2787  2.2416
 3465SOL    HW222029   2.981   2.242   9.237 -1.8077 -2.1326 -0.8916
 3466SOL     OW22030   2.661   1.094   7.652 -0.1176 -0.0013  0.1434
 3466SOL    HW122031   2.635   1.052   7.570 -0.4611 -0.0088  0.2589
 3466SOL    HW222032   2.731   1.034   7.680  1.1843  1.7103  0.5699
 3467SOL     OW22033   3.069   3.798  12.541  0.1695 -0.0100  0.0724
 3467SOL    HW122034   2.997   3.859  12.524  0.5250  0.6996  1.1451
 3467SOL    HW222035   3.052   3.734  12.472 -1.3669  0.6305 -0.1666
 3468SOL     OW22036   0.328   0.131   5.142 -0.3620  0.2731 -0.7538
 3468SOL    HW122037   0.333   0.047   5.098 -3.7685 -0.4103  0.1567
 3468SOL    HW222038   0.245   0.167   5.112  0.0528  0.6654 -1.4229
 3469SOL     OW22039   0.568   1.802   5.438  0.5981 -0.5700 -0.4467
 3469SOL    HW122040   0.573   1.814   5.533 -1.5328  1.0055 -0.5169
 3469SOL    HW222041   0.661   1.803   5.413 -0.3112 -1.5548 -3.9423
 3470SOL     OW22042   2.080   2.871   7.654 -0.0623  0.0446  0.0910
 3470SOL    HW122043   2.002   2.903   7.701 -0.8642 -0.8476 -0.6235
 3470SOL    HW222044   2.067   2.778   7.635  3.0829 -0.0182 -1.6446
 3471SOL     OW22045   2.117   1.999   0.649  0.0760  0.1835 -0.6574
 3471SOL    HW122046   2.082   2.033   0.732 -0.0355  0.6297 -0.8856
 3471SOL    HW222047   2.182   2.065   0.627  0.5433  0.2893  1.0772
 3472SOL     OW22048   3.943   3.395   2.579 -0.1243 -0.6839 -0.0743
 3472SOL    HW122049   3.913   3.406   2.669 -1.7728 -0.6449 -0.6239
 3472SOL    HW222050   4.018   3.455   2.577  0.4143 -1.3590  0.0354
 3473SOL     OW22051   4.082   4.623   6.539 -0.0972 -0.5649  0.1291
 3473SOL    HW122052   4.029   4.644   6.462  0.8142  6.2858  1.3019
 3473SOL    HW222053   4.031   4.548   6.570 -1.7912  0.7326  0.5059
 3474SOL     OW22054   2.007   2.172   2.707  0.3341 -0.7575  0.1429
 3474SOL    HW122055   2.041   2.222   2.781 -1.0028 -1.6304  1.3366
 3474SOL    HW222056   2.057   2.207   2.632 -0.7369 -0.8711 -0.6262
 3475SOL     OW22057   2.486   1.504   1.227 -0.3141 -0.7765 -0.4527
 3475SOL    HW122058   2.578   1.478   1.225  0.1851  1.0761 -0.8782
 3475SOL    HW222059   2.458   1.439   1.292 -3.2431  1.7788  0.8174
 3476SOL     OW22060   1.676   0.668   3.673 -0.2134  0.4765 -0.0936
 3476SOL    HW122061   1.671   0.640   3.581  3.7210  0.4869 -0.2848
 3476SOL    HW222062   1.583   0.680   3.693 -0.0727  0.2439  0.6831
 3477SOL     OW22063   2.536   2.464   6.121 -0.2790 -0.6307 -0.3457
 3477SOL    HW122064   2.470   2.434   6.182 -0.4266 -0.1080 -0.2425
 3477SOL    HW222065   2.549   2.553   6.155 -1.3730 -1.0736  1.2131
 3478SOL     OW22066   0.717   3.060   5.648 -0.2885 -0.3087  0.9865
 3478SOL    HW122067   0.699   2.968   5.626 -0.5308  0.2292 -1.0628
 3478SOL    HW222068   0.626   3.081   5.670 -0.4116  0.5088 -0.3090
 3479SOL     OW22069   2.482   1.416   5.710  0.0458  0.4029  0.4157
 3479SOL    HW122070   2.401   1.458   5.738 -0.1357 -0.0260  0.5421
 3479SOL    HW222071   2.548   1.449   5.771 -0.3766  0.8217  0.6457
 3480SOL     OW22072   1.157   3.989  10.291  0.3549  0.1672 -0.4110
 3480SOL    HW122073   1.191   3.942  10.214  2.2362 -2.5056  2.0448
 3480SOL    HW222074   1.082   4.020  10.240  2.1978  2.1042 -1.9452
 3481SOL     OW22075   1.233   4.555   6.977 -0.0957 -0.1335  0.4933
 3481SOL    HW122076   1.251   4.594   6.891  0.1069  0.1941  0.6836
 3481SOL    HW222077   1.303   4.586   7.034  0.3578  1.2435 -0.8173
 3482SOL     OW22078   4.711   2.989  14.024  0.4102 -0.1781  0.1175
 3482SOL    HW122079   4.667   2.982  14.108 -1.1421 -0.2080 -0.6971
 3482SOL    HW222080   4.728   2.897  14.000  1.9662  0.1289  0.0098
 3483SOL     OW22081   1.456   1.499  15.240 -0.3701 -0.1487  0.0756
 3483SOL    HW122082   1.423   1.410  15.255  0.5895 -0.4195  0.6143
 3483SOL    HW222083   1.543   1.485  15.277 -0.6927 -1.2555  0.4337
 3484SOL     OW22084   2.013   4.502   3.150 -0.4779  0.2016  0.7663
 3484SOL    HW122085   2.086   4.441   3.145 -1.9868 -1.5442  0.0024
 3484SOL    HW222086   2.062   4.582   3.167  1.6086 -1.2947  1.6917
 3485SOL     OW22087   2.426   4.494   0.002  0.4275  0.9348 -0.1823
 3485SOL    HW122088   2.402   4.575  17.693 -2.2129 -0.4084 -1.2355
 3485SOL    HW222089   2.332   4.476   0.002 -0.2878  4.6493  1.6578
 3486SOL     OW22090   2.843   2.388   2.415  0.0064  0.0504  0.0846
 3486SOL    HW122091   2.926   2.397   2.462  1.5781  1.1415 -2.8776
 3486SOL    HW222092   2.870   2.316   2.358  2.2197  0.0364  1.1694
 3487SOL     OW22093   1.919   0.020   6.278 -0.3541  0.5504  0.3065
 3487SOL    HW122094   1.993   0.080   6.273  0.2034  0.0494  2.8683
 3487SOL    HW222095   1.937   4.710   6.361 -2.2302  0.5709  0.7295
 3488SOL     OW22096   2.567   1.803   7.222  1.0116  0.4924  0.1082
 3488SOL    HW122097   2.525   1.726   7.259 -0.9643  0.9737 -1.1278
 3488SOL    HW222098   2.606   1.847   7.298 -0.5105 -0.7001  1.5745
 3489SOL     OW22099   0.942   3.067   9.302  0.2489  0.3736 -0.6047
 3489SOL    HW122100   0.999   3.028   9.369 -1.0337  1.9557  1.4335
 3489SOL    HW222101   0.867   3.093   9.355 -0.5624 -3.6684  0.2290
 3490SOL     OW22102   3.970   4.544  11.533 -0.1310 -0.3560 -0.2644
 3490SOL    HW122103   3.953   4.450  11.523  0.1255 -0.4098 -0.1956
 3490SOL    HW222104   4.049   4.545  11.478  0.2063  1.9296  0.2509
 3491SOL     OW22105   2.801   2.062   8.108  0.3651  0.6102 -0.5140
 3491SOL    HW122106   2.858   2.089   8.179 -0.2555 -1.4074  0.7625
 3491SOL    HW222107   2.735   2.132   8.105 -0.9703 -0.6406 -0.5983
 3492SOL     OW22108   1.122   2.160   6.990  0.5875 -0.0091  0.5282
 3492SOL    HW122109   1.060   2.115   7.047  0.7671  2.0709  2.3579
 3492SOL    HW222110   1.061   2.214   6.939 -0.4703 -0.6706  1.0959
 3493SOL     OW22111   0.164   4.366   5.600  0.3248  0.5086 -0.0054
 3493SOL    HW122112   0.185   4.402   5.686 -1.2253 -0.4625  0.7759
 3493SOL    HW222113   0.233   4.408   5.548 -1.3246  2.6592 -0.4280
 3494SOL     OW22114   3.406   1.518   4.835 -0.6183 -0.0886 -0.8704
 3494SOL    HW122115   3.462   1.450   4.798 -0.1913 -0.7884  1.1069
 3494SOL    HW222116   3.324   1.491   4.792 -1.0591  1.5071 -1.0386
 3495SOL     OW22117   2.854   0.292   8.402 -0.0026  0.6562 -0.0328
 3495SOL    HW122118   2.874   0.217   8.458  2.6525  2.3240  1.2636
 3495SOL    HW222119   2.840   0.361   8.467 -0.9036 -0.0904  0.5638
 3496SOL     OW22120   1.455   2.839  17.031  0.5490 -0.6244  0.0091
 3496SOL    HW122121   1.483   2.929  17.048 -2.2571  0.3647 -0.6423
 3496SOL    HW222122   1.391   2.824  17.101 -1.6535  2.5258 -1.3256
 3497SOL     OW22123   0.695   3.764  15.620 -0.3969  0.0122  0.6338
 3497SOL    HW122124   0.713   3.680  15.579 -1.1087  0.2382 -0.1468
 3497SOL    HW222125   0.760   3.774  15.690  0.2108 -0.4679  0.1410
 3498SOL     OW22126   3.974   3.372   0.785  0.0620  0.3622 -0.1975
 3498SOL    HW122127   3.887   3.364   0.748  0.8651  2.2451 -2.4753
 3498SOL    HW222128   4.025   3.416   0.717  0.1424 -2.0713 -1.7194
 3499SOL     OW22129   2.163   2.450   4.939 -0.1872  0.6936 -0.0216
 3499SOL    HW122130   2.248   2.491   4.919  0.0155 -0.2713 -1.0828
 3499SOL    HW222131   2.128   2.435   4.852  0.3755 -0.1706 -0.1018
 3500SOL     OW22132   3.959   3.195   2.372 -0.6835 -0.2054  0.0170
 3500SOL    HW122133   3.928   3.278   2.409 -0.7147 -0.6020  0.8756
 3500SOL    HW222134   3.942   3.137   2.446 -2.3107  1.0046  0.5911
 3501SOL     OW22135   3.344   4.057   3.693  0.6816  0.0653 -0.2626
 3501SOL    HW122136   3.405   4.016   3.631 -0.4675 -0.0587 -1.2997
 3501SOL    HW222137   3.270   4.067   3.633 -0.5558 -1.5235  1.0274
 3502SOL     OW22138   0.076   2.481  12.626  0.1961  0.4274  0.2867
 3502SOL    HW122139   0.090   2.387  12.620  2.9910  0.7292  2.2553
 3502SOL    HW222140   0.077   2.521  12.539  0.8933  0.2409  0.2129
 3503SOL     OW22141   1.031   1.618   2.429  0.0698  0.0339  0.4532
 3503SOL    HW122142   1.089   1.643   2.501 -3.4989  0.0676  3.3723
 3503SOL    HW222143   0.961   1.557   2.454 -0.4790  0.4541 -0.0600
 3504SOL     OW22144   1.832   2.097   5.248 -0.0193 -0.1350 -0.5693
 3504SOL    HW122145   1.835   2.129   5.338  0.3981 -3.7079  0.6626
 3504SOL    HW222146   1.921   2.123   5.226 -0.7058 -0.8298 -4.0985
 3505SOL     OW22147   0.251   1.598  12.870  0.3855  0.2066  0.1093
 3505SOL    HW122148   0.311   1.542  12.821  0.7415  1.9914 -1.5348
 3505SOL    HW222149   0.311   1.652  12.921 -1.2621  0.4882  1.7464
 3506SOL     OW22150   4.368   2.546  16.969  0.1814  0.3409 -0.3526
 3506SOL    HW122151   4.298   2.507  16.917  0.3517  0.8839 -0.9803
 3506SOL    HW222152   4.319   2.565  17.049  0.2418  0.3654 -0.3218
 3507SOL     OW22153   3.298   4.695   6.641 -0.0478 -0.1224 -0.3008
 3507SOL    HW122154   3.215   4.650   6.657  0.0697 -0.5010 -0.7514
 3507SOL    HW222155   3.292   0.049   6.677 -1.5772 -0.8515  1.2311
 3508SOL     OW22156   1.517   2.223  13.275 -0.0277 -0.3240  0.1348
 3508SOL    HW122157   1.478   2.143  13.312 -1.1575  0.0020 -0.3694
 3508SOL    HW222158   1.562   2.184  13.201 -1.3270 -1.4024 -0.0890
 3509SOL     OW22159   3.705   1.676   6.880 -0.4499  0.3862  0.1166
 3509SOL    HW122160   3.610   1.686   6.884 -0.6803 -1.8958  0.5068
 3509SOL    HW222161   3.720   1.637   6.966  1.7399  0.2917 -0.3006
 3510SOL     OW22162   0.722   3.261   3.645  0.0505  0.1039  0.4237
 3510SOL    HW122163   0.689   3.184   3.599  0.2373  0.8648 -0.9861
 3510SOL    HW222164   0.680   3.248   3.730  0.6420 -1.0627  0.5294
 3511SOL     OW22165   2.512   1.787  11.780  0.5604  0.0994  0.1782
 3511SOL    HW122166   2.491   1.697  11.756 -0.6995  0.1997  0.9309
 3511SOL    HW222167   2.600   1.798  11.745 -1.2543  1.0658 -4.1328
 3512SOL     OW22168   1.106   3.842   5.543 -0.2005  0.3961 -0.1481
 3512SOL    HW122169   1.050   3.886   5.608 -2.4354  0.4643 -2.1383
 3512SOL    HW222170   1.173   3.907   5.519  0.0242 -0.4038 -1.6280
 3513SOL     OW22171   2.754   2.649   4.618  0.0301  0.6049  0.0917
 3513SOL    HW122172   2.743   2.554   4.609  2.2397  0.4548 -0.9315
 3513SOL    HW222173   2.829   2.646   4.678  1.2139  0.3882 -1.4135
 3514SOL     OW22174   4.010   0.693   2.136 -0.0045 -0.4406 -0.0406
 3514SOL    HW122175   4.076   0.625   2.123  0.3610  0.6575 -3.7720
 3514SOL    HW222176   4.071   0.758   2.169  0.6853 -0.3670 -1.4747
 3515SOL     OW22177   3.760   2.688   1.618 -0.1526  0.1288 -0.0581
 3515SOL    HW122178   3.767   2.784   1.615  0.9716  0.0521  0.2797
 3515SOL    HW222179   3.673   2.683   1.657  0.7437  0.5056  1.9557
 3516SOL     OW22180   1.527   3.654   9.176 -0.2635  0.1206 -0.4303
 3516SOL    HW122181   1.482   3.733   9.205 -0.2842 -0.3064  0.6635
 3516SOL    HW222182   1.486   3.581   9.221 -0.1595  0.9147  0.9432
 3517SOL     OW22183   1.873   4.025   5.707  0.4537 -0.0128  0.0047
 3517SOL    HW122184   1.860   3.947   5.761  1.0415 -0.1599 -0.0636
 3517SOL    HW222185   1.966   4.022   5.687  0.3454 -1.4641 -0.2630
 3518SOL     OW22186   4.689   0.057   6.333  0.6667 -0.3541  0.3084
 3518SOL    HW122187   4.640   0.132   6.297 -1.4006 -1.0484  1.6452
 3518SOL    HW222188   0.004   0.032   6.255 -1.2314  0.4256 -1.1443
 3519SOL     OW22189   2.074   1.605   1.518 -0.2823 -0.4557  0.3714
 3519SOL    HW122190   2.067   1.573   1.608 -1.9138 -0.6618  0.1654
 3519SOL    HW222191   2.099   1.531   1.463  1.6169  0.1406  0.4295
 3520SOL     OW22192   2.510   3.776  15.277  0.1531  0.2990  0.0356
 3520SOL    HW122193   2.429   3.727  15.290  0.8061 -0.2260  2.0268
 3520SOL    HW222194   2.530   3.810  15.364 -0.8389  1.4591 -0.1814
 3521SOL     OW22195   3.845   4.703   5.512 -0.0275 -0.5805 -0.0270
 3521SOL    HW122196   3.934   4.694   5.479 -0.3384  0.9785 -1.3070
 3521SOL    HW222197   3.799   4.727   5.432  2.2141  2.1578 -0.4811
 3522SOL     OW22198   1.538   2.327   7.233 -0.3264  0.1433  0.2710
 3522SOL    HW122199   1.634   2.322   7.239 -0.1933 -0.6553 -2.9674
 3522SOL    HW222200   1.518   2.304   7.143  2.5063  2.0932 -0.8837
 3523SOL     OW22201   2.050   1.350   8.149 -0.0810 -0.1258 -0.3955
 3523SOL    HW122202   1.994   1.323   8.221 -2.6593 -0.3103 -2.4598
 3523SOL    HW222203   2.007   1.431   8.123  0.9699  0.8338  0.8642
 3524SOL     OW22204   3.393   0.801   4.287  0.5607  0.0665  0.1284
 3524SOL    HW122205   3.461   0.776   4.225 -0.3563  1.7909 -1.5714
 3524SOL    HW222206   3.335   0.725   4.281  1.6613 -0.8890  1.5806
 3525SOL     OW22207   0.915   0.863   2.937 -0.1666  0.1584 -0.0229
 3525SOL    HW122208   0.837   0.906   2.901 -1.7998 -2.6532  0.1472
 3525SOL    HW222209   0.920   0.906   3.022 -1.3243  0.7111 -0.2360
 3526SOL     OW22210   2.707   0.619   9.074  0.3105  0.4922 -0.1194
 3526SOL    HW122211   2.623   0.664   9.080  0.3224  0.6362 -1.0111
 3526SOL    HW222212   2.736   0.611   9.165  1.5077  1.2389 -0.4259
 3527SOL     OW22213   2.169   0.102   3.705  0.1550 -0.5703  0.1949
 3527SOL    HW122214   2.140   0.056   3.626 -1.0711  1.0812 -0.3161
 3527SOL    HW222215   2.103   0.166   3.731  1.1125 -0.0641  1.3827
 3528SOL     OW22216   4.656   2.884   6.055 -0.3031 -0.6228 -0.0723
 3528SOL    HW122217   4.691   2.967   6.087 -4.1915  1.7727 -2.0254
 3528SOL    HW222218   4.576   2.915   6.013  0.0506  0.6423  0.1727
 3529SOL     OW22219   3.737   3.770   1.491 -0.3998  0.3340  0.1246
 3529SOL    HW122220   3.807   3.713   1.523  0.3555  0.3964 -1.3972
 3529SOL    HW222221   3.788   3.847   1.463  1.1577 -0.5899  0.4376
 3530SOL     OW22222   3.445   1.948   6.041 -0.1537 -0.0523 -0.2020
 3530SOL    HW122223   3.368   1.969   5.987 -1.1727  0.7748  1.5753
 3530SOL    HW222224   3.509   1.946   5.970  1.7716  3.1419  1.4195
 3531SOL     OW22225   2.980   1.141  12.360 -0.2073  0.1406 -0.1316
 3531SOL    HW122226   2.950   1.134  12.451 -1.3779  1.0737 -0.4518
 3531SOL    HW222227   2.932   1.217  12.328  0.9952  1.2350  0.6484
 3532SOL     OW22228   2.140   2.355   9.092 -0.1991 -0.1165 -0.1190
 3532SOL    HW122229   2.176   2.346   9.180  1.0723 -1.2646 -0.7553
 3532SOL    HW222230   2.093   2.272   9.083  1.3646 -1.1434  1.1431
 3533SOL     OW22231   3.519   0.029   5.598  0.2160 -0.4085 -0.1324
 3533SOL    HW122232   3.499   0.111   5.644  1.2492 -0.0461 -0.3324
 3533SOL    HW222233   3.515   0.061   5.508  2.7053 -0.0675 -0.1366
 3534SOL     OW22234   0.242   1.796  10.267  0.6740 -0.5714  0.0944
 3534SOL    HW122235   0.195   1.878  10.284  0.2554 -1.0742  1.3929
 3534SOL    HW222236   0.265   1.766  10.355  0.4913 -1.0131 -0.0077
 3535SOL     OW22237   3.734   2.754   6.333 -0.5726 -0.3999  0.5183
 3535SOL    HW122238   3.771   2.770   6.246  0.0393 -1.1307  0.6358
 3535SOL    HW222239   3.778   2.673   6.358 -1.6205 -1.8535 -2.3860
 3536SOL     OW22240   3.362   2.422  13.141 -0.4096 -0.0544 -0.4706
 3536SOL    HW122241   3.446   2.467  13.147 -0.4181 -0.4740  2.4316
 3536SOL    HW222242   3.308   2.478  13.196 -1.3333  0.3129 -1.7288
 3537SOL     OW22243   1.183   2.895   3.567 -0.3255 -0.1330 -0.1091
 3537SOL    HW122244   1.146   2.861   3.648 -1.3631  1.0357 -0.0893
 3537SOL    HW222245   1.251   2.955   3.597  0.5647 -2.0371  1.6392
 3538SOL     OW22246   4.487   4.646   1.850 -0.1611  0.0933 -0.4827
 3538SOL    HW122247   4.409   4.626   1.902  1.8928 -1.1216  2.1366
 3538SOL    HW222248   4.495   4.560   1.808  0.2239  0.3582 -0.9558
 3539SOL     OW22249   3.495   2.143  11.222  0.2644 -0.1123 -0.0210
 3539SOL    HW122250   3.557   2.216  11.215 -1.4347  1.3371  0.0254
 3539SOL    HW222251   3.516   2.107  11.308  1.0923  0.3152 -0.0383
 3540SOL     OW22252   1.808   3.650   3.443 -0.3758 -0.1938  0.3628
 3540SOL    HW122253   1.800   3.595   3.521 -0.6201 -0.8440 -0.1173
 3540SOL    HW222254   1.812   3.580   3.378  0.3255  0.8476 -0.7147
 3541SOL     OW22255   2.456   1.823   5.691  0.3061  0.1461  0.4743
 3541SOL    HW122256   2.504   1.867   5.621  0.7416 -1.6986 -0.3904
 3541SOL    HW222257   2.436   1.745   5.639 -1.2089  0.6328  0.3369
 3542SOL     OW22258   3.244   4.183   4.450  0.6213  0.2490 -0.3249
 3542SOL    HW122259   3.257   4.274   4.422 -0.2070  0.4820  0.0624
 3542SOL    HW222260   3.229   4.181   4.544 -0.2591  1.2712 -0.4328
 3543SOL     OW22261   0.663   3.290   7.108  0.1036  0.5201 -0.1507
 3543SOL    HW122262   0.690   3.374   7.143 -2.0562  1.7884 -1.5311
 3543SOL    HW222263   0.572   3.318   7.122 -0.6261 -1.1559 -1.5230
 3544SOL     OW22264   1.428   4.335  13.257 -0.0916 -0.3905  0.1104
 3544SOL    HW122265   1.432   4.359  13.350  1.4288  1.1665 -0.3485
 3544SOL    HW222266   1.340   4.365  13.234 -0.3268 -0.1852  1.2349
 3545SOL     OW22267   1.267   1.650   9.787 -0.0029  0.6630 -0.0961
 3545SOL    HW122268   1.178   1.624   9.813  1.0564 -1.9736  0.9102
 3545SOL    HW222269   1.270   1.604   9.702  0.6649 -1.1725  0.9148
 3546SOL     OW22270   2.538   3.723   3.688  0.2302  0.2578  0.0196
 3546SOL    HW122271   2.542   3.768   3.773  2.7581  0.3104 -0.1248
 3546SOL    HW222272   2.578   3.797   3.641 -0.5987 -0.6339 -2.0640
 3547SOL     OW22273   3.033   3.665   5.813  0.2512  1.0740  0.3226
 3547SOL    HW122274   3.016   3.654   5.907  2.0000  0.3106  0.5423
 3547SOL    HW222275   2.949   3.639   5.774  1.6087 -1.3148 -0.9522
 3548SOL     OW22276   3.612   1.641  12.404  0.3195  0.9525  0.0092
 3548SOL    HW122277   3.546   1.577  12.380  1.2149 -0.2728  0.8149
 3548SOL    HW222278   3.591   1.651  12.497  1.4460 -0.6134  0.4385
 3549SOL     OW22279   2.363   2.802   4.800  0.0083  0.4103  0.8334
 3549SOL    HW122280   2.338   2.711   4.813 -0.8894  0.6230  0.5841
 3549SOL    HW222281   2.338   2.818   4.709  0.9337 -3.9487 -0.1891
 3550SOL     OW22282   0.201   1.973   8.382 -0.4092 -0.4379 -0.5642
 3550SOL    HW122283   0.202   2.053   8.434  2.8460 -1.0829  0.4090
 3550SOL    HW222284   0.113   1.958   8.347  0.1042  1.3570 -2.6527
 3551SOL     OW22285   3.903   0.924   1.823  0.3325 -0.0680  0.1678
 3551SOL    HW122286   3.906   1.018   1.807 -1.4418  0.0919  0.8276
 3551SOL    HW222287   3.911   0.920   1.918 -1.5666  2.8792  0.4441
 3552SOL     OW22288   0.677   2.952   6.803  0.5173  0.1388  0.2051
 3552SOL    HW122289   0.715   2.941   6.891  1.2678 -0.5378 -0.2068
 3552SOL    HW222290   0.677   3.047   6.799 -1.1506  0.1550  0.4361
 3553SOL     OW22291   0.884   0.436   0.901 -0.4659  0.2962  0.2685
 3553SOL    HW122292   0.822   0.494   0.946 -1.7367  0.4291 -1.6450
 3553SOL    HW222293   0.842   0.351   0.916 -2.0366  0.8795 -0.8735
 3554SOL     OW22294   2.270   0.817   2.668 -0.4978  0.3098 -0.5516
 3554SOL    HW122295   2.225   0.805   2.752 -2.2572 -0.4596 -1.5894
 3554SOL    HW222296   2.219   0.765   2.606  2.2495 -2.6901 -0.2797
 3555SOL     OW22297   3.117   2.799   1.794  0.3888  0.2401 -0.1318
 3555SOL    HW122298   3.188   2.863   1.795  1.4289 -0.9071 -0.5874
 3555SOL    HW222299   3.058   2.821   1.866  0.1997 -1.4705  0.2562
 3556SOL     OW22300   2.245   1.149   2.395 -0.0731  0.2170 -0.1777
 3556SOL    HW122301   2.288   1.070   2.364 -1.5266 -0.9578  0.8222
 3556SOL    HW222302   2.308   1.213   2.360 -0.4803  0.1415 -1.0440
 3557SOL     OW22303   0.165   1.842   3.441  0.1038  0.5080  0.0248
 3557SOL    HW122304   0.235   1.840   3.506  0.6509 -3.1576 -0.6370
 3557SOL    HW222305   0.101   1.887   3.497 -1.0820  0.4331 -1.2787
 3558SOL     OW22306   0.693   3.767   2.538  0.0540 -0.0669  0.4219
 3558SOL    HW122307   0.677   3.706   2.466  3.6507 -0.3964 -0.0987
 3558SOL    HW222308   0.670   3.848   2.492 -0.0379  0.8273  2.0318
 3559SOL     OW22309   2.441   4.058  14.317 -0.0635  0.4903 -0.7701
 3559SOL    HW122310   2.382   4.127  14.346 -0.4837  0.1404 -0.7890
 3559SOL    HW222311   2.484   4.025  14.396  0.4550 -0.1745 -1.3186
 3560SOL     OW22312   2.995   2.564   1.647 -0.4967  0.7701  0.5432
 3560SOL    HW122313   3.060   2.561   1.577 -0.5278 -3.2036  0.6608
 3560SOL    HW222314   3.016   2.638   1.704  0.3726  0.4845  0.5990
 3561SOL     OW22315   0.254   2.222   4.620  0.2129 -0.1475  0.6635
 3561SOL    HW122316   0.317   2.153   4.601 -0.7095 -0.8983  0.3893
 3561SOL    HW222317   0.219   2.195   4.705  0.3471  0.9293  1.0598
 3562SOL     OW22318   3.666   0.012   9.076 -0.2237 -0.5168 -0.0188
 3562SOL    HW122319   3.717   0.015   9.157 -0.5546  0.4117  0.1638
 3562SOL    HW222320   3.588   4.705   9.114 -1.7124  2.0715 -0.2285
 3563SOL     OW22321   2.649   2.622   6.570 -0.4812 -0.5640  0.3908
 3563SOL    HW122322   2.656   2.709   6.532  0.3732 -0.4384  0.8293
 3563SOL    HW222323   2.649   2.637   6.665  0.8607 -3.2882  0.8053
 3564SOL     OW22324   3.339   1.353   3.762 -0.1182  0.1032  0.4758
 3564SOL    HW122325   3.315   1.297   3.836 -4.4572  3.5135  1.6919
 3564SOL    HW222326   3.303   1.439   3.784 -0.1543  0.4623 -1.0437
 3565SOL     OW22327   2.608   1.714   5.235  0.1805 -0.1923  0.0732
 3565SOL    HW122328   2.582   1.669   5.155  0.4938 -1.3492  0.6212
 3565SOL    HW222329   2.570   1.661   5.305  1.6632  0.4082  1.3425
 3566SOL     OW22330   2.722   3.514   9.125 -0.0485  0.3777  0.5790
 3566SOL    HW122331   2.803   3.557   9.098 -0.0146 -0.5849 -0.8538
 3566SOL    HW222332   2.667   3.591   9.136  0.3646  0.8073 -0.3451
 3567SOL     OW22333   1.244   0.197   6.110  0.1670 -0.2423 -0.1166
 3567SOL    HW122334   1.160   0.231   6.141  1.0511  0.4505  1.5405
 3567SOL    HW222335   1.255   0.254   6.034 -2.5591 -0.7266 -0.8818
 3568SOL     OW22336   3.882   1.063   2.093 -0.4292  0.0540  0.3182
 3568SOL    HW122337   3.922   1.062   2.180 -0.0565  2.8007  0.1779
 3568SOL    HW222338   3.962   1.088   2.047 -1.6854  0.7847 -1.4962
 3569SOL     OW22339   0.181   4.647  16.696  0.3641 -0.2478  0.2624
 3569SOL    HW122340   0.202   4.693  16.615  0.6791 -0.5180  0.1924
 3569SOL    HW222341   0.088   4.629  16.682  0.0818  1.4585  0.0286
 3570SOL     OW22342   2.598   0.543   6.837  0.5750  0.0991 -0.4733
 3570SOL    HW122343   2.610   0.637   6.849 -2.2200  0.5359 -1.2019
 3570SOL    HW222344   2.506   0.530   6.812  0.8511  1.1313 -2.0258
 3571SOL     OW22345   2.751   0.413   3.450 -0.7118  0.2133  0.2532
 3571SOL    HW122346   2.783   0.487   3.502 -0.3064 -0.0142  0.3272
 3571SOL    HW222347   2.757   0.450   3.362  2.5287  0.6005  0.6076
 3572SOL     OW22348   4.631   0.088   3.083 -0.0814  0.4281 -0.6116
 3572SOL    HW122349   4.606   0.152   3.149  0.5090 -0.7247  0.7469
 3572SOL    HW222350   4.555   0.030   3.086  0.2226  0.1274  0.9805
 3573SOL     OW22351   1.424   0.343   2.714  0.0063 -0.0149  0.3609
 3573SOL    HW122352   1.381   0.424   2.740  2.3933  1.1005  0.8299
 3573SOL    HW222353   1.373   0.276   2.760 -1.4216  0.6847 -0.2128
 3574SOL     OW22354   3.563   2.493   7.067 -0.8426  0.3006 -0.0708
 3574SOL    HW122355   3.585   2.522   7.156 -1.5964 -2.3637  0.9680
 3574SOL    HW222356   3.646   2.454   7.043 -0.6890  0.1316  0.7219
 3575SOL     OW22357   2.047   2.573  10.454 -0.0406  0.3008  0.1315
 3575SOL    HW122358   2.068   2.652  10.405  0.0796  0.8597  1.0889
 3575SOL    HW222359   2.061   2.593  10.547 -2.1013  3.7623 -0.3342
 3576SOL     OW22360   3.609   2.592   2.375  0.4111  0.2037 -0.5121
 3576SOL    HW122361   3.543   2.529   2.345 -0.4317  2.0486 -2.5494
 3576SOL    HW222362   3.644   2.615   2.289  1.1053  2.5454  0.3960
 3577SOL     OW22363   3.500   2.241   6.496 -0.0671  0.5774  0.3442
 3577SOL    HW122364   3.489   2.336   6.486  1.0411  0.7330  0.5657
 3577SOL    HW222365   3.489   2.209   6.407  0.2868  2.2328 -0.2993
 3578SOL     OW22366   0.419   4.090   5.655  0.1720 -0.0827 -0.0055
 3578SOL    HW122367   0.405   4.047   5.739 -3.2714  0.8442 -0.1094
 3578SOL    HW222368   0.334   4.068   5.618  0.8010 -2.4688 -0.0319
 3579SOL     OW22369   4.017   3.226   6.716  0.2549  0.3682 -0.3893
 3579SOL    HW122370   3.969   3.184   6.788 -0.0884  0.2793 -0.6661
 3579SOL    HW222371   3.950   3.285   6.680 -1.2412 -0.2624  1.3396
 3580SOL     OW22372   2.582   2.729   6.211 -0.3863 -0.7373  0.6225
 3580SOL    HW122373   2.533   2.797   6.165  0.2692 -2.0263 -1.9841
 3580SOL    HW222374   2.668   2.757   6.181 -0.2457 -3.1024 -1.2301
 3581SOL     OW22375   1.928   3.290  10.602  0.1302  0.2207 -0.1810
 3581SOL    HW122376   1.967   3.219  10.552 -1.2360 -0.0977 -0.8187
 3581SOL    HW222377   1.856   3.310  10.541 -1.6407  0.0310  1.8433
 3582SOL     OW22378   3.167   3.223   6.247  0.2429  0.2061 -0.1054
 3582SOL    HW122379   3.175   3.295   6.309 -0.7097 -0.6270  0.9644
 3582SOL    HW222380   3.236   3.240   6.182  0.9750 -0.2093  0.5623
 3583SOL     OW22381   1.645   0.598  16.660  0.2479 -0.6772 -0.5942
 3583SOL    HW122382   1.730   0.623  16.623  1.1417 -0.2839  1.7582
 3583SOL    HW222383   1.648   0.645  16.743 -1.1190  0.1005 -0.9780
 3584SOL     OW22384   1.563   0.410  13.055 -0.3053 -0.4587 -0.0638
 3584SOL    HW122385   1.478   0.390  13.095 -0.3281 -2.4851 -1.0871
 3584SOL    HW222386   1.593   0.474  13.119 -0.2952  0.6131 -1.1406
 3585SOL     OW22387   0.124   3.637   4.970  0.7935 -0.4424  0.7417
 3585SOL    HW122388   0.207   3.682   4.982  0.7116 -0.2757  0.6743
 3585SOL    HW222389   0.129   3.582   5.048  0.5420 -2.3728 -0.6088
 3586SOL     OW22390   2.535   0.050   4.195 -0.5466  0.0023 -0.2942
 3586SOL    HW122391   2.442   0.055   4.175 -0.4765 -1.5961 -1.1198
 3586SOL    HW222392   2.540   0.131   4.245  0.1818  0.5308 -1.1971
 3587SOL     OW22393   1.631   0.234   3.344  0.5023 -0.0906  0.3235
 3587SOL    HW122394   1.579   0.191   3.276  0.1157 -0.9410  1.1584
 3587SOL    HW222395   1.686   0.156   3.355 -2.9689 -2.2258  2.4296
 3588SOL     OW22396   2.515   3.245   5.657 -0.1304  0.2263  0.4362
 3588SOL    HW122397   2.433   3.250   5.705 -0.6856 -0.3158 -0.4709
 3588SOL    HW222398   2.494   3.179   5.591 -1.8557  1.5586 -0.3456
 3589SOL     OW22399   0.414   3.558   6.537 -0.2601 -0.2756 -0.2128
 3589SOL    HW122400   0.375   3.508   6.609 -1.5340  0.0599 -0.6733
 3589SOL    HW222401   0.331   3.595   6.507 -0.7615 -1.2685 -0.0347
 3590SOL     OW22402   0.107   3.002  17.592 -0.3427  0.5964  0.5158
 3590SOL    HW122403   0.169   3.071  17.617 -0.8140  0.8710  0.9406
 3590SOL    HW222404   0.080   2.966  17.676  2.7310 -2.3498  0.2578
 3591SOL     OW22405   3.548   4.388  12.442  0.1494  0.1888 -0.4652
 3591SOL    HW122406   3.527   4.374  12.349 -2.6378 -1.3503  0.3734
 3591SOL    HW222407   3.579   4.478  12.439 -3.5244  1.4315 -1.4664
 3592SOL     OW22408   2.764   3.511  17.040 -0.7445  0.2183 -0.0003
 3592SOL    HW122409   2.847   3.514  16.991 -0.0291  1.0249  1.2668
 3592SOL    HW222410   2.745   3.418  17.027 -1.3643  0.3177  0.2308
 3593SOL     OW22411   4.642   1.179   4.506 -0.3986  0.0128  0.3428
 3593SOL    HW122412   4.697   1.200   4.582  2.1477  1.6723 -1.9838
 3593SOL    HW222413   4.572   1.128   4.547  0.2548 -0.1824  1.2146
 3594SOL     OW22414   1.790   3.234   0.611  0.5275  0.8112 -0.0329
 3594SOL    HW122415   1.738   3.306   0.647 -1.5527 -0.7538  0.0289
 3594SOL    HW222416   1.728   3.175   0.568 -0.5790  0.9202  1.4168
 3595SOL     OW22417   2.535   2.542   9.783  1.1453 -0.0344  0.1275
 3595SOL    HW122418   2.560   2.584   9.865 -1.2762  1.0763  0.2779
 3595SOL    HW222419   2.529   2.449   9.804  0.3936  0.1269  0.6151
 3596SOL     OW22420   1.779   3.234   8.745 -0.1347  0.0504 -0.0007
 3596SOL    HW122421   1.721   3.302   8.780 -1.6855 -0.8282 -0.8457
 3596SOL    HW222422   1.772   3.154   8.797  0.1056  0.3707  0.5309
 3597SOL     OW22423   3.430   2.865   1.377 -0.0942  0.5322 -0.1212
 3597SOL    HW122424   3.335   2.873   1.362 -0.0955  0.0935 -0.3739
 3597SOL    HW222425   3.452   2.909   1.459  2.1525 -0.7579 -0.0248
 3598SOL     OW22426   2.180   4.720  12.241  0.0229  0.5866 -0.5120
 3598SOL    HW122427   2.242   0.014  12.173 -0.0927  0.1430 -0.7992
 3598SOL    HW222428   2.181   0.065  12.295 -0.0937  0.1562  0.1165
 3599SOL     OW22429   3.024   4.253   5.482  0.7435 -0.9353 -0.2871
 3599SOL    HW122430   2.987   4.182   5.535  2.0995 -1.0582  0.5135
 3599SOL    HW222431   3.109   4.211   5.464 -0.6671 -3.9940  0.2055
 3600SOL     OW22432   1.294   3.657   3.770  0.6769  0.3560  0.0954
 3600SOL    HW122433   1.291   3.587   3.705 -0.0139  2.5942 -2.2727
 3600SOL    HW222434   1.372   3.706   3.743  1.0986 -0.2748  0.1843
 3601SOL     OW22435   1.611   0.554   5.866  0.1984 -0.2320  0.3081
 3601SOL    HW122436   1.603   0.529   5.958  2.7340 -1.2907  0.2611
 3601SOL    HW222437   1.527   0.599   5.855  2.3550  3.7343 -0.1393
 3602SOL     OW22438   4.423   2.882   8.158  0.0465  0.1522  0.0252
 3602SOL    HW122439   4.500   2.824   8.160  0.7795  1.1479  0.8505
 3602SOL    HW222440   4.448   2.958   8.106  0.7787 -1.5937 -2.1656
 3603SOL     OW22441   2.252   0.851   1.156  0.2586 -0.2311 -0.2662
 3603SOL    HW122442   2.309   0.927   1.169 -2.3547  1.3960  1.6026
 3603SOL    HW222443   2.221   0.865   1.067  2.0144 -0.4113 -0.9070
 3604SOL     OW22444   2.849   2.371  16.006 -0.7330 -0.4178  0.0372
 3604SOL    HW122445   2.934   2.382  15.963 -1.2312 -1.0720 -1.0993
 3604SOL    HW222446   2.829   2.461  16.031 -0.9444  0.6121 -3.8913
 3605SOL     OW22447   1.815   2.284   6.932  0.2236 -0.5556 -0.0883
 3605SOL    HW122448   1.724   2.310   6.926  0.2899 -0.4570 -0.6247
 3605SOL    HW222449   1.809   2.256   7.024 -1.2911 -1.3204 -0.4265
 3606SOL     OW22450   1.916   0.359   7.887  0.0941 -0.4126  0.1683
 3606SOL    HW122451   1.895   0.388   7.976 -1.2379  0.6249 -0.4865
 3606SOL    HW222452   2.000   0.323   7.915  0.1310 -1.5462 -1.4476
 3607SOL     OW22453   3.332   0.486   7.070  0.1935 -0.4869 -0.6030
 3607SOL    HW122454   3.277   0.525   7.002  1.0685  0.5496 -0.7223
 3607SOL    HW222455   3.296   0.534   7.145  0.2288 -0.5052 -0.5742
 3608SOL     OW22456   1.531   3.112  17.032 -0.4320  0.2836 -0.5826
 3608SOL    HW122457   1.601   3.172  17.006  0.7333 -1.4784 -1.4705
 3608SOL    HW222458   1.537   3.118  17.128  0.3974 -0.7128 -0.5667
 3609SOL     OW22459   2.798   1.653   9.753  0.1071 -0.5335 -0.3024
 3609SOL    HW122460   2.783   1.695   9.669  1.9194 -1.1795 -0.9336
 3609SOL    HW222461   2.820   1.728   9.809 -0.8848 -0.9104  0.6114
 3610SOL     OW22462   3.511   4.185   5.376  0.1321 -0.3180 -0.0779
 3610SOL    HW122463   3.517   4.216   5.286  1.5324 -0.6878 -0.0994
 3610SOL    HW222464   3.597   4.146   5.393  0.0568 -0.4610 -0.0262
 3611SOL     OW22465   2.088   0.905   2.162  0.1627 -0.1758 -0.1957
 3611SOL    HW122466   2.079   0.855   2.081  1.6749 -1.2120  0.2826
 3611SOL    HW222467   2.153   0.853   2.208 -1.3369 -2.4680 -0.6577
 3612SOL     OW22468   0.613   1.952   5.164 -0.2320  0.0524 -0.3709
 3612SOL    HW122469   0.581   1.918   5.248 -1.4245  0.6402 -0.5773
 3612SOL    HW222470   0.635   2.040   5.194 -1.7148 -0.4450  2.2449
 3613SOL     OW22471   2.669   0.583   9.685 -0.5237  0.3048 -0.1507
 3613SOL    HW122472   2.757   0.570   9.721 -0.0868 -1.2744 -1.8361
 3613SOL    HW222473   2.661   0.670   9.724  0.6431  0.1098  0.5251
 3614SOL     OW22474   2.723   2.042   7.705 -0.0242  0.4065 -0.5125
 3614SOL    HW122475   2.815   2.054   7.730 -0.3163  0.5091  0.5214
 3614SOL    HW222476   2.682   2.128   7.708 -1.0297 -0.0709 -0.5385
 3615SOL     OW22477   2.353   1.056  16.150 -0.0416  0.9095  0.5184
 3615SOL    HW122478   2.331   1.042  16.058  1.3669 -4.2311  0.9892
 3615SOL    HW222479   2.434   1.106  16.139  0.2205 -0.3330 -3.0894
 3616SOL     OW22480   4.563   0.917  15.508 -0.6632  0.6690 -0.5958
 3616SOL    HW122481   4.531   0.933  15.597  0.4415  0.9569 -0.2400
 3616SOL    HW222482   4.517   0.988  15.463 -0.0716  0.5793 -1.3368
 3617SOL     OW22483   3.624   0.938   1.717  0.8545 -0.6013  0.1551
 3617SOL    HW122484   3.628   1.028   1.686  1.3331 -0.7010 -0.0732
 3617SOL    HW222485   3.717   0.917   1.721  1.1019  0.1876 -1.5465
 3618SOL     OW22486   3.366   3.041  11.661 -0.6029 -0.3942 -0.1190
 3618SOL    HW122487   3.316   2.980  11.715 -0.5712 -0.7547 -0.4978
 3618SOL    HW222488   3.443   3.057  11.716 -0.1132 -1.8891 -0.3615
 3619SOL     OW22489   2.625   2.502   2.299  0.2512  0.1411 -0.4061
 3619SOL    HW122490   2.665   2.437   2.356  0.2225  0.6469  0.1794
 3619SOL    HW222491   2.652   2.478   2.210 -3.1970  3.2648 -2.3286
 3620SOL     OW22492   4.452   4.337   8.873  0.0915 -0.6777  0.0827
 3620SOL    HW122493   4.476   4.379   8.956 -0.9778 -0.6302  0.3681
 3620SOL    HW222494   4.394   4.271   8.911 -0.2807 -1.1637 -1.3162
 3621SOL     OW22495   4.589   3.373  14.988 -0.5956  0.4425  0.1083
 3621SOL    HW122496   4.509   3.365  14.936 -0.9650 -1.2987  0.9536
 3621SOL    HW222497   4.665   3.374  14.930 -2.1760  0.0834 -1.9580
 3622SOL     OW22498   0.252   3.880   1.914  0.0395 -0.1447  0.7324
 3622SOL    HW122499   0.307   3.904   1.840 -1.3333 -2.1699 -0.9077
 3622SOL    HW222500   0.318   3.893   1.982  0.7347 -2.9395  0.5960
 3623SOL     OW22501   2.403   2.640   6.430 -0.0236  0.0582 -0.4639
 3623SOL    HW122502   2.475   2.616   6.488 -1.9842 -0.6468  1.6812
 3623SOL    HW222503   2.425   2.731   6.408 -0.4836 -0.1329 -1.7270
 3624SOL     OW22504   4.034   0.900  14.227 -0.5470  0.2667 -0.1234
 3624SOL    HW122505   4.091   0.873  14.300 -0.6359  0.6312  0.0832
 3624SOL    HW222506   4.031   0.812  14.190  0.8064 -0.4247  1.3942
 3625SOL     OW22507   2.438   3.035  15.731  0.3674  0.4828  0.2120
 3625SOL    HW122508   2.413   2.952  15.770  1.0581 -0.1610 -0.7208
 3625SOL    HW222509   2.489   3.001  15.658 -0.6471  0.2236 -0.3810
 3626SOL     OW22510   1.397   1.016   8.615 -0.3854 -0.9544 -0.2912
 3626SOL    HW122511   1.386   0.941   8.674  1.1538  0.6140  2.0002
 3626SOL    HW222512   1.384   0.980   8.527 -0.1655  1.2250 -1.1976
 3627SOL     OW22513   4.165   0.395  17.636 -0.2394  0.1727 -0.1526
 3627SOL    HW122514   4.109   0.456  17.589 -0.5735  0.9278  1.2409
 3627SOL    HW222515   4.148   0.424  17.725 -1.3194  0.7986 -0.5671
 3628SOL     OW22516   3.778   2.300  16.592  0.4380 -0.4568 -0.3747
 3628SOL    HW122517   3.718   2.326  16.522 -1.9655 -2.4791  0.9625
 3628SOL    HW222518   3.862   2.346  16.583  1.4736 -1.9720  1.6278
 3629SOL     OW22519   2.579   1.205   9.247 -0.4033  0.3255 -0.0381
 3629SOL    HW122520   2.500   1.180   9.295 -0.0410 -1.9184 -0.6363
 3629SOL    HW222521   2.583   1.137   9.180  0.1808 -1.5587  1.9287
 3630SOL     OW22522   0.146   3.015   2.459 -0.0925  0.1974  0.3795
 3630SOL    HW122523   0.140   3.092   2.402 -2.2187  0.6908  1.2627
 3630SOL    HW222524   0.207   2.960   2.409  0.1982  0.2981  0.6260
 3631SOL     OW22525   3.196   3.934   6.217 -0.3270  0.6249 -0.6361
 3631SOL    HW122526   3.220   3.849   6.255  0.0332 -0.2471 -2.8419
 3631SOL    HW222527   3.171   3.985   6.294  0.6616 -1.1275  0.8537
 3632SOL     OW22528   2.968   0.086   6.108  0.2805  0.2603  0.4565
 3632SOL    HW122529   2.990   0.146   6.036  0.1042  1.2997  1.2720
 3632SOL    HW222530   3.024   0.123   6.176 -0.5773 -1.0327  1.8516
 3633SOL     OW22531   2.002   4.639  12.470 -0.0767  0.0586  0.0093
 3633SOL    HW122532   2.068   4.631  12.402 -1.5406 -1.3589 -1.2757
 3633SOL    HW222533   2.048   4.600  12.544  0.0565  1.2252  0.5273
 3634SOL     OW22534   1.483   0.687   9.945  0.0163  0.3008  0.3624
 3634SOL    HW122535   1.416   0.710  10.009  1.5732  2.0544  1.3685
 3634SOL    HW222536   1.540   0.629   9.996  0.9531 -0.6763 -1.8050
 3635SOL     OW22537   4.352   2.371   4.643 -0.1321  0.6679  0.7212
 3635SOL    HW122538   4.365   2.313   4.717  1.0392  0.1510  0.1090
 3635SOL    HW222539   4.286   2.326   4.591 -0.5794  0.4551  1.4769
 3636SOL     OW22540   1.717   4.543  10.026  0.4029  0.7452  0.7183
 3636SOL    HW122541   1.649   4.496  10.073  0.8647  0.1798  0.8261
 3636SOL    HW222542   1.769   4.574  10.100  2.0407 -0.7015  0.1889
 3637SOL     OW22543   2.031   1.527   5.416 -0.1499  0.5332 -0.0452
 3637SOL    HW122544   2.105   1.544   5.475 -1.2378  1.7113  0.9650
 3637SOL    HW222545   1.954   1.512   5.470 -0.0293 -1.0475 -0.3085
 3638SOL     OW22546   2.264   4.225   2.820 -0.2689  0.1627 -0.7857
 3638SOL    HW122547   2.301   4.271   2.744 -0.1340  1.1238 -0.1348
 3638SOL    HW222548   2.260   4.300   2.879  1.6567  0.1100 -0.5858
 3639SOL     OW22549   1.062   3.047  14.883 -0.3077 -0.3757 -0.4315
 3639SOL    HW122550   1.009   2.992  14.826  1.0680 -2.3210  0.1379
 3639SOL    HW222551   1.151   3.045  14.846 -0.6844 -2.0976 -1.2364
 3640SOL     OW22552   2.587   3.003   2.886  0.0201 -0.0339 -0.6910
 3640SOL    HW122553   2.538   3.034   2.962 -1.1377  1.3039 -1.9807
 3640SOL    HW222554   2.648   3.073   2.861  0.6804 -0.0175  1.0005
 3641SOL     OW22555   3.297   0.384   9.073 -0.8668 -0.0819 -0.3185
 3641SOL    HW122556   3.350   0.414   9.148 -0.2041  0.8678 -1.1663
 3641SOL    HW222557   3.288   0.290   9.087  0.0561 -0.2287 -0.6804
 3642SOL     OW22558   1.244   3.513   2.953 -0.4539 -0.7428 -0.2009
 3642SOL    HW122559   1.154   3.488   2.973 -0.7577  2.6520  2.6364
 3642SOL    HW222560   1.240   3.548   2.865 -1.8644  2.0383  0.9919
 3643SOL     OW22561   3.207   4.283   3.985  0.1625  0.3590  0.0276
 3643SOL    HW122562   3.220   4.301   3.892  0.3883  0.9796  0.1816
 3643SOL    HW222563   3.193   4.374   4.008  0.7114  0.2399  0.8214
 3644SOL     OW22564   1.349   0.925   5.666  0.0029  0.2761 -0.6021
 3644SOL    HW122565   1.418   0.910   5.601  2.6778  0.4890  2.1741
 3644SOL    HW222566   1.338   1.020   5.666 -1.2152  0.1354 -0.9772
 3645SOL     OW22567   2.449   2.802   0.570  0.0258  0.1607  0.0839
 3645SOL    HW122568   2.407   2.886   0.591  0.8842  1.0952 -1.9340
 3645SOL    HW222569   2.384   2.739   0.598 -0.8098  1.4862  1.1360
 3646SOL     OW22570   4.311   0.175  10.883  0.0457 -0.2429 -0.3634
 3646SOL    HW122571   4.365   0.254  10.879 -1.4512  0.6483 -3.0151
 3646SOL    HW222572   4.299   0.176  10.978  1.2594 -1.3216 -0.2022
 3647SOL     OW22573   3.728   0.195  12.117  0.1428 -0.0085 -0.3132
 3647SOL    HW122574   3.687   0.110  12.106 -0.3242  0.1994 -0.2160
 3647SOL    HW222575   3.809   0.181  12.068  0.4108  1.1874 -0.2140
 3648SOL     OW22576   2.420   0.547   1.099 -0.2440  0.4654 -0.0772
 3648SOL    HW122577   2.333   0.535   1.061  0.4242 -0.4468 -1.3291
 3648SOL    HW222578   2.399   0.599   1.176 -1.1416 -0.7023  0.4617
 3649SOL     OW22579   1.886   3.878   5.397 -0.3523 -0.2759 -0.4396
 3649SOL    HW122580   1.852   3.944   5.457 -2.8243 -0.9256 -1.1280
 3649SOL    HW222581   1.933   3.816   5.453 -2.2505 -1.4246 -0.1235
 3650SOL     OW22582   1.247   2.343  11.350  0.2801  0.5961  0.0828
 3650SOL    HW122583   1.333   2.336  11.309  0.1520  0.0254 -0.0956
 3650SOL    HW222584   1.264   2.413  11.413 -1.9660 -0.3558  1.7812
 3651SOL     OW22585   2.779   3.818  10.985  0.4056  0.0292  0.0149
 3651SOL    HW122586   2.762   3.756  11.056 -0.0964 -1.3205 -1.2742
 3651SOL    HW222587   2.856   3.768  10.956  1.8325  1.5084  1.2464
 3652SOL     OW22588   1.819   4.098   4.731  0.4431  0.3531  0.0482
 3652SOL    HW122589   1.852   4.163   4.794 -0.4730  0.4516  0.4222
 3652SOL    HW222590   1.881   4.117   4.661 -1.5511  3.4097 -0.8539
 3653SOL     OW22591   4.595   0.519   4.005  0.6156  0.2921 -0.1075
 3653SOL    HW122592   4.523   0.532   3.944  0.4646  1.4034  0.3042
 3653SOL    HW222593   4.555   0.451   4.059  0.5942  0.4939  0.1343
 3654SOL     OW22594   0.185   3.619   9.014 -0.1437  0.6984  0.4207
 3654SOL    HW122595   0.170   3.700   8.965  0.4801 -0.3982 -1.5662
 3654SOL    HW222596   0.158   3.645   9.102 -0.8200  0.0127  0.4168
 3655SOL     OW22597   2.796   3.215   6.394 -0.2652 -0.0645 -0.2501
 3655SOL    HW122598   2.714   3.190   6.437 -1.6053 -0.1111 -2.8275
 3655SOL    HW222599   2.865   3.197   6.457  0.6012  3.0713 -0.3025
 3656SOL     OW22600   2.735   0.723   1.521 -0.2677  0.3553  0.3399
 3656SOL    HW122601   2.805   0.777   1.560  1.8651 -1.2998 -1.2564
 3656SOL    HW222602   2.699   0.784   1.457  0.0640 -1.6208 -1.7203
 3657SOL     OW22603   3.661   2.734   6.717  0.2959 -0.1424  0.0973
 3657SOL    HW122604   3.692   2.759   6.804  1.4508  0.6162 -0.5302
 3657SOL    HW222605   3.739   2.761   6.669  0.0552  0.2564 -0.0610
 3658SOL     OW22606   3.029   3.773   8.780  0.1845 -0.0301  0.5007
 3658SOL    HW122607   2.997   3.777   8.870 -0.8896  2.9538 -0.0139
 3658SOL    HW222608   2.942   3.778   8.740  1.0422  0.4259 -1.2861
 3659SOL     OW22609   3.418   4.244   3.374  0.0054  0.6914  0.3144
 3659SOL    HW122610   3.336   4.233   3.423  0.6918 -0.2568  1.2570
 3659SOL    HW222611   3.401   4.331   3.338 -1.2500  0.7226  0.9896
 3660SOL     OW22612   2.203   1.335  14.747 -0.2683  0.0703  0.1591
 3660SOL    HW122613   2.194   1.268  14.815  0.6156  0.3346  0.5336
 3660SOL    HW222614   2.159   1.290  14.675 -1.7479  1.1120  0.4094
 3661SOL     OW22615   0.589   4.081   6.028  0.0726 -0.5358  0.1416
 3661SOL    HW122616   0.561   4.076   6.120 -0.0378  0.5606  0.1690
 3661SOL    HW222617   0.645   4.158   6.036  0.4323 -0.8590  0.7202
 3662SOL     OW22618   4.008   4.012   5.485 -0.0075 -0.1217 -0.1889
 3662SOL    HW122619   3.976   3.941   5.542 -0.6224 -0.3746 -0.8497
 3662SOL    HW222620   4.075   3.976   5.427 -0.6190 -0.3314 -0.7771
 3663SOL     OW22621   2.302   2.286   5.236 -0.4783 -0.0438 -0.3218
 3663SOL    HW122622   2.318   2.218   5.170 -3.7304 -2.1038  1.0082
 3663SOL    HW222623   2.387   2.322   5.261 -0.7628  0.8766 -0.6612
 3664SOL     OW22624   2.561   2.111   9.624 -0.5344 -0.3072 -0.4318
 3664SOL    HW122625   2.545   2.195   9.667  1.0758  1.9080 -4.1221
 3664SOL    HW222626   2.519   2.048   9.682  0.3646 -0.7170 -0.2251
 3665SOL     OW22627   1.474   2.723   9.037  0.5367 -0.3429 -0.4423
 3665SOL    HW122628   1.562   2.696   9.009  0.6308 -1.8306  1.2499
 3665SOL    HW222629   1.424   2.641   9.031  0.1643 -0.1365 -0.1697
 3666SOL     OW22630   3.258   0.655  13.115 -0.1639 -0.5965  0.3144
 3666SOL    HW122631   3.259   0.565  13.081  1.4583 -0.8579  1.0656
 3666SOL    HW222632   3.330   0.686  13.060  1.5930 -2.4266  1.5690
 3667SOL     OW22633   0.244   0.006  11.702 -0.4286  0.1533 -0.0178
 3667SOL    HW122634   0.232   0.082  11.645  0.5293  0.5148  0.2635
 3667SOL    HW222635   0.333   0.028  11.730 -1.1742 -1.3241  3.6106
 3668SOL     OW22636   1.526   1.172   5.798  0.1709  0.0701  0.0619
 3668SOL    HW122637   1.536   1.260   5.762  0.0281 -0.4621 -1.2927
 3668SOL    HW222638   1.437   1.144   5.779  0.4065 -0.0316 -0.8760
 3669SOL     OW22639   3.076   4.281   6.550  0.0106  0.4270  0.3639
 3669SOL    HW122640   3.042   4.281   6.639  1.2552  0.1341  0.8371
 3669SOL    HW222641   3.147   4.343   6.563 -0.3365  0.7973  0.4781
 3670SOL     OW22642   4.197   4.302  16.589  0.2588  0.6606  0.5695
 3670SOL    HW122643   4.213   4.208  16.584 -1.0123  0.4888 -0.2487
 3670SOL    HW222644   4.103   4.313  16.574  0.1146  0.8110  1.5803
 3671SOL     OW22645   2.783   3.703   4.094 -0.0113 -0.5579 -0.3950
 3671SOL    HW122646   2.689   3.708   4.075 -0.4893  0.1642  2.2516
 3671SOL    HW222647   2.806   3.792   4.121  1.6322  0.0904 -3.9296
 3672SOL     OW22648   0.237   3.008  10.496 -0.6460  0.0381  0.1466
 3672SOL    HW122649   0.299   2.987  10.427  0.1720  1.1014  0.5686
 3672SOL    HW222650   0.298   3.013  10.570  0.2523  2.3776 -0.7509
 3673SOL     OW22651   0.400   0.415  12.347  0.0751 -0.2530  0.2480
 3673SOL    HW122652   0.371   0.485  12.288  1.7091  1.0677  1.0070
 3673SOL    HW222653   0.373   0.456  12.429  1.2426  1.9429 -0.4589
 3674SOL     OW22654   0.570   0.912   7.607 -0.1879 -0.3686  0.4194
 3674SOL    HW122655   0.637   0.925   7.539  1.3248 -2.4970  1.5363
 3674SOL    HW222656   0.597   0.979   7.670  1.3001 -0.5005 -0.0611
 3675SOL     OW22657   2.325   4.497   5.326 -0.0744 -0.5991  0.1487
 3675SOL    HW122658   2.257   4.508   5.259  2.3242  3.7918 -1.5917
 3675SOL    HW222659   2.319   4.579   5.376 -1.3861  0.3919 -1.6202
 3676SOL     OW22660   1.937   0.232   3.253 -0.3138  0.1906  0.0082
 3676SOL    HW122661   1.927   0.202   3.163  0.1427  1.9665 -0.6357
 3676SOL    HW222662   1.859   0.194   3.294 -0.1885  1.6164  1.6015
 3677SOL     OW22663   0.578   1.897   6.937 -0.5389  0.1366  0.3807
 3677SOL    HW122664   0.573   1.992   6.950  0.1161  0.2725 -0.3269
 3677SOL    HW222665   0.490   1.869   6.913 -1.0709  1.8720  0.2510
 3678SOL     OW22666   3.863   4.703   4.445 -0.2028 -0.1703 -0.4298
 3678SOL    HW122667   3.871   0.020   4.526  2.7861 -2.5671  0.7700
 3678SOL    HW222668   3.893   4.617   4.475  1.1349  0.9751  1.4653
 3679SOL     OW22669   0.061   2.753   7.868  0.6558  0.7099  0.3452
 3679SOL    HW122670   0.024   2.665   7.880 -1.4247  1.2881 -1.6100
 3679SOL    HW222671   0.153   2.743   7.892 -0.0557  1.7252  3.5610
 3680SOL     OW22672   0.893   2.217   7.821 -0.2726 -0.2209  0.0464
 3680SOL    HW122673   0.919   2.289   7.763 -0.2220 -0.8026 -0.6614
 3680SOL    HW222674   0.922   2.249   7.906  0.4231 -0.3438 -0.1402
 3681SOL     OW22675   1.064   1.091   3.327  0.6912  0.1581 -0.2861
 3681SOL    HW122676   1.087   1.053   3.242 -0.2371  0.7798 -0.8103
 3681SOL    HW222677   0.990   1.150   3.312  2.2762  2.1505 -0.2738
 3682SOL     OW22678   1.811   0.980   0.178 -0.1115 -0.5597  0.5494
 3682SOL    HW122679   1.746   1.050   0.170 -0.5268 -0.9818  0.1671
 3682SOL    HW222680   1.867   0.994   0.102 -0.1896 -0.3945  0.5226
 3683SOL     OW22681   1.145   1.349   9.196  0.3272 -0.2471 -0.1854
 3683SOL    HW122682   1.146   1.387   9.108 -0.5691 -1.0423 -0.5384
 3683SOL    HW222683   1.106   1.426   9.237  2.0386  1.3287 -1.5332
 3684SOL     OW22684   0.079   0.946   9.525 -0.1606 -0.3843  0.1581
 3684SOL    HW122685   0.113   0.932   9.614  1.6612 -2.7164 -0.9017
 3684SOL    HW222686   0.120   1.027   9.497 -1.0608  1.2305  3.5275
 3685SOL     OW22687   4.128   1.968   7.238  0.2297 -0.3295  0.4267
 3685SOL    HW122688   4.124   2.051   7.190  0.7057 -0.1827  0.6449
 3685SOL    HW222689   4.034   1.949   7.233  0.1587 -0.6727  2.9631
 3686SOL     OW22690   0.566   2.754  14.495  0.4349 -0.0953  0.2351
 3686SOL    HW122691   0.537   2.741  14.405 -0.1447  1.2100  0.2285
 3686SOL    HW222692   0.659   2.736  14.487  0.5598  0.7552 -0.2736
 3687SOL     OW22693   4.085   4.717   3.910 -0.3080 -0.1586  0.8107
 3687SOL    HW122694   4.096   4.661   3.987 -0.9874  1.7054  2.2646
 3687SOL    HW222695   3.989   4.712   3.904 -0.4781  1.1889  2.5852
 3688SOL     OW22696   1.830   1.716   3.232  0.0325 -0.4525 -0.7186
 3688SOL    HW122697   1.799   1.633   3.197  0.9788 -0.9319 -0.4234
 3688SOL    HW222698   1.907   1.703   3.287 -0.9961 -1.2245  0.5079
 3689SOL     OW22699   3.884   1.954   1.885 -0.0897  0.2552  0.1230
 3689SOL    HW122700   3.892   1.956   1.981 -0.1911 -0.8183  0.1535
 3689SOL    HW222701   3.928   2.033   1.856 -0.3551  0.4711  0.3103
 3690SOL     OW22702   4.678   0.723   5.441  0.1483 -0.4046  0.0278
 3690SOL    HW122703   4.700   0.815   5.432  0.7665 -0.6700 -1.1465
 3690SOL    HW222704   4.648   0.697   5.354  3.0894  0.9706 -1.3980
 3691SOL     OW22705   3.295   0.079   9.056 -0.0596  0.0387  0.6942
 3691SOL    HW122706   3.361   0.033   9.109  1.0533  2.4334  1.3903
 3691SOL    HW222707   3.340   0.085   8.972 -0.0985  1.6911  0.7797
 3692SOL     OW22708   2.518   3.297  14.856 -0.4225 -0.1589  0.1728
 3692SOL    HW122709   2.446   3.347  14.818  0.3473  1.3033  0.6467
 3692SOL    HW222710   2.582   3.362  14.883 -0.0587 -0.9704  1.2934
 3693SOL     OW22711   1.393   4.065   3.822  0.3824 -0.1690  0.0098
 3693SOL    HW122712   1.448   4.023   3.888  3.3399 -2.8655 -4.1535
 3693SOL    HW222713   1.372   4.152   3.855 -0.8391 -0.3921 -0.1998
 3694SOL     OW22714   1.779   0.932   3.652 -0.2310  0.0157 -0.0043
 3694SOL    HW122715   1.852   0.963   3.705  1.1333 -2.4155 -0.4601
 3694SOL    HW222716   1.766   0.841   3.678  0.8234 -0.6932 -1.9616
 3695SOL     OW22717   0.788   2.401   4.763 -0.6020 -0.0911 -0.2072
 3695SOL    HW122718   0.875   2.386   4.726 -0.7218 -0.5989 -0.2864
 3695SOL    HW222719   0.748   2.473   4.715  1.1924  0.7720 -0.4235
 3696SOL     OW22720   3.512   4.296   4.723 -0.6220  0.1788  0.0284
 3696SOL    HW122721   3.575   4.325   4.657 -1.6215  3.4111  0.4956
 3696SOL    HW222722   3.547   4.213   4.756  3.2485  0.8318 -2.4546
 3697SOL     OW22723   0.290   0.169   5.466 -0.2583 -0.4907 -0.0503
 3697SOL    HW122724   0.349   0.157   5.391  0.5920 -0.1503  0.5552
 3697SOL    HW222725   0.216   0.115   5.438 -0.8889 -0.2529  1.1686
 3698SOL     OW22726   1.373   3.749   6.409  0.6110 -0.4093 -0.7491
 3698SOL    HW122727   1.386   3.834   6.367 -1.9123  0.5094  0.2872
 3698SOL    HW222728   1.458   3.728   6.447  0.2325 -0.8781 -0.1517
 3699SOL     OW22729   0.264   0.659   2.788  0.4157 -0.0985  0.0869
 3699SOL    HW122730   0.221   0.740   2.759  1.4519  1.5067  3.1008
 3699SOL    HW222731   0.306   0.627   2.708  1.1204 -0.6679  0.6849
 3700SOL     OW22732   1.399   1.910   3.800  0.4434 -0.4934  0.1603
 3700SOL    HW122733   1.392   1.925   3.706  2.5272 -1.6094 -0.1786
 3700SOL    HW222734   1.407   1.815   3.796  1.0388 -0.4708  0.7807
 3701SOL     OW22735   2.984   0.485   2.496  0.1031 -0.1237 -0.0745
 3701SOL    HW122736   2.955   0.415   2.554 -0.2410  0.8362  0.9201
 3701SOL    HW222737   3.040   0.428   2.443  0.4773  1.8528 -1.8162
 3702SOL     OW22738   0.983   1.641  17.165  0.1392 -0.5257  0.5716
 3702SOL    HW122739   1.069   1.668  17.199  0.6798 -0.8384 -0.5333
 3702SOL    HW222740   0.953   1.567  17.218 -0.9932  0.7547  1.6941
 3703SOL     OW22741   4.453   2.824   7.441 -0.1556 -0.1476 -0.2919
 3703SOL    HW122742   4.503   2.775   7.506 -3.2736  0.8304  2.8658
 3703SOL    HW222743   4.521   2.872   7.394  1.5096 -1.2523  1.0428
 3704SOL     OW22744   1.098   2.829   2.801  0.0042 -0.0227  0.6819
 3704SOL    HW122745   1.094   2.894   2.871 -1.2875 -0.4473  1.0001
 3704SOL    HW222746   1.187   2.800   2.822 -0.0734  0.2604  1.3802
 3705SOL     OW22747   4.165   1.981   1.429 -0.0715  0.8734  0.1329
 3705SOL    HW122748   4.211   2.056   1.467  0.1433  0.1090  1.3835
 3705SOL    HW222749   4.207   1.910   1.478 -0.5515 -0.2062 -1.0299
 3706SOL     OW22750   4.349   3.210   0.941 -0.7459  0.3162 -0.3443
 3706SOL    HW122751   4.381   3.254   0.862 -1.1765  0.3394 -0.5084
 3706SOL    HW222752   4.393   3.126   0.930  2.9675  2.3182 -0.7150
 3707SOL     OW22753   2.128   0.331  12.821 -0.1445 -0.0379 -0.2572
 3707SOL    HW122754   2.150   0.411  12.774  0.9819 -1.3224 -1.9472
 3707SOL    HW222755   2.096   0.362  12.905 -0.0238 -0.4835 -0.0502
 3708SOL     OW22756   4.539   4.158  13.700  0.2490 -0.4471  0.1309
 3708SOL    HW122757   4.553   4.064  13.711  0.4813 -0.3225  0.8920
 3708SOL    HW222758   4.445   4.172  13.706  0.1697 -0.4723 -1.0910
 3709SOL     OW22759   4.616   3.160   4.517  0.2011 -0.1128  0.1350
 3709SOL    HW122760   4.588   3.121   4.435  2.4443  1.9811 -1.6295
 3709SOL    HW222761   4.654   3.083   4.558  0.1185 -0.9752 -1.4023
 3710SOL     OW22762   4.260   0.312   2.439 -0.3087  0.2845 -0.2555
 3710SOL    HW122763   4.187   0.251   2.428  0.1604 -0.6575  1.9338
 3710SOL    HW222764   4.217   0.396   2.454  0.2226  0.7364 -1.2229
 3711SOL     OW22765   2.863   1.351  14.962  0.1821  0.2640 -0.6506
 3711SOL    HW122766   2.883   1.431  14.913 -2.9200  2.0783  1.0750
 3711SOL    HW222767   2.938   1.313  15.007 -0.9306 -0.9373  0.1717
 3712SOL     OW22768   0.108   4.378   6.033  0.4159  0.0557  0.4305
 3712SOL    HW122769   0.112   4.332   6.117  2.3446  1.2633  0.9999
 3712SOL    HW222770   0.078   4.306   5.978 -2.4519  1.9626 -0.4940
 3713SOL     OW22771   3.709   4.095   7.897 -0.8744 -0.6134  0.0146
 3713SOL    HW122772   3.652   4.119   7.969  0.3336  1.3290  0.3277
 3713SOL    HW222773   3.778   4.038   7.932  0.8243  2.9470  2.4391
 3714SOL     OW22774   2.662   0.775   4.524  0.6258 -0.1159  0.7038
 3714SOL    HW122775   2.732   0.787   4.460  1.3469 -0.6090  1.3884
 3714SOL    HW222776   2.588   0.821   4.486  1.5578  0.0634 -0.8806
 3715SOL     OW22777   4.517   1.412   0.931 -0.2077  0.1813  0.6027
 3715SOL    HW122778   4.548   1.338   0.879  0.8149  1.0003  0.0189
 3715SOL    HW222779   4.426   1.387   0.948 -0.3702  0.0300 -0.4693
 3716SOL     OW22780   2.621   0.057   5.356  0.0957 -0.2318  0.9629
 3716SOL    HW122781   2.663   0.093   5.278 -0.5225 -3.1745 -0.7312
 3716SOL    HW222782   2.690   0.052   5.422  0.6493  0.7990  0.4586
 3717SOL     OW22783   2.076   4.585  11.673 -0.1129  0.0683 -0.1356
 3717SOL    HW122784   2.163   4.622  11.691 -0.2194 -2.0158  4.6127
 3717SOL    HW222785   2.026   4.615  11.749  0.1712  0.2882 -0.0369
 3718SOL     OW22786   2.995   0.901   4.729 -0.7126  0.3750 -0.3914
 3718SOL    HW122787   2.951   0.862   4.653 -2.2586  1.7660 -0.2271
 3718SOL    HW222788   3.046   0.974   4.696 -0.3835  0.0675 -0.5606
 3719SOL     OW22789   0.214   4.379   2.314  1.0324  0.5291  0.4774
 3719SOL    HW122790   0.197   4.311   2.379 -0.4600 -1.0565 -1.5770
 3719SOL    HW222791   0.243   4.454   2.366  0.1070  0.8831  0.4697
 3720SOL     OW22792   1.227   2.798   7.271  0.1857  0.2108  0.1142
 3720SOL    HW122793   1.160   2.857   7.236 -2.0462 -2.6357 -0.4597
 3720SOL    HW222794   1.223   2.724   7.211  2.4019  0.9791 -0.9455
 3721SOL     OW22795   1.947   2.292  17.547 -0.7842 -0.4085 -0.1387
 3721SOL    HW122796   2.028   2.296  17.598  0.9574  1.1128 -3.0184
 3721SOL    HW222797   1.884   2.286  17.620  1.0362 -0.7158  1.4157
 3722SOL     OW22798   1.163   4.649  13.418  0.1329  0.2270 -0.6032
 3722SOL    HW122799   1.171   4.558  13.388 -2.4211 -0.5393  1.0435
 3722SOL    HW222800   1.214   4.641  13.498  1.6577  1.2635 -1.4666
 3723SOL     OW22801   3.130   1.101  11.421 -0.3013 -0.1965  0.1705
 3723SOL    HW122802   3.050   1.054  11.446  0.7328 -1.8741  0.3136
 3723SOL    HW222803   3.199   1.046  11.458 -0.1929  0.0257  0.2941
 3724SOL     OW22804   1.845   0.039  13.963  0.5051 -0.0643 -0.1674
 3724SOL    HW122805   1.868   0.079  13.879 -0.3865  3.3520  1.2423
 3724SOL    HW222806   1.779   0.103  13.988 -1.2621 -1.6823 -0.6517
 3725SOL     OW22807   2.125   0.156   7.983  0.0884  0.0160  0.1991
 3725SOL    HW122808   2.184   0.115   7.920  0.3234 -1.0273  1.1029
 3725SOL    HW222809   2.188   0.197   8.042 -2.5321  2.3527  1.4051
 3726SOL     OW22810   2.296   0.111   9.207 -0.1696  0.3336  0.3386
 3726SOL    HW122811   2.230   0.079   9.147 -1.0661 -1.8877  2.5274
 3726SOL    HW222812   2.355   0.037   9.220 -1.7865 -0.5926  2.4743
 3727SOL     OW22813   0.705   4.212   4.221 -0.6505 -0.1797 -0.3950
 3727SOL    HW122814   0.629   4.157   4.237  0.7045 -1.1153  2.9538
 3727SOL    HW222815   0.673   4.300   4.240 -1.1887 -0.3477 -0.5410
 3728SOL     OW22816   2.963   4.594   4.342 -0.4348  0.1705 -0.2160
 3728SOL    HW122817   2.867   4.594   4.337 -0.3650 -1.9690 -1.7533
 3728SOL    HW222818   2.988   4.639   4.261 -1.0818  3.3470  1.3459
 3729SOL     OW22819   0.555   3.265  12.765  0.3382 -0.3383 -0.3124
 3729SOL    HW122820   0.595   3.332  12.710  2.0549 -0.7347  0.4400
 3729SOL    HW222821   0.623   3.240  12.828 -0.3166 -1.2807  0.0236
 3730SOL     OW22822   0.651   2.758   8.617 -0.6561  0.2934  0.2686
 3730SOL    HW122823   0.698   2.788   8.695  0.8743 -2.2483  0.3052
 3730SOL    HW222824   0.582   2.823   8.633  0.7688  2.0490 -0.6296
 3731SOL     OW22825   1.605   1.238  17.463  0.2799 -0.2491  0.3353
 3731SOL    HW122826   1.665   1.244  17.537 -0.4123  0.2992  0.8452
 3731SOL    HW222827   1.549   1.314  17.478 -0.0104  0.4423 -4.2740
 3732SOL     OW22828   1.827   1.089   7.541  0.6240 -0.3683  0.0065
 3732SOL    HW122829   1.742   1.063   7.577  0.0749  2.7712  1.0006
 3732SOL    HW222830   1.879   1.106   7.619  1.4841  0.8691 -0.8351
 3733SOL     OW22831   3.566   4.200   6.047 -0.0639 -0.3173  0.3151
 3733SOL    HW122832   3.498   4.133   6.042 -0.7321  0.4532 -1.0656
 3733SOL    HW222833   3.536   4.248   5.969  2.2730  0.1425 -0.2838
 3734SOL     OW22834   1.315   3.524   0.532  0.3429 -0.1223 -0.0049
 3734SOL    HW122835   1.395   3.493   0.575 -0.1902 -2.1834 -0.5087
 3734SOL    HW222836   1.254   3.450   0.525  0.3608 -0.2884  1.4124
 3735SOL     OW22837   0.833   2.011   8.693 -0.4733 -0.4733  0.8838
 3735SOL    HW122838   0.827   1.920   8.723  2.9961 -1.5059 -1.6367
 3735SOL    HW222839   0.765   1.999   8.627 -1.4311  1.1140  1.6006
 3736SOL     OW22840   4.438   4.626   7.843  0.0590  0.0354  0.1569
 3736SOL    HW122841   4.520   4.578   7.825  1.5587  3.4310 -1.9390
 3736SOL    HW222842   4.370   4.558   7.842  0.6508 -0.5234 -1.8782
 3737SOL     OW22843   2.916   3.715   8.127  0.3581 -0.4937  0.0498
 3737SOL    HW122844   2.956   3.733   8.042  1.4495  0.9527  0.8859
 3737SOL    HW222845   2.823   3.702   8.107  0.5943 -0.1502 -1.2894
 3738SOL     OW22846   2.099   1.147   6.514 -0.3640 -0.0047  0.2572
 3738SOL    HW122847   2.113   1.066   6.465  2.6705  1.2892 -1.0158
 3738SOL    HW222848   2.007   1.143   6.540  0.1929 -2.0209  1.9080
 3739SOL     OW22849   3.850   0.112  16.898 -0.0600  0.0891  0.0175
 3739SOL    HW122850   3.885   0.184  16.846  2.0712 -1.3247 -0.4776
 3739SOL    HW222851   3.889   0.036  16.856  1.2452  0.3197  0.8208
 3740SOL     OW22852   4.448   1.537   7.925 -0.0243  0.0546 -0.3737
 3740SOL    HW122853   4.408   1.596   7.989  1.0609  0.6970 -0.2798
 3740SOL    HW222854   4.367   1.510   7.883 -0.6292 -1.4599  1.7612
 3741SOL     OW22855   0.542   0.365   6.889 -0.1039 -0.1829 -0.6289
 3741SOL    HW122856   0.550   0.404   6.976 -2.0359 -0.9961 -0.0714
 3741SOL    HW222857   0.468   0.305   6.902  0.3133 -0.5792 -0.0828
 3742SOL     OW22858   1.405   2.952  15.443  0.6001  0.3899 -0.2199
 3742SOL    HW122859   1.498   2.932  15.439  0.4586  0.0289 -1.6776
 3742SOL    HW222860   1.404   3.002  15.361 -2.0388  0.0565 -0.3960
 3743SOL     OW22861   3.871   2.654   8.615 -0.1928  0.7474  0.4271
 3743SOL    HW122862   3.935   2.684   8.680 -0.1688 -1.9033  1.6057
 3743SOL    HW222863   3.928   2.605   8.556 -3.1357 -1.3251 -0.6584
 3744SOL     OW22864   3.416   1.780   6.544 -0.7787  0.3260 -0.0463
 3744SOL    HW122865   3.438   1.798   6.453  0.6215  1.9416  0.6283
 3744SOL    HW222866   3.481   1.713   6.563 -2.1247 -1.0610 -0.2697
 3745SOL     OW22867   3.477   0.689   7.474 -0.1646 -0.1892 -0.0148
 3745SOL    HW122868   3.435   0.609   7.440  0.4535  1.0490 -3.7027
 3745SOL    HW222869   3.440   0.697   7.561  3.0591 -0.9754  1.4385
 3746SOL     OW22870   3.459   2.986   5.724  0.1261  0.4130 -0.0282
 3746SOL    HW122871   3.368   3.011   5.741  0.8656  4.3078 -1.7078
 3746SOL    HW222872   3.488   2.964   5.813  0.3843  2.6440  0.4439
 3747SOL     OW22873   1.841   0.433   8.145 -0.2093  0.3471 -0.3091
 3747SOL    HW122874   1.769   0.438   8.208  1.4729  0.1490  1.6232
 3747SOL    HW222875   1.903   0.492   8.188  2.2500 -2.7546  0.4116
 3748SOL     OW22876   3.860   0.260  17.146 -0.0227  0.0384  0.5942
 3748SOL    HW122877   3.874   0.200  17.072  0.0939 -0.9789  1.4341
 3748SOL    HW222878   3.921   0.222  17.209  1.8930  1.8844 -0.1284
 3749SOL     OW22879   1.444   4.412   9.340  0.0050  0.4867 -0.2320
 3749SOL    HW122880   1.399   4.484   9.295  1.4083  0.5344 -1.5657
 3749SOL    HW222881   1.381   4.343   9.321  2.0959 -1.2325 -0.8375
 3750SOL     OW22882   0.415   4.398   4.686 -0.0894 -0.5476 -0.0837
 3750SOL    HW122883   0.370   4.479   4.664 -0.2067 -1.0341 -1.6443
 3750SOL    HW222884   0.481   4.439   4.742 -0.0920  0.4216 -0.7946
 3751SOL     OW22885   2.113   2.708   2.591 -0.5644 -0.4277 -0.3994
 3751SOL    HW122886   2.110   2.618   2.624  0.3432 -0.6248 -0.8525
 3751SOL    HW222887   2.181   2.712   2.523  1.1977 -1.4100  1.3093
 3752SOL     OW22888   1.412   2.194   7.921  0.3252  0.5032 -0.2793
 3752SOL    HW122889   1.372   2.247   7.852 -1.4390  1.8885  1.7914
 3752SOL    HW222890   1.331   2.155   7.953  0.8933  0.3939  1.0187
 3753SOL     OW22891   3.592   1.500   0.597 -0.4175  0.3975  0.1762
 3753SOL    HW122892   3.525   1.447   0.554  1.5680 -1.5442 -0.5173
 3753SOL    HW222893   3.568   1.582   0.554  0.9057  0.5574 -0.2620
 3754SOL     OW22894   2.861   3.116  12.939 -0.9936  0.3084  0.1601
 3754SOL    HW122895   2.835   3.189  12.882 -1.6942 -0.3220 -0.3251
 3754SOL    HW222896   2.915   3.166  13.000  0.7566 -0.2714 -0.9044
 3755SOL     OW22897   1.773   3.827   4.570  0.0605 -0.5304 -0.4990
 3755SOL    HW122898   1.717   3.889   4.615  2.0516  1.9624 -1.4362
 3755SOL    HW222899   1.757   3.743   4.613  0.7904  0.0673  0.9368
 3756SOL     OW22900   0.543   0.957   5.409 -0.6454  0.3027 -0.4585
 3756SOL    HW122901   0.484   1.030   5.427 -0.1699  0.5361  0.1496
 3756SOL    HW222902   0.496   0.879   5.438 -0.0694 -0.0737 -0.5271
 3757SOL     OW22903   2.911   4.466   5.159  0.6842  0.1305 -0.1464
 3757SOL    HW122904   2.864   4.432   5.235  0.2369  0.9311 -0.0554
 3757SOL    HW222905   2.997   4.503   5.180  0.4216  0.3860  0.4862
 3758SOL     OW22906   4.414   4.125   7.342  1.1258 -0.0823 -0.8057
 3758SOL    HW122907   4.388   4.047   7.293 -0.4808  0.2057 -0.4172
 3758SOL    HW222908   4.409   4.187   7.269 -1.2334  1.6979  0.8809
 3759SOL     OW22909   2.810   3.514   2.142  0.0238 -0.2481 -0.0010
 3759SOL    HW122910   2.775   3.578   2.080 -0.6100  0.9680  1.6111
 3759SOL    HW222911   2.854   3.446   2.092  0.8227  1.0342 -1.0475
 3760SOL     OW22912   2.984   0.297   3.693  0.0960 -0.3702 -0.2927
 3760SOL    HW122913   3.004   0.242   3.618 -3.6008 -1.4419 -0.5022
 3760SOL    HW222914   2.982   0.382   3.649 -0.0225 -0.1243  0.1832
 3761SOL     OW22915   1.765   2.364   8.848  0.0454 -0.3544 -0.4662
 3761SOL    HW122916   1.847   2.335   8.807 -0.0627 -0.6228 -0.4907
 3761SOL    HW222917   1.721   2.282   8.869  1.3331 -0.8187  0.4667
 3762SOL     OW22918   1.331   2.712  11.173  0.2085 -0.2264 -0.5177
 3762SOL    HW122919   1.362   2.678  11.257 -1.3484 -0.3821 -0.0188
 3762SOL    HW222920   1.345   2.635  11.117 -2.2075  0.3545 -1.8817
 3763SOL     OW22921   1.253   2.626   3.992  0.1505  0.1910  0.2401
 3763SOL    HW122922   1.289   2.544   3.961  0.5947  0.6477 -0.4372
 3763SOL    HW222923   1.311   2.685   3.945  1.1193 -1.6060 -0.8169
 3764SOL     OW22924   0.459   3.032   7.319  0.3629 -0.1690  0.1414
 3764SOL    HW122925   0.433   2.967   7.384 -2.0384  0.9336  0.2958
 3764SOL    HW222926   0.438   3.117   7.359  3.3333  0.1120  1.0689
 3765SOL     OW22927   0.550   4.247   1.802 -0.1529  0.0757 -0.4584
 3765SOL    HW122928   0.495   4.301   1.859 -0.8444  0.9292 -1.9243
 3765SOL    HW222929   0.629   4.301   1.811 -1.0229  0.9302  2.0345
 3766SOL     OW22930   0.268   1.736   4.232 -0.1781 -0.1970 -0.0965
 3766SOL    HW122931   0.199   1.800   4.251 -1.0895 -1.4903  1.0115
 3766SOL    HW222932   0.309   1.786   4.163 -0.9256 -0.2715 -0.5958
 3767SOL     OW22933   1.967   3.709   8.354 -0.4093  0.1778 -0.2998
 3767SOL    HW122934   2.019   3.629   8.342 -1.8927 -0.7043 -0.8235
 3767SOL    HW222935   1.930   3.703   8.442  0.1605 -0.1364 -0.0823
 3768SOL     OW22936   2.824   0.768  11.307 -0.5369  0.4471  0.1584
 3768SOL    HW122937   2.810   0.795  11.216 -0.5628  1.1189  0.3575
 3768SOL    HW222938   2.814   0.673  11.304 -1.4700  0.5643 -0.3622
 3769SOL     OW22939   0.680   2.187   5.257 -0.4781 -0.2933  0.3509
 3769SOL    HW122940   0.680   2.253   5.187  1.1384  0.9751  1.5733
 3769SOL    HW222941   0.766   2.198   5.296  0.0284 -1.8944 -0.3270
 3770SOL     OW22942   1.694   4.089   2.164 -0.6287  0.5104 -0.2007
 3770SOL    HW122943   1.603   4.081   2.193 -0.8550 -0.7495 -1.2717
 3770SOL    HW222944   1.718   3.997   2.177 -0.8968  0.1490 -2.2126
 3771SOL     OW22945   0.425   0.681   8.978  0.6165  0.1503 -0.4948
 3771SOL    HW122946   0.342   0.672   9.024 -0.8007  3.3080 -2.4375
 3771SOL    HW222947   0.399   0.700   8.888 -2.8640 -0.1120  0.4674
 3772SOL     OW22948   0.880   4.398   5.575  0.0470 -0.3682  1.2510
 3772SOL    HW122949   0.961   4.420   5.620  0.0443 -0.3933  1.2686
 3772SOL    HW222950   0.808   4.454   5.603  1.7568  1.8369  1.2383
 3773SOL     OW22951   2.627   4.646  12.543 -0.2892 -0.3331  0.1541
 3773SOL    HW122952   2.538   4.676  12.523 -0.8223 -0.6910  1.9151
 3773SOL    HW222953   2.657   4.676  12.629 -2.0984  0.1436  0.6276
 3774SOL     OW22954   3.756   2.320   4.649 -0.6288  0.3128  0.2027
 3774SOL    HW122955   3.803   2.342   4.569  2.0334  2.0841  2.2846
 3774SOL    HW222956   3.738   2.226   4.639 -0.8659  0.1572  2.0209
 3775SOL     OW22957   0.860   3.811   9.104  0.1754 -0.2474 -0.2306
 3775SOL    HW122958   0.851   3.716   9.106 -1.9476 -0.0367  0.8843
 3775SOL    HW222959   0.900   3.827   9.189 -0.1718 -0.6297  0.0047
 3776SOL     OW22960   3.488   4.681  13.768  0.3770  0.2345  0.1817
 3776SOL    HW122961   3.559   0.001  13.733  0.7933 -0.9617 -0.8536
 3776SOL    HW222962   3.444   4.665  13.685 -0.5440  2.2445  0.3004
 3777SOL     OW22963   2.536   3.518   5.545  0.4429  0.4468  0.5984
 3777SOL    HW122964   2.443   3.499   5.560  0.8621 -1.9965  0.0952
 3777SOL    HW222965   2.573   3.436   5.575 -0.6320 -0.8833 -1.7188
 3778SOL     OW22966   1.378   2.578  16.993  0.0100  0.3537 -0.4806
 3778SOL    HW122967   1.425   2.661  16.999  0.3826  0.0205  1.1675
 3778SOL    HW222968   1.320   2.600  16.920 -1.9294  0.6731  1.1464
 3779SOL     OW22969   2.279   1.793   0.865  0.1962 -0.2034 -0.1167
 3779SOL    HW122970   2.204   1.793   0.805  1.5346 -2.0922 -1.7898
 3779SOL    HW222971   2.349   1.828   0.809 -1.5444 -0.0158 -2.1668
 3780SOL     OW22972   0.633   2.045  14.950 -0.5061 -0.3964 -0.7040
 3780SOL    HW122973   0.543   2.017  14.964 -0.1903 -1.3340 -0.5654
 3780SOL    HW222974   0.638   2.130  14.995  2.1105  0.4366 -2.5813
 3781SOL     OW22975   0.283   1.694   2.711 -0.2336 -0.5676  0.0129
 3781SOL    HW122976   0.209   1.648   2.751  0.2096 -2.5122 -1.3717
 3781SOL    HW222977   0.290   1.669   2.618  1.3328  0.5362 -0.1665
 3782SOL     OW22978   3.823   1.205   2.845 -0.1038 -0.2763 -0.1195
 3782SOL    HW122979   3.841   1.286   2.894 -0.9089  0.7363 -1.4970
 3782SOL    HW222980   3.913   1.172   2.854 -0.4429 -0.7483  1.4697
 3783SOL     OW22981   0.750   0.232   0.290  0.5054 -0.0629 -0.5272
 3783SOL    HW122982   0.694   0.301   0.252  1.3372  1.5467  1.1769
 3783SOL    HW222983   0.761   0.273   0.375 -1.6189  2.5646 -1.5077
 3784SOL     OW22984   0.866   2.701  16.165 -0.0784  0.4058 -0.8476
 3784SOL    HW122985   0.816   2.628  16.128 -1.5935  0.6693  0.6419
 3784SOL    HW222986   0.797   2.750  16.210 -0.1320 -0.6750  0.2417
 3785SOL     OW22987   3.627   1.954  16.949 -0.0657  0.1557  0.2771
 3785SOL    HW122988   3.632   2.038  16.903 -0.4200 -0.0149 -0.0694
 3785SOL    HW222989   3.532   1.941  16.949  0.0192 -0.5338  3.4649
 3786SOL     OW22990   1.889   1.713   2.442 -0.0280  0.0684 -0.2563
 3786SOL    HW122991   1.813   1.741   2.494 -1.1680  0.1172 -1.9713
 3786SOL    HW222992   1.921   1.793   2.401  0.4374 -0.2383 -0.4897
 3787SOL     OW22993   1.638   1.018   2.013 -0.4725 -0.1828 -0.2862
 3787SOL    HW122994   1.647   1.111   1.992  0.3001 -0.1921 -0.0142
 3787SOL    HW222995   1.712   0.990   1.959 -0.5374  2.8101 -1.9585
 3788SOL     OW22996   3.730   4.013   5.411  0.0171  0.5063  0.1490
 3788SOL    HW122997   3.811   3.975   5.444  0.4998  1.3796 -0.0494
 3788SOL    HW222998   3.675   3.940   5.381 -0.8920  0.2385  2.4493
 3789SOL     OW22999   0.307   4.677   3.801 -0.0760 -0.3555  0.1231
 3789SOL    HW123000   0.248   4.654   3.873  0.8972 -1.7966  0.4542
 3789SOL    HW223001   0.291   4.597   3.752 -1.0261  0.0719 -0.2667
 3790SOL     OW23002   1.183   3.742   8.679 -0.0524 -0.2050  0.0150
 3790SOL    HW123003   1.192   3.733   8.584 -0.7656 -0.0298 -0.0745
 3790SOL    HW223004   1.090   3.764   8.674 -0.1201 -0.5984 -0.5126
 3791SOL     OW23005   1.666   3.360   9.218 -0.8470  0.1615 -0.0551
 3791SOL    HW123006   1.670   3.341   9.125  1.2652  0.9714 -0.1348
 3791SOL    HW223007   1.751   3.392   9.247  0.0142 -1.3695 -0.9253
 3792SOL     OW23008   3.958   2.969   7.395  0.2888 -0.6720 -0.1799
 3792SOL    HW123009   4.046   2.998   7.416  0.0636  0.0645 -0.2445
 3792SOL    HW223010   3.923   2.963   7.484  1.2380 -1.3915  0.1381
 3793SOL     OW23011   3.963   0.649  11.181 -0.0441  0.8701 -0.8011
 3793SOL    HW123012   3.922   0.591  11.244 -0.6202  0.2658 -1.7410
 3793SOL    HW223013   4.049   0.607  11.173 -0.6329 -0.7969  1.5034
 3794SOL     OW23014   0.386   4.617   7.632 -0.2254 -0.5250 -0.1840
 3794SOL    HW123015   0.353   4.658   7.712  0.0231  2.2600 -1.5038
 3794SOL    HW223016   0.424   4.534   7.660 -1.7017 -0.5356  1.8451
 3795SOL     OW23017   4.345   1.674   8.128  0.4157  0.1526 -0.1701
 3795SOL    HW123018   4.323   1.593   8.176  1.0957 -0.7979 -1.4575
 3795SOL    HW223019   4.259   1.707   8.102  1.1265  1.2388 -1.1188
 3796SOL     OW23020   2.211   3.054   6.644  0.3373  0.4438  0.0108
 3796SOL    HW123021   2.152   3.090   6.578 -0.2379 -1.1308 -0.3544
 3796SOL    HW223022   2.199   2.960   6.629  1.8178  0.3675 -0.7384
 3797SOL     OW23023   0.870   3.961   2.834 -0.2417  0.5537 -0.0773
 3797SOL    HW123024   0.825   3.907   2.899  0.8343  1.5346  1.4562
 3797SOL    HW223025   0.909   3.894   2.777  4.6338  1.7798  1.8352
 3798SOL     OW23026   0.158   2.847   8.631 -0.2963  0.6109  0.2959
 3798SOL    HW123027   0.174   2.803   8.547  1.5168 -1.4679  1.7190
 3798SOL    HW223028   0.103   2.922   8.607  0.7343  1.5796  0.9653
 3799SOL     OW23029   4.169   4.359  17.579 -0.5270 -0.7392  0.0425
 3799SOL    HW123030   4.160   4.350  17.484  2.0549  2.1455 -0.4717
 3799SOL    HW223031   4.146   4.451  17.587  2.0320  0.0857 -1.8231
 3800SOL     OW23032   2.944   2.118   6.780  0.4126 -0.3694  0.4051
 3800SOL    HW123033   2.988   2.203   6.785  0.6964 -0.4533 -0.7071
 3800SOL    HW223034   2.864   2.137   6.828  1.7797  3.4117  1.2018
 3801SOL     OW23035   3.470   0.606   4.719 -0.9335 -0.3512 -0.3657
 3801SOL    HW123036   3.464   0.596   4.814 -1.7913  2.3450 -0.1443
 3801SOL    HW223037   3.561   0.585   4.699 -1.3203 -0.8860 -1.5342
 3802SOL     OW23038   2.157   3.623  17.309 -0.1459  0.1316  0.0759
 3802SOL    HW123039   2.211   3.693  17.272 -0.3673  0.4386  0.3340
 3802SOL    HW223040   2.179   3.633  17.401  1.1256  0.4303 -0.2557
 3803SOL     OW23041   0.123   0.480  12.578 -0.4608 -0.5645  0.8686
 3803SOL    HW123042   0.198   0.532  12.550 -1.2673 -0.5597 -1.2670
 3803SOL    HW223043   0.154   0.460  12.666  2.4476 -1.4365 -0.3627
 3804SOL     OW23044   4.135   3.882   0.266 -0.3008  0.0148 -0.0071
 3804SOL    HW123045   4.216   3.834   0.246  0.2085  1.4767 -1.4022
 3804SOL    HW223046   4.158   3.932   0.344  0.5297  0.5229 -0.5790
 3805SOL     OW23047   0.948   4.352   0.555  0.1523 -0.2499 -0.4262
 3805SOL    HW123048   0.895   4.406   0.614 -1.7839 -1.0090 -1.4698
 3805SOL    HW223049   1.031   4.393   0.580  0.3696  0.1605 -1.8231
 3806SOL     OW23050   0.813   4.453   1.013  0.0725  0.0371  0.7033
 3806SOL    HW123051   0.870   4.378   1.025 -0.2799 -0.2977  0.2908
 3806SOL    HW223052   0.748   4.427   1.078  1.0695 -1.1099  1.2335
 3807SOL     OW23053   2.642   0.614   4.731 -0.5020 -0.6860 -0.4820
 3807SOL    HW123054   2.633   0.691   4.675 -0.1748 -0.3996 -0.1398
 3807SOL    HW223055   2.552   0.611   4.761  0.9026 -1.2798  3.6089
 3808SOL     OW23056   3.156   3.917   1.062 -0.0213 -0.4358 -0.5860
 3808SOL    HW123057   3.086   3.856   1.085  0.1722 -0.9030 -1.2322
 3808SOL    HW223058   3.108   3.998   1.080 -0.4303 -1.3436  2.4612
 3809SOL     OW23059   0.270   2.236   3.691 -0.0552 -0.5982 -0.7978
 3809SOL    HW123060   0.205   2.304   3.674 -3.4225 -3.7212 -0.2741
 3809SOL    HW223061   0.289   2.205   3.603  0.8823  1.6957 -1.4051
 3810SOL     OW23062   0.767   1.995  16.514 -0.0213  0.2424 -0.0822
 3810SOL    HW123063   0.732   2.069  16.564 -1.1515 -0.8356  0.7557
 3810SOL    HW223064   0.786   1.938  16.588 -0.9557  1.1635  0.8782
 3811SOL     OW23065   0.238   1.187  13.063  0.6457  0.7986  0.3424
 3811SOL    HW123066   0.266   1.167  12.974 -1.5710 -2.4006  0.3695
 3811SOL    HW223067   0.175   1.254  13.037  1.5291  1.8199  0.8277
 3812SOL     OW23068   0.990   1.216   5.593  0.3205 -0.3963 -0.5613
 3812SOL    HW123069   1.034   1.290   5.634 -1.2386 -0.0568  0.4949
 3812SOL    HW223070   0.940   1.177   5.665  0.4769  0.9391  0.2765
 3813SOL     OW23071   2.790   4.513  13.377  0.4147  0.0581 -0.4182
 3813SOL    HW123072   2.729   4.547  13.441  1.2146  3.0125 -1.2236
 3813SOL    HW223073   2.748   4.442  13.328 -0.0176  0.2950 -0.3918
 3814SOL     OW23074   4.584   0.230   4.808 -0.5991 -0.0767 -0.0631
 3814SOL    HW123075   4.611   0.294   4.741 -0.9397  0.4260  0.2782
 3814SOL    HW223076   4.626   0.148   4.782  0.5296  1.3057 -2.5735
 3815SOL     OW23077   3.421   4.364   7.646  0.4427 -0.1081  0.4311
 3815SOL    HW123078   3.499   4.311   7.662  0.5282 -0.5915 -1.6537
 3815SOL    HW223079   3.418   4.373   7.551 -1.6054  1.6696  0.6696
 3816SOL     OW23080   3.747   0.284   9.090 -0.1327 -0.2746  0.0573
 3816SOL    HW123081   3.740   0.189   9.088 -1.3467 -0.1928  0.0913
 3816SOL    HW223082   3.683   0.303   9.021 -2.6368  0.4120  2.6019
 3817SOL     OW23083   2.668   4.575   6.429 -0.2873  0.4693  0.1057
 3817SOL    HW123084   2.685   4.661   6.390 -2.0339 -0.0817 -1.8524
 3817SOL    HW223085   2.654   4.514   6.357  1.4618  0.3651 -0.1427
 3818SOL     OW23086   0.821   4.448  16.105  0.1110 -0.6058 -0.0281
 3818SOL    HW123087   0.845   4.508  16.175 -0.4549 -1.2703  0.7260
 3818SOL    HW223088   0.908   4.413  16.085  0.3970 -0.1120  0.3409
 3819SOL     OW23089   2.154   3.195   4.955  0.1073 -0.3619  0.0761
 3819SOL    HW123090   2.155   3.165   4.864  3.1635  2.3514 -0.7766
 3819SOL    HW223091   2.226   3.145   4.993  2.5520  2.7215 -0.5694
 3820SOL     OW23092   3.787   1.915   6.593  0.0776 -0.4468  0.1275
 3820SOL    HW123093   3.711   1.972   6.598 -0.4247 -1.0729 -0.3826
 3820SOL    HW223094   3.753   1.829   6.619  0.9776 -0.9640 -0.4056
 3821SOL     OW23095   1.107   1.442   5.712  0.1544  0.0723 -0.1281
 3821SOL    HW123096   1.147   1.490   5.784 -0.4222  1.9771 -1.0731
 3821SOL    HW223097   1.103   1.511   5.645 -0.3765 -0.8392 -1.0492
 3822SOL     OW23098   1.633   2.995   1.645  0.2076  0.0064 -0.1108
 3822SOL    HW123099   1.591   2.945   1.715 -0.3996  0.4984 -0.1188
 3822SOL    HW223100   1.627   3.085   1.678 -1.1651  0.1318 -0.7139
 3823SOL     OW23101   1.026   3.828  11.064 -0.0991  0.7746  0.1555
 3823SOL    HW123102   1.089   3.822  11.136  0.8440  0.9901 -0.6397
 3823SOL    HW223103   0.988   3.743  11.081  1.4676 -0.3908 -2.0509
 3824SOL     OW23104   1.467   1.416   4.692 -0.5674  0.4564 -0.3461
 3824SOL    HW123105   1.487   1.476   4.763 -0.5993  1.1598 -0.9271
 3824SOL    HW223106   1.547   1.364   4.687 -1.1226 -0.3010 -1.5752
 3825SOL     OW23107   4.195   3.689   1.797 -0.5124 -0.3022  0.0542
 3825SOL    HW123108   4.250   3.646   1.731 -0.9357  1.3048 -1.3668
 3825SOL    HW223109   4.262   3.744   1.836 -2.1345  1.3353  0.5538
 3826SOL     OW23110   2.010   1.628   2.809  0.4342  0.7292 -0.1733
 3826SOL    HW123111   1.956   1.565   2.760 -1.3114  1.6927  0.4919
 3826SOL    HW223112   1.998   1.706   2.755 -0.7507  0.6437 -0.0527
 3827SOL     OW23113   2.108   4.367   5.490 -0.2285  0.0853  0.2930
 3827SOL    HW123114   2.104   4.375   5.394  0.2725  1.4379  0.3887
 3827SOL    HW223115   2.079   4.452   5.524 -0.4042 -0.4104  1.3844
 3828SOL     OW23116   0.447   2.366  10.837 -0.5803  0.0593  0.2268
 3828SOL    HW123117   0.418   2.304  10.770 -1.1551 -1.5993  2.0128
 3828SOL    HW223118   0.536   2.377  10.803 -0.7648  1.0450  0.0701
 3829SOL     OW23119   1.141   1.062   5.451  0.4021  0.3053 -0.7014
 3829SOL    HW123120   1.220   1.116   5.449  1.4273 -1.2125 -1.1212
 3829SOL    HW223121   1.093   1.111   5.517 -1.4074 -0.9160 -1.1281
 3830SOL     OW23122   2.748   1.283  12.103 -0.5704  0.5749  0.0874
 3830SOL    HW123123   2.703   1.358  12.063  0.2069  1.2006  0.3813
 3830SOL    HW223124   2.835   1.300  12.068 -0.0310 -3.2695 -0.4379
 3831SOL     OW23125   3.482   3.835   7.400 -0.6399 -0.1426  0.5822
 3831SOL    HW123126   3.554   3.775   7.422  0.4603  1.1837  0.5563
 3831SOL    HW223127   3.412   3.770   7.406  1.0686 -2.0632 -0.2506
 3832SOL     OW23128   4.516   2.980  12.071 -0.1555  0.1639 -1.0390
 3832SOL    HW123129   4.603   3.013  12.092 -1.1923  1.2627  1.5909
 3832SOL    HW223130   4.482   2.966  12.160  1.6209 -0.3052 -0.4363
 3833SOL     OW23131   0.382   1.822   3.246 -0.3111  0.3599  0.2744
 3833SOL    HW123132   0.320   1.877   3.197  0.2651  1.7584  1.1514
 3833SOL    HW223133   0.334   1.802   3.326 -0.0487  1.2320  0.6391
 3834SOL     OW23134   0.021   0.267   6.851  0.2956 -0.3262 -0.0387
 3834SOL    HW123135   4.695   0.206   6.809  1.0795 -2.0447  1.3274
 3834SOL    HW223136   0.008   0.339   6.789  0.4901  1.5488  2.1029
 3835SOL     OW23137   2.535   4.671   7.677  0.2089  0.3486  0.2166
 3835SOL    HW123138   2.553   4.673   7.583 -2.2239  3.0953 -0.1750
 3835SOL    HW223139   2.597   0.000   7.714 -0.1952  0.2020  1.1463
 3836SOL     OW23140   1.620   2.810   8.698 -0.0194  0.0887  0.5234
 3836SOL    HW123141   1.671   2.734   8.672  1.8484  1.0186  1.5122
 3836SOL    HW223142   1.659   2.867   8.632 -1.4029 -0.7017 -1.0102
 3837SOL     OW23143   4.294   1.431   3.996  0.4859  0.2182 -0.2748
 3837SOL    HW123144   4.353   1.372   4.043  0.8349  1.0774  0.3519
 3837SOL    HW223145   4.357   1.500   3.979 -1.5250  2.7116  2.4648
 3838SOL     OW23146   4.167   4.509  11.360  0.4318 -0.1428  0.3296
 3838SOL    HW123147   4.234   4.442  11.371 -0.0942 -0.6744  0.2962
 3838SOL    HW223148   4.150   4.510  11.266 -1.4654 -2.0226  0.6578
 3839SOL     OW23149   3.611   3.441   5.761 -0.3725 -0.2130 -0.0299
 3839SOL    HW123150   3.654   3.356   5.765 -0.8415 -0.4672 -0.4624
 3839SOL    HW223151   3.524   3.418   5.793 -1.2566  1.6737 -1.1166
 3840SOL     OW23152   0.237   3.613   9.862 -0.3725 -0.1175  0.4433
 3840SOL    HW123153   0.226   3.522   9.835 -0.5849 -0.0445  0.2802
 3840SOL    HW223154   0.187   3.658   9.793  0.0575  0.8007  0.7289
 3841SOL     OW23155   2.875   1.118  11.905  0.3285  0.1870 -0.6610
 3841SOL    HW123156   2.939   1.187  11.921 -0.4583  0.7305  0.1679
 3841SOL    HW223157   2.934   1.048  11.933 -1.4795 -1.3869 -0.8227
 3842SOL     OW23158   0.699   3.354   5.865 -0.5708 -0.2249  0.0645
 3842SOL    HW123159   0.728   3.285   5.925 -1.3021  1.4749  2.3494
 3842SOL    HW223160   0.622   3.311   5.829 -1.3430  2.0516 -1.0033
 3843SOL     OW23161   2.608   0.279  12.046  0.1245 -0.2020  0.7390
 3843SOL    HW123162   2.690   0.241  12.079  0.1650 -0.9177 -0.1615
 3843SOL    HW223163   2.628   0.369  12.069 -1.2950  0.4003 -0.3960
 3844SOL     OW23164   0.419   2.348  12.898  0.0200  0.2302 -0.1802
 3844SOL    HW123165   0.488   2.349  12.831 -0.7992  0.1012 -1.0211
 3844SOL    HW223166   0.476   2.357  12.974  0.4355  0.4665 -0.5166
 3845SOL     OW23167   1.938   1.181   1.394 -0.1310 -0.2090  0.0351
 3845SOL    HW123168   1.888   1.259   1.367 -0.0918  0.1434  1.0083
 3845SOL    HW223169   1.918   1.123   1.320 -0.1692  1.6747 -1.4405
 3846SOL     OW23170   2.898   3.181  14.470  0.1901 -0.1958  0.4083
 3846SOL    HW123171   2.822   3.197  14.527  1.2272 -0.4726  1.8749
 3846SOL    HW223172   2.931   3.096  14.500 -0.0625 -0.2535  0.5253
 3847SOL     OW23173   3.388   0.892   2.456 -0.0901  0.6783  0.0214
 3847SOL    HW123174   3.392   0.805   2.417 -1.4304 -0.6413  2.8431
 3847SOL    HW223175   3.294   0.897   2.474 -0.6447  1.2090 -3.0247
 3848SOL     OW23176   0.590   4.304  13.268  0.0225  0.0684 -0.3180
 3848SOL    HW123177   0.636   4.379  13.230 -1.3049 -0.0636 -2.2199
 3848SOL    HW223178   0.533   4.340  13.336  0.8352  0.6671  0.0405
 3849SOL     OW23179   0.160   1.443  11.856 -0.0542 -0.4530 -0.0334
 3849SOL    HW123180   0.122   1.356  11.846 -0.3129 -0.2954 -0.3982
 3849SOL    HW223181   0.237   1.411  11.904  0.5097 -1.6528 -1.7255
 3850SOL     OW23182   3.595   2.423   3.551  0.0227 -0.1959  0.3316
 3850SOL    HW123183   3.688   2.402   3.539  0.5188  1.4966  1.1209
 3850SOL    HW223184   3.590   2.393   3.642  0.2855 -0.1353  0.3661
 3851SOL     OW23185   0.552   4.675   3.918  0.3523 -0.0034 -0.1439
 3851SOL    HW123186   0.467   4.693   3.879  0.1054  3.6352  2.0982
 3851SOL    HW223187   0.537   4.702   4.009 -0.0162  0.9771 -0.4938
 3852SOL     OW23188   2.731   3.883   6.588 -0.5992 -0.2762  0.2936
 3852SOL    HW123189   2.672   3.928   6.649  0.1329  1.1708 -0.0506
 3852SOL    HW223190   2.803   3.857   6.646  0.9605  2.6350 -0.3394
 3853SOL     OW23191   0.937   2.636   7.244  0.0862  0.0665  0.3809
 3853SOL    HW123192   0.962   2.717   7.289  0.7892 -0.1083  0.2953
 3853SOL    HW223193   0.881   2.591   7.308 -0.0998 -0.1805  0.0392
 3854SOL     OW23194   2.661   3.007   5.027 -0.0931 -0.0149 -0.7510
 3854SOL    HW123195   2.625   2.962   4.951 -1.1708 -0.1061 -0.1891
 3854SOL    HW223196   2.641   3.097   5.000 -0.4295 -0.4994 -2.0734
 3855SOL     OW23197   1.483   0.729   4.688 -0.1784 -0.1122  0.7318
 3855SOL    HW123198   1.543   0.655   4.695  1.7388  1.2416 -1.3301
 3855SOL    HW223199   1.534   0.789   4.633  0.3155  0.0356  1.3563
 3856SOL     OW23200   4.143   2.097   3.793  0.4791  0.2093  0.7724
 3856SOL    HW123201   4.205   2.060   3.731 -0.3152  0.8596 -0.4171
 3856SOL    HW223202   4.193   2.161   3.843  2.2286  0.0374 -0.7971
 3857SOL     OW23203   4.408   0.137  16.970 -0.5338 -0.7334  0.2538
 3857SOL    HW123204   4.467   0.062  16.968  1.0837  0.5348  0.4665
 3857SOL    HW223205   4.366   0.133  16.884 -0.8444  1.1253  0.3096
 3858SOL     OW23206   1.384   2.564  11.423  0.1486  0.0098  0.2343
 3858SOL    HW123207   1.468   2.595  11.458 -0.4144  1.7623  0.0178
 3858SOL    HW223208   1.328   2.611  11.485 -0.6424 -1.8061  0.8962
 3859SOL     OW23209   1.184   1.213   6.467 -0.0159 -0.4224  0.0782
 3859SOL    HW123210   1.138   1.216   6.552 -0.1741 -2.2458  0.0550
 3859SOL    HW223211   1.214   1.122   6.472 -0.3454 -0.5997 -1.1985
 3860SOL     OW23212   1.960   4.069   4.180  0.1445 -0.3635  0.2493
 3860SOL    HW123213   1.890   4.022   4.226 -0.1872  0.7008  0.8368
 3860SOL    HW223214   1.960   4.019   4.099  3.0167 -0.4598  0.3286
 3861SOL     OW23215   1.718   0.943   6.111  0.1218  0.3291 -0.2211
 3861SOL    HW123216   1.737   0.893   6.190  1.2045  1.4787  0.2592
 3861SOL    HW223217   1.633   0.974   6.143  1.5606  1.8289  2.2237
 3862SOL     OW23218   1.470   1.283  11.021 -0.0227  0.3523 -0.5769
 3862SOL    HW123219   1.460   1.261  10.928  1.9100  1.0208 -0.9397
 3862SOL    HW223220   1.563   1.305  11.025  0.4145 -1.4261 -0.9882
 3863SOL     OW23221   1.552   0.632   7.694 -0.3028  0.0561  0.0101
 3863SOL    HW123222   1.544   0.537   7.700  0.1999 -0.0806 -1.4303
 3863SOL    HW223223   1.470   0.656   7.651 -0.1932  1.4020  0.5341
 3864SOL     OW23224   3.725   4.218   0.022  0.0281 -0.0481 -0.5442
 3864SOL    HW123225   3.791   4.211  17.689  0.3102 -0.2123 -0.2550
 3864SOL    HW223226   3.710   4.129   0.053 -0.0166 -0.7421 -2.5498
 3865SOL     OW23227   3.828   1.335   6.309  0.4994  0.2681 -0.2763
 3865SOL    HW123228   3.788   1.250   6.326 -0.5256  0.1257 -3.4868
 3865SOL    HW223229   3.844   1.347   6.216 -1.5469  3.1383 -0.2381
 3866SOL     OW23230   2.116   2.458   5.328  0.1234 -0.0500 -0.4353
 3866SOL    HW123231   2.049   2.462   5.260 -1.7355 -1.9815  1.2845
 3866SOL    HW223232   2.184   2.398   5.296  1.4010  0.7150  0.8328
 3867SOL     OW23233   3.256   0.179   4.217 -0.4260 -0.3384  0.2124
 3867SOL    HW123234   3.312   0.119   4.167 -0.9362 -1.1136  0.5748
 3867SOL    HW223235   3.270   0.159   4.309 -1.1450 -1.4792  0.0809
 3868SOL     OW23236   2.814   2.376   8.308  0.2463  0.5078 -0.4379
 3868SOL    HW123237   2.828   2.440   8.237 -0.6717 -0.3863 -1.4387
 3868SOL    HW223238   2.885   2.312   8.306  0.6042  0.8860  0.2362
 3869SOL     OW23239   3.135   3.273  16.226  0.0111  0.4797 -0.8678
 3869SOL    HW123240   3.107   3.310  16.142 -1.6516 -0.4080 -0.6997
 3869SOL    HW223241   3.221   3.238  16.203  0.7423  0.4075  1.9296
 3870SOL     OW23242   2.932   0.343   5.142  0.0292  0.6348 -0.1415
 3870SOL    HW123243   2.866   0.277   5.125  0.1446  0.2678  0.8011
 3870SOL    HW223244   3.009   0.322   5.089  0.2498  0.6835  0.1563
 3871SOL     OW23245   4.163   1.849   3.984 -0.3872  0.4634 -0.1148
 3871SOL    HW123246   4.252   1.886   3.983  0.0258 -0.5106  1.8192
 3871SOL    HW223247   4.125   1.921   3.933 -2.9351 -0.4030  0.5880
 3872SOL     OW23248   4.626   2.505   4.245 -0.1398 -0.0684  0.5849
 3872SOL    HW123249   4.541   2.463   4.232 -0.2401 -0.0511  1.1648
 3872SOL    HW223250   4.620   2.523   4.339  0.2910  0.0639  0.5867
 3873SOL     OW23251   0.726   2.800   6.320 -0.0415  0.6036  0.2890
 3873SOL    HW123252   0.655   2.742   6.290 -0.5134  1.2940  0.0903
 3873SOL    HW223253   0.709   2.872   6.260  0.3842  0.4429 -0.0299
 3874SOL     OW23254   3.285   2.996   5.430 -0.2120  0.0583 -0.5256
 3874SOL    HW123255   3.197   3.018   5.460  1.0151  3.4635  0.6056
 3874SOL    HW223256   3.261   3.008   5.338 -1.1666  1.2479 -0.1207
 3875SOL     OW23257   2.092   1.980   9.549  0.7263 -0.0842  0.7215
 3875SOL    HW123258   2.144   1.906   9.517 -1.0045 -0.7297 -0.5706
 3875SOL    HW223259   2.153   2.054   9.557 -1.0745  1.5392 -0.7588
 3876SOL     OW23260   1.385   0.223   3.157  0.2875  0.1206 -0.8535
 3876SOL    HW123261   1.365   0.217   3.064 -1.2967 -0.7119 -0.4591
 3876SOL    HW223262   1.373   0.133   3.188 -1.4846  0.8028  0.4328
 3877SOL     OW23263   1.765   4.481   3.261 -0.6199 -0.7688  0.5376
 3877SOL    HW123264   1.714   4.417   3.212 -0.6688  0.9191 -1.5977
 3877SOL    HW223265   1.853   4.478   3.224 -1.3659  1.2529 -1.4077
 3878SOL     OW23266   1.636   0.123  11.351 -0.0030  0.2962 -0.3846
 3878SOL    HW123267   1.616   0.174  11.273 -2.3378  0.1391  0.1200
 3878SOL    HW223268   1.567   0.139  11.415 -1.0413 -1.3411 -1.1079
 3879SOL     OW23269   4.357   3.029  15.550 -0.6924  0.1705  0.1488
 3879SOL    HW123270   4.427   3.019  15.486 -2.6059 -0.6735 -1.8049
 3879SOL    HW223271   4.386   2.968  15.618  0.5350  0.0245 -0.4987
 3880SOL     OW23272   1.254   1.853  15.674 -0.0174 -0.1528  0.3420
 3880SOL    HW123273   1.281   1.805  15.596  0.6519 -3.0031  2.3133
 3880SOL    HW223274   1.265   1.945  15.654 -2.5894  0.2956  1.0475
 3881SOL     OW23275   1.492   0.455   6.919 -0.2139  0.5238  0.0074
 3881SOL    HW123276   1.568   0.510   6.900  0.6460 -0.8038 -0.4310
 3881SOL    HW223277   1.519   0.432   7.008  2.7993  0.8947 -0.7980
 3882SOL     OW23278   3.061   3.283   5.146 -0.4414 -0.2282  0.7054
 3882SOL    HW123279   3.024   3.368   5.125 -1.3452 -0.3257  1.9217
 3882SOL    HW223280   3.104   3.268   5.062 -1.9230 -0.3413 -0.0226
 3883SOL     OW23281   4.393   2.608   6.442  0.1747  0.5088  0.0229
 3883SOL    HW123282   4.396   2.596   6.347  0.4659  1.4466 -0.0874
 3883SOL    HW223283   4.452   2.535   6.461 -0.8345  0.2440  2.1989
 3884SOL     OW23284   3.513   1.408   8.747  0.2440 -0.3579 -0.2280
 3884SOL    HW123285   3.438   1.381   8.693 -1.3387  1.4709  1.0408
 3884SOL    HW223286   3.520   1.496   8.710 -1.9233 -0.5152 -1.0726
 3885SOL     OW23287   1.066   3.568   9.404 -0.6635 -0.0354  0.4005
 3885SOL    HW123288   1.062   3.475   9.426 -0.6148 -0.3491 -0.9194
 3885SOL    HW223289   1.131   3.589   9.471 -1.1900  2.5631  0.1197
 3886SOL     OW23290   2.402   1.630   8.209 -0.0184  0.2103 -0.0765
 3886SOL    HW123291   2.427   1.559   8.149  1.1274  0.0075  0.6435
 3886SOL    HW223292   2.452   1.606   8.287 -1.5929 -1.7661  0.3121
 3887SOL     OW23293   0.435   3.091   4.613 -0.0063  0.3587 -0.0620
 3887SOL    HW123294   0.512   3.137   4.647  0.3904  0.7029 -1.4244
 3887SOL    HW223295   0.392   3.051   4.689 -1.6506  1.0277 -0.6531
 3888SOL     OW23296   4.143   4.259   4.550  0.4018  0.1285 -0.1663
 3888SOL    HW123297   4.074   4.209   4.594  0.0468  0.0541 -0.8044
 3888SOL    HW223298   4.214   4.197   4.535 -0.9040 -1.3034 -0.5088
 3889SOL     OW23299   4.140   3.366   6.079  0.8172  0.0487  0.1808
 3889SOL    HW123300   4.235   3.357   6.089  0.6038 -1.7163  0.7609
 3889SOL    HW223301   4.104   3.341   6.165  2.5538  1.0619  1.2044
 3890SOL     OW23302   1.800   3.945  11.791  0.0710  0.5621  0.0592
 3890SOL    HW123303   1.830   3.986  11.871 -0.3606 -0.9140  0.9712
 3890SOL    HW223304   1.832   4.008  11.726  0.6689 -0.5833 -0.7403
 3891SOL     OW23305   1.996   3.260  14.283 -0.2894  0.4560  0.5986
 3891SOL    HW123306   1.997   3.268  14.188 -1.4703  0.0972  0.5568
 3891SOL    HW223307   2.088   3.240  14.296  0.4569  1.9438 -2.4359
 3892SOL     OW23308   0.320   0.015   7.844  0.6317 -0.0546  0.4720
 3892SOL    HW123309   0.272   0.022   7.927  0.3828 -0.7145  0.3805
 3892SOL    HW223310   0.268   0.081   7.797 -0.6026 -0.1455  1.6865
 3893SOL     OW23311   2.348   2.982   9.001 -0.4516  0.6251  0.0356
 3893SOL    HW123312   2.356   3.072   8.971  1.4792  0.6415  0.5689
 3893SOL    HW223313   2.340   2.944   8.914 -1.5790  1.2306 -0.1179
 3894SOL     OW23314   4.647   0.675   5.139 -0.8270  0.1153 -0.2946
 3894SOL    HW123315   4.723   0.617   5.145 -0.4329  0.7714  0.9608
 3894SOL    HW223316   4.658   0.708   5.050 -1.2740  2.3102  0.4722
 3895SOL     OW23317   0.665   2.136  11.373  0.1131  0.4344 -0.2768
 3895SOL    HW123318   0.587   2.110  11.325  0.1036  0.3261 -0.2032
 3895SOL    HW223319   0.631   2.197  11.438 -1.0480  1.2595 -1.6626
 3896SOL     OW23320   1.994   4.508   8.361  0.1066 -0.4719  0.7028
 3896SOL    HW123321   2.065   4.455   8.398 -0.0434 -0.6020  0.8025
 3896SOL    HW223322   2.054   4.568   8.317  0.5007  0.1691  2.1033
 3897SOL     OW23323   3.646   1.605   6.605 -0.8465 -0.0578  0.3538
 3897SOL    HW123324   3.614   1.516   6.623  0.9876 -1.1822 -1.9074
 3897SOL    HW223325   3.671   1.635   6.692  0.9214  2.4272 -1.0211
 3898SOL     OW23326   4.682   3.322   5.077  0.6780 -0.6173  0.5740
 3898SOL    HW123327   4.711   3.250   5.134 -0.3528  1.4272  3.6772
 3898SOL    HW223328   0.008   3.391   5.106 -0.7836  0.3647  1.2566
 3899SOL     OW23329   1.245   1.181   5.773 -0.6298  0.5645  0.2271
 3899SOL    HW123330   1.201   1.191   5.857 -0.1361 -2.7548  0.8790
 3899SOL    HW223331   1.219   1.265   5.734 -2.2768  0.9830  2.2547
 3900SOL     OW23332   1.553   3.525   4.885 -0.4189 -0.0804 -0.0002
 3900SOL    HW123333   1.499   3.456   4.845 -0.7673  0.3784 -0.3162
 3900SOL    HW223334   1.534   3.529   4.978  0.0410 -2.7979  0.2347
 3901SOL     OW23335   2.944   1.043   7.309  0.0593 -0.6308  0.1403
 3901SOL    HW123336   2.991   1.120   7.279 -1.2940 -0.4431 -1.4542
 3901SOL    HW223337   2.960   0.982   7.237 -1.6271 -0.1141 -0.6621
 3902SOL     OW23338   1.792   3.086   2.593  0.3612 -0.2301  0.0559
 3902SOL    HW123339   1.767   3.037   2.671  1.1367  1.7487  1.5746
 3902SOL    HW223340   1.831   3.019   2.539  0.4374 -0.9588  1.0096
 3903SOL     OW23341   3.449   3.237  14.101 -0.2928 -0.2557 -0.2870
 3903SOL    HW123342   3.403   3.213  14.182  1.0731  0.4880  0.7310
 3903SOL    HW223343   3.498   3.313  14.135 -2.7733  1.1508  0.1663
 3904SOL     OW23344   2.711   4.364   4.411  0.3470 -0.0639  0.5310
 3904SOL    HW123345   2.671   4.416   4.481  1.6856  1.9065 -0.1639
 3904SOL    HW223346   2.696   4.422   4.336  2.2481  1.5949  1.4492
 3905SOL     OW23347   1.810   0.301   4.656 -0.6477  0.0166  0.4280
 3905SOL    HW123348   1.717   0.325   4.650 -0.9339 -0.8041  1.5889
 3905SOL    HW223349   1.814   0.268   4.745  1.0263  0.0122  0.3487
 3906SOL     OW23350   4.213   1.827   2.505 -0.0053  0.7308 -0.2933
 3906SOL    HW123351   4.123   1.851   2.484  0.4500 -0.1100 -3.1992
 3906SOL    HW223352   4.204   1.734   2.484 -1.2388  0.2140  2.4643
 3907SOL     OW23353   1.560   0.532  10.179 -0.4935  0.0332 -0.3733
 3907SOL    HW123354   1.517   0.451  10.208 -0.3611  0.1266  0.0790
 3907SOL    HW223355   1.654   0.518  10.187 -0.5277 -0.4381 -0.7962
 3908SOL     OW23356   1.117   2.949   9.451  0.6340  0.2278  0.5822
 3908SOL    HW123357   1.115   2.974   9.544  3.1840  2.6313  0.0110
 3908SOL    HW223358   1.207   2.982   9.444  0.9400 -0.5480  0.8380
 3909SOL     OW23359   2.208   4.123   8.483 -0.1580  0.0066 -0.0658
 3909SOL    HW123360   2.252   4.108   8.567 -0.3779  0.7432  0.1839
 3909SOL    HW223361   2.122   4.138   8.523 -0.9081  0.9452 -2.0098
 3910SOL     OW23362   2.104   2.269   3.433  0.0657 -0.3546  0.3393
 3910SOL    HW123363   2.175   2.298   3.490  0.9096  1.3096 -1.5508
 3910SOL    HW223364   2.088   2.353   3.389  2.6987 -0.9131 -1.7472
 3911SOL     OW23365   0.737   4.089   3.951 -0.2477  0.3441  0.3082
 3911SOL    HW123366   0.783   4.170   3.973 -0.7831  1.0385 -1.1099
 3911SOL    HW223367   0.714   4.045   4.033 -1.1078 -2.5008 -1.4529
 3912SOL     OW23368   1.385   0.383   8.380  0.0317  0.5127 -0.0359
 3912SOL    HW123369   1.383   0.321   8.308  2.2302 -1.0934  1.2996
 3912SOL    HW223370   1.356   0.335   8.458 -1.5967 -0.2731 -1.1526
 3913SOL     OW23371   2.860   3.982   4.225 -0.4143 -0.4927  0.2231
 3913SOL    HW123372   2.791   4.035   4.265  2.4815  0.8664  3.3957
 3913SOL    HW223373   2.923   4.051   4.203 -0.4309 -0.8277 -0.8431
 3914SOL     OW23374   0.299   2.490  11.398 -0.5418  0.2480  0.4962
 3914SOL    HW123375   0.262   2.401  11.397 -0.0392  0.0461  0.1643
 3914SOL    HW223376   0.229   2.550  11.425 -1.1468  0.1042 -0.7603
 3915SOL     OW23377   0.864   2.527   8.608 -0.0309 -0.0055  0.0399
 3915SOL    HW123378   0.910   2.492   8.532  0.0907 -1.4926  0.7815
 3915SOL    HW223379   0.889   2.619   8.601 -0.9365  0.3516  1.4906
 3916SOL     OW23380   3.573   3.095   3.278 -0.2681  0.0868 -0.3282
 3916SOL    HW123381   3.603   3.120   3.365 -0.3803 -1.4436  0.1523
 3916SOL    HW223382   3.530   3.177   3.252 -1.1548 -0.7806 -1.6157
 3917SOL     OW23383   1.785   1.315  17.691  0.3698 -0.4666 -0.9322
 3917SOL    HW123384   1.880   1.308  17.700  0.2511 -1.6901 -0.5396
 3917SOL    HW223385   1.753   1.294   0.044  0.5635  1.4272 -0.4145
 3918SOL     OW23386   3.527   3.639   9.038 -0.2091 -0.2205  0.5993
 3918SOL    HW123387   3.523   3.544   9.027 -0.8687  0.0175 -1.1177
 3918SOL    HW223388   3.458   3.665   8.978  1.0941 -2.2633 -1.7760
 3919SOL     OW23389   1.668   3.514  14.958  0.2462  0.6068 -0.0580
 3919SOL    HW123390   1.630   3.436  14.918  2.2676 -0.3291 -0.1483
 3919SOL    HW223391   1.760   3.516  14.929  0.7127  0.4072  1.3863
 3920SOL     OW23392   4.453   0.675   3.191 -0.4649 -0.5634 -0.3853
 3920SOL    HW123393   4.531   0.640   3.233 -0.8520  0.6342  1.2866
 3920SOL    HW223394   4.415   0.726   3.262  0.3676  0.4747 -0.6942
 3921SOL     OW23395   3.496   0.771  11.843  0.2434  0.2498 -0.5850
 3921SOL    HW123396   3.578   0.788  11.797  0.7239 -1.5662 -0.3698
 3921SOL    HW223397   3.496   0.825  11.923 -2.7719 -1.2162  0.3885
 3922SOL     OW23398   2.102   1.503   3.246  0.0186  0.1494  0.2242
 3922SOL    HW123399   2.133   1.582   3.201  0.5767  0.1251  0.5664
 3922SOL    HW223400   2.027   1.482   3.191  1.3467 -1.3298 -1.0248
 3923SOL     OW23401   0.310   2.584   3.800  0.4139 -0.0047  0.1316
 3923SOL    HW123402   0.354   2.500   3.787  0.7443 -0.0029  1.2606
 3923SOL    HW223403   0.363   2.625   3.869 -0.5060  1.6226 -0.1244
 3924SOL     OW23404   3.934   3.270   8.473  0.1177 -0.2825 -0.7428
 3924SOL    HW123405   3.934   3.174   8.472  0.4555 -0.3274  2.4167
 3924SOL    HW223406   4.013   3.282   8.526 -0.6007 -1.9814  0.7108
 3925SOL     OW23407   1.973   2.138  12.042  0.7145 -0.1936  0.3614
 3925SOL    HW123408   1.925   2.067  12.000  2.0483 -1.1633  0.4696
 3925SOL    HW223409   2.039   2.167  11.978 -1.8689  1.6272 -1.4721
 3926SOL     OW23410   4.360   4.417   6.449 -0.4367 -0.3749  0.2709
 3926SOL    HW123411   4.431   4.480   6.433  1.0893 -2.7501 -2.3761
 3926SOL    HW223412   4.338   4.377   6.364 -0.4595 -1.2872  0.7110
 3927SOL     OW23413   4.449   4.132   4.245 -0.1342 -0.6475  0.4614
 3927SOL    HW123414   4.416   4.042   4.236  1.8096 -1.2944 -0.3616
 3927SOL    HW223415   4.405   4.166   4.322  0.3611  0.0357  0.4361
 3928SOL     OW23416   1.548   2.440   2.735  0.0457  0.2505 -0.3957
 3928SOL    HW123417   1.596   2.487   2.667  0.9300  0.5190  0.3961
 3928SOL    HW223418   1.617   2.422   2.800 -3.3753 -0.9099  2.9318
 3929SOL     OW23419   2.974   2.663   2.657 -0.0285  0.4257 -0.2444
 3929SOL    HW123420   2.901   2.641   2.599 -0.6181 -0.7889  0.9572
 3929SOL    HW223421   2.956   2.754   2.680 -1.4522  0.1583 -0.2830
 3930SOL     OW23422   4.572   4.290   6.217  0.2334 -0.0351  0.5060
 3930SOL    HW123423   4.570   4.386   6.212  0.3229 -0.1095 -1.0122
 3930SOL    HW223424   4.664   4.266   6.214 -0.2537 -1.8971  0.9875
 3931SOL     OW23425   0.556   0.193   4.018 -0.1950  0.8249 -0.0193
 3931SOL    HW123426   0.508   0.267   4.056 -1.3903 -0.4513  0.9276
 3931SOL    HW223427   0.523   0.186   3.928  0.4058  0.7265 -0.2275
 3932SOL     OW23428   4.083   2.120   8.365  0.3861  0.4609 -0.0709
 3932SOL    HW123429   4.103   2.131   8.458  2.2331  0.4515 -0.4731
 3932SOL    HW223430   4.173   2.127   8.334  0.0735  0.0598 -1.0637
 3933SOL     OW23431   0.800   4.034  11.113 -0.2096 -0.7070 -0.1922
 3933SOL    HW123432   0.883   3.987  11.101  0.3258  0.3703 -0.6814
 3933SOL    HW223433   0.750   3.981  11.051 -1.2960 -1.3113  1.2090
 3934SOL     OW23434   2.419   0.029   6.247 -0.2669 -0.0877  0.3089
 3934SOL    HW123435   2.499   0.003   6.201  0.1199 -0.4975  1.2209
 3934SOL    HW223436   2.361   4.699   6.205  3.5262 -1.5859 -2.7691
 3935SOL     OW23437   2.976   0.140   2.171 -0.0006 -0.4015  0.3528
 3935SOL    HW123438   2.989   0.053   2.135 -0.7814 -1.2042  2.0619
 3935SOL    HW223439   2.883   0.157   2.160  0.1486  0.3934  0.3002
 3936SOL     OW23440   1.319   3.080  11.829 -0.2147 -1.0583 -0.5777
 3936SOL    HW123441   1.249   3.020  11.851 -0.8380 -0.1957 -0.2078
 3936SOL    HW223442   1.270   3.161  11.814 -0.6873 -1.1162  0.7166
 3937SOL     OW23443   4.377   0.734  10.469 -0.0439  0.9939 -0.7971
 3937SOL    HW123444   4.410   0.684  10.394  1.0722  0.8315 -0.1893
 3937SOL    HW223445   4.292   0.692  10.484 -0.0962  2.1831  2.0316
 3938SOL     OW23446   1.093   3.756   8.137  0.6404 -0.6038  0.2911
 3938SOL    HW123447   0.998   3.769   8.137  0.3791 -2.5904 -0.1700
 3938SOL    HW223448   1.115   3.789   8.225  1.6374  1.6709 -0.7962
 3939SOL     OW23449   3.809   3.888  16.435  0.3522 -0.4202  0.2109
 3939SOL    HW123450   3.754   3.905  16.358  0.3923  2.4299  0.8337
 3939SOL    HW223451   3.801   3.795  16.457  0.7502 -0.6151 -0.4713
 3940SOL     OW23452   3.628   2.343   2.841  0.3049  0.1574 -0.1645
 3940SOL    HW123453   3.624   2.325   2.935  0.8185  0.6234 -0.0509
 3940SOL    HW223454   3.576   2.422   2.824 -4.0770 -2.9736 -1.2397
 3941SOL     OW23455   3.491   3.436   4.982  0.2432 -0.0120  0.3759
 3941SOL    HW123456   3.483   3.398   4.894 -0.0699  0.5243  0.1731
 3941SOL    HW223457   3.473   3.352   5.024  1.0849 -1.0088 -1.2521
 3942SOL     OW23458   1.765   3.136   5.522 -0.5635  0.5350 -0.3806
 3942SOL    HW123459   1.822   3.084   5.466  1.4905  2.5267 -0.1458
 3942SOL    HW223460   1.690   3.132   5.463  0.9820 -0.0700 -2.2886
 3943SOL     OW23461   0.186   2.254   7.732  0.5460  0.2973 -0.6094
 3943SOL    HW123462   0.161   2.183   7.790 -0.2730  0.1589 -1.1273
 3943SOL    HW223463   0.245   2.295   7.795  1.0888 -0.0069 -0.9245
 3944SOL     OW23464   2.373   1.457   7.827 -0.1647  0.4575  0.4509
 3944SOL    HW123465   2.314   1.449   7.752  1.1388 -0.2858 -0.4794
 3944SOL    HW223466   2.349   1.385   7.886  2.1079 -1.0950 -0.5627
 3945SOL     OW23467   0.711   1.906   6.248  0.1422  0.0242 -0.5841
 3945SOL    HW123468   0.675   1.820   6.268  1.3416 -0.2799  0.3053
 3945SOL    HW223469   0.747   1.887   6.161  0.4200 -0.0584 -0.4507
 3946SOL     OW23470   1.937   2.436  16.511  0.2380  0.2219  0.3901
 3946SOL    HW123471   2.000   2.469  16.575  0.5909 -0.0331  0.1736
 3946SOL    HW223472   1.868   2.408  16.571  1.1953 -2.3372  0.3123
 3947SOL     OW23473   3.875   1.119   3.213 -0.1744  0.6710 -0.3062
 3947SOL    HW123474   3.867   1.043   3.271  2.7948  0.5620 -0.0464
 3947SOL    HW223475   3.851   1.090   3.125  1.4251 -0.7259 -0.2887
 3948SOL     OW23476   0.844   4.681   5.200  0.4808 -0.4180  0.0386
 3948SOL    HW123477   0.781   0.006   5.160  0.6142  0.7711  1.6070
 3948SOL    HW223478   0.876   4.629   5.126 -1.9365 -1.9873  0.1086
 3949SOL     OW23479   0.653   1.706   5.705  0.3583  0.1462 -0.0809
 3949SOL    HW123480   0.687   1.630   5.658 -0.1751  0.0005 -0.2406
 3949SOL    HW223481   0.733   1.724   5.754 -0.4118  2.1155  0.4651
 3950SOL     OW23482   1.566   0.490   9.704 -0.1423 -0.1223  0.0652
 3950SOL    HW123483   1.542   0.557   9.767  0.8526  1.8092 -1.6310
 3950SOL    HW223484   1.562   0.544   9.625  1.8273 -0.9110 -0.5892
 3951SOL     OW23485   4.612   4.274  11.310  0.4972  0.5314  0.0960
 3951SOL    HW123486   4.624   4.255  11.217  1.8015 -0.9471  0.5587
 3951SOL    HW223487   4.697   4.268  11.355  1.4851  1.1220 -1.7107
 3952SOL     OW23488   1.500   3.977   2.806 -0.4835 -0.4335  0.1337
 3952SOL    HW123489   1.442   3.906   2.779  1.0623 -1.6536 -0.0307
 3952SOL    HW223490   1.560   3.919   2.854 -2.4783 -0.7416  2.2190
 3953SOL     OW23491   3.948   3.217  11.600 -0.7714 -0.1216  0.1623
 3953SOL    HW123492   3.942   3.270  11.680 -4.3741 -0.3847  0.0627
 3953SOL    HW223493   3.857   3.212  11.573 -0.1996 -0.2031 -1.7185
 3954SOL     OW23494   4.626   0.217  17.411  0.1432  0.3265 -0.7174
 3954SOL    HW123495   4.566   0.142  17.412  0.3855  0.1412  0.1960
 3954SOL    HW223496   4.612   0.252  17.324  0.4608  1.2987 -0.3819
 3955SOL     OW23497   4.421   2.199  14.394 -0.1268  0.1163  0.2837
 3955SOL    HW123498   4.435   2.287  14.428 -0.7462  1.6395 -3.3159
 3955SOL    HW223499   4.375   2.215  14.311  1.3660 -0.5187 -0.6664
 3956SOL     OW23500   3.592   1.890  10.542 -0.1116 -0.3955 -0.0861
 3956SOL    HW123501   3.634   1.873  10.626 -0.9588 -0.1580  0.3844
 3956SOL    HW223502   3.667   1.921  10.492  0.3133 -0.9682  0.2007
 3957SOL     OW23503   3.777   4.415   8.333  0.4731 -0.3722  1.2726
 3957SOL    HW123504   3.858   4.452   8.299 -0.1871  1.4677  1.7036
 3957SOL    HW223505   3.720   4.491   8.320  1.2188 -0.0471 -0.0949
 3958SOL     OW23506   4.451   0.597   7.398 -0.1573 -0.4075 -0.4049
 3958SOL    HW123507   4.414   0.553   7.321  1.1179 -1.0231 -0.6570
 3958SOL    HW223508   4.539   0.603   7.361  0.2011 -1.2573  0.3177
 3959SOL     OW23509   4.348   2.270   3.879  0.0765  0.0149 -0.4708
 3959SOL    HW123510   4.307   2.353   3.902  0.6886  0.1852  0.0247
 3959SOL    HW223511   4.431   2.294   3.838  1.5546  0.2197  2.5793
 3960SOL     OW23512   4.681   3.025   7.950  0.1406 -0.1602 -0.0424
 3960SOL    HW123513   4.719   2.938   7.938  1.1517  0.2504  0.2136
 3960SOL    HW223514   4.609   3.026   7.886  0.1374 -0.0983 -0.0376
 3961SOL     OW23515   2.291   2.998   1.199 -0.1263  0.7034 -0.1906
 3961SOL    HW123516   2.377   3.017   1.237  0.7502 -1.0340 -1.3195
 3961SOL    HW223517   2.240   3.023   1.276 -0.0556  1.2800 -0.3275
 3962SOL     OW23518   1.988   0.205   8.713  0.2376  0.1815  0.3948
 3962SOL    HW123519   2.046   0.281   8.703 -1.6454  1.5299 -0.5045
 3962SOL    HW223520   2.019   0.145   8.645  0.0957 -0.2522  0.7145
 3963SOL     OW23521   2.190   4.001   9.177  0.2374 -0.2561 -0.2635
 3963SOL    HW123522   2.171   4.031   9.266  2.2325  2.1385 -0.6365
 3963SOL    HW223523   2.103   3.982   9.142 -0.6407 -0.4548  2.0340
 3964SOL     OW23524   0.809   1.948   2.985 -0.0327 -0.2137  0.6470
 3964SOL    HW123525   0.875   2.003   3.028  0.6885  1.8608 -3.1563
 3964SOL    HW223526   0.728   1.985   3.020 -0.0884  0.3063 -0.0381
 3965SOL     OW23527   0.609   3.127  10.513 -0.2890 -0.5047  0.3669
 3965SOL    HW123528   0.543   3.062  10.540 -0.4838 -0.0885  0.9095
 3965SOL    HW223529   0.688   3.080  10.539  0.0835 -1.7863 -3.1266
 3966SOL     OW23530   3.693   3.381  14.113 -0.8932  0.2684  0.1141
 3966SOL    HW123531   3.743   3.442  14.167  0.0130 -0.4834  0.1239
 3966SOL    HW223532   3.735   3.296  14.128 -0.0652  0.6386 -0.1630
 3967SOL     OW23533   4.506   3.293   7.387  0.2813 -0.1219  0.6947
 3967SOL    HW123534   4.549   3.211   7.365  0.3909 -0.1487  1.0078
 3967SOL    HW223535   4.433   3.286   7.326  0.2370  2.3399  0.4859
 3968SOL     OW23536   0.610   3.953   9.111 -0.0271  0.0508 -0.6072
 3968SOL    HW123537   0.608   4.025   9.048 -0.3090  2.3123  2.0175
 3968SOL    HW223538   0.703   3.928   9.108  0.0711  0.3654  0.0074
 3969SOL     OW23539   1.003   4.006   8.967 -0.4883 -0.1931 -0.1221
 3969SOL    HW123540   0.957   3.938   9.017 -1.1761 -0.7025 -1.4580
 3969SOL    HW223541   1.077   3.950   8.942  1.6877  1.1610  3.2628
 3970SOL     OW23542   4.479   4.511  17.436  0.1516  0.2650  0.3645
 3970SOL    HW123543   4.397   4.480  17.397 -0.0737  3.3254 -1.5515
 3970SOL    HW223544   4.542   4.489  17.367 -0.6234 -2.0087  0.3755
 3971SOL     OW23545   3.825   1.198  14.463  0.1575  0.7991  0.0516
 3971SOL    HW123546   3.741   1.215  14.505  0.2585 -0.7535  0.8660
 3971SOL    HW223547   3.803   1.159  14.378 -0.0329  1.0270 -0.0027
 3972SOL     OW23548   2.726   1.103   8.386 -0.1404 -0.0816 -0.5557
 3972SOL    HW123549   2.748   1.170   8.321  0.9191 -0.2965 -0.4162
 3972SOL    HW223550   2.721   1.023   8.334  0.4681  0.8660 -2.0569
 3973SOL     OW23551   2.167   3.220   7.941  0.1137  0.1321 -0.4439
 3973SOL    HW123552   2.154   3.125   7.935  0.3889  0.1482 -1.2231
 3973SOL    HW223553   2.237   3.219   8.006  1.6149 -0.1669 -2.0952
 3974SOL     OW23554   2.861   3.259   1.088  0.4363  0.0760 -0.5125
 3974SOL    HW123555   2.812   3.255   1.006 -2.5231  0.5125  1.2433
 3974SOL    HW223556   2.843   3.350   1.111  0.7741  0.7204 -2.7093
 3975SOL     OW23557   4.497   2.636  14.301  0.2151  0.1812 -0.3901
 3975SOL    HW123558   4.457   2.722  14.317  1.5709  0.2838  2.3593
 3975SOL    HW223559   4.492   2.646  14.206 -0.9544 -1.7390 -0.5246
 3976SOL     OW23560   1.501   2.946   2.140 -0.3861  0.4613 -0.2625
 3976SOL    HW123561   1.461   3.023   2.179  0.2294 -0.1130  1.4920
 3976SOL    HW223562   1.448   2.884   2.190  1.9216 -0.3382  1.1827
 3977SOL     OW23563   3.863   4.141   6.370 -0.3536  0.1127 -0.7867
 3977SOL    HW123564   3.868   4.103   6.458  0.5791 -2.0588 -1.7735
 3977SOL    HW223565   3.867   4.231   6.402 -2.5864 -0.2689  0.6086
 3978SOL     OW23566   2.969   3.116   8.909 -0.4397  0.1064  0.3831
 3978SOL    HW123567   2.947   3.041   8.854 -0.5641  0.9104 -0.6719
 3978SOL    HW223568   2.996   3.179   8.841 -1.6470 -0.9394 -1.0656
 3979SOL     OW23569   4.214   4.409   5.093  0.2386  0.4087  0.1264
 3979SOL    HW123570   4.123   4.428   5.115 -0.3961 -2.4337  0.0129
 3979SOL    HW223571   4.222   4.313   5.091 -1.6947  0.2611 -0.6172
 3980SOL     OW23572   2.241   1.183   1.882 -0.6280 -0.3428  0.2099
 3980SOL    HW123573   2.289   1.170   1.963  2.0334  0.9867 -1.1735
 3980SOL    HW223574   2.260   1.275   1.859  1.6648 -0.9749 -0.3776
 3981SOL     OW23575   1.167   2.706  11.535  0.0156 -0.0825 -0.7518
 3981SOL    HW123576   1.092   2.762  11.554 -1.7787 -2.5168 -0.6590
 3981SOL    HW223577   1.134   2.667  11.454 -0.0183 -0.2092 -0.6773
 3982SOL     OW23578   0.695   3.896   8.095  0.6414 -0.0869 -0.4015
 3982SOL    HW123579   0.605   3.863   8.101  0.6988 -0.0755  0.5513
 3982SOL    HW223580   0.753   3.846   8.152 -0.2285  0.2596  0.7877
 3983SOL     OW23581   3.300   1.833   8.572  1.0190 -0.0367  0.2625
 3983SOL    HW123582   3.272   1.749   8.610  0.5886  0.0171  0.0663
 3983SOL    HW223583   3.283   1.812   8.481  3.2683  0.6587 -0.3157
 3984SOL     OW23584   3.695   3.643   6.725 -0.4206  0.3436  0.3062
 3984SOL    HW123585   3.626   3.634   6.659  0.7029 -0.6406 -0.7289
 3984SOL    HW223586   3.668   3.571   6.782  0.9862  0.9034  1.6737
 3985SOL     OW23587   1.695   3.745   2.737  0.1973  0.2601  0.6458
 3985SOL    HW123588   1.762   3.772   2.800  1.6301 -0.5131 -0.5344
 3985SOL    HW223589   1.707   3.822   2.681 -2.2802  0.0624 -0.1422
 3986SOL     OW23590   3.753   3.202   4.656 -0.1378 -0.6282  0.1461
 3986SOL    HW123591   3.773   3.257   4.580  0.5310  0.9816  1.4774
 3986SOL    HW223592   3.825   3.140   4.644 -1.8397 -2.1931 -1.8397
 3987SOL     OW23593   1.456   1.629  16.941  0.6783 -0.3115  0.2005
 3987SOL    HW123594   1.382   1.620  16.880  0.3391  1.4730  0.3559
 3987SOL    HW223595   1.527   1.572  16.911  0.5419 -0.6414  0.5071
 3988SOL     OW23596   1.000   1.551   9.340  0.4601  0.4636  0.0236
 3988SOL    HW123597   0.923   1.496   9.357 -0.8264  1.8973 -1.1284
 3988SOL    HW223598   0.978   1.627   9.394 -1.3437  0.4870 -0.7375
 3989SOL     OW23599   3.740   1.169   4.972  0.2144  0.0250 -0.4889
 3989SOL    HW123600   3.679   1.218   4.917  0.4675  0.2272 -0.5843
 3989SOL    HW223601   3.759   1.101   4.908 -0.1378 -1.0989  0.5930
 3990SOL     OW23602   1.202   0.904   5.995  0.2149 -0.1670  0.1362
 3990SOL    HW123603   1.236   0.816   6.013  0.3962 -0.0442  0.3881
 3990SOL    HW223604   1.114   0.877   5.967  1.0806 -0.6973 -2.0897
 3991SOL     OW23605   4.657   3.248   7.068  0.5211 -0.0458  0.2674
 3991SOL    HW123606   4.677   3.232   6.976 -1.1308  2.3438 -0.4957
 3991SOL    HW223607   4.670   3.341   7.085  0.2719  0.9596 -5.0828
 3992SOL     OW23608   1.405   0.267   6.729 -0.4975  0.3118  0.7104
 3992SOL    HW123609   1.443   0.193   6.777  0.7987 -0.8370 -2.1379
 3992SOL    HW223610   1.415   0.340   6.791  0.6239  1.2670 -0.5908
 3993SOL     OW23611   1.756   0.304  15.886 -0.2813 -0.9540 -0.4493
 3993SOL    HW123612   1.677   0.318  15.939  0.8761 -0.2429  1.0938
 3993SOL    HW223613   1.786   0.395  15.885 -2.2685 -0.2753  0.8376
 3994SOL     OW23614   2.392   2.140   2.279 -0.7565 -0.7256  0.1688
 3994SOL    HW123615   2.375   2.063   2.224  1.5473  0.2959 -1.9522
 3994SOL    HW223616   2.375   2.209   2.215 -1.0980 -1.3502 -0.4059
 3995SOL     OW23617   2.984   4.516  14.302  0.1539 -0.4759  0.0957
 3995SOL    HW123618   2.955   4.456  14.234 -1.3390 -0.6846  0.9163
 3995SOL    HW223619   3.074   4.484  14.316 -0.4358 -2.1610 -0.0059
 3996SOL     OW23620   1.069   2.093   4.509  0.0237  0.0043  0.1074
 3996SOL    HW123621   1.163   2.112   4.516 -0.8002  4.8866 -2.2409
 3996SOL    HW223622   1.047   2.183   4.485  1.2615  0.4161  0.5070
 3997SOL     OW23623   0.100   4.243  14.243 -0.1236  0.6644 -0.2438
 3997SOL    HW123624   0.091   4.165  14.187 -3.3224  1.2230 -0.5465
 3997SOL    HW223625   0.067   4.304  14.177 -2.5636 -1.0458 -0.6542
 3998SOL     OW23626   3.638   4.336   2.370 -0.2972  0.1910  0.3850
 3998SOL    HW123627   3.689   4.354   2.291 -0.8430  0.5829  0.1297
 3998SOL    HW223628   3.577   4.266   2.347 -0.3615  0.1683  0.6208
 3999SOL     OW23629   2.136   4.492   2.394 -0.2855 -0.4320 -0.0294
 3999SOL    HW123630   2.199   4.528   2.331  0.9763 -3.1430 -0.3593
 3999SOL    HW223631   2.108   4.415   2.345 -2.1936  0.1693  0.1155
 4000SOL     OW23632   2.262   1.012  13.337  0.1229  0.5298  0.1224
 4000SOL    HW123633   2.233   1.082  13.395  2.3937  0.6280  1.1583
 4000SOL    HW223634   2.256   1.052  13.250  1.5099 -0.8826 -0.6282
 4001SOL     OW23635   0.181   1.633   6.967 -0.1086  0.1442  0.1199
 4001SOL    HW123636   0.224   1.712   6.935 -0.4989  0.1125 -0.4857
 4001SOL    HW223637   0.125   1.675   7.033  1.2843 -0.3365  1.6214
 4002SOL     OW23638   4.140   0.663   1.593 -0.1791 -0.1788  0.2364
 4002SOL    HW123639   4.210   0.604   1.618 -0.1367 -1.1141 -2.1077
 4002SOL    HW223640   4.163   0.698   1.507  2.5290  0.8392  1.3863
 4003SOL     OW23641   4.174   3.280   8.649  0.8257  0.3121 -0.2868
 4003SOL    HW123642   4.122   3.236   8.717 -0.0244  0.4966 -0.8106
 4003SOL    HW223643   4.188   3.365   8.690  1.0273 -1.2666  2.9870
 4004SOL     OW23644   4.586   3.872  17.387 -0.6373 -0.0403 -0.1813
 4004SOL    HW123645   4.574   3.961  17.420 -1.9477 -0.7880  1.3621
 4004SOL    HW223646   4.678   3.847  17.395 -0.4145  0.7563 -0.1948
 4005SOL     OW23647   4.248   2.678   2.338 -0.4406 -0.1826 -0.3860
 4005SOL    HW123648   4.283   2.598   2.376 -1.0558  0.1146  0.8187
 4005SOL    HW223649   4.227   2.714   2.424  0.9907 -1.2692  0.4141
 4006SOL     OW23650   2.290   1.708   3.436  0.0432  0.9535 -0.4847
 4006SOL    HW123651   2.306   1.800   3.453 -0.1504  1.2036 -1.6236
 4006SOL    HW223652   2.372   1.677   3.398 -0.6811 -2.9905  1.1933
 4007SOL     OW23653   3.554   3.284  10.786  0.4653 -0.0182 -0.5217
 4007SOL    HW123654   3.621   3.330  10.734 -0.8470  2.0520 -0.3501
 4007SOL    HW223655   3.602   3.284  10.868  0.9990 -0.4435 -0.8279
 4008SOL     OW23656   1.007   2.553  11.384  0.4647  0.3937 -0.3898
 4008SOL    HW123657   0.975   2.468  11.353 -0.7231 -0.0460  2.0913
 4008SOL    HW223658   0.962   2.612  11.323 -1.7372  0.8189  1.6746
 4009SOL     OW23659   0.015   2.592   4.800  0.2160  0.1639  0.1099
 4009SOL    HW123660   0.091   2.579   4.857  0.4145 -0.7045 -0.3624
 4009SOL    HW223661   4.721   2.680   4.827  0.8979  1.0127 -1.9792
 4010SOL     OW23662   1.140   2.403   7.947  0.2488 -0.3463  0.3990
 4010SOL    HW123663   1.062   2.379   7.997  1.2402 -1.8617  1.2171
 4010SOL    HW223664   1.097   2.402   7.861  1.5193 -2.1234 -0.2197
 4011SOL     OW23665   1.207   3.854   8.418 -0.1347  0.1592  0.2912
 4011SOL    HW123666   1.302   3.864   8.412  0.0908 -1.6507  0.5891
 4011SOL    HW223667   1.182   3.945   8.429  3.1065  0.7782  2.3694
 4012SOL     OW23668   0.235   4.616  14.326 -0.1716  0.2776  0.0887
 4012SOL    HW123669   0.284   4.640  14.405  1.1711 -1.4355 -0.2101
 4012SOL    HW223670   0.158   4.579  14.370 -0.7966 -1.2309 -2.2705
 4013SOL     OW23671   2.659   4.157   5.438  0.0982  0.1109  0.1923
 4013SOL    HW123672   2.707   4.127   5.515 -1.5559  0.2468  1.2868
 4013SOL    HW223673   2.607   4.230   5.471 -3.6135 -1.0791 -3.0830
 4014SOL     OW23674   0.593   1.365   4.264  0.8078  0.6309 -0.2012
 4014SOL    HW123675   0.683   1.340   4.244  0.4442 -1.4459  0.7693
 4014SOL    HW223676   0.568   1.415   4.187 -1.1517  0.7097  0.4898
 4015SOL     OW23677   0.637   3.223   8.777  0.0068  0.0958  0.0918
 4015SOL    HW123678   0.678   3.186   8.699  1.1344 -0.6056  1.0243
 4015SOL    HW223679   0.704   3.211   8.844  1.1033  2.3572 -0.6000
 4016SOL     OW23680   2.003   4.116   2.773 -0.2645  0.0944  0.1263
 4016SOL    HW123681   2.089   4.156   2.785 -0.0275 -1.2568  2.7818
 4016SOL    HW223682   1.954   4.125   2.854 -2.4888  2.2835 -1.4502
 4017SOL     OW23683   1.014   4.534   8.431 -0.3405 -0.2279 -0.0647
 4017SOL    HW123684   0.975   4.601   8.376  1.1005 -2.0696 -3.3151
 4017SOL    HW223685   0.992   4.450   8.391  0.2924 -0.6162  0.4011
 4018SOL     OW23686   3.146   1.002  15.868 -0.1154 -0.0038  0.0053
 4018SOL    HW123687   3.188   1.071  15.818  1.2750 -0.5073  0.4843
 4018SOL    HW223688   3.218   0.978  15.927  0.5391  0.8274 -0.4573
 4019SOL     OW23689   1.451   0.346   7.756 -0.3734 -0.0883 -0.3695
 4019SOL    HW123690   1.377   0.286   7.767 -0.5131 -0.0945 -1.3588
 4019SOL    HW223691   1.504   0.342   7.836  1.5175  0.5222 -1.5926
 4020SOL     OW23692   2.068   3.353   0.884 -0.1171  0.2667  0.3002
 4020SOL    HW123693   2.091   3.260   0.880 -0.9046  0.0259  1.6359
 4020SOL    HW223694   2.049   3.364   0.791 -1.4298 -0.8539  0.4491
 4021SOL     OW23695   0.076   4.712   5.392  0.1194 -0.1259 -0.4344
 4021SOL    HW123696   0.159   4.664   5.386 -0.1649 -0.5442 -1.0412
 4021SOL    HW223697   0.026   4.655   5.450  0.2265 -0.5834 -0.7911
 4022SOL     OW23698   0.962   1.162   0.081 -0.2081  0.6013  0.6371
 4022SOL    HW123699   1.019   1.127   0.012  2.8285  1.1964  2.8482
 4022SOL    HW223700   1.022   1.138   0.151 -0.1291  0.4529  0.5179
 4023SOL     OW23701   4.299   0.730  15.263 -0.1718 -0.1260  0.2752
 4023SOL    HW123702   4.287   0.746  15.357  2.3409  0.2585  0.5538
 4023SOL    HW223703   4.214   0.764  15.236 -0.8586 -0.9683  1.3979
 4024SOL     OW23704   1.475   3.196   8.558  0.1023 -0.2265  0.0167
 4024SOL    HW123705   1.404   3.157   8.507 -0.8558  1.2374  0.2305
 4024SOL    HW223706   1.539   3.125   8.562  0.6767  0.4390  2.3311
 4025SOL     OW23707   2.595   4.210  17.180  0.5390  0.2781  0.1503
 4025SOL    HW123708   2.643   4.137  17.219 -2.7793 -0.7323  2.3403
 4025SOL    HW223709   2.580   4.274  17.250 -2.2297 -0.2480  0.0360
 4026SOL     OW23710   3.316   4.204   7.894 -0.0677  0.2165  0.1445
 4026SOL    HW123711   3.362   4.281   7.861  2.5354 -1.4602 -0.1194
 4026SOL    HW223712   3.371   4.172   7.965  0.7347  0.7990 -0.2131
 4027SOL     OW23713   3.786   1.932  14.282  0.0444  0.1779 -0.2067
 4027SOL    HW123714   3.699   1.932  14.242 -0.2651 -1.8617  0.5029
 4027SOL    HW223715   3.781   2.004  14.346 -2.8352 -0.5112  0.3462
 4028SOL     OW23716   2.663   2.004  16.325 -0.7902 -0.1856  0.3088
 4028SOL    HW123717   2.750   1.974  16.351  0.2369 -0.1750 -3.2167
 4028SOL    HW223718   2.666   2.099  16.333 -0.7295 -0.0566 -1.2901
 4029SOL     OW23719   3.828   0.901   8.072  0.1167 -0.5953  0.2317
 4029SOL    HW123720   3.866   0.880   7.987 -0.2090  0.8342 -0.2806
 4029SOL    HW223721   3.889   0.967   8.104  0.1784 -0.5276 -0.0242
 4030SOL     OW23722   0.989   3.078   6.200  0.4234 -0.2297  0.0423
 4030SOL    HW123723   0.991   3.022   6.278 -0.8646  0.7094  0.7517
 4030SOL    HW223724   1.049   3.148   6.224  1.1737 -1.9739  3.1784
 4031SOL     OW23725   4.379   3.725  11.199  0.0609 -0.6139 -0.4592
 4031SOL    HW123726   4.313   3.721  11.269 -2.0382 -3.2121 -2.5582
 4031SOL    HW223727   4.433   3.654  11.233 -1.6188 -1.9835 -0.6176
 4032SOL     OW23728   4.264   4.201  13.719  0.2589 -0.0454  0.0281
 4032SOL    HW123729   4.242   4.122  13.768  0.9086  0.0420  0.4640
 4032SOL    HW223730   4.227   4.188  13.632  0.2237 -2.1501  0.3530
 4033SOL     OW23731   2.483   1.220  10.954 -0.5740  0.0959  0.5468
 4033SOL    HW123732   2.440   1.255  10.876 -0.3690  0.5816  0.6472
 4033SOL    HW223733   2.550   1.287  10.966  0.7240 -1.1555  0.2305
 4034SOL     OW23734   4.208   3.619  13.038 -0.3172 -0.6251  0.1706
 4034SOL    HW123735   4.143   3.675  12.995 -1.1208 -1.5294  0.1960
 4034SOL    HW223736   4.217   3.645  13.129 -0.9573 -1.3418  0.4436
 4035SOL     OW23737   0.938   4.337   3.051 -0.3339  0.6868  0.3968
 4035SOL    HW123738   0.971   4.316   3.139 -0.8184 -0.8314  0.2049
 4035SOL    HW223739   0.901   4.424   3.065 -3.1381 -0.8274  2.5631
 4036SOL     OW23740   3.294   3.655   7.482 -0.1146  0.0661  0.1823
 4036SOL    HW123741   3.331   3.642   7.570 -0.0033 -0.5087  0.0506
 4036SOL    HW223742   3.210   3.692   7.508 -0.1543 -0.2431  0.4950
 4037SOL     OW23743   2.286   1.728   4.045  0.1605  0.1215  0.1235
 4037SOL    HW123744   2.286   1.716   3.950 -2.2408 -1.3583  0.3281
 4037SOL    HW223745   2.330   1.647   4.073 -0.9516 -0.7410 -0.6520
 4038SOL     OW23746   3.280   4.546   3.550 -0.1165  0.2419 -0.1139
 4038SOL    HW123747   3.369   4.520   3.573  0.4992  1.2357 -1.4337
 4038SOL    HW223748   3.303   4.550   3.458  0.4443  0.0462  0.0155
 4039SOL     OW23749   3.142   0.756   9.528  0.0218  1.0429 -0.2584
 4039SOL    HW123750   3.228   0.758   9.569  0.6294 -0.7862 -1.3991
 4039SOL    HW223751   3.166   0.766   9.436  2.5721 -0.8864  0.2059
 4040SOL     OW23752   1.576   3.082  10.422  0.5570  0.5865  0.3010
 4040SOL    HW123753   1.481   3.070  10.427  0.9266 -2.0137  1.0619
 4040SOL    HW223754   1.597   3.080  10.515 -2.1857 -2.0382  0.8888
 4041SOL     OW23755   0.806   1.393   6.260 -0.1512 -0.1235  0.0989
 4041SOL    HW123756   0.759   1.318   6.223 -0.6307  0.4247 -0.4014
 4041SOL    HW223757   0.853   1.429   6.184 -1.7032 -0.5137 -1.0475
 4042SOL     OW23758   2.146   2.460  17.180  0.1806 -0.6426  0.1898
 4042SOL    HW123759   2.064   2.411  17.185 -0.1215 -0.0087  1.5254
 4042SOL    HW223760   2.175   2.447  17.271  0.1983  1.8493  0.5279
 4043SOL     OW23761   1.561   0.100  10.075  0.1401  0.0323 -0.9685
 4043SOL    HW123762   1.491   0.045  10.109  1.5460  0.5767  2.8566
 4043SOL    HW223763   1.557   0.082   9.981 -2.2492  0.6662 -0.9808
 4044SOL     OW23764   0.779   2.085   8.235 -0.1910 -0.8201 -0.3972
 4044SOL    HW123765   0.863   2.056   8.270 -0.8776 -0.7041  1.3767
 4044SOL    HW223766   0.755   2.008   8.184  0.1240 -0.7942 -0.5839
 4045SOL     OW23767   0.929   4.316   9.670  0.3149 -0.4706  1.2029
 4045SOL    HW123768   0.845   4.361   9.671  0.2393 -0.5778 -0.1051
 4045SOL    HW223769   0.885   4.235   9.644  0.8264 -0.1156 -0.7740
 4046SOL     OW23770   1.676   1.301   6.399 -0.4459  0.3880  0.2981
 4046SOL    HW123771   1.697   1.308   6.306  0.9020  1.5632  0.6948
 4046SOL    HW223772   1.761   1.268   6.428 -1.4185 -2.5627 -0.2081
 4047SOL     OW23773   0.896   2.456   3.197  0.2506 -0.3927 -0.1630
 4047SOL    HW123774   0.970   2.409   3.235  1.4443  1.4581 -0.1698
 4047SOL    HW223775   0.940   2.539   3.179  0.6866 -0.4258  0.7487
 4048SOL     OW23776   0.907   1.379   7.620  0.4514 -0.4032  0.7339
 4048SOL    HW123777   0.839   1.410   7.559  1.3377  1.5521  0.7379
 4048SOL    HW223778   0.989   1.382   7.572 -0.5365  0.2679 -0.9345
 4049SOL     OW23779   2.323   2.712   6.836  0.1491 -0.2320  0.2023
 4049SOL    HW123780   2.349   2.778   6.901  2.4034  0.2254 -1.2092
 4049SOL    HW223781   2.314   2.632   6.888  1.3991  0.2559  1.1644
 4050SOL     OW23782   2.679   1.508   4.361 -0.0308 -0.1367  0.3550
 4050SOL    HW123783   2.753   1.541   4.413 -0.6513  1.4222  0.2654
 4050SOL    HW223784   2.724   1.501   4.277 -1.3042 -1.9822 -0.1648
 4051SOL     OW23785   4.192   2.182   4.494 -0.3356  0.3234 -0.3104
 4051SOL    HW123786   4.228   2.144   4.414 -0.9552  0.3524 -0.5993
 4051SOL    HW223787   4.224   2.110   4.548 -2.7659 -0.9493 -0.5728
 4052SOL     OW23788   1.021   1.065   6.315 -0.2088 -0.1448  0.4974
 4052SOL    HW123789   1.080   1.133   6.348  1.8806 -2.2450  1.0470
 4052SOL    HW223790   1.014   1.069   6.219 -1.1926 -2.1234  0.4821
 4053SOL     OW23791   0.579   2.697   4.244  0.5224  0.1438 -0.4125
 4053SOL    HW123792   0.670   2.680   4.267 -0.7492 -1.7702  3.1884
 4053SOL    HW223793   0.581   2.793   4.240  0.2580  0.1966  0.7502
 4054SOL     OW23794   3.407   1.538  13.788  0.5646  0.3929  0.5464
 4054SOL    HW123795   3.394   1.541  13.883 -2.3210 -0.5313  0.1694
 4054SOL    HW223796   3.400   1.631  13.764  1.3409  0.5161  0.7763
 4055SOL     OW23797   1.764   4.343   1.877 -0.1802  0.3402  0.4299
 4055SOL    HW123798   1.743   4.415   1.936 -0.7642  0.7829 -0.3239
 4055SOL    HW223799   1.798   4.276   1.937 -0.1635  1.5419  1.7696
 4056SOL     OW23800   3.173   3.849  14.634  0.0270  0.5962 -0.4512
 4056SOL    HW123801   3.107   3.883  14.573 -1.6391  1.3993  1.7962
 4056SOL    HW223802   3.162   3.757  14.611  0.2318  0.2366  0.9192
 4057SOL     OW23803   4.355   4.184   3.981 -0.6945  0.6800  0.1433
 4057SOL    HW123804   4.404   4.198   4.062  0.6398  2.4797 -0.9881
 4057SOL    HW223805   4.275   4.236   3.983 -0.7139  0.7095 -0.9737
 4058SOL     OW23806   4.383   3.411   2.695 -0.4942  0.1347  0.4747
 4058SOL    HW123807   4.430   3.374   2.769 -1.0420 -1.1228  0.1986
 4058SOL    HW223808   4.442   3.393   2.622  0.2005 -0.7275  1.2553
 4059SOL     OW23809   3.642   2.206  16.812 -0.2098 -0.1794 -0.3763
 4059SOL    HW123810   3.691   2.261  16.751 -0.5770 -0.0058 -0.5135
 4059SOL    HW223811   3.661   2.246  16.897 -1.5332  0.3752 -0.3370
 4060SOL     OW23812   0.304   3.153   7.849  0.0642  0.2211  0.7181
 4060SOL    HW123813   0.355   3.217   7.900  1.0759  2.1202 -2.6312
 4060SOL    HW223814   0.221   3.198   7.859 -0.2049 -0.3580  1.0694
 4061SOL     OW23815   2.362   0.185  11.383  0.1401 -0.0806 -0.3121
 4061SOL    HW123816   2.380   0.197  11.476  3.4828  2.9105 -1.3257
 4061SOL    HW223817   2.266   0.190  11.380  0.3350  0.9723 -4.7909
 4062SOL     OW23818   0.386   0.896   4.104  0.4461 -0.8894 -0.0755
 4062SOL    HW123819   0.413   0.820   4.053  0.1076  0.6984 -2.6417
 4062SOL    HW223820   0.310   0.934   4.059  0.9628 -0.6684 -0.7518
 4063SOL     OW23821   2.228   4.055   5.137 -0.1417 -0.9946 -0.7923
 4063SOL    HW123822   2.270   4.004   5.068 -0.4032 -2.1808 -0.0830
 4063SOL    HW223823   2.290   4.033   5.207 -1.0494 -0.4092  0.1927
 4064SOL     OW23824   2.992   0.562   8.078  0.2254 -0.1255  0.0089
 4064SOL    HW123825   3.027   0.624   8.015 -0.4251 -1.4553 -1.6620
 4064SOL    HW223826   3.066   0.541   8.134  1.6698  0.0833 -1.8240
 4065SOL     OW23827   0.294   1.820   0.848  0.0388 -0.2621  0.2878
 4065SOL    HW123828   0.277   1.802   0.941 -0.0428 -0.3544  0.2556
 4065SOL    HW223829   0.232   1.759   0.808  0.4913  0.1495 -1.0389
 4066SOL     OW23830   0.075   0.388   6.237  0.5812  0.5526  0.3165
 4066SOL    HW123831   0.044   0.450   6.171 -0.1585  1.0349  1.1217
 4066SOL    HW223832   0.012   0.318   6.221 -0.6507  1.3532  1.6370
 4067SOL     OW23833   0.023   3.138  15.523 -0.2693 -0.2655 -0.1285
 4067SOL    HW123834   0.058   3.218  15.485  1.0531 -0.8145 -0.0802
 4067SOL    HW223835   4.693   3.099  15.463  0.3672 -0.6441 -0.5595
 4068SOL     OW23836   1.092   0.574  13.126 -0.1519  0.0553 -0.2651
 4068SOL    HW123837   1.031   0.556  13.053  1.1090 -0.2482 -1.2473
 4068SOL    HW223838   1.032   0.629  13.176 -0.0398  0.1524 -0.2375
 4069SOL     OW23839   4.620   3.505  12.824 -0.8241 -0.2602  0.1374
 4069SOL    HW123840   4.648   3.416  12.802  0.5503 -0.1821  1.5349
 4069SOL    HW223841   4.544   3.477  12.874  0.4990 -2.4219  0.9499
 4070SOL     OW23842   0.405   2.497   1.617  0.2268 -0.0978  0.1879
 4070SOL    HW123843   0.412   2.409   1.654  2.4473  0.3487  0.8412
 4070SOL    HW223844   0.422   2.546   1.698  0.3095 -0.6963  0.5418
 4071SOL     OW23845   0.850   1.558   2.733  0.5338  0.5712  0.2405
 4071SOL    HW123846   0.845   1.463   2.740  0.6623  0.6068  0.8677
 4071SOL    HW223847   0.780   1.573   2.798  1.0350  0.7075  0.7528
 4072SOL     OW23848   4.132   2.604  13.828 -0.2647 -0.6711  0.4058
 4072SOL    HW123849   4.194   2.561  13.887 -1.1989 -2.2653  0.2129
 4072SOL    HW223850   4.045   2.579  13.859 -0.2829  0.5999  1.4069
 4073SOL     OW23851   1.264   0.091   4.341  0.4840 -0.1539  0.1941
 4073SOL    HW123852   1.338   0.040   4.309  0.0135 -0.3982 -0.5163
 4073SOL    HW223853   1.213   0.112   4.263 -0.3536 -0.7521  0.5774
 4074SOL     OW23854   4.445   1.047   4.616 -0.3657  0.0578 -0.0298
 4074SOL    HW123855   4.433   0.974   4.677 -1.9734  1.3687  1.2015
 4074SOL    HW223856   4.378   1.027   4.551  2.0728 -1.9282 -1.9516
 4075SOL     OW23857   3.701   0.519   8.545 -0.2306 -0.4709 -0.2293
 4075SOL    HW123858   3.779   0.477   8.582 -1.4412 -1.0904  1.6445
 4075SOL    HW223859   3.686   0.595   8.601  2.1833  0.0414 -0.2673
 4076SOL     OW23860   0.314   1.620   5.222 -0.2367 -0.1763 -0.2780
 4076SOL    HW123861   0.261   1.666   5.287 -0.6911 -1.5928  0.3462
 4076SOL    HW223862   0.399   1.624   5.265 -0.3593  1.4232 -0.1583
 4077SOL     OW23863   4.731   0.560  15.989 -1.0732 -0.0102  0.6980
 4077SOL    HW123864   4.727   0.620  15.914 -0.8794 -0.1747  0.5548
 4077SOL    HW223865   4.636   0.549  15.997 -0.9842  1.5202  3.7810
 4078SOL     OW23866   0.011   0.507   2.018 -0.0341 -0.3239  0.0404
 4078SOL    HW123867   0.069   0.455   1.962 -0.3032 -0.8297  0.2285
 4078SOL    HW223868   4.661   0.473   1.988 -1.2131  0.6445  2.1907
 4079SOL     OW23869   0.591   4.710  16.885 -0.3394  0.1184  0.0433
 4079SOL    HW123870   0.630   4.725  16.799  2.0718  2.8937  1.6608
 4079SOL    HW223871   0.674   4.713  16.932  0.6090 -1.5920 -1.4922
 4080SOL     OW23872   0.944   2.914   6.430 -0.3614  0.1295 -0.0754
 4080SOL    HW123873   0.878   2.856   6.390  1.3948 -1.5449 -0.5444
 4080SOL    HW223874   0.890   2.980   6.473  0.1233  0.5918 -0.1881
 4081SOL     OW23875   3.529   1.825   3.919  0.7097 -0.1929  0.2193
 4081SOL    HW123876   3.620   1.817   3.889  1.4615  2.1705  1.9290
 4081SOL    HW223877   3.503   1.735   3.938 -1.4494  0.1163 -1.2723
 4082SOL     OW23878   2.219   1.222   6.757  0.6492  0.0667  0.1598
 4082SOL    HW123879   2.259   1.292   6.705 -0.1720 -0.6490 -1.4124
 4082SOL    HW223880   2.178   1.180   6.682  1.8696 -1.1785  0.1871
 4083SOL     OW23881   4.003   4.039   1.740  0.4555 -0.7519 -0.1779
 4083SOL    HW123882   3.945   4.115   1.744  0.2168 -0.7930 -2.5369
 4083SOL    HW223883   3.991   4.024   1.646  1.6083  2.1175 -0.7817
 4084SOL     OW23884   2.475   3.121   3.108  0.3038 -0.1609  0.6384
 4084SOL    HW123885   2.395   3.119   3.161  0.2517  0.4220  0.5818
 4084SOL    HW223886   2.532   3.164   3.172 -1.2789  1.7007  0.7975
 4085SOL     OW23887   0.554   0.331  11.103 -0.2349 -0.2971 -0.2677
 4085SOL    HW123888   0.641   0.316  11.140 -0.2080 -0.1169 -0.2564
 4085SOL    HW223889   0.521   0.409  11.148 -0.2864  0.2382 -1.2188
 4086SOL     OW23890   2.000   0.811   6.183 -0.1508  0.0016  0.1298
 4086SOL    HW123891   2.022   0.866   6.108  1.6505 -1.0442 -0.1062
 4086SOL    HW223892   1.917   0.773   6.155 -0.6920  1.7318 -0.5936
 4087SOL     OW23893   1.551   0.042   9.780 -0.6695 -0.1583  0.3375
 4087SOL    HW123894   1.609   4.702   9.759 -0.5820 -0.5337  1.8526
 4087SOL    HW223895   1.472   0.005   9.741 -0.9585 -0.5855  1.3252
 4088SOL     OW23896   0.795   0.681   6.839 -0.0730 -0.2706 -0.0536
 4088SOL    HW123897   0.772   0.666   6.747  3.4646 -1.9752 -0.6633
 4088SOL    HW223898   0.719   0.721   6.881 -0.7001 -2.4193  0.9179
 4089SOL     OW23899   0.128   4.126  10.301  0.1444  0.6368  0.1410
 4089SOL    HW123900   0.174   4.186  10.360  2.6823  1.3098 -2.5267
 4089SOL    HW223901   0.144   4.174  10.219  0.0006 -1.3012 -1.0279
 4090SOL     OW23902   0.908   2.532   2.424 -0.4458 -0.0199 -0.0995
 4090SOL    HW123903   0.901   2.626   2.444 -1.4587  0.2764 -1.8346
 4090SOL    HW223904   1.001   2.522   2.445 -0.7552  0.7100  1.6416
 4091SOL     OW23905   1.054   1.051   3.630 -0.2244 -0.1029 -0.1063
 4091SOL    HW123906   1.058   1.049   3.534 -0.3812 -1.5135 -0.0813
 4091SOL    HW223907   1.144   1.049   3.661 -0.5071 -0.8313  0.6438
 4092SOL     OW23908   3.153   3.971   7.146 -0.4049 -0.6203 -0.1989
 4092SOL    HW123909   3.222   3.905   7.143  0.4588  0.2884 -0.1645
 4092SOL    HW223910   3.147   3.990   7.052 -0.7595  2.7530  0.5224
 4093SOL     OW23911   0.024   0.819   3.310  0.5898 -0.4889  0.3252
 4093SOL    HW123912   0.028   0.891   3.373  1.1168  0.5312 -0.8706
 4093SOL    HW223913   0.003   0.744   3.366  0.4068 -1.1014 -0.5768
 4094SOL     OW23914   0.838   4.407  12.256  0.0760  0.0128  0.5054
 4094SOL    HW123915   0.829   4.312  12.260 -1.7341  0.1500 -0.3236
 4094SOL    HW223916   0.859   4.418  12.163 -2.0542 -1.5881 -0.1667
 4095SOL     OW23917   3.565   3.032  11.459  0.1300 -0.0263 -0.1639
 4095SOL    HW123918   3.488   3.033  11.516  0.8160 -2.5367  0.8154
 4095SOL    HW223919   3.533   2.960  11.405  1.5975  0.1171 -1.2320
 4096SOL     OW23920   3.213   3.669   2.381  0.2347  0.6176  0.2407
 4096SOL    HW123921   3.119   3.655   2.371  0.2782  0.9751 -0.6410
 4096SOL    HW223922   3.217   3.761   2.353  3.7772 -0.0678 -1.5064
 4097SOL     OW23923   3.599   3.288   7.873 -0.6629 -0.6926  0.0489
 4097SOL    HW123924   3.536   3.266   7.942 -2.0422  3.4360  0.1277
 4097SOL    HW223925   3.682   3.302   7.918  0.1354 -0.0771 -1.6129
 4098SOL     OW23926   4.620   4.335   7.134 -0.0723  0.5106  0.3031
 4098SOL    HW123927   4.632   4.422   7.096 -1.7922  0.4324 -0.3922
 4098SOL    HW223928   4.526   4.336   7.150 -0.2800 -2.5135 -0.7061
 4099SOL     OW23929   2.452   3.160   8.665  0.7359 -0.1097 -0.4487
 4099SOL    HW123930   2.515   3.104   8.620  0.6311 -1.3575  1.0043
 4099SOL    HW223931   2.491   3.178   8.750 -1.4285 -1.3371  0.7853
 4100SOL     OW23932   0.112   0.119  17.048 -0.4701 -0.3812  0.0138
 4100SOL    HW123933   0.052   0.045  17.044 -0.5805 -0.2478 -0.8715
 4100SOL    HW223934   0.176   0.093  16.982  2.4278  0.8040  2.3282
 4101SOL     OW23935   2.098   2.958   2.748  0.4409 -0.1303  0.2550
 4101SOL    HW123936   2.191   2.979   2.737  0.6567 -0.7494  0.9259
 4101SOL    HW223937   2.092   2.868   2.717 -1.1824  0.2080 -0.4064
 4102SOL     OW23938   2.747   0.104   3.939  0.4535  0.5259  0.0231
 4102SOL    HW123939   2.666   0.086   3.987  1.4427  0.1778  1.5674
 4102SOL    HW223940   2.802   0.033   3.973  2.2322  0.6670 -2.5686
 4103SOL     OW23941   3.162   2.264   6.008 -0.4342  0.4352  0.3301
 4103SOL    HW123942   3.198   2.335   6.061  0.2591 -1.1872  2.0284
 4103SOL    HW223943   3.067   2.274   6.020 -0.5432  1.0524 -1.0778
 4104SOL     OW23944   1.149   0.222  11.278  0.2166 -0.6899 -0.2103
 4104SOL    HW123945   1.171   0.130  11.262  3.0310 -0.5157  2.7423
 4104SOL    HW223946   1.061   0.220  11.240 -0.3922  2.1985  1.1200
 4105SOL     OW23947   0.925   3.207  12.174 -0.0182  0.4141  0.4268
 4105SOL    HW123948   0.916   3.193  12.268 -2.2792 -3.2064 -0.3689
 4105SOL    HW223949   0.836   3.184  12.146  0.5156  2.4967 -3.0683
 4106SOL     OW23950   2.522   3.102   0.992  0.7089 -0.3514  0.4532
 4106SOL    HW123951   2.469   3.023   0.981  2.4240 -1.0922 -2.3459
 4106SOL    HW223952   2.544   3.088   1.084  1.8869  1.0822  0.3880
 4107SOL     OW23953   4.341   0.363   2.869  0.4613 -0.3259  0.3351
 4107SOL    HW123954   4.368   0.339   2.958  0.0677 -1.6991  0.0852
 4107SOL    HW223955   4.282   0.437   2.880  0.3093 -0.1140 -1.8570
 4108SOL     OW23956   0.435   0.734   5.522  0.0873  0.3038 -0.4242
 4108SOL    HW123957   0.404   0.769   5.605 -3.7101 -1.1167 -1.2207
 4108SOL    HW223958   0.512   0.683   5.547  0.2355  0.3926 -0.6935
 4109SOL     OW23959   4.460   1.120  15.351 -0.5202  0.4476  0.2214
 4109SOL    HW123960   4.480   1.194  15.408  1.5128  0.6561 -0.7597
 4109SOL    HW223961   4.544   1.107  15.307 -0.4114  2.3745 -0.1370
 4110SOL     OW23962   2.836   2.827   6.147 -0.1187 -0.3279  0.2668
 4110SOL    HW123963   2.896   2.897   6.124 -0.1496 -1.2030 -2.5287
 4110SOL    HW223964   2.884   2.797   6.224 -0.0839  1.8990  1.0831
 4111SOL     OW23965   3.064   4.631   9.545 -0.0680  0.4918  0.1005
 4111SOL    HW123966   3.143   4.583   9.566 -1.0633 -2.1841 -2.2276
 4111SOL    HW223967   3.088   4.663   9.458  1.1274  0.8147  0.5603
 4112SOL     OW23968   1.659   0.360   0.074  0.0695  0.0835 -0.4393
 4112SOL    HW123969   1.625   0.448   0.091 -0.7718 -0.1174 -1.0686
 4112SOL    HW223970   1.637   0.327   0.160  1.3840  1.5062  0.4435
 4113SOL     OW23971   2.586   0.167  17.370 -0.4262  0.2614  0.5453
 4113SOL    HW123972   2.627   0.089  17.408  1.4779  0.8359 -0.3021
 4113SOL    HW223973   2.639   0.231  17.418  0.1236 -0.1714  0.5251
 4114SOL     OW23974   0.356   1.701   4.945 -0.4805 -0.1541  0.5793
 4114SOL    HW123975   0.410   1.680   5.021  1.0145 -0.3960 -0.5587
 4114SOL    HW223976   0.312   1.780   4.979 -1.3681 -0.7577  0.8317
 4115SOL     OW23977   4.461   0.839   3.936 -0.0548  0.6023 -0.1755
 4115SOL    HW123978   4.498   0.773   3.879  1.9544  1.2078  0.4338
 4115SOL    HW223979   4.473   0.916   3.880 -1.7450 -0.3254 -1.8232
 4116SOL     OW23980   0.330   3.798   6.712 -0.0523  0.3620  0.2115
 4116SOL    HW123981   0.384   3.865   6.754  0.8658 -0.1218 -0.2024
 4116SOL    HW223982   0.348   3.804   6.619  0.9918  1.3348  0.4733
 4117SOL     OW23983   1.414   2.701   2.261 -0.4863  0.0276 -0.2110
 4117SOL    HW123984   1.407   2.608   2.239 -0.9593  0.1186 -0.4474
 4117SOL    HW223985   1.425   2.701   2.356  3.1046  1.4642 -0.6282
 4118SOL     OW23986   2.946   1.999   1.610 -0.3777 -0.1249 -0.1953
 4118SOL    HW123987   2.876   2.057   1.638  0.1065 -1.0033  2.8652
 4118SOL    HW223988   3.013   2.063   1.584  0.6141 -1.0960  0.0009
 4119SOL     OW23989   3.692   0.615  15.668  0.5894  0.2208 -0.6932
 4119SOL    HW123990   3.644   0.553  15.722 -0.6724  1.1068 -0.8142
 4119SOL    HW223991   3.718   0.683  15.731 -0.7830  0.4744 -0.4009
 4120SOL     OW23992   0.116   4.387  16.139 -0.4392 -0.0510 -0.0343
 4120SOL    HW123993   0.164   4.447  16.195  0.2988  0.8387 -1.6224
 4120SOL    HW223994   0.171   4.380  16.061  0.7429  0.5868  0.7409
 4121SOL     OW23995   2.851   0.038   5.510  0.8571 -0.0888  0.4573
 4121SOL    HW123996   2.912   0.020   5.581  0.8679 -1.5081  0.0832
 4121SOL    HW223997   2.897   0.117   5.482  0.2520  0.0555 -0.1443
 4122SOL     OW23998   2.296   2.677  17.139 -0.0525 -0.1013  0.5213
 4122SOL    HW123999   2.226   2.742  17.148 -0.2717 -0.3770  0.8124
 4122SOL    HW224000   2.247   2.595  17.146  0.0292 -0.3593 -1.8546
 4123SOL     OW24001   3.275   3.995   8.341  0.3485  0.1690 -0.6032
 4123SOL    HW124002   3.362   3.955   8.337  0.1949  0.0111 -2.0209
 4123SOL    HW224003   3.242   3.944   8.415 -1.6581  1.6859 -0.4484
 4124SOL     OW24004   4.125   2.831   1.785 -0.5796  0.3329  0.5625
 4124SOL    HW124005   4.083   2.805   1.704 -0.9907 -0.1258  0.9230
 4124SOL    HW224006   4.059   2.876   1.838 -0.3147  0.3542  0.8786
 4125SOL     OW24007   3.545   2.049   2.815 -0.2334 -0.0278  0.1798
 4125SOL    HW124008   3.545   2.123   2.875 -0.8544  0.3871 -0.3344
 4125SOL    HW224009   3.622   2.002   2.845  0.2304 -0.5035 -1.7107
 4126SOL     OW24010   2.701   1.728   3.178 -0.5011 -0.4304 -0.2031
 4126SOL    HW124011   2.780   1.709   3.128  0.7043  0.7424  1.2248
 4126SOL    HW224012   2.662   1.806   3.138 -0.6888 -0.1572  0.5009
 4127SOL     OW24013   2.839   2.855  12.909  0.2569 -0.6035 -0.1330
 4127SOL    HW124014   2.827   2.942  12.948  1.8107 -0.5983  0.3251
 4127SOL    HW224015   2.763   2.851  12.850  1.9555  2.3055 -2.5316
 4128SOL     OW24016   4.721   2.725  13.935 -0.1224 -0.7581 -0.0825
 4128SOL    HW124017   4.648   2.728  13.873 -0.0433 -4.2362 -0.3061
 4128SOL    HW224018   0.002   2.637  13.968 -1.1204 -1.0265 -0.3342
 4129SOL     OW24019   4.318   0.772  15.524 -0.2731 -0.5849  0.1634
 4129SOL    HW124020   4.318   0.686  15.567 -0.3605 -1.3036 -1.2747
 4129SOL    HW224021   4.267   0.824  15.586 -0.1922 -0.8168  0.4287
 4130SOL     OW24022   3.243   2.524   3.596 -0.8211 -0.1064  0.2023
 4130SOL    HW124023   3.314   2.585   3.614 -1.0628 -0.0537  1.0121
 4130SOL    HW224024   3.278   2.444   3.557  0.7245  0.1476  1.0626
 4131SOL     OW24025   0.442   2.502  11.073 -0.0017  0.2901 -0.2042
 4131SOL    HW124026   0.440   2.443  10.997 -2.9763  1.0990 -0.7265
 4131SOL    HW224027   0.520   2.474  11.122 -1.0761 -1.1217  0.7096
 4132SOL     OW24028   0.732   3.293  13.379  0.4269  0.0738 -0.2775
 4132SOL    HW124029   0.652   3.272  13.330  2.2462 -1.8026 -2.3971
 4132SOL    HW224030   0.699   3.357  13.443  1.0866 -2.3934  2.5221
 4133SOL     OW24031   0.755   3.774   3.013  0.0510  0.0161 -0.8300
 4133SOL    HW124032   0.761   3.738   3.101 -0.8771 -0.6882 -1.0534
 4133SOL    HW224033   0.697   3.712   2.969  0.9580 -1.3870 -0.0370
 4134SOL     OW24034   0.876   2.299   2.738  0.6141 -0.2561 -0.2742
 4134SOL    HW124035   0.798   2.267   2.693 -0.1078  2.4514 -0.9373
 4134SOL    HW224036   0.838   2.335   2.818 -0.7585 -0.4474 -0.8339
 4135SOL     OW24037   1.063   3.581  13.158 -0.2484 -0.2996  0.3067
 4135SOL    HW124038   0.980   3.589  13.204  0.5640  0.2127  1.6811
 4135SOL    HW224039   1.119   3.631  13.217  1.7532  0.1502 -1.9512
 4136SOL     OW24040   0.606   4.234  17.458  0.2658 -0.5388 -0.5144
 4136SOL    HW124041   0.672   4.302  17.471 -1.0929  0.7290 -0.3300
 4136SOL    HW224042   0.608   4.223  17.363  0.5462 -0.0322 -0.5644
 4137SOL     OW24043   4.383   3.928   5.008  0.2680 -0.0884  0.2971
 4137SOL    HW124044   4.448   3.997   5.019  0.8536 -0.5387 -0.3711
 4137SOL    HW224045   4.368   3.943   4.915 -2.0167  2.9060  1.1481
 4138SOL     OW24046   4.228   2.239   5.522  0.0247 -0.4663  0.0909
 4138SOL    HW124047   4.261   2.152   5.498  2.1264 -0.7238  3.8608
 4138SOL    HW224048   4.146   2.219   5.565  0.9720 -1.5377  1.3872
 4139SOL     OW24049   4.326   1.924   2.265 -0.0656  0.4814  0.0188
 4139SOL    HW124050   4.250   1.881   2.226  0.4571 -0.4714  0.0530
 4139SOL    HW224051   4.314   1.905   2.358  0.4124 -2.1030 -0.4393
 4140SOL     OW24052   3.106   1.567   2.897  0.1128 -0.5620  0.2853
 4140SOL    HW124053   3.200   1.576   2.914  0.0341 -0.3323  0.6039
 4140SOL    HW224054   3.107   1.550   2.803 -0.3304 -1.7428  0.5064
 4141SOL     OW24055   1.637   4.158   7.355 -0.5383  0.2315  0.3991
 4141SOL    HW124056   1.621   4.250   7.377  0.1176 -0.0402  2.0132
 4141SOL    HW224057   1.721   4.161   7.308 -1.4863  2.9213 -1.1591
 4142SOL     OW24058   0.493   2.266  15.053  0.1058 -0.3127 -0.1438
 4142SOL    HW124059   0.437   2.219  15.114  0.3447 -0.5257 -0.0900
 4142SOL    HW224060   0.485   2.358  15.077 -0.9828 -0.2990 -0.5424
 4143SOL     OW24061   2.875   4.057   5.056 -0.1340  0.0357 -0.7080
 4143SOL    HW124062   2.780   4.058   5.063 -0.0118 -1.7313  1.2265
 4143SOL    HW224063   2.896   4.012   5.138 -0.6004 -0.3888 -0.8202
 4144SOL     OW24064   3.500   4.144   8.085 -0.2238 -0.3934 -0.4911
 4144SOL    HW124065   3.576   4.157   8.141 -1.8075  1.9916  1.0889
 4144SOL    HW224066   3.485   4.049   8.084  0.1137 -0.4193 -3.6822
 4145SOL     OW24067   0.410   3.149   3.755  0.3215  0.1475  0.3805
 4145SOL    HW124068   0.465   3.169   3.831 -1.2551  0.2016  1.4978
 4145SOL    HW224069   0.330   3.159   3.806 -0.1734  2.7358 -0.9071
 4146SOL     OW24070   1.161   2.154   5.337 -0.1545  0.0225 -0.1102
 4146SOL    HW124071   1.180   2.145   5.244  0.0381  3.2271 -0.3783
 4146SOL    HW224072   1.249   2.137   5.370 -0.6803 -0.4237  1.0879
 4147SOL     OW24073   1.395   3.757  15.058  0.1897 -0.2123 -0.1782
 4147SOL    HW124074   1.321   3.804  15.098  0.1629 -1.8228  1.6530
 4147SOL    HW224075   1.356   3.686  15.007 -0.0363  0.4129 -0.8749
 4148SOL     OW24076   1.777   1.830   4.352 -0.3810  0.3688 -0.0931
 4148SOL    HW124077   1.699   1.822   4.297 -1.3637  1.4644  1.1552
 4148SOL    HW224078   1.829   1.873   4.285  0.5879 -1.9422 -0.8330
 4149SOL     OW24079   4.505   3.845   3.840  0.0260 -0.2916  1.1103
 4149SOL    HW124080   4.456   3.788   3.900  2.2208 -2.9524  0.3981
 4149SOL    HW224081   4.432   3.897   3.807  0.5772  0.4021  0.9921
 4150SOL     OW24082   0.427   2.826  14.722  0.3759 -0.1041 -0.0206
 4150SOL    HW124083   0.464   2.812  14.635 -0.2391  0.0817 -0.3108
 4150SOL    HW224084   0.451   2.745  14.767  1.8263  0.6945  0.6442
 4151SOL     OW24085   3.025   3.689  11.601 -0.0378 -0.7988 -0.0837
 4151SOL    HW124086   3.091   3.656  11.540  1.1277  2.6034 -0.6525
 4151SOL    HW224087   2.965   3.738  11.546  0.8325  0.3264 -0.0518
 4152SOL     OW24088   1.614   0.839   5.224  0.0708  0.7699  0.1103
 4152SOL    HW124089   1.564   0.823   5.144 -0.1551  0.3060  0.3417
 4152SOL    HW224090   1.640   0.749   5.247  4.0014  1.6209 -0.9083
 4153SOL     OW24091   1.594   1.832   6.128 -0.0589  0.1499  0.2675
 4153SOL    HW124092   1.613   1.741   6.104 -0.2815  0.3059 -0.4841
 4153SOL    HW224093   1.568   1.816   6.219 -1.3048 -0.4618 -0.1899
 4154SOL     OW24094   2.238   3.664   7.943  0.2507 -0.3636  0.1681
 4154SOL    HW124095   2.190   3.583   7.959 -1.8831  1.1344  1.3848
 4154SOL    HW224096   2.173   3.724   7.982  2.8466  2.3464  0.3390
 4155SOL     OW24097   3.496   2.850   7.847  0.0337 -0.0045  0.0955
 4155SOL    HW124098   3.577   2.889   7.880  1.2512 -1.8385 -0.7406
 4155SOL    HW224099   3.479   2.782   7.913 -3.4660  0.2222 -0.5840
 4156SOL     OW24100   4.379   0.033   4.777  0.7087 -0.5420 -0.3748
 4156SOL    HW124101   4.369   0.124   4.804  0.7442 -0.0468 -2.0573
 4156SOL    HW224102   4.393   4.723   4.861 -2.5585  0.8667  0.9087
 4157SOL     OW24103   4.313   2.215   1.480  0.2441  0.2595  0.1556
 4157SOL    HW124104   4.406   2.232   1.497 -0.3525  1.4680  2.2405
 4157SOL    HW224105   4.275   2.295   1.518  0.6989  0.6623 -0.2444
 4158SOL     OW24106   3.254   0.248   7.687  0.0497 -0.1156 -0.7270
 4158SOL    HW124107   3.237   0.333   7.646  0.6056 -0.5545 -1.8620
 4158SOL    HW224108   3.175   0.196   7.699  0.1508  0.0979  0.9355
 4159SOL     OW24109   2.365   3.640  11.174 -0.4601 -0.4306 -0.7207
 4159SOL    HW124110   2.363   3.590  11.093 -1.0638 -1.4837 -0.0452
 4159SOL    HW224111   2.328   3.724  11.146 -0.7175  0.0039  0.9300
 4160SOL     OW24112   3.212   3.226   7.093 -0.2529  0.1511 -0.0775
 4160SOL    HW124113   3.283   3.258   7.148 -0.2792  2.2521 -1.2351
 4160SOL    HW224114   3.161   3.168   7.149  2.6205 -1.6992  0.5837
 4161SOL     OW24115   1.522   1.692   3.385  0.3450 -0.3968 -0.0591
 4161SOL    HW124116   1.552   1.666   3.298 -0.3864 -1.7834  0.0942
 4161SOL    HW224117   1.580   1.640   3.441  1.9306  1.2762 -0.1441
 4162SOL     OW24118   4.062   0.110   7.815 -0.2335 -0.2601  0.0888
 4162SOL    HW124119   4.080   0.102   7.909  0.4537  0.2781  0.0033
 4162SOL    HW224120   4.144   0.150   7.786 -1.5571  0.9404 -1.9626
 4163SOL     OW24121   4.124   0.272  15.960 -0.0567 -0.2265  0.1024
 4163SOL    HW124122   4.103   0.187  15.921 -1.3496 -0.6659  1.7661
 4163SOL    HW224123   4.219   0.276  15.946 -0.1732 -0.4001 -0.7411
 4164SOL     OW24124   2.448   1.564   9.241 -0.0147 -0.2098  0.4342
 4164SOL    HW124125   2.489   1.482   9.214  1.2335 -0.0640  1.9006
 4164SOL    HW224126   2.359   1.528   9.241 -0.9035  1.9990 -3.3181
 4165SOL     OW24127   0.292   1.218   7.888  0.3898 -0.7403 -0.2240
 4165SOL    HW124128   0.256   1.195   7.974  2.2780  1.1423  1.0729
 4165SOL    HW224129   0.227   1.282   7.859  0.2603 -2.3176 -3.3490
 4166SOL     OW24130   4.227   3.914  17.029  0.4817  0.0883 -0.8070
 4166SOL    HW124131   4.167   3.989  17.030  0.1990 -0.1599  0.8909
 4166SOL    HW224132   4.184   3.857  16.966 -1.6916  1.0699 -0.2265
 4167SOL     OW24133   3.750   3.125   5.453 -0.8093 -0.1808  0.2130
 4167SOL    HW124134   3.712   3.207   5.421 -3.7309 -1.5330  0.1327
 4167SOL    HW224135   3.679   3.065   5.427 -0.8630  0.4516 -1.1180
 4168SOL     OW24136   1.960   3.765   4.132  0.3180 -0.2653 -0.0065
 4168SOL    HW124137   1.959   3.672   4.154 -0.1893 -0.1968  0.2468
 4168SOL    HW224138   1.890   3.797   4.188  0.6703  0.6648 -0.0862
 4169SOL     OW24139   3.583   1.586   2.294 -0.0610 -0.3416  0.5646
 4169SOL    HW124140   3.554   1.677   2.303  1.2767  0.0127  1.3117
 4169SOL    HW224141   3.501   1.539   2.282 -0.2321  0.8284 -2.7931
 4170SOL     OW24142   2.089   1.591   7.995 -0.2333  0.3114 -0.6047
 4170SOL    HW124143   2.113   1.591   8.087 -0.5441  0.6039 -0.5229
 4170SOL    HW224144   2.156   1.549   7.941 -0.3059 -0.6800  0.0876
 4171SOL     OW24145   0.547   3.542   7.948  0.6434  0.0250 -1.1426
 4171SOL    HW124146   0.539   3.617   8.007 -0.3191  0.5824 -1.9667
 4171SOL    HW224147   0.459   3.543   7.909  0.4603  0.6387 -0.7258
 4172SOL     OW24148   1.392   0.599   2.318  0.1440  0.3297 -0.6395
 4172SOL    HW124149   1.404   0.652   2.397  0.2136 -0.4467 -0.1267
 4172SOL    HW224150   1.314   0.548   2.341  1.5596 -1.1670  0.8068
 4173SOL     OW24151   4.732   4.530   2.763 -0.1820 -0.3034  1.0504
 4173SOL    HW124152   4.685   4.612   2.777 -1.8471 -0.7465 -1.9420
 4173SOL    HW224153   0.012   4.534   2.668  0.7210  0.3963  1.2092
 4174SOL     OW24154   3.393   2.759   0.441  0.4042 -0.5279 -0.0357
 4174SOL    HW124155   3.424   2.675   0.476  2.8255 -0.6142 -2.4267
 4174SOL    HW224156   3.318   2.771   0.498  3.0837 -0.8595  3.5670
 4175SOL     OW24157   1.240   4.130   7.797 -0.0205  1.0637 -0.3661
 4175SOL    HW124158   1.179   4.082   7.853 -0.1032 -0.3459 -1.6365
 4175SOL    HW224159   1.274   4.188   7.865 -1.5050  1.2625  0.1849
 4176SOL     OW24160   3.961   1.460   7.656  0.0901 -0.1285 -0.3640
 4176SOL    HW124161   3.981   1.554   7.661 -0.5728  0.0369 -0.8433
 4176SOL    HW224162   3.871   1.459   7.688  0.2956 -1.5048  0.1295
 4177SOL     OW24163   1.783   4.152   9.082  0.2065 -0.0197 -0.4076
 4177SOL    HW124164   1.767   4.133   8.989  1.1922 -2.3828 -0.0954
 4177SOL    HW224165   1.829   4.073   9.111 -0.5724  0.6479  2.5884
 4178SOL     OW24166   2.806   3.622  10.638  0.2698  1.2328  0.3621
 4178SOL    HW124167   2.734   3.586  10.691 -0.2393  0.2877 -0.9765
 4178SOL    HW224168   2.792   3.582  10.552 -0.2331  0.7742  0.6555
 4179SOL     OW24169   0.113   1.960   4.234  0.0629 -0.3987 -0.0422
 4179SOL    HW124170   0.119   2.054   4.220 -0.1454 -0.4861 -0.7172
 4179SOL    HW224171   0.096   1.956   4.328 -0.0328  0.0021 -0.0418
 4180SOL     OW24172   4.562   1.439   6.682 -0.3143 -0.1828 -0.2339
 4180SOL    HW124173   4.627   1.377   6.649  1.3713  0.9131  1.0555
 4180SOL    HW224174   4.596   1.520   6.642 -1.1085 -0.7317 -2.0400
 4181SOL     OW24175   3.915   4.300  15.213 -0.0315  0.1468  0.4119
 4181SOL    HW124176   3.996   4.281  15.260  0.9265  1.0040 -0.8737
 4181SOL    HW224177   3.906   4.212  15.177  0.7312 -0.5542  1.9144
 4182SOL     OW24178   3.057   2.721   3.964 -0.2746  0.2275  0.4618
 4182SOL    HW124179   3.080   2.808   3.934 -2.0513  1.0530  1.4867
 4182SOL    HW224180   3.116   2.660   3.920 -0.5908 -0.2855  0.7484
 4183SOL     OW24181   1.548   2.640   7.016  0.1107 -0.6835  0.3135
 4183SOL    HW124182   1.622   2.663   7.072 -0.1799  2.1884 -0.5269
 4183SOL    HW224183   1.566   2.704   6.948 -0.3380 -0.6285  0.2468
 4184SOL     OW24184   0.579   2.600  14.202 -0.1278  0.3667  0.6348
 4184SOL    HW124185   0.488   2.629  14.200 -0.9225 -2.1380  1.4926
 4184SOL    HW224186   0.625   2.684  14.208  3.1748 -1.5166  1.4988
 4185SOL     OW24187   4.191   1.602   7.047 -0.6842  0.1347 -0.1152
 4185SOL    HW124188   4.181   1.688   7.087 -0.3950 -0.7120  1.7916
 4185SOL    HW224189   4.170   1.629   6.958 -3.2995 -1.9088 -0.1353
 4186SOL     OW24190   4.405   0.703   4.441  0.0229 -0.5946  0.0317
 4186SOL    HW124191   4.375   0.617   4.414 -0.3223 -0.8304  1.1655
 4186SOL    HW224192   4.399   0.751   4.359  2.5186  0.2439  0.3284
 4187SOL     OW24193   0.263   1.070   8.122  0.1914  0.1055  0.5480
 4187SOL    HW124194   0.224   1.017   8.192 -1.3259  0.1790 -0.2346
 4187SOL    HW224195   0.252   1.013   8.046  0.2742  0.4015  0.3153
 4188SOL     OW24196   3.391   4.533   1.525 -0.5881  0.1770 -0.1803
 4188SOL    HW124197   3.374   4.438   1.528 -1.5995  0.4312  2.1867
 4188SOL    HW224198   3.452   4.534   1.451 -0.2606 -1.1375  0.0645
 4189SOL     OW24199   1.717   0.221   8.446  0.1531  0.5827 -0.2926
 4189SOL    HW124200   1.674   0.142   8.477  1.1648  0.0467 -0.2574
 4189SOL    HW224201   1.792   0.191   8.395  0.6128 -0.3685  0.9425
 4190SOL     OW24202   3.998   3.502   7.726 -0.0615  0.5858 -0.3410
 4190SOL    HW124203   4.029   3.420   7.688 -1.3220 -1.3984  2.9086
 4190SOL    HW224204   3.903   3.498   7.712  0.4208  0.3957 -3.4908
 4191SOL     OW24205   4.290   1.070   2.974  0.6414 -0.1199  0.0745
 4191SOL    HW124206   4.361   1.058   3.037  0.7571  0.5314  0.0668
 4191SOL    HW224207   4.240   1.135   3.024  2.1869  0.4793  0.8279
 4192SOL     OW24208   3.002   0.269   6.668  0.0757 -0.1518  0.1995
 4192SOL    HW124209   3.097   0.264   6.670  0.0737 -0.8169 -2.1299
 4192SOL    HW224210   2.995   0.190   6.615  0.2774  0.0180 -0.0786
 4193SOL     OW24211   2.323   0.216   5.861 -0.2979  0.6139  0.2731
 4193SOL    HW124212   2.390   0.172   5.913  1.1765  0.9926 -1.3160
 4193SOL    HW224213   2.307   0.302   5.899 -0.1648 -0.6304  3.1630
 4194SOL     OW24214   0.766   1.797   4.573 -0.3730 -0.3093 -0.0964
 4194SOL    HW124215   0.680   1.786   4.613  0.2590  1.7153  1.8243
 4194SOL    HW224216   0.783   1.704   4.563 -1.2520 -0.0454 -4.0227
 4195SOL     OW24217   1.568   0.442   4.694 -0.4156  0.2122 -0.2260
 4195SOL    HW124218   1.482   0.427   4.654  0.6391  1.3030 -2.8978
 4195SOL    HW224219   1.541   0.426   4.784 -0.7616 -0.2203 -0.4062
 4196SOL     OW24220   4.038   1.001   2.857 -0.2672 -0.0971 -0.3276
 4196SOL    HW124221   4.116   1.050   2.883 -0.2574  0.7943 -2.0214
 4196SOL    HW224222   4.047   0.923   2.911 -1.4502 -0.0133 -0.0206
 4197SOL     OW24223   0.772   2.747   5.058  0.6243  0.5235  0.7008
 4197SOL    HW124224   0.774   2.780   4.968 -0.6784 -1.7491 -0.1804
 4197SOL    HW224225   0.832   2.803   5.107  0.9442 -0.3431  1.2882
 4198SOL     OW24226   4.643   3.377  16.841 -0.2570  0.0375  0.1847
 4198SOL    HW124227   4.665   3.402  16.931 -1.0748 -0.4104  0.5159
 4198SOL    HW224228   4.733   3.357  16.817  0.3031  2.3078  0.4295
 4199SOL     OW24229   2.701   4.576   4.242  0.3498  0.3886  0.6733
 4199SOL    HW124230   2.630   4.631   4.208  0.7385  0.2142 -0.4223
 4199SOL    HW224231   2.752   4.579   4.161 -1.4758  0.1733 -0.4936
 4200SOL     OW24232   3.675   4.640   4.732 -0.2090 -0.4399 -0.7170
 4200SOL    HW124233   3.705   4.553   4.703 -0.1037 -0.0425 -1.8175
 4200SOL    HW224234   3.655   4.628   4.824 -0.9760  0.6919 -0.7395
 4201SOL     OW24235   1.183   3.204   2.823  0.2730 -0.3907 -0.2745
 4201SOL    HW124236   1.247   3.160   2.767  0.9980  0.9027 -0.4817
 4201SOL    HW224237   1.148   3.130   2.872 -2.2147  1.2031  0.3099
 4202SOL     OW24238   0.376   4.354  15.137  0.4182 -0.4622  0.1056
 4202SOL    HW124239   0.419   4.381  15.218  0.3247 -0.7811  0.2616
 4202SOL    HW224240   0.440   4.375  15.069  0.1006 -0.1573 -0.0983
 4203SOL     OW24241   0.441   1.199   8.778 -0.0702 -0.3582 -0.3677
 4203SOL    HW124242   0.376   1.143   8.735  0.2921 -0.0707 -1.2979
 4203SOL    HW224243   0.418   1.284   8.739  2.7334  0.0875 -1.0567
 4204SOL     OW24244   2.953   1.919  16.412 -0.3045 -0.2467  0.3904
 4204SOL    HW124245   3.046   1.918  16.391 -0.0292  3.8804  1.3814
 4204SOL    HW224246   2.939   2.012  16.395  0.4074 -0.1678  0.2504
 4205SOL     OW24247   0.248   3.375   4.161  0.4267 -0.4042 -0.2718
 4205SOL    HW124248   0.198   3.329   4.228  1.9568 -1.8505 -0.1154
 4205SOL    HW224249   0.207   3.461   4.169  2.7756  0.7919 -0.9316
 4206SOL     OW24250   3.995   4.456   5.314  0.2349 -0.4978  0.4647
 4206SOL    HW124251   4.027   4.386   5.370 -0.6150 -0.2339  1.2578
 4206SOL    HW224252   4.021   4.525   5.374 -1.0259  0.8766 -0.5680
 4207SOL     OW24253   1.463   4.010   8.813  0.0948 -0.3374 -0.2529
 4207SOL    HW124254   1.382   3.978   8.853  1.8446 -2.5101  1.5885
 4207SOL    HW224255   1.427   4.086   8.768  1.9630  0.6790 -0.0553
 4208SOL     OW24256   4.658   4.591   8.158  0.0750 -0.8294 -0.0350
 4208SOL    HW124257   4.676   4.501   8.131 -0.3015 -0.4321 -1.6564
 4208SOL    HW224258   4.570   4.598   8.121 -0.3548  0.7097  1.2844
 4209SOL     OW24259   4.102   1.099   2.609  0.2061  0.7471  1.1271
 4209SOL    HW124260   4.057   1.062   2.684  1.5278  1.1453  2.1211
 4209SOL    HW224261   4.177   1.141   2.651  1.5544 -1.4531  0.9073
 4210SOL     OW24262   4.075   3.307   1.038  0.0491 -0.0492  0.0301
 4210SOL    HW124263   4.071   3.215   1.015 -0.8002  0.0623 -0.2663
 4210SOL    HW224264   4.040   3.344   0.957 -1.5832  1.2782  1.3419
 4211SOL     OW24265   4.566   4.265  17.047  0.0646  0.0899 -0.1756
 4211SOL    HW124266   4.539   4.288  16.958 -0.5060  0.2171  0.0343
 4211SOL    HW224267   4.653   4.225  17.039 -0.2403 -0.2941 -1.6739
 4212SOL     OW24268   1.028   2.752   9.283 -0.2832  0.5966 -0.6129
 4212SOL    HW124269   1.086   2.801   9.342 -0.5886  2.6298 -1.9702
 4212SOL    HW224270   0.950   2.743   9.337  0.7418  1.5258  1.0285
 4213SOL     OW24271   2.678   0.222   6.743 -0.0513  0.3810 -1.0629
 4213SOL    HW124272   2.589   0.211   6.775 -0.0417  0.4876 -0.9988
 4213SOL    HW224273   2.707   0.134   6.721 -2.7258 -0.5671 -0.7383
 4214SOL     OW24274   2.997   3.831  10.362  0.7298  0.2181  0.3526
 4214SOL    HW124275   3.039   3.817  10.277 -1.8391 -1.0250 -0.7414
 4214SOL    HW224276   3.028   3.915  10.395 -0.0220  1.3109 -1.6962
 4215SOL     OW24277   2.700   3.379   3.032  0.0071 -0.6100  0.3073
 4215SOL    HW124278   2.690   3.354   3.124  0.1776  0.9341  0.7461
 4215SOL    HW224279   2.679   3.472   3.039  0.3217 -0.6800  2.3217
 4216SOL     OW24280   0.482   4.027   3.445 -0.4648 -0.4472  0.0747
 4216SOL    HW124281   0.390   4.041   3.423 -0.2011  0.6225 -0.3638
 4216SOL    HW224282   0.479   4.006   3.538 -0.5482  0.5018  0.2834
 4217SOL     OW24283   3.406   4.336   6.912 -0.4399 -0.6576 -0.1493
 4217SOL    HW124284   3.381   4.288   6.833  2.3880  1.1066 -2.1260
 4217SOL    HW224285   3.409   4.430   6.891  0.9267 -0.7405 -0.3045
 4218SOL     OW24286   3.916   1.937   5.542 -0.1664 -0.2531  0.3574
 4218SOL    HW124287   3.950   1.959   5.456  2.1546 -0.3960  1.2457
 4218SOL    HW224288   3.831   1.898   5.523 -0.1364  0.1065 -0.5097
 4219SOL     OW24289   1.708   1.014   9.811 -0.8323  0.0298 -0.2956
 4219SOL    HW124290   1.654   1.031   9.734 -1.6528 -1.0825  0.0439
 4219SOL    HW224291   1.646   1.037   9.880 -0.5368 -1.1616  0.3630
 4220SOL     OW24292   0.014   4.287   8.403  0.2646  0.2586  0.7792
 4220SOL    HW124293   4.666   4.330   8.428 -0.5239 -0.1933 -1.0712
 4220SOL    HW224294   0.070   4.291   8.481  0.2820 -0.5123  0.8070
 4221SOL     OW24295   0.337   3.421  16.577 -0.1279 -0.0916 -0.0650
 4221SOL    HW124296   0.356   3.513  16.597 -2.1236  0.0582  1.0896
 4221SOL    HW224297   0.413   3.367  16.601 -1.8984 -2.9481 -0.8026
 4222SOL     OW24298   3.348   1.286   5.826  0.0824 -0.6044 -0.0351
 4222SOL    HW124299   3.266   1.308   5.871  2.0401 -1.8781  4.0924
 4222SOL    HW224300   3.351   1.194   5.852  1.3886 -0.5641 -0.0813
 4223SOL     OW24301   3.348   2.983   1.856 -0.5713 -0.2542 -0.2698
 4223SOL    HW124302   3.389   2.951   1.936  1.2173  1.9794 -0.2763
 4223SOL    HW224303   3.316   3.066   1.892 -1.3500 -0.0935 -1.3087
 4224SOL     OW24304   1.406   2.202   7.000  0.2759 -0.0872  0.2746
 4224SOL    HW124305   1.328   2.192   6.946  0.7308 -0.9769 -0.2178
 4224SOL    HW224306   1.447   2.281   6.965  2.1298 -1.0470  0.2324
 4225SOL     OW24307   0.271   0.171   5.733  0.4850  0.4708 -0.0399
 4225SOL    HW124308   0.335   0.102   5.746  0.3230 -0.0618 -2.1405
 4225SOL    HW224309   0.278   0.180   5.638  1.3044 -2.0034 -0.1895
 4226SOL     OW24310   4.724   0.905   4.724 -0.3610  0.1229 -0.4309
 4226SOL    HW124311   4.715   0.858   4.641 -0.0783  0.8804 -0.8944
 4226SOL    HW224312   0.036   0.988   4.710  2.8961 -1.3826  1.3381
 4227SOL     OW24313   4.342   2.158   6.494 -0.0117  0.0570 -0.2556
 4227SOL    HW124314   4.346   2.187   6.585  3.0475  1.1317 -0.7330
 4227SOL    HW224315   4.433   2.157   6.464  0.0197 -1.1538 -0.1403
 4228SOL     OW24316   0.161   0.724  16.578  0.0614  0.2186  0.1316
 4228SOL    HW124317   0.127   0.736  16.489 -3.2397  1.2476  1.5021
 4228SOL    HW224318   0.220   0.797  16.595  0.8207 -0.8678  2.1569
 4229SOL     OW24319   3.222   1.582   7.488  0.2184 -0.3957 -0.0036
 4229SOL    HW124320   3.142   1.559   7.535 -1.1737  3.8162 -0.2959
 4229SOL    HW224321   3.227   1.678   7.497 -0.4430 -0.3032 -0.6119
 4230SOL     OW24322   1.809   3.540   7.386 -0.0883 -0.0883 -0.1168
 4230SOL    HW124323   1.830   3.579   7.301  2.1964 -1.3652 -0.1420
 4230SOL    HW224324   1.720   3.565   7.410 -0.1215  0.9931 -1.3686
 4231SOL     OW24325   0.116   4.598   9.370  0.2162  0.3627 -0.4704
 4231SOL    HW124326   0.033   4.552   9.382  0.3446  0.5400  1.0970
 4231SOL    HW224327   0.085   4.688   9.377  1.4325  0.6381  1.4975
 4232SOL     OW24328   2.634   0.394   7.081 -0.4903  0.2414 -0.5039
 4232SOL    HW124329   2.711   0.396   7.025  0.2442  1.2118  0.5362
 4232SOL    HW224330   2.578   0.416   7.006 -1.3448 -0.8689 -0.1913
 4233SOL     OW24331   0.738   0.995   3.144  0.4538  0.1692  0.4377
 4233SOL    HW124332   0.754   1.085   3.171 -0.5508  0.4283  0.1645
 4233SOL    HW224333   0.645   1.003   3.124  0.5045 -1.2844 -0.3883
 4234SOL     OW24334   1.827   2.979   4.293  0.8618  0.4385 -0.4216
 4234SOL    HW124335   1.880   3.055   4.317  0.6331  0.2582  0.6959
 4234SOL    HW224336   1.746   3.015   4.256 -0.3971 -1.2842  0.6354
 4235SOL     OW24337   1.428   4.630   4.248  0.2803 -0.2167  0.4606
 4235SOL    HW124338   1.408   4.537   4.258  1.9929 -0.6787 -0.4849
 4235SOL    HW224339   1.509   4.626   4.198 -1.9345  2.4329 -3.3674
 4236SOL     OW24340   3.105   0.855   3.614 -0.0130 -0.7611  0.1521
 4236SOL    HW124341   3.123   0.948   3.632 -1.9494 -0.3170 -0.2415
 4236SOL    HW224342   3.157   0.837   3.535 -0.4153  1.4559 -0.6239
 4237SOL     OW24343   2.383   3.254  13.297  0.0996  0.5925 -0.5727
 4237SOL    HW124344   2.391   3.184  13.232  1.6354 -1.6884  2.1044
 4237SOL    HW224345   2.326   3.293  13.230 -0.9036 -2.0864 -1.3111
 4238SOL     OW24346   3.298   0.538   3.007 -0.2511  0.2139 -0.3705
 4238SOL    HW124347   3.278   0.614   2.952 -0.1498 -0.7032 -1.6533
 4238SOL    HW224348   3.303   0.479   2.932  0.6757  0.9685 -0.9150
 4239SOL     OW24349   0.552   4.335   2.700  0.2419  0.4875 -0.1255
 4239SOL    HW124350   0.504   4.269   2.750  1.2383 -0.5377 -0.5063
 4239SOL    HW224351   0.523   4.415   2.742  1.7071  0.1592  1.5000
 4240SOL     OW24352   0.454   4.569   6.324  0.4013 -0.1223 -0.1396
 4240SOL    HW124353   0.547   4.550   6.336  0.5963 -0.6828 -2.4434
 4240SOL    HW224354   0.453   4.596   6.232  0.6162  0.7117  0.0982
 4241SOL     OW24355   3.962   3.638   1.556 -0.2409 -0.6163 -0.1612
 4241SOL    HW124356   3.995   3.609   1.641 -1.9079  0.9255  1.0111
 4241SOL    HW224357   4.018   3.712   1.532 -2.3541  1.0112 -0.1822
 4242SOL     OW24358   4.676   4.600  16.640  0.3213 -0.1530  0.6187
 4242SOL    HW124359   4.583   4.593  16.662 -0.0073 -2.5768 -1.5045
 4242SOL    HW224360   4.670   4.635  16.551  2.8876 -0.0252  0.5057
 4243SOL     OW24361   2.715   0.830   2.452 -0.3570  0.1040 -0.1965
 4243SOL    HW124362   2.679   0.775   2.522 -0.4234  1.2797  0.6888
 4243SOL    HW224363   2.697   0.771   2.379 -0.3916  1.1493 -1.0270
 4244SOL     OW24364   4.261   4.598   8.321 -0.1097 -0.3453 -0.2001
 4244SOL    HW124365   4.209   4.551   8.256 -1.3625 -1.0718  1.3259
 4244SOL    HW224366   4.298   4.526   8.372  1.3004 -0.2375 -1.0761
 4245SOL     OW24367   1.003   3.720   0.038 -0.2452 -0.4183 -0.2663
 4245SOL    HW124368   1.059   3.780   0.086  0.1336 -0.9730 -0.0131
 4245SOL    HW224369   0.922   3.770   0.031 -0.5601 -0.8287  0.4173
 4246SOL     OW24370   3.700   2.930   8.044  0.7651 -0.4128  0.1156
 4246SOL    HW124371   3.723   3.008   8.095  2.2251 -1.5396  1.1762
 4246SOL    HW224372   3.747   2.866   8.097  1.4748 -0.8906 -1.0913
 4247SOL     OW24373   2.733   0.418   7.856  0.8959 -0.3390  0.0941
 4247SOL    HW124374   2.813   0.441   7.904  0.0126  0.0616  1.3624
 4247SOL    HW224375   2.705   0.501   7.818 -0.0838 -0.2535  1.0280
 4248SOL     OW24376   3.344   1.044   3.331  0.4450 -0.3958  0.2169
 4248SOL    HW124377   3.403   1.076   3.263  0.6488 -1.3056 -0.0404
 4248SOL    HW224378   3.292   0.974   3.292 -0.1803 -0.9309  2.0254
 4249SOL     OW24379   3.205   1.874   7.537  0.6213 -1.2513 -0.9937
 4249SOL    HW124380   3.221   1.966   7.560 -2.0159 -0.2461 -3.2534
 4249SOL    HW224381   3.194   1.872   7.442 -0.4364  0.5371 -0.9111
 4250SOL     OW24382   0.075   3.727   6.872 -0.0306 -0.2934 -0.0394
 4250SOL    HW124383   0.153   3.717   6.817 -1.3114  1.9908 -2.2542
 4250SOL    HW224384   0.085   3.810   6.919 -0.3719 -0.5372  0.4587
 4251SOL     OW24385   0.041   0.876   5.894  0.6191 -0.2028  0.2107
 4251SOL    HW124386   4.728   0.886   5.811  1.2553 -0.3911 -0.1711
 4251SOL    HW224387   4.713   0.810   5.926  0.4466 -0.1318  0.0202
 4252SOL     OW24388   1.381   2.279   4.932 -0.2399  0.8538  0.3418
 4252SOL    HW124389   1.429   2.281   5.015 -1.7358 -0.2087  1.2168
 4252SOL    HW224390   1.297   2.243   4.957 -0.1012 -0.2141 -0.6997
 4253SOL     OW24391   2.318   2.774   2.427 -0.4360  0.0140 -0.4498
 4253SOL    HW124392   2.343   2.818   2.509 -3.3446  3.0094 -1.1540
 4253SOL    HW224393   2.310   2.848   2.368  2.0854  0.8896  0.3251
 4254SOL     OW24394   3.774   1.139   1.571 -0.1642 -0.0190  0.3175
 4254SOL    HW124395   3.732   1.222   1.550  0.2134  0.8717  3.1459
 4254SOL    HW224396   3.843   1.142   1.504  0.5433  2.3990  1.1613
 4255SOL     OW24397   0.285   2.213  10.989 -0.1589  0.3463 -0.6568
 4255SOL    HW124398   0.347   2.272  10.946  0.5880 -1.5112 -2.1204
 4255SOL    HW224399   0.234   2.182  10.915 -2.5813  0.1747  1.0883
 4256SOL     OW24400   0.926   4.195   6.757  0.1577 -0.0289 -0.0418
 4256SOL    HW124401   0.954   4.176   6.667 -1.4925 -1.1690 -0.3061
 4256SOL    HW224402   1.006   4.223   6.801  1.6013  0.2594 -2.8375
 4257SOL     OW24403   3.522   0.680  12.948  0.1046 -0.0396 -0.1964
 4257SOL    HW124404   3.529   0.589  12.920 -0.2720 -0.2019  0.2365
 4257SOL    HW224405   3.553   0.665  13.037  0.0641  0.9961 -0.0039
 4258SOL     OW24406   4.209   3.890  17.330 -0.3311  0.0234 -0.3888
 4258SOL    HW124407   4.218   3.984  17.315  0.2168 -0.2138 -1.5438
 4258SOL    HW224408   4.159   3.857  17.255 -2.3782  1.5464  0.2906
 4259SOL     OW24409   4.289   0.119   9.361 -0.1946 -0.1996  0.0932
 4259SOL    HW124410   4.321   0.179   9.293  0.4923 -1.0503 -0.3314
 4259SOL    HW224411   4.317   0.030   9.343  3.3026  1.4005 -2.4802
 4260SOL     OW24412   3.823   3.164   3.679 -0.2168  0.2411 -0.4749
 4260SOL    HW124413   3.858   3.089   3.630  0.4503  1.2293 -1.5156
 4260SOL    HW224414   3.826   3.122   3.764 -0.6322 -0.8884 -1.0177
 4261SOL     OW24415   1.812   0.853   2.516 -0.1929 -0.4041  0.6272
 4261SOL    HW124416   1.900   0.858   2.480  0.2573 -0.4232  1.7397
 4261SOL    HW224417   1.757   0.897   2.451 -1.1695 -1.5540  0.6644
 4262SOL     OW24418   4.624   2.218   2.068 -0.4113 -0.1670  0.4369
 4262SOL    HW124419   4.718   2.208   2.085  0.1015  0.5078 -2.0792
 4262SOL    HW224420   4.600   2.153   2.003 -0.0543  0.1668 -0.0316
 4263SOL     OW24421   2.965   4.438   2.543  0.3095 -0.4402  0.1985
 4263SOL    HW124422   2.895   4.492   2.580 -0.6431  1.6415 -4.6378
 4263SOL    HW224423   2.987   4.377   2.613  0.4877 -1.5112 -0.7863
 4264SOL     OW24424   3.154   0.394   4.515 -0.0847 -0.3250 -0.3286
 4264SOL    HW124425   3.068   0.376   4.555  1.0748 -3.5007  0.7274
 4264SOL    HW224426   3.207   0.315   4.528 -1.3905 -1.1594 -0.0738
 4265SOL     OW24427   4.283   3.780   3.613  0.5431 -0.0968  0.5969
 4265SOL    HW124428   4.211   3.766   3.674  0.7978 -1.2133  0.6420
 4265SOL    HW224429   4.318   3.691   3.611 -1.8272 -1.0065 -0.7482
 4266SOL     OW24430   3.516   4.647   1.733 -0.2597  0.0392  0.1979
 4266SOL    HW124431   3.471   4.730   1.746 -2.1435 -0.8018 -1.1104
 4266SOL    HW224432   3.467   4.608   1.661  0.1428 -0.8308  0.3936
 4267SOL     OW24433   4.410   0.866   4.213 -0.6460 -0.3889  0.1175
 4267SOL    HW124434   4.484   0.920   4.242 -1.4942  0.3480  0.9125
 4267SOL    HW224435   4.428   0.836   4.124 -1.4885  1.5902 -0.7216
 4268SOL     OW24436   1.286   3.973  11.906 -0.3371  0.0390  0.4551
 4268SOL    HW124437   1.375   4.002  11.888 -0.0435 -1.3223 -0.2952
 4268SOL    HW224438   1.277   4.003  11.996  1.3014  1.1430  0.2435
 4269SOL     OW24439   2.446   4.310   5.519  0.1775  0.3459  0.2674
 4269SOL    HW124440   2.397   4.370   5.462  0.2779  0.5596  0.4067
 4269SOL    HW224441   2.413   4.332   5.606  0.7903  0.6791  0.4217
 4270SOL     OW24442   1.721   0.825  12.289  0.5118  0.1826  0.0034
 4270SOL    HW124443   1.750   0.744  12.332  0.2414 -0.6385 -1.3632
 4270SOL    HW224444   1.696   0.886  12.359 -2.1653 -1.5277  0.5453
 4271SOL     OW24445   0.163   2.892   6.423 -0.1137  0.0788  0.1285
 4271SOL    HW124446   0.102   2.962   6.447 -0.7886 -0.6188  0.4473
 4271SOL    HW224447   0.100   2.835   6.380  1.0571 -2.1758  1.3625
 4272SOL     OW24448   3.649   0.871   3.295  0.1201  0.2821  0.2447
 4272SOL    HW124449   3.594   0.933   3.246  0.9693  0.8861  0.0659
 4272SOL    HW224450   3.611   0.787   3.267  0.5276  0.5832 -1.2021
 4273SOL     OW24451   4.494   0.792  10.791  0.1210  0.2737  0.0934
 4273SOL    HW124452   4.494   0.783  10.696 -0.1341  0.9292  0.0292
 4273SOL    HW224453   4.418   0.846  10.813  1.3477  1.5989  1.0860
 4274SOL     OW24454   2.546   2.267   3.045 -0.2236  0.7855 -0.1796
 4274SOL    HW124455   2.581   2.241   2.960 -0.1098  1.2720 -0.2813
 4274SOL    HW224456   2.539   2.362   3.041  0.1588  0.6909 -3.0905
 4275SOL     OW24457   4.689   4.256   4.182  0.3442  0.0699  0.2126
 4275SOL    HW124458   4.604   4.244   4.224  0.0735 -0.1596 -0.4036
 4275SOL    HW224459   4.686   4.174   4.132  1.2013 -0.4889  1.0702
 4276SOL     OW24460   1.935   2.189   6.275 -0.2423  0.0513 -0.0013
 4276SOL    HW124461   1.970   2.172   6.363 -0.4529  1.7507  0.4033
 4276SOL    HW224462   2.010   2.235   6.238 -1.8206  1.4757 -1.4235
 4277SOL     OW24463   2.414   4.521   4.328 -0.3862  0.2548 -0.3224
 4277SOL    HW124464   2.472   4.578   4.378 -1.4836  0.9707  0.1315
 4277SOL    HW224465   2.444   4.532   4.238  1.6219 -0.2336  0.2836
 4278SOL     OW24466   0.136   3.481  17.459 -0.0181  0.0515  0.5856
 4278SOL    HW124467   0.109   3.408  17.403  0.1346 -0.7981  1.6278
 4278SOL    HW224468   0.112   3.446  17.545 -0.0271 -2.2142 -0.3595
 4279SOL     OW24469   3.090   1.178   5.253  0.0037 -0.6048 -0.4129
 4279SOL    HW124470   3.020   1.239   5.227  1.1566  0.5144 -0.8970
 4279SOL    HW224471   3.166   1.229   5.224 -0.5508  0.1921 -0.4809
 4280SOL     OW24472   2.677   0.948  12.544 -0.0435 -0.1787  0.0057
 4280SOL    HW124473   2.707   0.977  12.630  0.4394 -0.4320 -0.0779
 4280SOL    HW224474   2.755   0.917  12.498  0.8931  0.8137  0.9154
 4281SOL     OW24475   2.308   0.411   5.088 -0.3690  0.2750  0.1140
 4281SOL    HW124476   2.255   0.444   5.016 -0.1630  0.6521  0.1363
 4281SOL    HW224477   2.332   0.322   5.062  1.0028  0.2400  1.4396
 4282SOL     OW24478   1.984   4.070  14.103 -0.3589  0.3881 -0.2483
 4282SOL    HW124479   2.077   4.062  14.083 -0.5746  0.4686 -1.2755
 4282SOL    HW224480   1.980   4.159  14.137 -0.5673  0.9133 -1.6555
 4283SOL     OW24481   0.689   3.831  11.994 -0.0938 -0.0413  0.6614
 4283SOL    HW124482   0.646   3.844  11.909 -1.5590  1.7637  1.6840
 4283SOL    HW224483   0.632   3.774  12.045  1.6286 -0.3861  2.2201
 4284SOL     OW24484   3.595   4.096  12.313 -0.5994  0.0981 -0.1590
 4284SOL    HW124485   3.558   4.176  12.276 -0.9963 -0.1021 -0.2015
 4284SOL    HW224486   3.686   4.117  12.334 -1.1154  0.7369  1.5252
 4285SOL     OW24487   1.721   3.218  16.850 -0.7709  0.6197 -0.5918
 4285SOL    HW124488   1.714   3.133  16.806  0.9288  0.5710 -0.7641
 4285SOL    HW224489   1.652   3.264  16.802 -0.4340  0.8776 -0.8279
 4286SOL     OW24490   0.606   1.567   7.785 -0.0644 -0.1079  0.2890
 4286SOL    HW124491   0.660   1.612   7.719  0.8602  0.2195  1.2716
 4286SOL    HW224492   0.666   1.543   7.856 -1.1443 -2.2627  0.4540
 4287SOL     OW24493   1.422   3.134   3.226  1.2350  0.1599  0.2167
 4287SOL    HW124494   1.418   3.190   3.148  1.7923 -0.2750 -0.1283
 4287SOL    HW224495   1.330   3.141   3.254  1.4159  2.4079  0.2859
 4288SOL     OW24496   3.624   3.086   5.985  0.0482 -0.4311 -0.5496
 4288SOL    HW124497   3.676   3.094   5.905 -3.1698 -1.0347 -2.7157
 4288SOL    HW224498   3.670   3.143   6.046 -0.3602  2.2378 -2.7337
 4289SOL     OW24499   3.804   4.138   3.693  0.2440  0.1585  0.0757
 4289SOL    HW124500   3.817   4.087   3.773  2.0341 -1.1694 -1.0283
 4289SOL    HW224501   3.801   4.228   3.724 -1.2005  0.4402 -0.8705
 4290SOL     OW24502   0.052   2.332  10.588  0.1647 -0.6562  0.1354
 4290SOL    HW124503   0.007   2.329  10.672  0.2984  2.1368  0.3230
 4290SOL    HW224504   4.715   2.329  10.524  0.2220 -1.5950  0.1237
 4291SOL     OW24505   2.437   2.664  16.150 -0.5596  0.9438 -0.2972
 4291SOL    HW124506   2.487   2.727  16.098 -0.6701  3.0158  2.0939
 4291SOL    HW224507   2.365   2.644  16.089  0.9229 -0.1438 -1.6756
 4292SOL     OW24508   3.440   3.382   7.132 -0.2311 -0.4732 -0.3262
 4292SOL    HW124509   3.377   3.454   7.142 -2.0432 -1.6999 -3.0141
 4292SOL    HW224510   3.521   3.430   7.150  0.7588 -1.4561 -2.2330
 4293SOL     OW24511   0.246   3.869   0.041  0.0167 -0.3750 -0.3676
 4293SOL    HW124512   0.254   3.902   0.130  1.1219 -1.2460 -0.1509
 4293SOL    HW224513   0.164   3.820   0.045 -0.0954 -0.0248  1.5386
 4294SOL     OW24514   1.089   0.945  17.668  0.8537  0.2119  0.4805
 4294SOL    HW124515   1.098   0.933  17.574  0.3567 -3.3733  0.8693
 4294SOL    HW224516   1.172   0.985  17.697  1.2600 -1.8490  2.1869
 4295SOL     OW24517   1.148   4.386  13.497 -0.2295 -0.4009  0.3088
 4295SOL    HW124518   1.080   4.383  13.430 -1.0504  0.5379  1.1077
 4295SOL    HW224519   1.090   4.388  13.573  0.8444 -1.2713  1.1516
 4296SOL     OW24520   0.278   4.401   6.449 -0.0866  0.1224  0.2273
 4296SOL    HW124521   0.249   4.479   6.497  0.3027  0.0367  0.6066
 4296SOL    HW224522   0.356   4.439   6.408 -2.1464  0.0761 -3.6403
 4297SOL     OW24523   2.802   4.288  14.707 -0.4407 -0.0793 -0.0171
 4297SOL    HW124524   2.771   4.227  14.774  2.4997 -0.6168  0.8482
 4297SOL    HW224525   2.750   4.266  14.629  2.2262 -2.1607 -1.2437
 4298SOL     OW24526   1.445   4.066  12.650  0.7263  0.0528  0.0914
 4298SOL    HW124527   1.493   4.124  12.590 -2.5240  0.6583 -1.9303
 4298SOL    HW224528   1.452   3.985  12.600  1.6466  0.9925 -1.3370
 4299SOL     OW24529   0.053   1.535   8.000  0.8697  0.0115  0.4963
 4299SOL    HW124530   0.068   1.505   7.910  1.8032 -0.4388  0.8107
 4299SOL    HW224531   0.046   1.630   7.986  0.2183 -0.5364 -2.9111
 4300SOL     OW24532   1.765   0.770   3.346  0.3304 -0.0710  0.4270
 4300SOL    HW124533   1.687   0.824   3.330 -0.3454 -1.1131  0.2162
 4300SOL    HW224534   1.729   0.685   3.369 -1.4579 -0.3986 -3.5795
 4301SOL     OW24535   4.589   4.155   8.679 -0.3572 -0.2338  0.4016
 4301SOL    HW124536   4.567   4.225   8.740  0.2237 -0.5857  1.0089
 4301SOL    HW224537   4.682   4.170   8.666 -0.2198 -1.0466  0.4538
 4302SOL     OW24538   2.019   2.839  12.658  0.2567  0.1156  0.3165
 4302SOL    HW124539   1.961   2.840  12.582  0.9555 -1.0962 -0.2188
 4302SOL    HW224540   2.100   2.865  12.615 -0.3406  3.5711  1.2634
 4303SOL     OW24541   4.544   1.367   3.850  0.1620 -0.3369  0.6404
 4303SOL    HW124542   4.529   1.321   3.767  0.6684  0.3271  0.1851
 4303SOL    HW224543   4.638   1.353   3.861  0.0781 -0.8382  0.7078
 4304SOL     OW24544   2.900   4.332  14.138 -0.2270  0.8868  0.0690
 4304SOL    HW124545   2.804   4.328  14.138 -0.1656 -0.5904  1.1552
 4304SOL    HW224546   2.924   4.253  14.090  0.1597  1.1652 -0.1992
 4305SOL     OW24547   3.831   3.840   2.305 -0.0777  0.2865  0.2992
 4305SOL    HW124548   3.880   3.890   2.240 -1.0758  1.8684  0.7648
 4305SOL    HW224549   3.885   3.764   2.328 -3.6134 -2.0089  1.0843
 4306SOL     OW24550   4.223   2.304   7.983 -0.5647 -0.0891  0.2535
 4306SOL    HW124551   4.153   2.355   7.942 -2.7826 -1.6679  2.0882
 4306SOL    HW224552   4.198   2.222   7.943 -1.3483  0.1341  0.2892
 4307SOL     OW24553   2.482   0.335  14.334 -0.2818 -0.0594  0.0228
 4307SOL    HW124554   2.563   0.288  14.317 -0.7615 -0.2590 -1.6688
 4307SOL    HW224555   2.417   0.265  14.325  0.0852 -0.8132  3.1598
 4308SOL     OW24556   3.714   2.794   7.002  0.2517  0.4020  0.1732
 4308SOL    HW124557   3.707   2.725   7.068 -2.2309  1.3022  0.8549
 4308SOL    HW224558   3.774   2.853   7.046  2.2258 -1.3906 -0.0876
 4309SOL     OW24559   3.610   0.620  13.197  0.6492 -0.1144 -0.0272
 4309SOL    HW124560   3.660   0.699  13.216 -2.2938  1.3453  1.4792
 4309SOL    HW224561   3.681   0.560  13.220  1.0619  1.1425  1.9851
 4310SOL     OW24562   3.231   3.582   5.646 -0.0767 -0.1456 -0.3529
 4310SOL    HW124563   3.176   3.632   5.706  1.0666 -0.3213  0.8641
 4310SOL    HW224564   3.192   3.496   5.663  1.4947 -0.0049  4.0557
 4311SOL     OW24565   3.402   2.164   7.238 -0.0780  0.0640  0.0603
 4311SOL    HW124566   3.388   2.178   7.144  0.7825 -1.1100 -0.2431
 4311SOL    HW224567   3.318   2.200   7.265  0.6371 -0.2591  2.7003
 4312SOL     OW24568   3.160   0.963   7.644 -0.7913 -0.1585 -0.0302
 4312SOL    HW124569   3.192   1.051   7.625  3.8014 -2.2309 -1.8594
 4312SOL    HW224570   3.206   0.953   7.727  0.3215 -0.6767 -0.7090
 4313SOL     OW24571   1.962   0.214   5.581  0.0361  0.0072  0.4181
 4313SOL    HW124572   1.965   0.238   5.673 -0.8587 -2.2661  1.0436
 4313SOL    HW224573   1.898   0.274   5.543  0.5478 -0.1436 -0.6861
 4314SOL     OW24574   1.626   4.333   2.323  0.3884  0.2593 -0.3908
 4314SOL    HW124575   1.691   4.264   2.309 -1.1602 -1.3848  0.4588
 4314SOL    HW224576   1.559   4.299   2.263  0.9569  0.3081 -1.0540
 4315SOL     OW24577   4.702   1.514   7.571  0.0383 -0.0362 -0.1622
 4315SOL    HW124578   0.029   1.585   7.547 -1.6322  0.8955 -1.6697
 4315SOL    HW224579   4.622   1.561   7.593  0.0650  0.1531 -0.4567
 4316SOL     OW24580   2.814   2.974   5.706 -0.5036  0.2037  0.1909
 4316SOL    HW124581   2.816   2.908   5.776 -0.5623 -1.0174 -0.9709
 4316SOL    HW224582   2.783   3.047   5.761  1.1590  1.3601 -0.3959
 4317SOL     OW24583   0.656   2.025   5.842 -0.5109 -0.0528  0.1608
 4317SOL    HW124584   0.700   2.108   5.861 -1.8359  0.3435  1.4372
 4317SOL    HW224585   0.706   2.003   5.763 -1.2805 -0.9817 -0.0572
 4318SOL     OW24586   3.938   3.227  17.677  0.6004 -0.1251  0.0218
 4318SOL    HW124587   3.902   3.304  17.633 -1.6670 -1.6978 -0.8542
 4318SOL    HW224588   4.020   3.210  17.630  0.8220 -0.5465  0.5565
 4319SOL     OW24589   0.610   2.979  13.586  0.0219 -0.0556 -0.4550
 4319SOL    HW124590   0.564   3.053  13.545 -0.3197  0.9812  1.8031
 4319SOL    HW224591   0.599   2.997  13.680 -0.4270 -0.1789 -0.4814
 4320SOL     OW24592   4.158   0.090   7.382 -0.1507 -0.2995 -0.3116
 4320SOL    HW124593   4.111   0.167   7.351  0.2699  0.0573 -0.0739
 4320SOL    HW224594   4.250   0.117   7.372 -1.3085  3.3751 -0.9514
 4321SOL     OW24595   3.982   4.041   7.354 -0.1127 -1.3025 -0.0362
 4321SOL    HW124596   4.034   3.989   7.293  0.5629 -1.3999  0.6299
 4321SOL    HW224597   3.902   4.039   7.302  0.9085  1.3065 -1.6865
 4322SOL     OW24598   3.282   3.627   5.099  0.9432  0.6547  0.0306
 4322SOL    HW124599   3.229   3.630   5.178  1.4047  1.3383  0.3177
 4322SOL    HW224600   3.367   3.595   5.130  0.0514 -0.4400  1.3715
 4323SOL     OW24601   1.826   2.672  16.413  0.0221 -0.7535  0.0337
 4323SOL    HW124602   1.875   2.590  16.424 -1.7771 -1.6127  1.5341
 4323SOL    HW224603   1.879   2.723  16.351 -1.6395 -0.2019 -0.9156
 4324SOL     OW24604   3.476   4.463   8.948  0.1337 -0.2618  0.0825
 4324SOL    HW124605   3.401   4.403   8.943  0.9320 -1.2475  0.0081
 4324SOL    HW224606   3.465   4.503   8.862  0.6509 -0.2534  0.0224
 4325SOL     OW24607   2.372   0.331  11.948 -0.8230 -0.3983  0.0216
 4325SOL    HW124608   2.457   0.332  11.992 -0.8442 -1.4094  0.0900
 4325SOL    HW224609   2.331   0.397  12.005  1.1286 -1.0085  2.1273
 4326SOL     OW24610   3.758   1.529   4.366 -0.0001 -0.0091  0.0801
 4326SOL    HW124611   3.699   1.602   4.348  0.3993 -0.2075 -2.0458
 4326SOL    HW224612   3.702   1.455   4.391 -1.2148  1.0922  0.6302
 4327SOL     OW24613   2.544   1.938   2.714  0.3015 -0.1099  0.0881
 4327SOL    HW124614   2.587   2.008   2.762 -0.7927 -1.8756  3.6180
 4327SOL    HW224615   2.617   1.900   2.664  0.0526 -1.1229  0.5068
 4328SOL     OW24616   3.129   0.551  11.501 -0.1726  0.1138 -0.0409
 4328SOL    HW124617   3.127   0.545  11.406  0.4729  0.3251 -0.0734
 4328SOL    HW224618   3.196   0.618  11.516  0.3262 -0.0104 -1.6894
 4329SOL     OW24619   3.699   2.479  14.507  0.1506 -0.1006 -0.9337
 4329SOL    HW124620   3.795   2.476  14.517 -0.0471  2.4355  1.7258
 4329SOL    HW224621   3.669   2.416  14.572 -0.8800 -0.3159 -1.6334
 4330SOL     OW24622   2.310   0.660  14.981 -0.2488  0.5569 -0.3725
 4330SOL    HW124623   2.253   0.691  14.911  1.1412  0.3256 -1.6192
 4330SOL    HW224624   2.331   0.730  15.043  0.0693 -0.5668  0.7946
 4331SOL     OW24625   4.572   2.407  13.308  0.0425 -0.2395  0.2086
 4331SOL    HW124626   4.503   2.474  13.312  1.1714  0.8568  1.1431
 4331SOL    HW224627   4.523   2.325  13.312  0.5614 -0.6480 -2.0505
 4332SOL     OW24628   2.128   0.714   1.940 -0.2624 -0.0851 -0.4109
 4332SOL    HW124629   2.087   0.660   1.873 -1.7086  2.1661 -1.3598
 4332SOL    HW224630   2.127   0.648   2.009 -1.4562  0.8984  0.5205
 4333SOL     OW24631   1.967   1.199  13.965  0.4088 -0.9729 -0.1971
 4333SOL    HW124632   1.891   1.151  13.998 -0.3309 -0.2389 -0.8466
 4333SOL    HW224633   1.968   1.276  14.022 -0.4879 -1.6794  0.7715
 4334SOL     OW24634   0.896   3.129   7.742 -0.3896 -0.3361  0.2609
 4334SOL    HW124635   0.965   3.151   7.804 -0.1821 -0.2514 -0.0027
 4334SOL    HW224636   0.854   3.058   7.792  0.4361 -1.5662 -0.8263
 4335SOL     OW24637   3.386   0.274   6.263 -0.0974  0.1547  0.1779
 4335SOL    HW124638   3.291   0.285   6.271 -0.3914 -0.5837 -2.2910
 4335SOL    HW224639   3.394   0.189   6.306  1.1427  1.1806  1.9565
 4336SOL     OW24640   3.393   3.068   4.464  0.5008  0.4299 -0.7309
 4336SOL    HW124641   3.470   3.079   4.408  0.6393 -0.8530 -0.7905
 4336SOL    HW224642   3.435   3.007   4.524 -0.8005  0.1317 -0.1178
 4337SOL     OW24643   0.786   0.957   4.368  0.1594  0.2351 -0.0040
 4337SOL    HW124644   0.846   0.929   4.299  1.5496  2.3082  0.3808
 4337SOL    HW224645   0.836   1.012   4.428  0.7381 -1.3170  0.9437
 4338SOL     OW24646   0.171   1.566   4.566  0.0215 -0.0361  0.2442
 4338SOL    HW124647   0.238   1.595   4.505 -1.3862 -0.7630 -1.6593
 4338SOL    HW224648   0.113   1.516   4.509 -0.4613  0.0667  0.6443
 4339SOL     OW24649   0.767   3.010   7.556 -0.6799  0.2183  0.3995
 4339SOL    HW124650   0.767   3.075   7.486 -1.7024  0.1719  0.3523
 4339SOL    HW224651   0.831   3.051   7.614  0.3338 -1.7382  0.6910
 4340SOL     OW24652   2.088   2.737   7.276  0.1015 -0.6503  0.3672
 4340SOL    HW124653   2.050   2.807   7.329  1.0607  0.0949  0.0804
 4340SOL    HW224654   2.075   2.776   7.189 -1.4680 -0.8514  0.5143
 4341SOL     OW24655   2.934   2.642   4.297 -0.1417  0.5653  0.1170
 4341SOL    HW124656   2.926   2.624   4.204 -1.8614 -0.6281  0.5003
 4341SOL    HW224657   2.895   2.729   4.306 -0.7986  0.2828 -0.0580
 4342SOL     OW24658   2.249   0.783   4.170 -0.0570  0.2840  0.1155
 4342SOL    HW124659   2.170   0.815   4.126 -0.8129 -1.1609  0.4095
 4342SOL    HW224660   2.257   0.691   4.145 -0.7471 -0.0713  1.1864
 4343SOL     OW24661   0.115   2.671  14.985 -0.0146 -0.1720  0.0928
 4343SOL    HW124662   0.203   2.638  14.966  0.6669 -0.4968  3.7256
 4343SOL    HW224663   0.086   2.587  15.022  1.9234 -0.6259  0.6023
 4344SOL     OW24664   0.359   3.527   1.658  0.0970  0.0849  0.5354
 4344SOL    HW124665   0.403   3.477   1.589  0.1168 -1.0429  1.3619
 4344SOL    HW224666   0.346   3.610   1.613  0.2824  0.2122  0.7127
 4345SOL     OW24667   3.075   3.019  12.007  0.4540 -0.0621  0.4380
 4345SOL    HW124668   3.096   3.111  11.990 -0.3358  0.3999  1.9428
 4345SOL    HW224669   3.084   3.023  12.102  1.1471  0.0746  0.3690
 4346SOL     OW24670   3.774   2.301   6.520 -0.1098 -0.6860  0.0019
 4346SOL    HW124671   3.795   2.287   6.612 -0.5151  1.1450  0.3746
 4346SOL    HW224672   3.681   2.279   6.510  0.5906 -4.0722  0.9077
 4347SOL     OW24673   1.874   4.028   7.627 -0.3427 -0.7778  0.3178
 4347SOL    HW124674   1.830   4.112   7.639 -0.7458 -0.7834 -1.0819
 4347SOL    HW224675   1.802   3.969   7.650 -1.3442 -0.5313 -2.1984
 4348SOL     OW24676   4.176   1.365   5.037  0.2581 -0.0260 -0.2086
 4348SOL    HW124677   4.101   1.318   5.075 -1.1118  0.6302 -2.1502
 4348SOL    HW224678   4.203   1.423   5.108  0.3856  0.2834 -0.5147
 4349SOL     OW24679   4.260   3.761  17.591  0.1077 -0.3909 -0.6838
 4349SOL    HW124680   4.246   3.818  17.516  0.4988  0.5072 -0.0702
 4349SOL    HW224681   4.271   3.681  17.539 -1.1408  1.0465 -3.1215
 4350SOL     OW24682   1.337   2.573   8.042  0.4671  0.3452 -0.1346
 4350SOL    HW124683   1.302   2.651   8.000 -0.1240 -0.3640 -0.9545
 4350SOL    HW224684   1.270   2.508   8.019 -1.4195  2.0771  0.4005
 4351SOL     OW24685   2.398   2.556   1.461  0.1348  0.0085  0.2057
 4351SOL    HW124686   2.490   2.538   1.443 -0.3036  0.9812 -2.9759
 4351SOL    HW224687   2.378   2.475   1.509  2.1065 -0.4723  0.2110
 4352SOL     OW24688   1.234   2.245   6.446  0.0126 -0.0987  0.3238
 4352SOL    HW124689   1.317   2.268   6.404 -1.2414  2.0417 -0.9292
 4352SOL    HW224690   1.177   2.286   6.381 -1.7234 -0.4592  1.6391
 4353SOL     OW24691   2.210   0.659   3.418 -0.1279 -0.3520  0.3876
 4353SOL    HW124692   2.137   0.659   3.356  2.4617  0.9784 -2.6725
 4353SOL    HW224693   2.273   0.611   3.363 -0.6244 -0.9236  0.3178
 4354SOL     OW24694   0.922   2.042  11.454 -0.4318  0.2932  0.5851
 4354SOL    HW124695   0.947   2.043  11.362  0.6649 -0.6742  0.8695
 4354SOL    HW224696   0.833   2.070  11.434  0.1067  0.8456 -1.0106
 4355SOL     OW24697   4.294   0.970   7.041  0.2996  0.2175 -0.5865
 4355SOL    HW124698   4.210   0.986   6.998 -0.3825  1.5771  1.2208
 4355SOL    HW224699   4.325   1.060   7.056 -0.4206  0.4652 -0.5693
 4356SOL     OW24700   4.140   3.899   5.234 -0.0119  0.2060 -0.1993
 4356SOL    HW124701   4.093   3.819   5.257  0.2361  0.4217  1.0543
 4356SOL    HW224702   4.226   3.862   5.218 -0.4771 -0.5250 -0.9854
 4357SOL     OW24703   3.046   1.834   7.772  0.0337  1.0495 -0.0013
 4357SOL    HW124704   3.042   1.919   7.817  0.5712 -0.3716  2.6888
 4357SOL    HW224705   3.118   1.855   7.712 -0.3324 -0.0373 -0.8160
 4358SOL     OW24706   4.534   0.386  17.601  0.5713 -0.9510 -0.1394
 4358SOL    HW124707   4.610   0.329  17.587  0.4232 -1.0069 -0.7102
 4358SOL    HW224708   4.481   0.353  17.528  0.4105  0.4742 -0.6606
 4359SOL     OW24709   4.252   2.234   5.135  0.2472  0.1353 -0.2841
 4359SOL    HW124710   4.294   2.199   5.214  1.6254 -1.5687 -1.7789
 4359SOL    HW224711   4.220   2.165   5.078 -0.8667  0.6444 -0.2760
 4360SOL     OW24712   4.576   0.710  15.329  0.2496  0.3900 -0.0453
 4360SOL    HW124713   4.546   0.756  15.407  1.6611  1.0112  0.1124
 4360SOL    HW224714   4.494   0.707  15.279  0.3298 -0.9576 -0.0973
 4361SOL     OW24715   2.750   2.746   2.046  0.3753 -0.3254 -0.2229
 4361SOL    HW124716   2.822   2.684   2.056  0.2751 -0.2458  1.0455
 4361SOL    HW224717   2.808   2.820   2.028  0.1525 -0.3639 -1.0882
 4362SOL     OW24718   0.838   0.221   2.824  0.4743 -0.3448  0.1848
 4362SOL    HW124719   0.907   0.265   2.774  2.7690 -2.7423  1.2783
 4362SOL    HW224720   0.761   0.228   2.768 -0.6561 -2.0602  1.5340
 4363SOL     OW24721   0.152   4.187  13.274 -0.0824  0.0042 -0.0840
 4363SOL    HW124722   0.134   4.262  13.217  0.5961 -1.1660 -1.8250
 4363SOL    HW224723   0.132   4.214  13.364 -2.1197 -0.6934 -0.3279
 4364SOL     OW24724   4.453   0.068  15.404  0.3476 -0.1080  0.0939
 4364SOL    HW124725   4.383   0.013  15.370 -0.1377  0.4096  0.2621
 4364SOL    HW224726   4.507   0.066  15.325  2.1218  1.9586  1.2453
 4365SOL     OW24727   1.086   2.622  12.153 -0.3203  0.0235  0.3927
 4365SOL    HW124728   1.074   2.599  12.061 -2.9899  1.3444  0.3971
 4365SOL    HW224729   1.031   2.700  12.150 -0.1355  0.2110  1.6715
 4366SOL     OW24730   2.734   1.384   8.704 -0.3200 -0.3656 -0.0223
 4366SOL    HW124731   2.648   1.423   8.689 -0.0064  0.0822 -0.6358
 4366SOL    HW224732   2.777   1.419   8.626 -0.5854  0.3132  0.1406
 4367SOL     OW24733   0.537   2.918  10.936  0.1564  0.4785 -0.6563
 4367SOL    HW124734   0.566   2.829  10.913  0.9555  0.2589  1.1387
 4367SOL    HW224735   0.597   2.948  11.004  0.7198  0.1614 -1.0203
 4368SOL     OW24736   1.902   3.460   1.068 -0.2604  0.2868 -0.0510
 4368SOL    HW124737   1.871   3.393   1.129  1.2163  0.5626  1.0129
 4368SOL    HW224738   1.949   3.407   1.003 -1.5495 -0.8358 -0.0672
 4369SOL     OW24739   4.106   2.962   7.683 -0.3229 -0.7012  0.4210
 4369SOL    HW124740   4.159   2.946   7.760  1.4054 -1.7464 -1.0058
 4369SOL    HW224741   4.162   3.011   7.623 -1.2882 -0.3680 -0.2101
 4370SOL     OW24742   0.742   4.654   3.723  0.6335  0.0430 -0.3962
 4370SOL    HW124743   0.754   0.009   3.689 -1.0655 -0.0108 -1.1520
 4370SOL    HW224744   0.679   4.673   3.792  0.4224 -2.9726  0.2417
 4371SOL     OW24745   0.690   2.838  16.344 -0.5852  0.0643 -0.3558
 4371SOL    HW124746   0.614   2.794  16.380  1.1280 -1.3330  1.5461
 4371SOL    HW224747   0.665   2.930  16.356 -1.4318 -0.2222  0.0677
 4372SOL     OW24748   3.005   1.687   3.544 -0.4496 -0.0506  0.0348
 4372SOL    HW124749   3.055   1.743   3.603  1.3524 -1.3772 -0.2480
 4372SOL    HW224750   2.925   1.738   3.531 -0.3394 -0.0327 -0.5350
 4373SOL     OW24751   4.656   0.444   0.117  0.1122  0.1272  0.5117
 4373SOL    HW124752   0.017   0.439   0.127  0.1448  1.7340  0.9916
 4373SOL    HW224753   4.636   0.401   0.034 -2.0158 -2.3187  2.2740
 4374SOL     OW24754   0.361   3.418   6.756  0.1904  0.3235 -0.0029
 4374SOL    HW124755   0.395   3.332   6.731  2.7115  1.0267  1.0491
 4374SOL    HW224756   0.332   3.384   6.840  1.0950  0.5501  0.3974
 4375SOL     OW24757   3.943   0.478   3.625  0.3359 -0.4455 -0.0570
 4375SOL    HW124758   3.990   0.464   3.707 -0.1178 -0.0141  0.2718
 4375SOL    HW224759   3.997   0.433   3.559  0.1423 -0.6325 -0.0897
 4376SOL     OW24760   1.012   0.458   2.483 -0.8441 -0.0562  0.3895
 4376SOL    HW124761   0.941   0.463   2.419 -1.0402 -2.9026  0.3846
 4376SOL    HW224762   1.072   0.407   2.428 -2.9057 -2.7467  0.6428
 4377SOL     OW24763   3.067   0.534   2.042  0.1168  0.5027 -0.3250
 4377SOL    HW124764   3.137   0.470   2.028 -2.8233 -3.2177  1.8456
 4377SOL    HW224765   3.053   0.563   1.952  1.3657 -1.4496 -1.1580
 4378SOL     OW24766   1.665   0.900   8.684 -0.2167  0.0334 -0.3328
 4378SOL    HW124767   1.586   0.872   8.730 -0.4451  1.0900 -0.1002
 4378SOL    HW224768   1.692   0.976   8.734  1.1246  0.2732 -1.4252
 4379SOL     OW24769   4.125   1.636  10.407  0.2985  0.0568 -0.5965
 4379SOL    HW124770   4.199   1.689  10.436 -0.0446  0.9133 -1.3072
 4379SOL    HW224771   4.065   1.641  10.481  1.2591  1.1413  0.1075
 4380SOL     OW24772   3.189   0.076   2.700 -0.0069 -0.5461 -0.4876
 4380SOL    HW124773   3.255   0.082   2.769 -1.4820  0.4468  0.8325
 4380SOL    HW224774   3.103   0.072   2.741 -0.5907 -0.5126 -1.7104
 4381SOL     OW24775   3.252   2.157   8.288 -0.0695 -0.2743  0.1987
 4381SOL    HW124776   3.278   2.231   8.233  0.8894 -0.7963 -0.0453
 4381SOL    HW224777   3.320   2.158   8.355  1.7550  1.2181 -1.6871
 4382SOL     OW24778   1.166   2.367   7.241  0.2005 -0.3864  0.3376
 4382SOL    HW124779   1.163   2.287   7.189 -0.4820 -0.3651  0.3411
 4382SOL    HW224780   1.155   2.434   7.174 -0.4113  0.5035  1.3392
 4383SOL     OW24781   4.535   3.877   5.563  0.5812  0.4522  0.0851
 4383SOL    HW124782   4.621   3.851   5.530  0.6569  1.1072 -0.2437
 4383SOL    HW224783   4.480   3.800   5.554  1.6333 -0.2673 -0.1946
 4384SOL     OW24784   1.711   3.271  13.185  0.1541  0.3028 -0.1973
 4384SOL    HW124785   1.748   3.189  13.150  1.1786 -1.1486  4.2259
 4384SOL    HW224786   1.642   3.287  13.122  3.0170  0.4368 -3.2842
 4385SOL     OW24787   2.446   4.732  17.574 -0.4702 -0.7687  0.1526
 4385SOL    HW124788   2.449   0.086  17.536 -0.7916 -0.2260  1.3987
 4385SOL    HW224789   2.416   4.691  17.492 -1.1302 -0.8531  0.4341
 4386SOL     OW24790   4.531   0.510   2.702 -0.6616 -0.1565  0.1175
 4386SOL    HW124791   4.480   0.455   2.762  1.1025 -1.4186  0.4413
 4386SOL    HW224792   4.460   0.552   2.653  0.8167 -0.2418 -2.0832
 4387SOL     OW24793   4.115   4.004   0.011 -0.3281 -0.2886 -0.0767
 4387SOL    HW124794   4.160   3.936  17.696  1.0588 -1.4419  2.7708
 4387SOL    HW224795   4.106   3.956   0.093  1.3318  1.3071  1.0489
 4388SOL     OW24796   2.886   4.004   3.696  0.1847 -0.4817 -0.4847
 4388SOL    HW124797   2.854   4.075   3.751 -0.8278 -1.3771  0.0886
 4388SOL    HW224798   2.927   3.942   3.756 -1.5899 -0.9593  0.2382
 4389SOL     OW24799   0.342   3.970  14.695  0.5403  0.5980  0.2439
 4389SOL    HW124800   0.253   3.967  14.730  0.2877  1.6072 -0.2927
 4389SOL    HW224801   0.395   3.994  14.771  1.2161 -0.5966  0.1398
 4390SOL     OW24802   1.738   4.596   9.755  0.0750 -0.2309 -0.0427
 4390SOL    HW124803   1.742   4.575   9.848 -2.9842 -1.6652 -0.2394
 4390SOL    HW224804   1.827   4.625   9.733 -0.0383  0.1686  0.0232
 4391SOL     OW24805   4.367   2.695  13.070  0.5107 -0.2288  0.2697
 4391SOL    HW124806   4.389   2.637  12.997  0.2349 -1.2949  1.0307
 4391SOL    HW224807   4.429   2.766  13.056  1.4063 -1.4153 -1.8082
 4392SOL     OW24808   3.535   2.754  11.757  0.4679  0.6703  0.0620
 4392SOL    HW124809   3.513   2.845  11.774  0.1222  0.9406 -1.7809
 4392SOL    HW224810   3.614   2.746  11.809 -0.3840  2.3743  1.6278
 4393SOL     OW24811   0.979   3.828   9.351  0.1250  0.4958 -0.0427
 4393SOL    HW124812   1.016   3.743   9.374 -0.4095  0.2094 -0.2518
 4393SOL    HW224813   0.891   3.810   9.383  0.9326  0.7477  2.3594
 4394SOL     OW24814   2.520   2.048   0.771 -0.2259 -0.5682  0.3722
 4394SOL    HW124815   2.584   1.985   0.805  0.4203  0.6055  1.3151
 4394SOL    HW224816   2.469   1.996   0.710  0.8212  0.1129 -1.0847
 4395SOL     OW24817   2.641   0.276  12.481  0.3887  0.6058  0.3573
 4395SOL    HW124818   2.565   0.322  12.445 -0.7012  0.0446  1.9465
 4395SOL    HW224819   2.656   0.201  12.423 -1.5482 -0.1208  0.7800
 4396SOL     OW24820   3.247   3.308   3.153  0.8564  0.4589 -0.1523
 4396SOL    HW124821   3.199   3.390   3.139 -0.1930  0.1126  1.3430
 4396SOL    HW224822   3.225   3.271   3.068  0.1566  1.8368 -0.5638
 4397SOL     OW24823   4.341   0.849   8.201  0.4480 -0.3030  0.0956
 4397SOL    HW124824   4.273   0.856   8.135 -0.4845  1.3915  1.2387
 4397SOL    HW224825   4.397   0.922   8.178 -1.6731  1.8022  1.5789
 4398SOL     OW24826   1.209   2.778   6.459 -0.0877 -0.8865 -0.4392
 4398SOL    HW124827   1.252   2.843   6.515 -3.7586 -0.7926  2.2616
 4398SOL    HW224828   1.118   2.806   6.448  0.5125  0.7985 -1.1192
 4399SOL     OW24829   4.227   2.957   4.127 -0.1472 -0.3217  0.2236
 4399SOL    HW124830   4.251   3.037   4.173  1.4479  0.5268 -2.0761
 4399SOL    HW224831   4.131   2.967   4.126 -0.2026 -0.9624 -1.2692
 4400SOL     OW24832   1.263   1.166   7.849 -0.7527  0.4823 -0.2888
 4400SOL    HW124833   1.171   1.157   7.825 -0.7849  0.6860 -0.2481
 4400SOL    HW224834   1.289   1.075   7.857  0.4853  0.8181 -0.4051
 4401SOL     OW24835   3.917   2.098   4.834 -0.2749 -0.4482  0.0525
 4401SOL    HW124836   3.822   2.102   4.849 -0.5565  1.4366 -2.3043
 4401SOL    HW224837   3.933   2.027   4.773  0.2494 -0.1304 -0.1771
 4402SOL     OW24838   1.015   1.666   4.686  0.2366 -0.1177 -0.4606
 4402SOL    HW124839   1.051   1.693   4.770 -1.3439  4.6848 -1.3257
 4402SOL    HW224840   0.938   1.618   4.716 -1.6266  3.4491  0.4675
 4403SOL     OW24841   3.377   2.385  16.701 -0.0393 -0.5559 -0.5136
 4403SOL    HW124842   3.356   2.372  16.794 -0.6480 -2.4705 -0.9292
 4403SOL    HW224843   3.375   2.291  16.683  1.3157 -0.9756  1.4387
 4404SOL     OW24844   1.188   1.545   6.202  0.1342 -0.4363 -0.6525
 4404SOL    HW124845   1.218   1.496   6.279  0.7135 -3.2418 -2.6874
 4404SOL    HW224846   1.249   1.619   6.198 -0.7364  0.3593  0.7900
 4405SOL     OW24847   4.670   2.222   4.776  0.2330  0.1704 -0.3011
 4405SOL    HW124848   0.027   2.195   4.760  0.1580 -0.5527  0.5224
 4405SOL    HW224849   4.642   2.211   4.685 -1.5409  1.1532  0.1357
 4406SOL     OW24850   1.236   1.547   1.543 -0.0966  0.3739  0.1767
 4406SOL    HW124851   1.153   1.587   1.569 -1.4614 -0.4426 -2.8351
 4406SOL    HW224852   1.234   1.465   1.592  2.0494  0.3406  0.1920
 4407SOL     OW24853   1.877   0.267   6.656  0.3154  0.0617 -0.4458
 4407SOL    HW124854   1.934   0.194   6.680  0.3999  0.8824  1.8103
 4407SOL    HW224855   1.906   0.328   6.723  0.7109  1.1261 -1.5739
 4408SOL     OW24856   2.629   1.291  12.381  0.5513 -0.2549 -0.4783
 4408SOL    HW124857   2.717   1.326  12.367  0.2448  0.9758  0.6435
 4408SOL    HW224858   2.608   1.254  12.296 -2.1138 -1.8243  0.8699
 4409SOL     OW24859   1.699   3.866   5.978 -0.2451 -0.4402  0.1912
 4409SOL    HW124860   1.638   3.795   5.957 -0.0186 -1.6354  3.6602
 4409SOL    HW224861   1.781   3.819   5.963  0.8289  1.4110  0.2743
 4410SOL     OW24862   4.266   4.514   1.548 -0.2758 -0.0217 -0.0198
 4410SOL    HW124863   4.336   4.574   1.570  1.5326 -0.6785 -3.8342
 4410SOL    HW224864   4.308   4.454   1.485 -1.7151 -2.1461  1.0480
 4411SOL     OW24865   3.461   3.096   7.200  0.0548 -0.7588 -0.2539
 4411SOL    HW124866   3.548   3.057   7.207 -0.5948 -2.0967  0.3975
 4411SOL    HW224867   3.472   3.191   7.199 -0.4887 -0.7084 -1.1016
 4412SOL     OW24868   2.884   1.342   2.385  0.5419 -0.2532  0.4043
 4412SOL    HW124869   2.922   1.408   2.327 -0.1810  1.1641  1.5207
 4412SOL    HW224870   2.823   1.305   2.321  2.3095  1.2376 -2.1671
 4413SOL     OW24871   2.029   4.390   2.062 -0.4068 -0.7225 -0.1686
 4413SOL    HW124872   1.977   4.312   2.042 -0.5659 -0.7720  0.4405
 4413SOL    HW224873   2.075   4.388   1.978  1.3172  1.9740  0.7281
 4414SOL     OW24874   1.128   4.468   5.675  0.0100 -0.0307 -0.0872
 4414SOL    HW124875   1.170   4.544   5.716 -0.4548  0.1010  0.1466
 4414SOL    HW224876   1.196   4.408   5.704 -0.7940 -1.5145 -1.2948
 4415SOL     OW24877   2.080   1.519   9.659 -0.3048 -0.7649 -0.7388
 4415SOL    HW124878   2.110   1.441   9.705  1.0960  0.0668 -0.2632
 4415SOL    HW224879   2.163   1.566   9.657  0.2027 -1.6745 -1.1732
 4416SOL     OW24880   2.282   2.365   3.128 -0.2107  0.2361 -0.1004
 4416SOL    HW124881   2.364   2.387   3.084 -0.9613  0.3797 -1.4452
 4416SOL    HW224882   2.291   2.270   3.141  0.3414  0.4650  1.0805
 4417SOL     OW24883   4.293   3.858   7.388 -0.4839  0.3332 -0.5523
 4417SOL    HW124884   4.218   3.823   7.437 -0.2389  0.9146  0.2426
 4417SOL    HW224885   4.371   3.829   7.435 -0.0973  1.0111 -0.7853
 4418SOL     OW24886   1.711   3.868   4.906 -0.7854 -0.4248 -0.4281
 4418SOL    HW124887   1.724   3.822   4.989 -1.6830  1.4963  0.7644
 4418SOL    HW224888   1.786   3.927   4.915 -0.0471 -1.5378  0.6722
 4419SOL     OW24889   2.225   3.090  13.049  0.1374 -0.4584 -0.0117
 4419SOL    HW124890   2.221   3.185  13.039 -2.2579 -0.6777 -1.1421
 4419SOL    HW224891   2.140   3.066  13.086 -1.1242 -0.7381 -3.0442
 4420SOL     OW24892   4.159   2.420   8.209  0.1298 -0.0772 -0.2054
 4420SOL    HW124893   4.198   2.371   8.282 -0.1645  1.5864  1.0739
 4420SOL    HW224894   4.175   2.362   8.134 -1.0392 -1.2872  0.4734
 4421SOL     OW24895   4.320   3.119   2.284 -0.4047 -0.2207  1.0971
 4421SOL    HW124896   4.397   3.170   2.260 -0.6319  0.9099  2.7854
 4421SOL    HW224897   4.341   3.073   2.366 -1.8482 -1.0366  1.0156
 4422SOL     OW24898   0.718   2.067   4.773  0.0275 -0.2352  0.3097
 4422SOL    HW124899   0.664   2.086   4.696  0.9103 -0.6920 -0.4223
 4422SOL    HW224900   0.805   2.040   4.743  0.4681  0.6803  0.7521
 4423SOL     OW24901   2.002   0.323   3.903 -0.2590 -0.0905  0.7749
 4423SOL    HW124902   1.935   0.389   3.914  1.3529  1.8436 -1.0988
 4423SOL    HW224903   2.084   0.371   3.917  0.5232 -1.2348  0.1911
 4424SOL     OW24904   0.551   0.120   9.579 -0.8990 -0.0492 -0.0712
 4424SOL    HW124905   0.624   0.059   9.569 -0.8749 -0.2095  1.1124
 4424SOL    HW224906   0.548   0.143   9.486 -1.9744 -1.6048 -0.4206
 4425SOL     OW24907   4.542   4.134   5.113 -0.1930  0.1456 -0.0073
 4425SOL    HW124908   4.597   4.169   5.043  0.8698 -0.3758  0.5743
 4425SOL    HW224909   4.566   4.197   5.180 -0.6558 -0.6258  0.8881
 4426SOL     OW24910   1.153   3.237   3.179  0.3932  0.1287 -0.2212
 4426SOL    HW124911   1.147   3.272   3.268 -0.7458 -2.2840  0.6441
 4426SOL    HW224912   1.139   3.313   3.123  0.1305 -0.6125 -1.1553
 4427SOL     OW24913   1.433   2.310   6.297 -0.4980  0.0010 -0.1673
 4427SOL    HW124914   1.401   2.365   6.225 -0.8529  0.5122  0.3826
 4427SOL    HW224915   1.517   2.291   6.256 -0.0140 -0.5580  1.1262
 4428SOL     OW24916   3.672   0.282   3.123  0.3541 -0.4342 -0.3402
 4428SOL    HW124917   3.741   0.254   3.064 -1.2883 -2.3175 -1.3950
 4428SOL    HW224918   3.595   0.254   3.073  1.0833  0.2468 -1.8327
 4429SOL     OW24919   2.824   1.575   7.391 -0.3001  0.2194  0.3219
 4429SOL    HW124920   2.858   1.663   7.374 -1.3323  0.3077 -1.2626
 4429SOL    HW224921   2.736   1.593   7.424 -0.7054  0.6015 -0.9606
 4430SOL     OW24922   1.487   2.476   8.498 -0.0337 -0.3318  0.4983
 4430SOL    HW124923   1.564   2.488   8.554 -1.1756  0.7089  1.8106
 4430SOL    HW224924   1.507   2.541   8.430  2.4759  0.6007  2.0985
 4431SOL     OW24925   2.845   4.488   3.514 -0.1666  0.3112 -0.1645
 4431SOL    HW124926   2.910   4.433   3.470  0.2120 -0.3624  1.2237
 4431SOL    HW224927   2.863   4.452   3.601 -1.7594 -2.3307 -0.8947
 4432SOL     OW24928   0.184   3.891  15.326 -0.3600  0.0495  0.1786
 4432SOL    HW124929   0.270   3.885  15.284 -0.3927  2.5148 -0.2496
 4432SOL    HW224930   0.134   3.857  15.252 -0.1164 -0.4631  0.2458
 4433SOL     OW24931   2.970   1.869   3.286  0.0600 -0.3178 -0.7051
 4433SOL    HW124932   2.903   1.832   3.344 -2.4723  4.0214 -0.8046
 4433SOL    HW224933   2.903   1.917   3.237  1.6289  1.8103 -0.7397
 4434SOL     OW24934   1.362   0.703   9.056 -0.1436 -0.2461  0.5972
 4434SOL    HW124935   1.277   0.734   9.023 -0.3983  0.1796  1.6376
 4434SOL    HW224936   1.381   0.750   9.137 -0.2017 -0.6096  0.8227
 4435SOL     OW24937   2.136   0.439   8.576 -0.1971 -0.1608  0.1830
 4435SOL    HW124938   2.222   0.480   8.562  0.2784 -1.1848  0.0989
 4435SOL    HW224939   2.154   0.366   8.517 -1.0555 -0.1712 -0.0666
 4436SOL     OW24940   0.668   0.505   9.816 -0.2364  0.3062 -0.3048
 4436SOL    HW124941   0.585   0.552   9.807 -0.3412  0.1396 -0.2011
 4436SOL    HW224942   0.715   0.554   9.749 -1.6766  0.8964 -0.8810
 4437SOL     OW24943   4.224   1.018   4.390  0.0143  0.2402  0.2156
 4437SOL    HW124944   4.158   0.958   4.426 -0.6557  0.8866  0.0580
 4437SOL    HW224945   4.254   0.963   4.318 -0.6827  1.2377 -0.8325
 4438SOL     OW24946   1.886   3.034   1.327  0.0523  0.2464  0.2383
 4438SOL    HW124947   1.948   3.033   1.400  1.0130  3.3804 -0.5476
 4438SOL    HW224948   1.927   2.970   1.268  0.4602 -1.4678  2.3892
 4439SOL     OW24949   3.941   0.679   5.548 -0.8289  0.6859  0.1026
 4439SOL    HW124950   3.991   0.702   5.470  0.9877 -1.6381  0.6002
 4439SOL    HW224951   3.970   0.588   5.557 -0.9873  0.6998  0.7777
 4440SOL     OW24952   2.998   4.623  14.567 -0.3682 -0.3013 -0.3406
 4440SOL    HW124953   3.090   4.649  14.567 -0.2654 -0.6667  0.3109
 4440SOL    HW224954   2.982   4.594  14.477 -2.5189  0.7432 -0.2772
 4441SOL     OW24955   3.200   4.207  15.759 -0.1604  0.0476 -0.6441
 4441SOL    HW124956   3.124   4.257  15.791  1.5272  1.7513  0.6801
 4441SOL    HW224957   3.272   4.270  15.762 -1.1349  1.3535 -4.0704
 4442SOL     OW24958   2.731   0.742   1.945  0.2880  0.1946 -0.1633
 4442SOL    HW124959   2.644   0.779   1.927 -0.0191  0.4745  1.8992
 4442SOL    HW224960   2.797   0.805   1.917 -1.8419  1.5979 -2.0332
 4443SOL     OW24961   0.088   3.719   2.644  0.1244 -0.2619  0.2261
 4443SOL    HW124962   0.066   3.648   2.584 -0.2337  0.7913 -0.8968
 4443SOL    HW224963   0.158   3.675   2.692 -0.9876 -3.8807 -1.5005
 4444SOL     OW24964   4.728   1.873   0.975 -0.4113 -0.1942  0.5661
 4444SOL    HW124965   0.037   1.796   1.014 -1.0931 -0.4357  0.8648
 4444SOL    HW224966   0.070   1.924   0.949 -2.3560  2.0375 -0.7286
 4445SOL     OW24967   0.269   2.105   1.488 -0.8118  0.3421 -0.1265
 4445SOL    HW124968   0.236   2.041   1.552  0.2200  1.9443  2.0005
 4445SOL    HW224969   0.218   2.071   1.414  2.9808 -2.2009 -1.5618
 4446SOL     OW24970   2.625   3.741   5.803  0.3322 -0.6200  0.6628
 4446SOL    HW124971   2.660   3.673   5.860  0.2206  0.0499  1.5322
 4446SOL    HW224972   2.647   3.697   5.721 -0.2318 -0.2670  0.3182
 4447SOL     OW24973   3.946   3.340   7.199 -0.8557 -0.2638 -0.6783
 4447SOL    HW124974   3.977   3.294   7.121 -0.0604 -0.9487  0.0558
 4447SOL    HW224975   4.016   3.405   7.207 -1.5744  0.6082 -1.4071
 4448SOL     OW24976   4.184   4.683   3.358  0.3805  0.4047 -0.4914
 4448SOL    HW124977   4.208   4.694   3.450 -0.3943  2.6582 -0.5673
 4448SOL    HW224978   4.093   4.655   3.360  0.6077 -0.2989  0.0559
 4449SOL     OW24979   0.094   0.550   3.006 -0.2368 -0.4297 -0.5240
 4449SOL    HW124980   0.054   0.495   2.939 -0.5557 -0.1634 -0.5475
 4449SOL    HW224981   0.155   0.596   2.948  0.6594  0.2939  0.9885
 4450SOL     OW24982   2.895   3.978   8.934  0.7037 -0.0359 -0.3175
 4450SOL    HW124983   2.810   3.940   8.914  0.5121 -0.3425  1.0888
 4450SOL    HW224984   2.906   4.041   8.862 -0.1224 -1.8513 -2.0374
 4451SOL     OW24985   2.172   0.053   4.213 -0.2959  0.3440  0.1791
 4451SOL    HW124986   2.154   4.709   4.266 -1.7116  0.7440  0.2958
 4451SOL    HW224987   2.117   0.041   4.135 -0.7894 -0.8478  0.7083
 4452SOL     OW24988   3.634   3.123  13.936  0.5919  0.3138 -0.0083
 4452SOL    HW124989   3.690   3.122  14.014  0.8445  2.0970 -0.1604
 4452SOL    HW224990   3.552   3.146  13.979  1.4516  1.6885  0.9066
 4453SOL     OW24991   4.655   2.314  10.821 -0.9102  0.0847  0.1320
 4453SOL    HW124992   4.649   2.247  10.889 -1.1831  0.4175  0.4331
 4453SOL    HW224993   4.607   2.384  10.865  0.5079  0.1800  1.5417
 4454SOL     OW24994   4.117   3.533   7.200  0.1118  0.0602  0.0949
 4454SOL    HW124995   4.139   3.570   7.286  2.6557  1.2684 -1.0468
 4454SOL    HW224996   4.188   3.567   7.146 -0.3622 -0.3576 -0.7771
 4455SOL     OW24997   0.824   0.882   2.593  0.3347  0.0718  0.1745
 4455SOL    HW124998   0.772   0.905   2.670 -0.4821  0.4336 -0.4909
 4455SOL    HW224999   0.793   0.797   2.562 -1.2374  0.9600 -0.6454
 4456SOL     OW25000   0.083   1.972  11.374  0.0304  0.5725 -0.2307
 4456SOL    HW125001   0.002   1.967  11.424 -0.5904 -1.1211 -1.3989
 4456SOL    HW225002   0.147   1.949  11.442  0.1892  2.2813  0.1897
 4457SOL     OW25003   1.937   4.668   7.976  0.2349 -0.5766  0.3258
 4457SOL    HW125004   2.027   4.697   7.993  0.3671  0.0052 -1.3392
 4457SOL    HW225005   1.887   4.710   8.046 -0.2376 -1.9471  0.8106
 4458SOL     OW25006   2.784   1.313   4.595  0.1612 -0.4769 -0.5373
 4458SOL    HW125007   2.734   1.234   4.576  1.7615 -1.2842 -1.3845
 4458SOL    HW225008   2.836   1.317   4.514 -0.0296 -3.8395 -0.8161
 4459SOL     OW25009   3.181   2.752   6.848 -0.1880 -0.1607  0.3645
 4459SOL    HW125010   3.164   2.843   6.824 -0.0159  0.2050  1.6183
 4459SOL    HW225011   3.274   2.752   6.868 -0.3726 -1.8736  1.2546
 4460SOL     OW25012   3.502   4.325   8.481 -0.1239  0.2279 -0.4102
 4460SOL    HW125013   3.451   4.274   8.545  0.4688  2.0344  1.5147
 4460SOL    HW225014   3.591   4.296   8.498  0.8288  1.6790 -2.9610
 4461SOL     OW25015   3.537   2.146   5.111  0.1998  0.3460 -0.6686
 4461SOL    HW125016   3.485   2.225   5.095  0.0562  0.1421 -1.2131
 4461SOL    HW225017   3.527   2.113   5.022  0.3069  1.2833 -1.0276
 4462SOL     OW25018   1.175   1.729   8.486  0.4692 -0.3470  0.3955
 4462SOL    HW125019   1.162   1.822   8.504  0.6711 -0.3060  0.3254
 4462SOL    HW225020   1.231   1.695   8.555 -1.0408  1.7817  2.6979
 4463SOL     OW25021   4.036   0.822   4.525  0.5961  0.8010  0.2542
 4463SOL    HW125022   3.941   0.829   4.515  0.9310  1.7408 -2.1932
 4463SOL    HW225023   4.043   0.727   4.523  3.2739  1.0327 -2.0240
 4464SOL     OW25024   3.051   1.525  16.553 -0.2036  0.4297  0.2917
 4464SOL    HW125025   3.060   1.481  16.638  0.4785  1.3614  0.6967
 4464SOL    HW225026   3.013   1.610  16.573 -0.9790 -0.4057  2.3399
 4465SOL     OW25027   3.487   1.099   0.397  0.6485  0.1356 -0.2318
 4465SOL    HW125028   3.477   1.031   0.465 -2.2896  0.8346  0.0451
 4465SOL    HW225029   3.467   1.047   0.319 -0.3772  1.4697 -0.8393
 4466SOL     OW25030   1.562   1.140  15.443  0.0226  0.2649 -0.0444
 4466SOL    HW125031   1.511   1.096  15.512 -0.1849 -2.2778 -1.8260
 4466SOL    HW225032   1.617   1.067  15.414  1.9324  0.8182  2.1941
 4467SOL     OW25033   2.395   4.436  11.116 -0.2859 -0.1492  0.4288
 4467SOL    HW125034   2.310   4.450  11.157  1.3040  0.8841  3.4265
 4467SOL    HW225035   2.371   4.388  11.037  2.4612  1.1335 -1.1973
 4468SOL     OW25036   1.285   0.879   7.170  0.7790  0.2440  0.0784
 4468SOL    HW125037   1.266   0.890   7.077  1.1603 -1.2826 -0.1823
 4468SOL    HW225038   1.241   0.796   7.188  0.3646  0.6379  0.8447
 4469SOL     OW25039   1.467   1.606  17.402 -0.0254  0.6708  0.1809
 4469SOL    HW125040   1.523   1.603  17.325  0.3955 -1.1479  0.5681
 4469SOL    HW225041   1.535   1.574  17.462 -0.5116  0.5242  0.6558
 4470SOL     OW25042   2.953   1.689   5.680 -0.6140 -0.4458 -0.3693
 4470SOL    HW125043   2.887   1.627   5.647 -0.0176 -1.8190  1.0310
 4470SOL    HW225044   2.907   1.718   5.759  1.1359  1.2230  0.0158
 4471SOL     OW25045   0.213   2.348   6.978  0.2201 -0.3350  0.6965
 4471SOL    HW125046   0.279   2.399   6.930  1.5975 -0.1168  2.8258
 4471SOL    HW225047   0.233   2.368   7.070 -2.1441  3.1206  0.4977
 4472SOL     OW25048   1.956   1.557   6.890 -0.4241  0.2941  0.5892
 4472SOL    HW125049   1.988   1.519   6.973  4.3566  1.3327 -0.7638
 4472SOL    HW225050   1.974   1.650   6.903 -0.8133  0.9395 -3.8164
 4473SOL     OW25051   1.112   0.272   5.006 -0.2801  0.2511  0.5407
 4473SOL    HW125052   1.127   0.331   4.932 -0.1488  2.8211  2.6230
 4473SOL    HW225053   1.100   0.186   4.965 -0.5321  1.9052 -2.8438
 4474SOL     OW25054   3.326   3.330   6.810  0.7888 -0.1122 -0.2000
 4474SOL    HW125055   3.292   3.317   6.898  1.2291  1.0444  0.1456
 4474SOL    HW225056   3.396   3.265   6.804  0.0353 -0.7830 -1.6508
 4475SOL     OW25057   3.755   0.825   6.552  0.1107 -0.2160  0.1934
 4475SOL    HW125058   3.761   0.747   6.497 -0.2699  0.7457 -1.2201
 4475SOL    HW225059   3.665   0.854   6.539  0.7935  0.5025 -3.0083
 4476SOL     OW25060   2.280   1.655   6.522  0.3340 -0.9592 -0.0902
 4476SOL    HW125061   2.203   1.703   6.553  1.0355 -0.0086  0.1856
 4476SOL    HW225062   2.343   1.727   6.524 -1.2340  0.3749  1.0788
 4477SOL     OW25063   4.649   0.088   3.535 -0.0213 -0.2057 -0.1258
 4477SOL    HW125064   4.690   0.002   3.539 -1.7286 -1.0066 -0.0230
 4477SOL    HW225065   4.569   0.070   3.584  1.0513  1.3633  2.1974
 4478SOL     OW25066   2.225   4.201  11.734 -0.2803  0.1989 -0.0491
 4478SOL    HW125067   2.218   4.242  11.820  0.1200 -3.0906  1.5759
 4478SOL    HW225068   2.255   4.274  11.681 -1.2855  0.2948 -0.4723
 4479SOL     OW25069   4.624   2.094  12.984 -0.2737 -0.2842  1.0141
 4479SOL    HW125070   4.597   2.112  12.894 -0.4940  0.3420  1.2115
 4479SOL    HW225071   4.630   2.183  13.018 -1.5272 -1.1525  3.4621
 4480SOL     OW25072   1.575   4.012   8.466 -0.5469 -0.4473 -0.3685
 4480SOL    HW125073   1.527   4.003   8.384 -1.3467  0.4541 -0.0146
 4480SOL    HW225074   1.597   3.922   8.486 -0.6591 -0.3664  0.1271
 4481SOL     OW25075   0.671   1.862   3.293  0.0769  0.3120 -0.1376
 4481SOL    HW125076   0.587   1.853   3.248  0.9169 -0.9672 -1.4481
 4481SOL    HW225077   0.692   1.948   3.255 -1.3640  0.2779 -1.0273
 4482SOL     OW25078   4.157   3.496  11.063  0.4171 -0.2588 -0.5321
 4482SOL    HW125079   4.214   3.475  11.137  1.5829  0.1606 -1.3078
 4482SOL    HW225080   4.200   3.451  10.990  1.5998 -0.8281  0.5160
 4483SOL     OW25081   0.053   0.446  13.271  0.8065 -0.5765 -0.0578
 4483SOL    HW125082   0.010   0.508  13.213  0.7383  0.5459  1.2141
 4483SOL    HW225083   4.730   0.369  13.276  0.6814 -0.2274  3.5350
 4484SOL     OW25084   2.549   4.382  17.393 -0.2661  0.2423  0.5830
 4484SOL    HW125085   2.598   4.460  17.420 -0.9504  0.4322  1.2734
 4484SOL    HW225086   2.467   4.429  17.378 -1.4606 -1.8056  0.7302
 4485SOL     OW25087   0.543   3.926   8.488 -0.0002  0.1033 -0.3091
 4485SOL    HW125088   0.460   3.957   8.453 -0.7811 -1.5172  0.0877
 4485SOL    HW225089   0.611   3.987   8.459  1.9338 -2.5667 -1.4078
 4486SOL     OW25090   1.799   3.416  15.779 -0.3347  0.0449 -0.1944
 4486SOL    HW125091   1.748   3.393  15.701 -1.8939 -1.4547  1.2930
 4486SOL    HW225092   1.867   3.469  15.737 -1.0282  0.7529 -0.4246
 4487SOL     OW25093   1.626   3.768   6.239  0.0688 -0.0966  0.3150
 4487SOL    HW125094   1.607   3.797   6.150  0.1332  1.5985  0.8594
 4487SOL    HW225095   1.721   3.756   6.231 -0.0532 -0.6949 -0.2048
 4488SOL     OW25096   2.009   0.348   7.070 -0.0178 -0.4621 -0.3410
 4488SOL    HW125097   2.078   0.285   7.091 -0.8867 -0.4759  2.4521
 4488SOL    HW225098   1.993   0.378   7.160  3.3487  1.9419 -0.5374
 4489SOL     OW25099   2.053   2.856   6.357 -0.0388  0.7351  0.0063
 4489SOL    HW125100   1.988   2.787   6.342 -2.2335  2.4230  1.8416
 4489SOL    HW225101   2.091   2.826   6.440  2.1980  3.8617  0.0835
 4490SOL     OW25102   2.847   0.643   6.038 -0.1192 -0.4715  0.4821
 4490SOL    HW125103   2.791   0.639   6.116 -2.7497  0.8043 -1.3585
 4490SOL    HW225104   2.778   0.633   5.973  0.2955  1.3511 -0.2295
 4491SOL     OW25105   2.059   2.769   6.014  0.2036 -0.4896 -1.1672
 4491SOL    HW125106   2.132   2.719   5.978  0.0040 -1.4355 -0.2466
 4491SOL    HW225107   2.096   2.850   6.050  1.0173 -2.2282  1.9248
 4492SOL     OW25108   4.603   3.352   2.505  0.9254  0.7925 -0.2248
 4492SOL    HW125109   4.696   3.376   2.508  1.3036 -0.2994 -3.3434
 4492SOL    HW225110   4.580   3.353   2.412  0.6154 -0.2712 -0.1491
 4493SOL     OW25111   0.985   0.405   5.748 -0.2317 -0.4881 -0.0284
 4493SOL    HW125112   0.958   0.479   5.693 -0.9963 -2.2827 -2.0488
 4493SOL    HW225113   0.977   0.333   5.686  1.8503  0.0463 -0.9433
 4494SOL     OW25114   1.835   1.294   2.897 -0.1787 -0.1285  0.0660
 4494SOL    HW125115   1.860   1.274   2.807  0.4524 -1.6679  0.5885
 4494SOL    HW225116   1.751   1.249   2.887 -0.5558  0.1722  2.0072
 4495SOL     OW25117   3.027   3.210   6.885  0.1726 -0.0924  0.5007
 4495SOL    HW125118   3.110   3.242   6.920  0.0056  0.0481  0.7698
 4495SOL    HW225119   2.994   3.179   6.969 -0.2923  0.3033  0.4641
 4496SOL     OW25120   0.548   4.134  17.690 -0.8984 -0.0678 -0.1771
 4496SOL    HW125121   0.608   4.138  17.615  0.6621 -0.1137  1.0656
 4496SOL    HW225122   0.479   4.100  17.633  0.5935 -1.6874 -1.0739
 4497SOL     OW25123   3.428   1.817   2.756  0.4683  0.2134 -0.1243
 4497SOL    HW125124   3.490   1.885   2.783  0.3199  0.1796  0.2916
 4497SOL    HW225125   3.351   1.855   2.799 -0.1452 -0.1202 -0.9289
 4498SOL     OW25126   2.014   1.406   1.737 -0.4417 -0.2625  0.4295
 4498SOL    HW125127   2.009   1.315   1.710  0.1701 -0.0591 -0.3714
 4498SOL    HW225128   2.006   1.397   1.832  1.5025  1.8076  0.8019
 4499SOL     OW25129   2.074   0.920   8.642 -0.0578  0.6185  0.0832
 4499SOL    HW125130   2.104   0.936   8.552 -1.6796 -0.3369 -0.6148
 4499SOL    HW225131   1.997   0.975   8.632 -0.6976 -0.2040  0.4755
 4500SOL     OW25132   1.970   2.115   9.856  0.5427  0.4526 -0.2589
 4500SOL    HW125133   1.882   2.076   9.861  1.6534 -1.9370  0.2763
 4500SOL    HW225134   1.958   2.185   9.792  1.0080 -0.3326 -1.1941
 4501SOL     OW25135   3.939   0.461   5.223  0.0495  0.5686 -0.4304
 4501SOL    HW125136   4.011   0.519   5.247  0.2094  0.0265  0.4175
 4501SOL    HW225137   3.918   0.427   5.310  1.2701 -0.1054 -0.3942
 4502SOL     OW25138   2.623   1.329   0.801  0.4341 -0.3682  0.6139
 4502SOL    HW125139   2.715   1.331   0.827  0.4171 -1.0218  0.7279
 4502SOL    HW225140   2.627   1.260   0.736 -0.3067  0.0275  0.1496
 4503SOL     OW25141   1.884   3.423   4.524  0.1053 -0.8350  0.1022
 4503SOL    HW125142   1.822   3.477   4.572  1.6453 -0.4028  1.6161
 4503SOL    HW225143   1.966   3.460   4.556 -0.2459 -0.0031  0.0236
 4504SOL     OW25144   4.179   3.853  11.609 -0.1274 -0.4866 -0.6683
 4504SOL    HW125145   4.165   3.821  11.698  0.9586  1.0322  0.0712
 4504SOL    HW225146   4.212   3.777  11.561  1.5134 -0.2534  0.0557
 4505SOL     OW25147   0.589   1.204  16.326  0.1006  0.2709  0.1594
 4505SOL    HW125148   0.593   1.287  16.278  0.3220 -0.4130 -1.0005
 4505SOL    HW225149   0.685   1.196  16.324  0.0138 -0.5768 -0.6521
 4506SOL     OW25150   3.210   2.017   5.917 -0.1984  0.3214 -0.1705
 4506SOL    HW125151   3.160   1.993   5.995 -0.8989  1.2013 -0.3535
 4506SOL    HW225152   3.219   2.110   5.934 -0.5077  0.4044 -0.4746
 4507SOL     OW25153   0.556   4.600   7.218  0.0008  0.3917 -0.0724
 4507SOL    HW125154   0.624   4.611   7.284  1.6765 -0.3349 -1.6692
 4507SOL    HW225155   0.572   4.672   7.158 -0.8657  2.4850  2.2200
 4508SOL     OW25156   2.782   2.423   3.873  0.1482  0.0211 -0.0167
 4508SOL    HW125157   2.803   2.392   3.961  4.1307 -1.0606 -1.3409
 4508SOL    HW225158   2.718   2.488   3.900  1.4412  1.1015  0.4778
 4509SOL     OW25159   4.480   2.760  13.755 -0.0683 -0.0748 -0.4514
 4509SOL    HW125160   4.518   2.752  13.668 -0.3013  1.3773 -0.6882
 4509SOL    HW225161   4.468   2.668  13.779 -0.0789 -0.2024 -0.9425
 4510SOL     OW25162   3.791   2.952   4.389 -0.9725  0.1600  0.3125
 4510SOL    HW125163   3.859   3.016   4.412 -0.5773 -0.5390  1.0846
 4510SOL    HW225164   3.796   2.910   4.475  0.2863 -0.2514  0.0309
 4511SOL     OW25165   1.882   3.965   5.137 -0.4325  0.0072  0.2011
 4511SOL    HW125166   1.882   3.961   5.232 -0.8263  1.5932  0.2773
 4511SOL    HW225167   1.974   3.949   5.116 -0.0935  3.6823 -1.2418
 4512SOL     OW25168   0.611   2.524   9.644  0.5389  0.0566  0.0108
 4512SOL    HW125169   0.539   2.570   9.600  1.2793  1.7007  0.5247
 4512SOL    HW225170   0.577   2.513   9.733  0.7171 -0.6693 -0.0125
 4513SOL     OW25171   2.579   1.305  10.402 -0.2022 -0.0405 -0.1805
 4513SOL    HW125172   2.497   1.283  10.357 -1.2846  0.5563  1.4865
 4513SOL    HW225173   2.638   1.238  10.367  1.1511  2.1908 -2.1524
 4514SOL     OW25174   0.008   1.411   4.905 -0.1116 -0.1465  0.3837
 4514SOL    HW125175   0.002   1.500   4.941 -0.4846  0.2582 -0.6821
 4514SOL    HW225176   0.089   1.380   4.945  0.2769  0.8767  0.3971
 4515SOL     OW25177   0.887   0.736  13.184  0.5726  0.1371 -0.3348
 4515SOL    HW125178   0.797   0.736  13.152  0.5493 -0.8246 -0.2706
 4515SOL    HW225179   0.903   0.830  13.190 -0.7103  0.3797 -0.7672
 4516SOL     OW25180   4.721   1.847   1.493 -0.5909  0.1998 -0.4047
 4516SOL    HW125181   4.710   1.753   1.504 -1.3032  0.5493  1.9342
 4516SOL    HW225182   4.631   1.876   1.509 -0.1260 -0.3714  3.3900
 4517SOL     OW25183   2.623   4.510   5.649 -0.5730  0.0128 -0.0689
 4517SOL    HW125184   2.533   4.523   5.620 -1.3687  0.3488  2.5657
 4517SOL    HW225185   2.633   4.587   5.705  0.8660  0.1408 -0.5051
 4518SOL     OW25186   3.349   2.067   8.743  0.9318 -0.3383  0.1506
 4518SOL    HW125187   3.351   1.985   8.693  1.4133 -0.3961  0.2634
 4518SOL    HW225188   3.324   2.024   8.825 -1.8494  0.5456 -0.2416
 4519SOL     OW25189   4.356   2.611  13.317  0.1374 -0.4479 -0.0454
 4519SOL    HW125190   4.367   2.637  13.226 -0.9113 -1.1541 -0.3636
 4519SOL    HW225191   4.275   2.655  13.343 -0.0453 -0.0270 -1.3425
 4520SOL     OW25192   2.418   1.290   4.867  0.2328 -0.7622 -0.1582
 4520SOL    HW125193   2.417   1.342   4.786 -0.9378  0.4758  0.6605
 4520SOL    HW225194   2.327   1.288   4.894  0.6990 -0.9472  1.3867
 4521SOL     OW25195   4.564   3.030  15.351  0.2203  0.0896  0.0080
 4521SOL    HW125196   4.558   2.935  15.361 -1.0682  0.6980  5.1050
 4521SOL    HW225197   4.573   3.036  15.256 -1.2266 -0.3511 -0.1591
 4522SOL     OW25198   4.517   2.175   4.071  0.2682 -0.3527  0.5841
 4522SOL    HW125199   4.450   2.220   4.020 -0.3558 -1.7757  0.1565
 4522SOL    HW225200   4.592   2.191   4.014  0.7378 -0.7075  1.1059
 4523SOL     OW25201   0.346   2.984   0.022  0.2403  0.2132 -0.3344
 4523SOL    HW125202   0.301   2.956  17.678  0.4244 -1.4808  0.1666
 4523SOL    HW225203   0.433   2.953  17.729 -0.9386 -2.3456 -1.1244
 4524SOL     OW25204   3.427   4.099   1.896  0.0188 -0.2164  0.3709
 4524SOL    HW125205   3.498   4.151   1.934 -0.1811 -0.2374  0.7743
 4524SOL    HW225206   3.484   4.038   1.848 -0.9694 -0.3484 -0.6288
 4525SOL     OW25207   1.127   1.127   7.193  0.4125  0.0103 -0.3234
 4525SOL    HW125208   1.058   1.086   7.142  0.6604 -0.8712  0.0484
 4525SOL    HW225209   1.197   1.066   7.169 -0.2801 -1.3320  1.0199
 4526SOL     OW25210   4.008   4.240   1.473 -0.8627 -0.3628 -0.3769
 4526SOL    HW125211   3.960   4.319   1.497 -1.8715 -0.8877 -0.6462
 4526SOL    HW225212   4.100   4.261   1.460 -0.9794  0.7897  0.6494
 4527SOL     OW25213   3.979   4.461   7.136  0.8925 -0.5045 -0.1658
 4527SOL    HW125214   3.987   4.385   7.193  1.3707 -0.6448 -0.4229
 4527SOL    HW225215   4.047   4.518   7.171 -0.4852  0.6152  0.7313
 4528SOL     OW25216   2.554   1.612   3.761  0.5829  0.0083 -0.0062
 4528SOL    HW125217   2.550   1.540   3.699  0.4890  1.4416 -1.6573
 4528SOL    HW225218   2.498   1.591   3.835  1.1722  0.6859  0.6339
 4529SOL     OW25219   2.893   0.996   1.224  0.1558 -0.3338  0.4780
 4529SOL    HW125220   2.804   0.960   1.225  0.3523 -0.8565 -1.4150
 4529SOL    HW225221   2.923   0.990   1.133  1.0967  2.2140  0.6320
 4530SOL     OW25222   3.021   3.938   5.801  0.6876 -0.8591  0.3339
 4530SOL    HW125223   3.026   3.843   5.790  0.9037 -1.2145  3.8116
 4530SOL    HW225224   3.013   3.930   5.896 -1.2604 -0.3272  0.2222
 4531SOL     OW25225   1.066   2.273   7.466  0.1121  0.1453  0.1710
 4531SOL    HW125226   1.092   2.321   7.387 -0.2434  0.7292  0.4062
 4531SOL    HW225227   1.071   2.181   7.442  2.9368 -0.0069  1.3029
 4532SOL     OW25228   3.478   4.090   7.509  0.1515 -0.7218  0.8915
 4532SOL    HW125229   3.396   4.122   7.473  0.4155 -0.8458  0.1752
 4532SOL    HW225230   3.468   4.001   7.475 -2.0465 -0.3487  0.6132
 4533SOL     OW25231   1.258   2.817   7.890  0.0436 -0.5889 -0.0909
 4533SOL    HW125232   1.163   2.805   7.898  0.2637 -1.8142  0.7120
 4533SOL    HW225233   1.270   2.912   7.895 -1.2168 -0.2465 -4.2167
 4534SOL     OW25234   1.491   3.545   2.778  0.2417 -0.2546  0.6825
 4534SOL    HW125235   1.563   3.602   2.751 -1.3648  0.9467 -1.0736
 4534SOL    HW225236   1.429   3.611   2.809  0.5085  1.1080 -1.7154
 4535SOL     OW25237   2.901   2.870   7.187 -0.1957  0.0988 -0.2583
 4535SOL    HW125238   2.850   2.792   7.208 -2.9507  1.9385 -0.1414
 4535SOL    HW225239   2.920   2.845   7.097  0.8992 -2.1730  0.5887
 4536SOL     OW25240   2.206   2.105   8.265  0.1501 -0.2663  0.7767
 4536SOL    HW125241   2.287   2.059   8.286  2.4641  3.0342 -0.8895
 4536SOL    HW225242   2.136   2.051   8.302  0.3080 -1.2148 -0.2962
 4537SOL     OW25243   2.944   4.159   6.334 -0.5153 -0.0765 -0.0758
 4537SOL    HW125244   2.989   4.207   6.403 -0.3325  0.7180 -0.7398
 4537SOL    HW225245   2.967   4.211   6.257 -0.2067 -1.0070 -0.6127
 4538SOL     OW25246   1.795   1.165  12.750  0.3296  0.6970 -0.3243
 4538SOL    HW125247   1.771   1.093  12.809 -2.5013  2.1524  0.3045
 4538SOL    HW225248   1.875   1.176  12.802 -0.1385 -2.0771  0.9855
 4539SOL     OW25249   2.190   4.154   6.463 -0.0949 -0.0873  0.3653
 4539SOL    HW125250   2.110   4.105   6.446 -0.7695  0.3164  2.2765
 4539SOL    HW225251   2.250   4.083   6.440  0.6975  0.2195  1.4732
 4540SOL     OW25252   0.279   0.822   7.036  0.6126 -0.5057 -0.2749
 4540SOL    HW125253   0.281   0.754   6.968  0.6374  0.5562 -1.3344
 4540SOL    HW225254   0.194   0.862   7.017  0.4692 -0.2729  0.8457
 4541SOL     OW25255   3.063   1.171   3.767 -0.1046  0.3615 -0.5084
 4541SOL    HW125256   3.068   1.245   3.707  1.0989  0.4905 -0.2462
 4541SOL    HW225257   2.976   1.134   3.756 -0.5394  1.8074 -1.9426
 4542SOL     OW25258   0.532   2.669   1.852  0.6401  0.4931  0.6528
 4542SOL    HW125259   0.568   2.596   1.902  0.1780 -1.1111 -1.3421
 4542SOL    HW225260   0.598   2.733   1.878 -0.3337  2.6183 -2.1525
 4543SOL     OW25261   2.127   0.445   9.670 -0.2012  0.2467  0.2788
 4543SOL    HW125262   2.210   0.459   9.715  0.0303  0.6126 -0.2526
 4543SOL    HW225263   2.131   0.357   9.633  0.5227  0.6928 -0.7166
 4544SOL     OW25264   0.963   0.401   3.731  0.1440 -0.7403 -0.0833
 4544SOL    HW125265   0.931   0.491   3.740  1.0275 -0.4327 -0.0159
 4544SOL    HW225266   0.979   0.379   3.822  2.3113  1.6127  0.0943
 4545SOL     OW25267   1.128   1.272   2.696  0.1766  0.5331  0.1817
 4545SOL    HW125268   1.143   1.194   2.750  0.9722  0.3058 -0.3736
 4545SOL    HW225269   1.213   1.315   2.707 -0.1386  0.9049  1.1860
 4546SOL     OW25270   2.388   4.253   7.299  0.4645  0.1896  0.3412
 4546SOL    HW125271   2.309   4.291   7.336  0.9384  1.6326 -0.1324
 4546SOL    HW225272   2.371   4.164   7.331  1.9526  0.4486  1.8358
 4547SOL     OW25273   0.218   4.661   7.086 -0.0092 -0.1088 -0.1243
 4547SOL    HW125274   0.229   4.583   7.140  1.3154 -1.2779 -2.0869
 4547SOL    HW225275   0.123   4.664   7.076 -0.2633 -0.5990  2.2300
 4548SOL     OW25276   4.697   1.659   2.701 -0.2636 -0.7501  0.5269
 4548SOL    HW125277   0.001   1.687   2.785  0.8984 -0.7018 -0.0130
 4548SOL    HW225278   4.607   1.688   2.713 -0.1264  0.1141 -0.5748
 4549SOL     OW25279   3.173   3.375   1.802 -0.2758 -0.4142 -0.0698
 4549SOL    HW125280   3.228   3.355   1.878  0.2537  0.9553 -0.0902
 4549SOL    HW225281   3.187   3.304   1.740 -0.1962 -0.9113  0.5100
 4550SOL     OW25282   3.005   0.676  12.025 -0.6131 -0.1680  0.3630
 4550SOL    HW125283   3.083   0.633  12.060  0.6493  2.1315  0.3543
 4550SOL    HW225284   2.982   0.620  11.951  0.5988  1.5701 -1.3213
 4551SOL     OW25285   3.164   2.800   8.048 -0.3424 -0.2805 -0.2067
 4551SOL    HW125286   3.168   2.824   8.140 -0.2815  0.6619 -0.4454
 4551SOL    HW225287   3.242   2.850   8.020 -1.1165  0.6584 -0.6991
 4552SOL     OW25288   0.114   3.098   8.307  0.1702 -0.1039  0.2626
 4552SOL    HW125289   0.195   3.115   8.353  0.1977  0.9716 -0.1749
 4552SOL    HW225290   0.042   3.116   8.367  0.1607  0.2974  0.1340
 4553SOL     OW25291   2.709   0.224   2.072 -0.1820  0.0418  0.3087
 4553SOL    HW125292   2.740   0.202   1.984  2.4529 -0.7594  1.4134
 4553SOL    HW225293   2.718   0.319   2.066  1.5217 -0.1711 -0.6569
 4554SOL     OW25294   1.141   3.920  13.915 -0.1873  0.0342  0.4569
 4554SOL    HW125295   1.165   3.839  13.870  0.8566 -0.0597  1.1723
 4554SOL    HW225296   1.215   3.980  13.905  0.5328 -0.9008  0.1563
 4555SOL     OW25297   0.626   3.559   2.869  0.4533 -0.5193  0.0912
 4555SOL    HW125298   0.668   3.517   2.794  0.3716  0.8659 -0.7361
 4555SOL    HW225299   0.539   3.581   2.836  0.6568 -1.1123 -0.8435
 4556SOL     OW25300   3.104   3.028   2.185  0.1262  0.1262  0.5395
 4556SOL    HW125301   3.109   3.123   2.185 -1.5520  0.2051 -0.4458
 4556SOL    HW225302   3.167   2.998   2.251 -0.2671 -1.1922  0.3255
 4557SOL     OW25303   3.761   2.738   3.820 -0.2379  0.2501 -0.3168
 4557SOL    HW125304   3.776   2.701   3.733 -2.6272  1.0055 -1.0496
 4557SOL    HW225305   3.782   2.675   3.889  0.0843 -0.6111 -1.1874
 4558SOL     OW25306   3.145   0.191   8.687 -0.1566 -0.3152  0.5222
 4558SOL    HW125307   3.223   0.141   8.708 -0.0172 -0.7317 -0.9740
 4558SOL    HW225308   3.120   0.152   8.603  0.5200 -1.0653  0.6730
 4559SOL     OW25309   0.995   1.399   3.077  0.2561  0.0274 -0.1224
 4559SOL    HW125310   1.091   1.400   3.082  0.1456  0.2338  2.2006
 4559SOL    HW225311   0.972   1.489   3.099 -1.1011 -0.9144  2.3409
 4560SOL     OW25312   3.164   0.672  15.532  0.2400 -0.2377  1.2477
 4560SOL    HW125313   3.237   0.699  15.587 -0.8033  3.1509  0.9670
 4560SOL    HW225314   3.103   0.736  15.568 -0.3827 -1.8543  3.0943
 4561SOL     OW25315   1.155   3.343  13.067  0.1149 -0.6567 -0.6747
 4561SOL    HW125316   1.206   3.367  12.990 -2.0085 -0.9685 -2.1843
 4561SOL    HW225317   1.117   3.425  13.098 -0.1491 -0.7333 -0.7879
 4562SOL     OW25318   2.934   4.406   1.735 -0.2358 -0.6118  0.6437
 4562SOL    HW125319   2.974   4.335   1.685  1.2085  0.3470  0.4479
 4562SOL    HW225320   2.984   4.395   1.815  1.3784  0.5317 -0.2038
 4563SOL     OW25321   4.364   4.104   4.807 -0.6803 -0.1438  0.6373
 4563SOL    HW125322   4.353   4.199   4.801 -1.2778 -0.3359 -1.4172
 4563SOL    HW225323   4.452   4.095   4.768 -0.9093 -1.6640  0.4762
 4564SOL     OW25324   4.213   3.952   0.518 -0.6777 -0.0791 -0.1521
 4564SOL    HW125325   4.247   4.041   0.513 -0.3007 -0.2569 -0.6956
 4564SOL    HW225326   4.295   3.904   0.521 -1.4080 -1.3057  0.2298
 4565SOL     OW25327   2.984   2.301   1.726  0.0853  0.0304  0.2453
 4565SOL    HW125328   2.929   2.268   1.655 -0.6787  2.5516 -0.3311
 4565SOL    HW225329   2.985   2.391   1.692 -1.7879  0.3456  0.9951
 4566SOL     OW25330   3.309   0.439   1.995 -0.0157 -0.7280 -0.3541
 4566SOL    HW125331   3.320   0.398   1.910  2.0327  0.0394 -0.4652
 4566SOL    HW225332   3.363   0.518   2.000  0.2221 -0.9477  0.4861
 4567SOL     OW25333   3.243   1.117   5.542 -0.3805  0.0134  0.0950
 4567SOL    HW125334   3.169   1.177   5.553 -1.3223 -1.1333 -0.0341
 4567SOL    HW225335   3.304   1.189   5.526  0.6191 -0.4285  2.0016
 4568SOL     OW25336   1.083   3.209   4.380 -0.1673  0.1299 -0.1294
 4568SOL    HW125337   0.991   3.182   4.385 -0.2511  0.1170 -1.6556
 4568SOL    HW225338   1.075   3.298   4.346  0.5630  0.1707 -0.2020
 4569SOL     OW25339   3.711   2.609   7.667  0.2563  0.0924 -0.2466
 4569SOL    HW125340   3.719   2.700   7.640 -3.9190  0.8490  1.1017
 4569SOL    HW225341   3.738   2.553   7.594 -0.4987 -1.1819  0.4551
 4570SOL     OW25342   0.659   3.214   3.300  0.6377  0.4170  0.2792
 4570SOL    HW125343   0.642   3.270   3.224 -0.6671  1.0230  1.0388
 4570SOL    HW225344   0.594   3.248   3.360 -1.4070 -0.9014 -1.1837
 4571SOL     OW25345   2.014   1.962   4.677 -0.7614 -0.1988 -0.0381
 4571SOL    HW125346   2.035   2.039   4.625 -2.5269  0.2423 -0.0884
 4571SOL    HW225347   2.059   1.886   4.639  2.7429  1.0279  1.7115
 4572SOL     OW25348   1.652   4.175   3.500 -0.1031  0.6752 -0.7425
 4572SOL    HW125349   1.709   4.159   3.425  1.8503 -0.7813  1.0543
 4572SOL    HW225350   1.648   4.088   3.539  2.7281  0.9078  0.0704
 4573SOL     OW25351   4.525   0.959   0.561  1.2022 -0.3845  0.1016
 4573SOL    HW125352   4.603   0.983   0.611  1.6044 -1.9104  0.1965
 4573SOL    HW225353   4.512   1.030   0.499  0.4701  0.0776  0.7864
 4574SOL     OW25354   3.069   3.434  11.797 -0.1616  0.2132 -0.4518
 4574SOL    HW125355   3.104   3.362  11.744 -1.0212 -0.6792  0.1947
 4574SOL    HW225356   2.999   3.471  11.745  0.5281  1.1608 -0.7031
 4575SOL     OW25357   3.804   4.030   2.499  0.1778  0.0332 -0.3772
 4575SOL    HW125358   3.872   4.081   2.454  1.1706 -0.5527  0.4360
 4575SOL    HW225359   3.797   3.954   2.442 -0.9279 -0.3068  0.2080
 4576SOL     OW25360   0.683   2.448  11.160 -0.3516 -0.1361  0.6790
 4576SOL    HW125361   0.736   2.436  11.238  0.9360  2.4700  0.2190
 4576SOL    HW225362   0.720   2.379  11.105  0.0288  0.7496 -0.1814
 4577SOL     OW25363   3.060   4.618  13.524 -0.5004 -0.0496 -0.8646
 4577SOL    HW125364   3.057   4.528  13.492 -3.0028  0.3969 -1.9221
 4577SOL    HW225365   3.007   4.674  13.467 -2.8507 -1.1813  0.2111
 4578SOL     OW25366   4.521   1.741  14.709 -0.4890  0.2024  0.5366
 4578SOL    HW125367   4.478   1.680  14.768  2.8574 -1.0558  1.6890
 4578SOL    HW225368   4.536   1.689  14.630  0.8301 -0.3726  1.1620
 4579SOL     OW25369   2.883   2.275  11.332  0.3116  0.1060 -0.3876
 4579SOL    HW125370   2.895   2.212  11.403  1.2247  1.8524  1.0378
 4579SOL    HW225371   2.926   2.354  11.364  2.2099 -0.5875 -1.2858
 4580SOL     OW25372   2.879   0.740   8.916  0.2350  1.2271  0.4199
 4580SOL    HW125373   2.806   0.714   8.972 -0.2829 -0.2491 -0.9600
 4580SOL    HW225374   2.835   0.771   8.837 -0.5057  0.2299  0.4341
 4581SOL     OW25375   2.864   1.755   5.138 -0.1916 -0.0001  0.5575
 4581SOL    HW125376   2.865   1.837   5.187 -1.0219 -0.6123  1.5830
 4581SOL    HW225377   2.781   1.718   5.169 -1.5623  0.8929 -2.0128
 4582SOL     OW25378   0.109   3.366  12.931 -0.3944 -0.2442  0.0809
 4582SOL    HW125379   0.074   3.419  13.002  0.1113 -0.5484  0.5543
 4582SOL    HW225380   0.193   3.342  12.971 -0.4825 -0.3319  0.2140
 4583SOL     OW25381   0.114   0.127   2.563  0.2634  0.3304 -0.2618
 4583SOL    HW125382   0.186   0.177   2.601  0.2631  0.4516 -0.4189
 4583SOL    HW225383   0.057   0.113   2.639  0.5818 -2.3087 -0.5296
 4584SOL     OW25384   0.375   3.463   6.106  0.1641  0.0965 -0.0389
 4584SOL    HW125385   0.380   3.433   6.197 -2.2857 -0.1650  0.0079
 4584SOL    HW225386   0.397   3.554   6.126  3.1722 -0.1202 -2.4330
 4585SOL     OW25387   1.135   0.640   9.256 -0.4120 -0.4121 -0.3257
 4585SOL    HW125388   1.188   0.564   9.277  0.7814  1.2433  2.7375
 4585SOL    HW225389   1.094   0.607   9.176 -0.1923 -0.8476 -0.2580
 4586SOL     OW25390   4.687   3.518  16.609  0.2120  0.0893 -0.3393
 4586SOL    HW125391   4.654   3.603  16.635 -0.9856 -0.5681  0.3025
 4586SOL    HW225392   4.675   3.474  16.693 -0.3915  0.6399 -0.1373
 4587SOL     OW25393   3.222   0.904   7.009 -0.7762 -0.5916  0.3087
 4587SOL    HW125394   3.242   0.987   6.967 -0.1406 -1.3128 -0.7955
 4587SOL    HW225395   3.128   0.921   7.021 -0.8493 -0.5193 -0.3985
 4588SOL     OW25396   4.684   2.108   2.915 -0.4088 -0.5689  0.0016
 4588SOL    HW125397   4.713   2.141   3.000  0.6611 -1.1685 -0.1272
 4588SOL    HW225398   4.700   2.180   2.853  0.7979 -0.2486  0.6690
 4589SOL     OW25399   0.720   2.739   7.560  0.0943 -0.5238  0.3275
 4589SOL    HW125400   0.796   2.741   7.502 -0.5279  0.1974 -0.4604
 4589SOL    HW225401   0.697   2.832   7.561 -0.5322 -0.6995  3.1164
 4590SOL     OW25402   2.259   0.807   5.433 -0.4262  0.6571  0.2369
 4590SOL    HW125403   2.256   0.713   5.453 -0.5588  0.8030  0.8930
 4590SOL    HW225404   2.249   0.841   5.522  1.4705  0.1086  0.6624
 4591SOL     OW25405   3.090   1.612   5.287  0.0375  0.3417 -0.5302
 4591SOL    HW125406   3.038   1.554   5.341  0.5429 -1.4657 -2.0000
 4591SOL    HW225407   3.102   1.685   5.348 -0.2576 -0.2005  0.1766
 4592SOL     OW25408   1.970   1.023   9.933 -0.3192 -0.0417 -0.5477
 4592SOL    HW125409   1.894   1.000   9.880 -0.3599  0.4749 -0.7203
 4592SOL    HW225410   1.962   0.966  10.009 -1.1626  0.3170 -0.3653
 4593SOL     OW25411   4.311   0.407  17.391 -0.2390 -0.1803  0.1092
 4593SOL    HW125412   4.329   0.490  17.346 -0.0868 -0.8550 -1.0578
 4593SOL    HW225413   4.266   0.418  17.475  0.7930  0.2000  0.6117
 4594SOL     OW25414   2.779   2.055   6.565  0.5311  0.2735 -0.0623
 4594SOL    HW125415   2.703   2.111   6.552  1.5179  1.6765  0.1975
 4594SOL    HW225416   2.820   2.098   6.640  0.5549  1.2550 -0.6468
 4595SOL     OW25417   2.868   4.091  10.801 -0.6622 -0.1521 -0.5445
 4595SOL    HW125418   2.924   4.015  10.785 -0.1555  0.2054 -0.4799
 4595SOL    HW225419   2.933   4.160  10.785 -0.0140 -0.9389 -1.2777
 4596SOL     OW25420   2.979   0.509   0.934 -0.1037  0.9547 -0.5494
 4596SOL    HW125421   2.953   0.429   0.978  2.0010 -0.7887 -2.4278
 4596SOL    HW225422   2.991   0.467   0.848 -1.8606  0.6759 -0.6577
 4597SOL     OW25423   3.268   4.701  13.919 -0.0956  0.5312 -0.0560
 4597SOL    HW125424   3.352   4.700  13.873 -0.5708 -1.0992 -0.8646
 4597SOL    HW225425   3.217   0.035  13.874 -0.8723  0.9351  1.4469
 4598SOL     OW25426   2.159   4.495   4.840  0.0468  0.6212  0.4717
 4598SOL    HW125427   2.232   4.438   4.814  0.1387 -0.2407  2.6789
 4598SOL    HW225428   2.100   4.491   4.764  2.3635 -2.0459 -1.2226
 4599SOL     OW25429   3.539   2.870  17.718  0.3162  0.0039 -0.0319
 4599SOL    HW125430   3.611   2.932  17.727 -1.8417  2.5628 -0.4215
 4599SOL    HW225431   3.499   2.876   0.069  0.2909  2.5179 -0.2445
 4600SOL     OW25432   1.859   3.984   0.242  0.2777 -0.4061 -0.0945
 4600SOL    HW125433   1.816   4.046   0.301 -1.0486 -3.4946  2.1744
 4600SOL    HW225434   1.837   3.901   0.285  1.2113  0.5755  2.2843
 4601SOL     OW25435   4.409   2.824   8.438  0.4609  0.3580 -0.1824
 4601SOL    HW125436   4.393   2.825   8.344  0.3368  2.0430 -0.1454
 4601SOL    HW225437   4.399   2.917   8.458 -2.1373  0.7200 -3.1885
 4602SOL     OW25438   2.875   2.891   6.871  0.0487 -0.6610 -0.1339
 4602SOL    HW125439   2.806   2.950   6.839  1.5325  1.2818  0.2735
 4602SOL    HW225440   2.910   2.862   6.786 -1.5481 -1.3415 -0.5615
 4603SOL     OW25441   3.008   4.277   6.811  0.5287  0.2482 -0.1706
 4603SOL    HW125442   2.995   4.366   6.846 -0.2063 -1.1842  3.2323
 4603SOL    HW225443   2.957   4.231   6.877  1.1621 -2.2515 -1.4334
 4604SOL     OW25444   2.885   2.911   6.598  0.2322  0.4993  0.6614
 4604SOL    HW125445   2.901   3.005   6.588 -1.9884  0.7616 -0.4658
 4604SOL    HW225446   2.795   2.913   6.564  0.5501  0.6177 -0.1845
 4605SOL     OW25447   1.856   4.323  15.384  0.2034 -0.3988 -0.1001
 4605SOL    HW125448   1.877   4.397  15.326 -0.3185 -1.1055 -1.1805
 4605SOL    HW225449   1.779   4.287  15.341 -0.1297  0.6100 -0.3559
 4606SOL     OW25450   3.004   4.513   6.942  0.5211  0.5055  0.4981
 4606SOL    HW125451   2.920   4.552   6.968 -0.0927  0.8603 -1.9575
 4606SOL    HW225452   3.049   4.511   7.026 -0.3525  1.9822  1.0041
 4607SOL     OW25453   3.285   0.682   0.152 -0.5882 -0.1379 -0.2436
 4607SOL    HW125454   3.336   0.759   0.177 -1.9223  0.7424 -0.1928
 4607SOL    HW225455   3.300   0.677   0.057 -1.1747 -1.2406 -0.2773
 4608SOL     OW25456   1.704   0.011  10.287 -0.1404 -0.3624  0.5511
 4608SOL    HW125457   1.772   0.071  10.314  2.4777 -1.7483 -2.9623
 4608SOL    HW225458   1.702   0.011  10.191  1.6008 -0.9534  0.5198
 4609SOL     OW25459   4.245   4.121   5.147  0.1242  0.0727  0.7321
 4609SOL    HW125460   4.217   4.037   5.183 -0.2298  0.1024  0.5308
 4609SOL    HW225461   4.290   4.088   5.069 -3.6757  0.1056 -1.5083
 4610SOL     OW25462   1.388   3.194   2.282  0.0175 -0.3882 -0.2562
 4610SOL    HW125463   1.416   3.282   2.255 -0.4772  0.1559  0.9940
 4610SOL    HW225464   1.468   3.165   2.325 -0.7559  0.7973  1.9672
 4611SOL     OW25465   4.033   1.937   2.815  0.4473  0.1421  0.1745
 4611SOL    HW125466   4.117   1.896   2.795 -1.1076 -1.4699 -3.0619
 4611SOL    HW225467   4.061   1.993   2.888  0.6770 -2.6645  2.2299
 4612SOL     OW25468   3.062   2.213   4.931  0.2026  0.0621 -0.3877
 4612SOL    HW125469   3.110   2.249   4.857  1.2072  2.1513  1.2738
 4612SOL    HW225470   3.112   2.139   4.964  0.0227 -0.6970 -1.8547
 4613SOL     OW25471   0.435   3.254   5.854  0.2614  0.0246 -0.0347
 4613SOL    HW125472   0.373   3.323   5.832  3.2667  2.4448 -0.9096
 4613SOL    HW225473   0.391   3.230   5.935  0.9680  0.6624  0.5372
 4614SOL     OW25474   1.021   0.872   9.388  0.2163  0.4014  0.4718
 4614SOL    HW125475   1.043   0.964   9.372  1.4289  0.0549  0.1072
 4614SOL    HW225476   1.063   0.820   9.319  1.2158  2.3344 -0.4029
 4615SOL     OW25477   2.134   1.990   3.762 -0.3397 -0.1844  0.6936
 4615SOL    HW125478   2.116   1.948   3.846 -0.8660  1.0275  1.1863
 4615SOL    HW225479   2.071   2.061   3.759  3.7802  3.5089  0.8722
 4616SOL     OW25480   0.813   1.136   6.788  0.3484 -0.4406  0.6669
 4616SOL    HW125481   0.854   1.136   6.702 -0.9454 -3.3512  0.0295
 4616SOL    HW225482   0.734   1.186   6.768 -0.5350 -2.1201 -0.1124
 4617SOL     OW25483   2.900   2.389   7.167  0.0127 -0.2635  0.7497
 4617SOL    HW125484   2.986   2.351   7.185  0.4229 -0.6748 -2.1083
 4617SOL    HW225485   2.923   2.449   7.097  0.0100 -1.9053 -0.6727
 4618SOL     OW25486   2.346   1.329   9.545  0.1275 -0.1696 -0.4231
 4618SOL    HW125487   2.341   1.316   9.451 -0.7195 -0.5736 -0.3247
 4618SOL    HW225488   2.427   1.380   9.549  1.0527 -1.7353  0.5058
 4619SOL     OW25489   3.965   4.213   8.079  0.1275 -0.4350 -0.1492
 4619SOL    HW125490   3.876   4.206   8.111 -0.1128 -2.1081 -1.1763
 4619SOL    HW225491   3.964   4.302   8.046 -0.1351  0.8464  3.3337
 4620SOL     OW25492   3.124   4.330   2.767  0.1352 -0.2694 -0.2445
 4620SOL    HW125493   3.164   4.249   2.738  1.7666  0.4275  0.0443
 4620SOL    HW225494   3.182   4.401   2.741 -1.2028  0.3075 -1.6566
 4621SOL     OW25495   4.536   1.183  14.024 -0.6972 -0.4783 -0.3712
 4621SOL    HW125496   4.475   1.135  13.967  1.5478 -1.7503 -1.7288
 4621SOL    HW225497   4.500   1.165  14.111 -1.5899  1.0848 -0.4157
 4622SOL     OW25498   3.224   4.252   2.415  0.3728  0.1288  0.0429
 4622SOL    HW125499   3.140   4.297   2.410  0.6108  0.8466  2.4379
 4622SOL    HW225500   3.266   4.311   2.477 -1.6389 -0.5989  2.0712
 4623SOL     OW25501   3.535   3.088   7.686 -0.0077  0.3852 -0.8231
 4623SOL    HW125502   3.557   3.140   7.763  1.6065 -1.6498  0.0940
 4623SOL    HW225503   3.478   3.015   7.711  0.2894  0.9613  1.5609
 4624SOL     OW25504   1.609   2.452  16.336 -0.2922  0.6812  0.2547
 4624SOL    HW125505   1.670   2.521  16.361 -0.8104  2.0133 -2.2513
 4624SOL    HW225506   1.532   2.502  16.306  0.4399  1.2266 -0.7052
 4625SOL     OW25507   0.909   3.267   1.458  0.1976  0.4625  0.1508
 4625SOL    HW125508   0.976   3.330   1.487 -1.1250  1.8981  0.1110
 4625SOL    HW225509   0.947   3.244   1.374  2.2316  1.8499  0.6844
 4626SOL     OW25510   1.932   2.320   9.623  0.0714 -0.5657 -0.5206
 4626SOL    HW125511   1.904   2.411   9.633 -0.7423 -0.7024 -1.5497
 4626SOL    HW225512   2.027   2.329   9.623  0.0354 -0.2308  0.3877
 4627SOL     OW25513   2.273   4.728  11.189 -0.0249 -0.0973 -0.1270
 4627SOL    HW125514   2.313   4.704  11.272 -0.1893 -0.6274 -0.2053
 4627SOL    HW225515   2.333   0.041  11.131  2.5767 -0.5773  2.1807
 4628SOL     OW25516   2.699   1.229   2.995  0.0316  0.0411  0.3274
 4628SOL    HW125517   2.753   1.189   2.928  0.5709  0.6010  0.4264
 4628SOL    HW225518   2.725   1.321   2.984  0.6702 -0.4406 -2.1402
 4629SOL     OW25519   0.406   0.397   5.902 -0.1647  0.6394  0.0946
 4629SOL    HW125520   0.387   0.347   5.823  0.2823 -1.2811  1.1902
 4629SOL    HW225521   0.498   0.418   5.884 -0.7066  2.2441 -0.7444
 4630SOL     OW25522   2.523   4.529   3.810  0.0018 -0.9000  0.3127
 4630SOL    HW125523   2.607   4.563   3.780 -0.2481 -0.6963 -0.1565
 4630SOL    HW225524   2.462   4.598   3.783  1.4305  0.3377  0.3070
 4631SOL     OW25525   0.566   4.433   2.262 -0.3110  0.4214  0.4393
 4631SOL    HW125526   0.546   4.361   2.322 -0.7508  1.0737  1.0740
 4631SOL    HW225527   0.520   4.502   2.310 -1.0821  0.8684 -0.9474
 4632SOL     OW25528   0.813   2.262   7.188  0.0599  0.4170 -0.7480
 4632SOL    HW125529   0.824   2.293   7.098 -2.1679  2.1621 -0.3947
 4632SOL    HW225530   0.831   2.169   7.174 -0.4019  0.4114 -1.2642
 4633SOL     OW25531   1.193   0.595  11.301  0.2919 -0.4052  0.5915
 4633SOL    HW125532   1.136   0.572  11.374  1.0633 -1.0219  1.0039
 4633SOL    HW225533   1.174   0.689  11.297  1.7173 -0.1517 -0.1340
 4634SOL     OW25534   4.516   1.492   3.446 -0.2861 -0.5159 -0.0045
 4634SOL    HW125535   4.430   1.528   3.467  0.7082  1.5636  0.4585
 4634SOL    HW225536   4.501   1.397   3.452 -2.1344 -0.2891 -0.9279
 4635SOL     OW25537   3.037   0.522   2.862 -0.4468 -0.1362 -0.0044
 4635SOL    HW125538   3.037   0.589   2.930 -0.1282 -0.3858  0.2413
 4635SOL    HW225539   3.114   0.548   2.811 -0.5683  0.3993  0.0861
 4636SOL     OW25540   2.262   3.413   7.455  0.2058  0.4088  0.1354
 4636SOL    HW125541   2.301   3.359   7.524 -0.3008  1.6073  1.3566
 4636SOL    HW225542   2.170   3.419   7.478  0.6852  1.4391  1.7839
 4637SOL     OW25543   4.527   2.249   3.394 -0.6536  0.6221 -0.3797
 4637SOL    HW125544   4.549   2.322   3.337  0.5235  0.4535 -0.1353
 4637SOL    HW225545   4.464   2.208   3.333  0.2530 -0.2043 -0.7654
 4638SOL     OW25546   1.508   4.402   8.720 -0.3137  0.2001 -0.0904
 4638SOL    HW125547   1.502   4.350   8.640  1.2141  0.0407 -0.1053
 4638SOL    HW225548   1.431   4.364   8.761 -0.7809  2.2387  0.9334
 4639SOL     OW25549   4.459   0.991   3.170 -0.9195  0.2764 -0.6896
 4639SOL    HW125550   4.418   0.935   3.235  2.8973 -0.6488  0.9514
 4639SOL    HW225551   4.534   0.939   3.140  0.9429  1.2247  2.3341
 4640SOL     OW25552   3.611   3.167   2.900  0.1824  0.2771 -0.3986
 4640SOL    HW125553   3.602   3.084   2.852 -2.1877  1.7499 -2.4858
 4640SOL    HW225554   3.521   3.199   2.898 -0.0219 -0.1854  1.3929
 4641SOL     OW25555   3.601   2.417   5.250  0.1227  0.7598  0.6287
 4641SOL    HW125556   3.601   2.502   5.294  1.8013  0.9454  0.2845
 4641SOL    HW225557   3.651   2.367   5.315  2.1524  3.0933  0.8733
 4642SOL     OW25558   2.242   1.558   5.793  0.3781  0.5185 -0.8321
 4642SOL    HW125559   2.223   1.636   5.740  2.5845  2.5105  1.2853
 4642SOL    HW225560   2.158   1.513   5.798  0.4235  1.0518  4.2575
 4643SOL     OW25561   1.464   1.484  16.488 -0.3614 -0.4046 -0.1103
 4643SOL    HW125562   1.448   1.415  16.424  1.0201 -1.9468  1.2420
 4643SOL    HW225563   1.509   1.549  16.433 -0.5261  0.1036  0.3563
 4644SOL     OW25564   3.296   4.279   8.981 -0.5708  0.0587  1.0258
 4644SOL    HW125565   3.203   4.296   8.967 -0.8218 -1.5984  0.6205
 4644SOL    HW225566   3.297   4.254   9.074 -1.1836 -2.0672  0.4707
 4645SOL     OW25567   4.307   1.240   2.729  0.4533  0.2186  0.0433
 4645SOL    HW125568   4.326   1.174   2.796 -1.0915  0.5909  0.8583
 4645SOL    HW225569   4.388   1.243   2.678  0.3247 -2.3310 -0.3521
 4646SOL     OW25570   0.810   1.744   6.027 -0.0420  0.1584  0.4963
 4646SOL    HW125571   0.857   1.725   5.946  2.2105  0.4683  1.7310
 4646SOL    HW225572   0.880   1.767   6.088  0.2250  0.1928  0.1780
 4647SOL     OW25573   3.782   1.859  14.767 -0.1877 -0.0205 -0.6187
 4647SOL    HW125574   3.811   1.801  14.837  2.4700  2.6807  0.5187
 4647SOL    HW225575   3.868   1.869  14.725 -0.4696 -1.5632 -1.5553
 4648SOL     OW25576   1.291   1.521   2.267 -0.0678  0.2748  0.4032
 4648SOL    HW125577   1.374   1.534   2.312  0.6496 -0.4328 -0.7059
 4648SOL    HW225578   1.229   1.580   2.309  0.4796  3.0893 -2.7505
 4649SOL     OW25579   2.860   0.521   3.206  0.0009 -0.5600  0.5143
 4649SOL    HW125580   2.843   0.583   3.135 -2.8005  0.2900  1.9362
 4649SOL    HW225581   2.944   0.548   3.244 -0.5345 -0.8926  1.9282
 4650SOL     OW25582   4.381   1.039   5.933  0.3692  0.4105  0.6266
 4650SOL    HW125583   4.350   1.065   5.846 -0.3631 -0.5438  0.6003
 4650SOL    HW225584   4.447   1.106   5.950  0.5309  0.2237  0.7273
 4651SOL     OW25585   0.642   3.699   8.838 -0.4585 -0.4532 -0.6178
 4651SOL    HW125586   0.650   3.614   8.879 -1.1860 -1.0326 -1.6682
 4651SOL    HW225587   0.635   3.749   8.919 -1.7240  0.4097 -1.2490
 4652SOL     OW25588   3.935   0.702   3.361 -0.7201  0.1100  0.7539
 4652SOL    HW125589   3.842   0.684   3.346 -0.0102 -1.8359 -1.3067
 4652SOL    HW225590   3.964   0.619   3.398  1.3619  0.4127 -0.1764
 4653SOL     OW25591   0.693   0.474  14.828  0.2328  0.4659 -0.5527
 4653SOL    HW125592   0.734   0.390  14.809  0.2182 -0.0455  1.6512
 4653SOL    HW225593   0.770   0.527  14.807  0.0131  1.1162  0.2926
 4654SOL     OW25594   2.304   1.471   5.295  0.2478 -0.0240 -0.2269
 4654SOL    HW125595   2.220   1.501   5.260 -1.0078 -2.3846  0.7440
 4654SOL    HW225596   2.287   1.377   5.292  1.6796 -0.2536 -0.6690
 4655SOL     OW25597   2.147   2.020   4.061  0.0164  0.1121 -0.2765
 4655SOL    HW125598   2.237   2.053   4.069  0.8215 -1.5654 -2.5715
 4655SOL    HW225599   2.147   1.945   4.120  0.6315 -0.2353 -0.7189
 4656SOL     OW25600   3.157   0.417   7.481 -0.1702 -0.0269  0.0180
 4656SOL    HW125601   3.141   0.433   7.389 -0.2080 -0.9527 -0.1368
 4656SOL    HW225602   3.088   0.465   7.526  1.7245  0.5799  2.2871
 4657SOL     OW25603   0.531   3.092  11.307  0.1508 -0.7027 -0.3327
 4657SOL    HW125604   0.452   3.136  11.338 -0.9952 -2.9322 -0.0579
 4657SOL    HW225605   0.541   3.124  11.218 -2.0503  0.6058 -0.1104
 4658SOL     OW25606   2.587   0.695  12.466 -0.4900 -0.2971  0.0424
 4658SOL    HW125607   2.673   0.735  12.454 -1.4374  2.2003  1.6232
 4658SOL    HW225608   2.547   0.769  12.510  1.7325  1.8445 -1.5577
 4659SOL     OW25609   4.732   1.026   7.725  0.8878  0.0580  0.1950
 4659SOL    HW125610   4.683   1.068   7.796  0.0250 -1.4986  0.5228
 4659SOL    HW225611   0.003   1.089   7.653  0.0193 -1.6250 -1.3415
 4660SOL     OW25612   3.577   0.249  10.637 -0.5155  0.3166 -0.0492
 4660SOL    HW125613   3.551   0.158  10.645 -1.1539  0.3640 -1.6544
 4660SOL    HW225614   3.533   0.283  10.715  1.3697  1.4125  0.5383
 4661SOL     OW25615   3.615   3.519  10.148  0.2708 -0.2330  0.2902
 4661SOL    HW125616   3.602   3.460  10.223  0.2279  0.1288  0.5732
 4661SOL    HW225617   3.534   3.571  10.150 -0.1218 -0.7829 -1.1108
 4662SOL     OW25618   4.359   1.433   6.003 -0.5984  0.1092 -0.5526
 4662SOL    HW125619   4.299   1.487   6.055 -0.2691  2.0472 -2.1925
 4662SOL    HW225620   4.311   1.444   5.921  0.3895 -0.3951 -1.2032
 4663SOL     OW25621   1.349   3.703   3.174 -0.2884 -0.0613  0.4556
 4663SOL    HW125622   1.254   3.714   3.166 -0.2096  0.5660  0.3773
 4663SOL    HW225623   1.363   3.769   3.242 -0.6242  0.8498 -0.3508
 4664SOL     OW25624   0.005   2.351   9.080  0.1967 -0.9179  0.8017
 4664SOL    HW125625   0.091   2.365   9.040 -0.1853  0.6122  0.5272
 4664SOL    HW225626   4.676   2.414   9.046  1.1073 -0.3096  0.2323
 4665SOL     OW25627   2.101   2.215   4.542 -0.1293  0.3445 -0.0592
 4665SOL    HW125628   2.043   2.231   4.467  0.4803  1.0970 -0.3669
 4665SOL    HW225629   2.170   2.271   4.508 -0.5858  1.0105  0.0949
 4666SOL     OW25630   2.650   4.163   8.184  0.7450 -0.1242 -0.2273
 4666SOL    HW125631   2.682   4.080   8.147 -0.1311  0.6097 -2.6412
 4666SOL    HW225632   2.557   4.160   8.160  0.2467 -0.2721  1.7658
 4667SOL     OW25633   2.447   0.083   9.753 -0.0607 -0.3097  0.5896
 4667SOL    HW125634   2.528   0.134   9.753 -0.1635 -0.1568 -0.5172
 4667SOL    HW225635   2.467   4.724   9.746  1.6436  0.0059  1.3262
 4668SOL     OW25636   3.369   4.414  12.866 -0.5209  0.0717 -0.1954
 4668SOL    HW125637   3.335   4.328  12.840  0.1906 -0.3898  0.3640
 4668SOL    HW225638   3.393   4.394  12.957 -0.5453  3.4085  0.5297
 4669SOL     OW25639   4.641   2.556  10.986 -0.1654  0.3787 -0.1181
 4669SOL    HW125640   4.626   2.584  11.077 -0.6851  1.5058 -0.5531
 4669SOL    HW225641   0.003   2.555  10.984 -0.1061  2.0618  1.2316
 4670SOL     OW25642   0.077   4.158  17.034  0.5962 -0.7443  0.4733
 4670SOL    HW125643   0.095   4.066  17.057  0.6242  0.0718  3.7956
 4670SOL    HW225644   0.146   4.197  17.087  0.9667 -1.0260  0.2010
 4671SOL     OW25645   4.244   3.999   0.993 -0.2088  0.2141  0.3019
 4671SOL    HW125646   4.215   3.915   0.958  1.3473  0.1093 -0.7013
 4671SOL    HW225647   4.218   4.058   0.922  0.6282 -0.1510 -0.3099
 4672SOL     OW25648   2.726   0.319   7.337  0.1673 -0.3329 -0.1027
 4672SOL    HW125649   2.678   0.309   7.255 -0.6276  1.7897  0.1137
 4672SOL    HW225650   2.810   0.286   7.306  0.1021 -0.3521 -0.2587
 4673SOL     OW25651   3.778   2.947   1.650  0.2520  0.1813  0.3263
 4673SOL    HW125652   3.781   3.012   1.720  0.0437 -0.6767  1.1397
 4673SOL    HW225653   3.773   3.002   1.572  0.3802 -0.7998 -0.3693
 4674SOL     OW25654   3.327   2.169   2.698 -0.2408 -0.2599 -0.0393
 4674SOL    HW125655   3.277   2.106   2.647 -0.1433  0.2412 -0.7545
 4674SOL    HW225656   3.395   2.110   2.731 -0.6492 -0.5045  0.3582
 4675SOL     OW25657   0.823   4.088   0.867  1.2097 -0.5172 -0.4993
 4675SOL    HW125658   0.886   4.126   0.927 -0.5460  1.2562  0.2459
 4675SOL    HW225659   0.827   3.997   0.895 -0.6806 -0.6437 -0.6119
 4676SOL     OW25660   3.637   2.127   6.873  0.3153 -0.6742  0.5608
 4676SOL    HW125661   3.684   2.060   6.922 -0.1746 -0.7514  0.9265
 4676SOL    HW225662   3.602   2.079   6.797 -0.7417  0.8739  0.0819
 4677SOL     OW25663   1.682   2.160   9.488 -0.2934  0.1691  0.3902
 4677SOL    HW125664   1.734   2.083   9.468  1.8979  1.9629 -0.8589
 4677SOL    HW225665   1.749   2.229   9.492 -2.1841  1.9495  1.2278
 4678SOL     OW25666   1.076   4.051   5.743 -0.3772 -0.2720 -0.0655
 4678SOL    HW125667   1.171   4.041   5.743 -0.3673 -0.1882  1.9815
 4678SOL    HW225668   1.071   4.130   5.797 -0.8920 -1.3065  1.3748
 4679SOL     OW25669   4.037   2.447   5.868  0.2306 -0.3920 -0.2905
 4679SOL    HW125670   4.089   2.457   5.948 -1.6184 -1.1409  0.9970
 4679SOL    HW225671   3.948   2.438   5.903  0.7167 -2.5665  0.4374
 4680SOL     OW25672   3.504   0.565   0.729  0.0901 -0.3746 -1.0427
 4680SOL    HW125673   3.492   0.526   0.642 -0.7542  1.7077 -1.8661
 4680SOL    HW225674   3.488   0.489   0.784  1.9710  0.5872  0.8388
 4681SOL     OW25675   4.404   0.708   7.651 -0.1583 -0.1043  0.7938
 4681SOL    HW125676   4.402   0.802   7.633  1.6401 -0.4180 -1.0822
 4681SOL    HW225677   4.422   0.680   7.561 -0.1003  1.3290  0.3654
 4682SOL     OW25678   1.031   4.250  13.717  0.3690 -0.1214 -0.1242
 4682SOL    HW125679   0.979   4.169  13.711 -1.2746  0.8889  0.5490
 4682SOL    HW225680   1.122   4.222  13.709  0.1176 -0.8418 -0.5462
 4683SOL     OW25681   2.070   2.823   0.819  0.0098  0.0801  0.2148
 4683SOL    HW125682   2.037   2.900   0.773  2.0372 -0.6492 -2.4443
 4683SOL    HW225683   1.992   2.787   0.862  0.6294  0.1675  1.4115
 4684SOL     OW25684   4.150   3.928   5.860 -0.3212 -0.1152 -0.6490
 4684SOL    HW125685   4.124   3.887   5.777  0.0203  1.1901 -1.3957
 4684SOL    HW225686   4.061   3.951   5.886  0.2540 -0.9996  2.1236
 4685SOL     OW25687   2.309   1.366   8.354 -0.4222  0.1291 -0.1233
 4685SOL    HW125688   2.279   1.453   8.327 -3.0831 -0.9672 -0.7584
 4685SOL    HW225689   2.311   1.331   8.265 -3.5478  1.7593 -0.8336
 4686SOL     OW25690   3.023   2.571  11.337  0.6845  0.1602 -0.0280
 4686SOL    HW125691   3.050   2.535  11.421 -0.2316 -1.0961 -0.2554
 4686SOL    HW225692   3.001   2.660  11.363  1.5247 -0.5637  3.1836
 4687SOL     OW25693   2.339   3.577   4.224  0.1487 -0.2070 -0.1525
 4687SOL    HW125694   2.283   3.655   4.226 -1.6821 -1.6345  3.0905
 4687SOL    HW225695   2.405   3.596   4.290  1.2090 -0.2985 -1.1959
 4688SOL     OW25696   3.301   3.630   5.369 -0.3250  0.0039 -0.3600
 4688SOL    HW125697   3.372   3.582   5.411 -1.0808  1.4336  2.5352
 4688SOL    HW225698   3.241   3.645   5.442 -1.7432  0.8944 -1.6847
 4689SOL     OW25699   3.812   3.584   0.210 -0.5616 -0.1053  0.5249
 4689SOL    HW125700   3.896   3.598   0.253  0.3165 -3.6779 -0.0032
 4689SOL    HW225701   3.760   3.655   0.246 -0.4767  0.9191 -1.3938
 4690SOL     OW25702   2.369   1.096   1.250 -0.2351  0.2181  0.4106
 4690SOL    HW125703   2.426   1.118   1.177 -0.7717  3.5388  1.0012
 4690SOL    HW225704   2.396   1.151   1.323  1.3490  0.4806 -0.3833
 4691SOL     OW25705   2.107   3.519   5.968 -0.5177  0.3971 -0.5789
 4691SOL    HW125706   2.028   3.474   5.937 -0.3657  2.5868 -4.2014
 4691SOL    HW225707   2.169   3.511   5.895  1.3045  1.3944  0.8516
 4692SOL     OW25708   1.738   1.459  12.755  0.6861 -0.2924  0.5205
 4692SOL    HW125709   1.767   1.369  12.744 -0.4353 -0.6741  0.6661
 4692SOL    HW225710   1.785   1.512  12.691 -2.8903  2.6466  0.2761
 4693SOL     OW25711   3.336   3.588   7.748 -0.5212  0.4212  0.4257
 4693SOL    HW125712   3.426   3.576   7.775 -0.7446  0.7132  1.2973
 4693SOL    HW225713   3.286   3.516   7.786 -0.2724 -1.0288 -2.0259
 4694SOL     OW25714   1.007   3.573   6.482 -0.2740 -0.2926  0.0236
 4694SOL    HW125715   1.055   3.499   6.517  0.2448 -0.5737 -1.2846
 4694SOL    HW225716   0.932   3.562   6.541 -0.9511  1.8546 -0.4298
 4695SOL     OW25717   2.338   2.235   0.823  0.2368 -0.1797  0.5573
 4695SOL    HW125718   2.345   2.259   0.731 -2.3446 -0.2297  0.3360
 4695SOL    HW225719   2.394   2.158   0.831  0.8230 -0.0204 -2.1352
 4696SOL     OW25720   3.361   3.291   5.771  0.4791 -0.4264 -0.1889
 4696SOL    HW125721   3.301   3.338   5.829  3.0368 -0.9425  2.8937
 4696SOL    HW225722   3.344   3.198   5.788  0.6832 -0.7944 -2.0253
 4697SOL     OW25723   1.460   1.670   5.918 -0.0923 -0.4968  0.0866
 4697SOL    HW125724   1.516   1.697   5.846 -1.2251  0.8457 -0.2849
 4697SOL    HW225725   1.508   1.597   5.958 -0.3377 -1.5391 -1.5265
 4698SOL     OW25726   3.758   0.400   7.101 -0.1233  0.7354 -0.0346
 4698SOL    HW125727   3.743   0.397   7.195 -0.4631 -2.2491 -0.2098
 4698SOL    HW225728   3.793   0.489   7.097  0.2593  0.5368 -1.1244
 4699SOL     OW25729   4.598   2.279   8.693 -0.2000  0.5636  0.0590
 4699SOL    HW125730   4.670   2.317   8.642 -0.1810  0.6186  0.1262
 4699SOL    HW225731   4.525   2.311   8.640 -0.1831 -1.1724 -1.0301
 4700SOL     OW25732   2.114   3.150   2.239  0.0259 -0.3367 -0.0044
 4700SOL    HW125733   2.149   3.068   2.203 -3.5879 -2.2622  0.9495
 4700SOL    HW225734   2.113   3.147   2.334 -0.5057  1.1570  0.0364
 4701SOL     OW25735   4.537   3.268   8.656 -0.0079 -0.1101  0.0776
 4701SOL    HW125736   4.528   3.281   8.562 -1.1096 -1.8654 -0.0483
 4701SOL    HW225737   4.455   3.233   8.691  0.1939 -0.0178  0.6556
 4702SOL     OW25738   1.764   4.307  13.360  0.2472  0.5209 -0.0943
 4702SOL    HW125739   1.719   4.312  13.276  1.4869 -1.3506 -0.8471
 4702SOL    HW225740   1.853   4.326  13.332  1.0086 -1.1417  1.2395
 4703SOL     OW25741   2.567   1.655   9.937  0.4650 -0.1192 -0.0586
 4703SOL    HW125742   2.551   1.740   9.979 -1.9270 -0.6042  0.0500
 4703SOL    HW225743   2.660   1.671   9.925  0.5893 -0.2143  0.7563
 4704SOL     OW25744   0.811   2.763  14.906 -0.1362  0.2679 -0.3203
 4704SOL    HW125745   0.770   2.832  14.958  3.4408  0.5516  2.0888
 4704SOL    HW225746   0.757   2.781  14.828  0.2799  1.0844 -0.4144
 4705SOL     OW25747   0.695   3.714   7.018 -0.1131  0.3242  0.9077
 4705SOL    HW125748   0.738   3.780   6.964  0.7958  0.2322  1.5248
 4705SOL    HW225749   0.643   3.667   6.953  0.4837  0.1447  0.5561
 4706SOL     OW25750   4.173   1.578  13.008 -0.2460 -0.0371  0.7168
 4706SOL    HW125751   4.233   1.619  13.071 -1.8882  2.5336  0.5837
 4706SOL    HW225752   4.095   1.572  13.062 -0.2804  1.2715  0.7951
 4707SOL     OW25753   3.790   1.165   7.484 -0.3406 -0.6316 -0.3922
 4707SOL    HW125754   3.747   1.234   7.534  0.1703 -0.3237 -0.3704
 4707SOL    HW225755   3.856   1.116   7.534 -1.9799  0.1703  2.5746
 4708SOL     OW25756   0.139   3.917   6.391  0.1274 -0.5244  0.2401
 4708SOL    HW125757   0.052   3.928   6.430  0.1068  0.4354 -0.0710
 4708SOL    HW225758   0.195   3.968   6.451  1.1921 -0.2402 -0.9942
 4709SOL     OW25759   2.951   3.654   7.101 -0.2478  0.0125  0.0592
 4709SOL    HW125760   2.865   3.615   7.119 -0.8840  1.2598 -0.2480
 4709SOL    HW225761   2.968   3.604   7.021 -2.0937 -1.8618  0.8383
 4710SOL     OW25762   0.271   2.656   1.859  0.1223 -0.3241 -0.3736
 4710SOL    HW125763   0.366   2.658   1.864 -0.0588  1.2813  2.6350
 4710SOL    HW225764   0.261   2.739   1.907  1.3646  0.0051 -0.6887
 4711SOL     OW25765   4.664   1.192   2.392 -0.2373 -0.2821 -1.0598
 4711SOL    HW125766   0.017   1.232   2.394  0.0255 -0.9996  1.7637
 4711SOL    HW225767   4.693   1.102   2.402  1.0748  0.1857 -0.6065
 4712SOL     OW25768   3.717   0.577  16.095  0.0359 -0.2137 -0.3966
 4712SOL    HW125769   3.785   0.520  16.058  0.4799  1.0740 -1.5462
 4712SOL    HW225770   3.681   0.513  16.156 -0.7706  1.2373  0.6262
 4713SOL     OW25771   2.080   0.561   2.166 -0.4927 -0.3120  0.0171
 4713SOL    HW125772   2.004   0.618   2.178 -0.6102 -0.1284 -1.6021
 4713SOL    HW225773   2.054   0.481   2.212  1.1664 -0.1319  1.2495
 4714SOL     OW25774   2.323   0.657   2.968 -0.2683 -0.0701  0.0286
 4714SOL    HW125775   2.264   0.732   2.970 -0.1976  0.0087 -1.0617
 4714SOL    HW225776   2.400   0.703   3.000  0.6221 -0.2556 -1.8491
 4715SOL     OW25777   2.416   4.092   4.847 -0.6709 -0.0823  0.2099
 4715SOL    HW125778   2.414   4.188   4.855  2.4633  0.0443 -0.8609
 4715SOL    HW225779   2.373   4.073   4.763  0.2212  0.2444 -0.3206
 4716SOL     OW25780   1.204   0.486   2.968  0.0379 -0.0111  0.7049
 4716SOL    HW125781   1.217   0.497   2.874 -0.6794 -2.4604  0.3242
 4716SOL    HW225782   1.161   0.403   2.990  2.8978 -1.4991  0.6540
 4717SOL     OW25783   2.426   0.005   2.492  0.2197 -0.1588 -0.3476
 4717SOL    HW125784   2.364   0.010   2.419  1.2161  0.1195 -1.1729
 4717SOL    HW225785   2.471   0.089   2.484  0.4099 -0.1715  0.6242
 4718SOL     OW25786   0.986   2.645   6.988  0.2428  0.6089  0.3460
 4718SOL    HW125787   1.077   2.658   7.015  0.7986 -0.0316 -1.2153
 4718SOL    HW225788   0.947   2.622   7.072 -1.4455  0.6158 -0.4396
 4719SOL     OW25789   3.711   0.635   8.272  0.0312  0.3190  0.8496
 4719SOL    HW125790   3.689   0.598   8.358 -0.3807  0.1635  0.6757
 4719SOL    HW225791   3.677   0.562   8.220  0.5090  0.3246  0.5328
 4720SOL     OW25792   1.595   1.992   2.339  0.0196  0.5357  0.4731
 4720SOL    HW125793   1.674   2.044   2.357 -0.4568  1.9570 -1.5151
 4720SOL    HW225794   1.524   2.046   2.373 -1.0322 -0.1842 -0.5788
 4721SOL     OW25795   1.664   0.510   2.358  0.4511 -0.4250  0.0176
 4721SOL    HW125796   1.643   0.424   2.395 -1.2141  0.4581  1.1234
 4721SOL    HW225797   1.580   0.532   2.317  1.5528 -1.5680 -2.8435
 4722SOL     OW25798   3.960   3.885  13.724  0.3852 -0.3006  0.4859
 4722SOL    HW125799   3.964   3.796  13.761 -1.4879 -1.7310 -2.7208
 4722SOL    HW225800   3.867   3.904  13.714  0.5704 -0.3005 -1.2899
 4723SOL     OW25801   3.728   3.664   3.259 -0.4560  0.1576 -0.0330
 4723SOL    HW125802   3.685   3.580   3.271  1.1368 -0.9205 -1.7575
 4723SOL    HW225803   3.748   3.675   3.166  0.6937 -0.3837  0.1537
 4724SOL     OW25804   1.179   0.574   2.661 -0.0165 -0.0770 -0.4962
 4724SOL    HW125805   1.163   0.652   2.609  0.5135  0.3021 -0.0881
 4724SOL    HW225806   1.139   0.513   2.599 -0.5660  1.4000 -1.5921
 4725SOL     OW25807   2.057   1.135   3.582 -0.1519  0.1773  0.8289
 4725SOL    HW125808   2.152   1.137   3.580 -0.1180 -0.6351  1.4884
 4725SOL    HW225809   2.029   1.099   3.666  1.1706  0.3975  1.3592
 4726SOL     OW25810   0.455   2.152   5.435  0.2209  0.4297  0.8718
 4726SOL    HW125811   0.517   2.174   5.365 -0.3505  1.7418  0.7767
 4726SOL    HW225812   0.372   2.183   5.400 -0.0550  0.0851  1.2212
 4727SOL     OW25813   3.208   1.233   2.577 -1.0099 -0.0733  0.0282
 4727SOL    HW125814   3.152   1.170   2.621 -0.6894 -1.2245 -1.2056
 4727SOL    HW225815   3.174   1.213   2.490  1.6958 -0.8082 -0.8584
 4728SOL     OW25816   2.636   3.038   8.290  0.0533  0.4682 -0.1517
 4728SOL    HW125817   2.670   3.032   8.379  0.7305 -0.9744 -0.5016
 4728SOL    HW225818   2.541   3.043   8.298 -0.0835  0.5357 -1.6569
 4729SOL     OW25819   2.619   1.332  13.681 -0.5175  0.0699  0.1633
 4729SOL    HW125820   2.608   1.304  13.591  0.4907 -0.2762  0.1393
 4729SOL    HW225821   2.533   1.314  13.719  0.0113 -0.7075  1.0014
 4730SOL     OW25822   0.850   3.838  10.167  0.1395  0.2756 -0.3030
 4730SOL    HW125823   0.910   3.776  10.125 -0.8715 -1.4584  0.8420
 4730SOL    HW225824   0.878   3.928  10.150  2.2613 -0.0808  1.4028
 4731SOL     OW25825   3.068   4.291  10.779 -0.6716 -0.4495  0.3604
 4731SOL    HW125826   3.075   4.367  10.836 -1.8125  0.7328 -1.0686
 4731SOL    HW225827   3.101   4.341  10.704 -2.2530 -0.6372 -0.4578
 4732SOL     OW25828   0.286   2.489  16.178  0.0403  0.1535 -1.0155
 4732SOL    HW125829   0.319   2.477  16.089  0.0954 -0.8101 -0.8673
 4732SOL    HW225830   0.319   2.579  16.177  1.4464 -0.3399  1.1791
 4733SOL     OW25831   4.499   4.497   3.184 -0.2829  0.7569 -0.1099
 4733SOL    HW125832   4.521   4.465   3.097  1.0313 -3.8749  1.9325
 4733SOL    HW225833   4.440   4.567   3.155 -0.9328  0.0798 -0.4085
 4734SOL     OW25834   2.937   4.708   1.713  0.3332  0.0348  0.0849
 4734SOL    HW125835   3.032   4.703   1.722  0.0840  0.3119  2.8955
 4734SOL    HW225836   2.926   4.614   1.726  0.4941 -0.2017 -1.4599
 4735SOL     OW25837   1.400   1.443  14.850 -0.4923 -0.7820  0.4273
 4735SOL    HW125838   1.484   1.489  14.847 -0.5115 -0.9038 -2.2448
 4735SOL    HW225839   1.356   1.468  14.931  0.9720  2.0621  0.3328
 4736SOL     OW25840   1.552   4.170   9.198  0.0480 -0.4333  0.0676
 4736SOL    HW125841   1.511   4.254   9.215  0.7154  0.0516 -0.7094
 4736SOL    HW225842   1.633   4.188   9.151  0.4884 -1.7847  0.2926
 4737SOL     OW25843   4.393   2.863   1.813  0.0464  0.2729  0.7730
 4737SOL    HW125844   4.298   2.875   1.808 -0.1428 -0.9156  1.4630
 4737SOL    HW225845   4.425   2.928   1.751 -0.8571 -2.1693 -2.2837
 4738SOL     OW25846   3.629   2.741   7.287 -0.1841 -0.0567 -0.1465
 4738SOL    HW125847   3.675   2.746   7.371 -2.4460 -0.1236  1.1066
 4738SOL    HW225848   3.543   2.777   7.312  0.1697 -0.2271  1.2872
 4739SOL     OW25849   0.601   2.187   6.943 -0.3374 -1.0611  0.2421
 4739SOL    HW125850   0.696   2.189   6.940 -0.2941  0.8866  2.9696
 4739SOL    HW225851   0.582   2.203   6.850  2.5156 -2.3333 -0.5668
 4740SOL     OW25852   2.525   3.724   4.074 -0.1544 -0.9895  0.8573
 4740SOL    HW125853   2.448   3.778   4.057  0.9268  0.2360 -0.1802
 4740SOL    HW225854   2.480   3.641   4.091 -3.5785  0.7811  0.2294
 4741SOL     OW25855   2.663   4.442   8.331 -0.3150  0.0681  0.0096
 4741SOL    HW125856   2.643   4.491   8.251 -1.6176 -1.8029 -0.8197
 4741SOL    HW225857   2.598   4.484   8.387  2.3059  2.5772  1.1324
 4742SOL     OW25858   3.992   1.709  12.555  0.3189  0.0242  0.0358
 4742SOL    HW125859   4.048   1.653  12.608  3.8653  3.0633 -0.4669
 4742SOL    HW225860   3.909   1.689  12.599 -0.0605  0.5799 -0.4155
 4743SOL     OW25861   0.700   3.862   4.593 -0.3141 -0.4715  0.4561
 4743SOL    HW125862   0.777   3.841   4.540 -0.4411 -2.4669  1.0702
 4743SOL    HW225863   0.723   3.930   4.657 -0.5947 -0.8379  0.9490
 4744SOL     OW25864   2.764   2.378   5.974 -0.1171 -0.0362 -1.1819
 4744SOL    HW125865   2.682   2.419   6.000  0.4032 -0.9366  1.9324
 4744SOL    HW225866   2.776   2.402   5.883  0.3318 -1.9657 -1.6225
 4745SOL     OW25867   4.311   2.038   0.132  0.2165 -0.1953 -0.2516
 4745SOL    HW125868   4.378   2.002   0.073  0.2801 -0.4706 -0.0079
 4745SOL    HW225869   4.260   2.093   0.071 -0.7548 -3.0501 -2.0001
 4746SOL     OW25870   4.377   1.221   1.952 -0.4618  0.2082  0.1990
 4746SOL    HW125871   4.362   1.271   1.871  1.9882  0.7625  0.1038
 4746SOL    HW225872   4.464   1.248   1.978 -0.6473  1.4299 -0.4505
 4747SOL     OW25873   3.685   4.041  10.018 -0.0070 -0.1240  0.1164
 4747SOL    HW125874   3.737   3.963   9.999  0.4791  0.4291 -0.7988
 4747SOL    HW225875   3.686   4.029  10.113 -0.9768 -0.1782  0.1173
 4748SOL     OW25876   2.084   2.434   1.536  0.4501  0.4943 -0.2181
 4748SOL    HW125877   2.139   2.418   1.459 -0.4181 -0.6970 -0.5856
 4748SOL    HW225878   2.063   2.343   1.557  0.2940  0.7052  0.5423
 4749SOL     OW25879   2.545   4.031   6.859 -0.2922 -0.2418  0.0772
 4749SOL    HW125880   2.511   4.044   6.771 -3.0816  0.5026  1.2563
 4749SOL    HW225881   2.543   3.935   6.865 -0.1607 -0.2922 -0.6984
 4750SOL     OW25882   2.944   3.167   7.531 -1.1398 -0.0326 -0.3999
 4750SOL    HW125883   2.894   3.085   7.525  0.5177 -1.0600 -0.1204
 4750SOL    HW225884   2.902   3.219   7.600  1.4758  1.9475 -0.3205
 4751SOL     OW25885   2.466   3.188   1.572  0.1817 -0.5289 -0.6363
 4751SOL    HW125886   2.508   3.119   1.623  1.9045  0.3056 -0.9385
 4751SOL    HW225887   2.388   3.198   1.626 -0.6830 -4.9866 -1.0669
 4752SOL     OW25888   2.083   0.609   5.740 -0.1303 -0.2932 -0.1495
 4752SOL    HW125889   2.019   0.679   5.756  0.7972  0.6489 -0.5175
 4752SOL    HW225890   2.047   0.537   5.791 -0.8982  1.3085  1.5661
 4753SOL     OW25891   1.914   1.549   6.180  0.1195 -0.1186  0.3117
 4753SOL    HW125892   2.007   1.573   6.182 -0.5590  2.6167 -1.2935
 4753SOL    HW225893   1.915   1.472   6.236  0.7335 -0.8528 -0.7141
 4754SOL     OW25894   0.161   2.316   2.550 -0.3626  0.2394 -0.2289
 4754SOL    HW125895   0.126   2.250   2.490 -1.4465 -1.4197  2.2667
 4754SOL    HW225896   0.222   2.357   2.488 -1.0512 -0.1481 -1.1728
 4755SOL     OW25897   2.235   1.322   6.192  0.3955  0.2132  0.2819
 4755SOL    HW125898   2.181   1.394   6.225  2.2679  1.6813  0.1543
 4755SOL    HW225899   2.319   1.367   6.187  0.6133 -0.4126 -1.7506
 4756SOL     OW25900   1.282   2.114  13.040 -0.0631  0.2025  1.1535
 4756SOL    HW125901   1.225   2.175  12.994  0.3224 -1.0669 -1.0261
 4756SOL    HW225902   1.365   2.112  12.992 -1.2125 -0.9322 -0.7691
 4757SOL     OW25903   1.264   2.029   5.099  0.3332 -0.2966  0.3174
 4757SOL    HW125904   1.309   1.988   5.025  0.3987  0.2109  0.0744
 4757SOL    HW225905   1.185   2.054   5.051  1.9058  0.8878 -1.6798
 4758SOL     OW25906   4.338   4.521  11.804 -0.0806  0.2407 -0.7812
 4758SOL    HW125907   4.317   4.469  11.726 -1.6884  1.8676 -1.4372
 4758SOL    HW225908   4.428   4.496  11.826 -0.9931 -1.6935  0.8052
 4759SOL     OW25909   0.882   3.362   6.280 -0.8547 -0.5585  0.7042
 4759SOL    HW125910   0.893   3.457   6.286 -0.5930 -0.4374 -1.9206
 4759SOL    HW225911   0.790   3.358   6.252 -0.2431  0.8098 -1.5009
 4760SOL     OW25912   1.536   4.458   5.234 -0.2818  0.4057 -0.3707
 4760SOL    HW125913   1.473   4.412   5.290 -0.4275  0.6238 -0.3554
 4760SOL    HW225914   1.620   4.447   5.279 -0.0125 -0.6096 -1.1319
 4761SOL     OW25915   1.578   4.720   2.565  0.1626  0.0033  0.7024
 4761SOL    HW125916   1.516   4.660   2.606 -0.7714  0.0745 -0.5822
 4761SOL    HW225917   1.584   4.692   2.474  2.4142  0.2871  0.7720
 4762SOL     OW25918   1.526   3.966   4.048  0.9981 -0.2118  0.0974
 4762SOL    HW125919   1.462   3.894   4.053 -0.6043  1.1210 -1.2092
 4762SOL    HW225920   1.538   3.966   4.143 -1.2150  1.3490  0.3892
 4763SOL     OW25921   2.514   1.600   7.478  0.9196 -0.2458 -0.6398
 4763SOL    HW125922   2.533   1.512   7.511 -0.1755  0.4192  1.6998
 4763SOL    HW225923   2.447   1.638   7.535 -0.7705 -0.1920 -2.6569
 4764SOL     OW25924   4.319   0.060   6.550 -0.3131  0.1347  0.0683
 4764SOL    HW125925   4.263   4.718   6.563 -2.5614  1.8691  0.4995
 4764SOL    HW225926   4.254   0.126   6.526  0.2890  1.1677  1.2720
 4765SOL     OW25927   2.012   2.324  10.388  0.2391 -0.2879 -0.0402
 4765SOL    HW125928   1.931   2.322  10.439  0.0891  2.0786 -0.1805
 4765SOL    HW225929   2.048   2.409  10.413  2.5067 -1.7478  1.6445
 4766SOL     OW25930   2.209   0.413   3.639  0.4390  0.1203 -0.2094
 4766SOL    HW125931   2.247   0.422   3.727  0.0898 -2.2166  0.1844
 4766SOL    HW225932   2.283   0.442   3.586  1.9076 -0.0732  1.7277
 4767SOL     OW25933   0.471   4.618   2.423 -0.0653 -0.3742  0.1144
 4767SOL    HW125934   0.512   4.630   2.508 -0.9662 -1.3729  0.6842
 4767SOL    HW225935   0.380   4.621   2.451  0.0672 -1.6077  0.7076
 4768SOL     OW25936   1.798   4.221   6.820 -0.2817  0.3926 -0.4845
 4768SOL    HW125937   1.739   4.147   6.837 -1.2003  0.7150 -2.2652
 4768SOL    HW225938   1.886   4.185   6.833 -0.6969 -0.1211  0.8995
 4769SOL     OW25939   1.792   2.540   8.138 -0.0481  0.0257 -0.0322
 4769SOL    HW125940   1.705   2.501   8.128 -0.2175  0.5277 -0.4815
 4769SOL    HW225941   1.833   2.518   8.054 -1.7981 -0.1405 -0.8445
 4770SOL     OW25942   2.523   0.039  17.124  0.4885  0.1756 -0.5901
 4770SOL    HW125943   2.573   4.692  17.122  0.8489  0.4178 -1.2258
 4770SOL    HW225944   2.571   0.081  17.196 -1.1527 -0.6492  0.9884
 4771SOL     OW25945   3.906   1.630   8.165  0.0630 -0.2132  0.1915
 4771SOL    HW125946   3.894   1.663   8.076 -3.6876  0.1161  0.8108
 4771SOL    HW225947   3.961   1.696   8.206 -0.3850 -0.3430  1.0000
 4772SOL     OW25948   1.199   2.856   2.196 -0.3603  0.4063  0.6039
 4772SOL    HW125949   1.140   2.783   2.181  1.8906 -1.1718 -0.7069
 4772SOL    HW225950   1.282   2.807   2.197 -0.3858  0.3324 -1.0608
 4773SOL     OW25951   4.460   1.445  14.265  0.1220 -0.0743 -0.1860
 4773SOL    HW125952   4.486   1.480  14.180  2.9742  1.6047  1.3708
 4773SOL    HW225953   4.475   1.524  14.317  3.3995 -2.4994  2.5439
 4774SOL     OW25954   1.079   1.665   5.559 -0.5924 -0.5712 -0.1063
 4774SOL    HW125955   1.122   1.749   5.574 -1.6182  0.0274 -0.5861
 4774SOL    HW225956   1.124   1.640   5.479 -0.1782  0.4610 -0.1893
 4775SOL     OW25957   2.997   3.519   4.667  0.3124  0.1654  0.0493
 4775SOL    HW125958   3.010   3.610   4.640  0.8418  0.5478  1.5713
 4775SOL    HW225959   3.075   3.507   4.722  0.2413  2.4274  0.6588
 4776SOL     OW25960   3.793   2.195   2.672 -0.0475 -0.3523  0.1142
 4776SOL    HW125961   3.866   2.252   2.695 -1.7545  0.5105  3.4010
 4776SOL    HW225962   3.722   2.240   2.718 -0.3039 -0.3498 -0.2800
 4777SOL     OW25963   3.905   1.672   1.847 -0.4135  0.2707 -0.3832
 4777SOL    HW125964   3.822   1.635   1.877  0.4628 -1.5975 -0.2548
 4777SOL    HW225965   3.886   1.764   1.865  0.3322  0.9665 -3.2032
 4778SOL     OW25966   2.587   3.019   1.742 -0.1980  0.0620  0.9168
 4778SOL    HW125967   2.571   2.926   1.723  0.2280  0.2142 -0.1831
 4778SOL    HW225968   2.572   3.021   1.837 -0.3412  0.9930  0.8699
 4779SOL     OW25969   0.537   2.278   1.723 -0.1915 -0.1268 -0.6524
 4779SOL    HW125970   0.585   2.269   1.805  0.2725  0.3283 -0.8712
 4779SOL    HW225971   0.578   2.209   1.671 -1.4984 -1.2018 -0.2511
 4780SOL     OW25972   0.036   3.165   6.143 -0.1439 -0.0219  0.3510
 4780SOL    HW125973   4.711   3.164   6.218 -1.5277 -0.7140 -0.7390
 4780SOL    HW225974   4.733   3.242   6.098  1.3055 -0.2956 -1.3311
 4781SOL     OW25975   4.314   3.808   6.621  0.1326 -0.0366  0.8227
 4781SOL    HW125976   4.365   3.817   6.541 -2.2218  2.4419 -0.3805
 4781SOL    HW225977   4.344   3.889   6.663  0.5104  0.2931 -0.0850
 4782SOL     OW25978   4.210   2.606   4.451  0.1655  0.1730 -0.7933
 4782SOL    HW125979   4.284   2.645   4.498 -0.1564 -0.1761  0.0082
 4782SOL    HW225980   4.258   2.529   4.421  0.5141 -0.4381  1.3256
 4783SOL     OW25981   0.914   3.258   4.892  0.3179  0.1370 -0.1640
 4783SOL    HW125982   0.892   3.324   4.827 -1.1043 -1.0164 -0.8345
 4783SOL    HW225983   1.010   3.267   4.889  0.2348  1.4444  0.8752
 4784SOL     OW25984   3.632   1.275  13.361 -0.2487 -0.2186  0.5581
 4784SOL    HW125985   3.618   1.207  13.295 -0.9486  0.6873 -0.2393
 4784SOL    HW225986   3.543   1.260  13.395 -1.2594  1.6539 -1.2671
 4785SOL     OW25987   2.597   2.036  12.197 -0.2402  0.5508 -0.1135
 4785SOL    HW125988   2.633   1.952  12.224  0.4746  1.1278  0.7419
 4785SOL    HW225989   2.640   2.101  12.254  2.0483 -0.4819 -0.6938
 4786SOL     OW25990   0.426   4.223   8.207 -0.5030 -0.3805  0.4382
 4786SOL    HW125991   0.452   4.243   8.118  1.2322 -0.3759  0.9514
 4786SOL    HW225992   0.393   4.308   8.238  1.2083  0.3220  0.3241
 4787SOL     OW25993   1.255   4.683   6.006 -0.8677  0.1505 -0.2294
 4787SOL    HW125994   1.237   0.036   6.042 -1.0557 -0.6035  1.4965
 4787SOL    HW225995   1.261   4.704   5.913 -0.6483 -0.3347 -0.3258
 4788SOL     OW25996   2.451   1.915   7.813  0.3541 -0.6331 -0.1150
 4788SOL    HW125997   2.530   1.890   7.861 -0.2731  1.5532  2.0751
 4788SOL    HW225998   2.478   1.981   7.749 -0.7105 -0.4634 -0.3816
 4789SOL     OW25999   1.892   1.856  13.704  0.3084  0.0113  0.3586
 4789SOL    HW126000   1.852   1.893  13.625  0.9688  0.9208  0.4467
 4789SOL    HW226001   1.843   1.890  13.779  2.4342  1.4251  1.1336
 4790SOL     OW26002   4.008   4.683   6.943 -0.2417  0.3722 -0.1527
 4790SOL    HW126003   3.944   4.659   7.010  1.1269 -2.1256  0.2509
 4790SOL    HW226004   4.001   0.044   6.950 -1.9685  0.1872  0.8073
 4791SOL     OW26005   3.925   2.786   5.427 -0.4295  0.4239 -0.7686
 4791SOL    HW126006   3.928   2.708   5.372  0.6798  0.4364 -0.7415
 4791SOL    HW226007   3.841   2.771   5.470  0.3023 -1.2407  0.1119
 4792SOL     OW26008   1.527   1.451   6.871 -0.5893 -0.1230  0.5728
 4792SOL    HW126009   1.612   1.411   6.885 -1.0947 -0.8624  1.4932
 4792SOL    HW226010   1.532   1.522   6.935  1.0101 -0.8742  1.2736
 4793SOL     OW26011   4.699   4.382  14.910 -0.4725  0.7705  0.3896
 4793SOL    HW126012   4.688   4.463  14.959 -0.7811 -1.1136  3.4100
 4793SOL    HW226013   0.018   4.324  14.965  0.9433  1.6282 -0.0767
 4794SOL     OW26014   3.963   3.917   4.341  0.5605  0.1886 -0.0852
 4794SOL    HW126015   3.875   3.953   4.332  0.5266  0.5960  1.7651
 4794SOL    HW226016   3.948   3.874   4.425  0.4332  0.7946  0.2084
 4795SOL     OW26017   2.641   2.423   1.391  0.4469  0.3771  0.1087
 4795SOL    HW126018   2.719   2.420   1.336 -0.6434  0.0210 -1.4135
 4795SOL    HW226019   2.578   2.362   1.353  0.5221 -0.2014  0.9293
 4796SOL     OW26020   3.886   4.393   6.874  0.4603  0.3191 -0.1436
 4796SOL    HW126021   3.875   4.302   6.902  0.5675  0.4184  0.2204
 4796SOL    HW226022   3.928   4.428   6.952 -2.9610  1.0836  1.3288
 4797SOL     OW26023   3.683   3.439  16.006 -0.0595  0.2284 -0.2815
 4797SOL    HW126024   3.706   3.368  15.946  0.0465 -0.2767  0.3620
 4797SOL    HW226025   3.678   3.405  16.095  0.4370  0.4488 -0.1675
 4798SOL     OW26026   3.853   1.377   0.387 -0.3064 -0.2259  0.2622
 4798SOL    HW126027   3.893   1.311   0.444 -0.3559  0.9200  1.6146
 4798SOL    HW226028   3.932   1.428   0.368  0.8141 -1.2303  2.1714
 4799SOL     OW26029   3.749   4.497   1.118  0.0797 -0.0715  0.2077
 4799SOL    HW126030   3.734   4.453   1.034 -0.7573 -0.4470  0.5560
 4799SOL    HW226031   3.766   4.422   1.176  0.0720 -0.0020  0.2999
 4800SOL     OW26032   3.899   2.140  12.421  0.6840 -0.3226  0.1413
 4800SOL    HW126033   3.900   2.053  12.380  2.5365  0.0796 -0.6818
 4800SOL    HW226034   3.855   2.192  12.354  0.1903  1.2291  1.6959
 4801SOL     OW26035   2.786   4.592  14.735 -0.7493 -0.5322  0.0984
 4801SOL    HW126036   2.791   4.505  14.697  2.5006 -0.7784  1.1222
 4801SOL    HW226037   2.859   4.639  14.694 -1.7878  1.0377  0.0176
 4802SOL     OW26038   1.774   4.632   1.543 -0.2362 -0.1564 -0.4594
 4802SOL    HW126039   1.857   4.601   1.582  0.7759  1.8889 -0.9751
 4802SOL    HW226040   1.759   4.572   1.470  2.5788 -0.7165 -0.5840
 4803SOL     OW26041   3.539   4.142  15.929  0.1079  0.1286  0.0524
 4803SOL    HW126042   3.609   4.172  15.987 -3.4332  1.7650  3.4972
 4803SOL    HW226043   3.477   4.215  15.942  1.2945  0.8451  1.6704
 4804SOL     OW26044   2.565   4.581   9.591  0.0998 -0.0879  0.3177
 4804SOL    HW126045   2.628   4.626   9.535 -1.0269  0.8972 -0.1338
 4804SOL    HW226046   2.612   4.506   9.628 -2.9255 -3.0173 -1.8091
 4805SOL     OW26047   3.460   0.153   4.727 -0.1905  0.7804 -0.1179
 4805SOL    HW126048   3.535   0.213   4.725  1.5475 -1.3518  0.3869
 4805SOL    HW226049   3.502   0.067   4.728  0.2800  1.0018 -1.3979
 4806SOL     OW26050   2.558   2.676  17.194  0.5193  0.7007 -0.6843
 4806SOL    HW126051   2.465   2.658  17.178  0.2967  0.3990  0.9896
 4806SOL    HW226052   2.586   2.724  17.115 -0.5537 -0.4138 -1.7427
 4807SOL     OW26053   0.127   1.860  13.516 -0.3717 -0.4618  0.5750
 4807SOL    HW126054   0.055   1.916  13.546 -0.5336  0.0983 -0.8442
 4807SOL    HW226055   0.204   1.915  13.531  0.4622 -1.5544  0.2295
 4808SOL     OW26056   3.882   4.422   3.703 -0.2619 -0.0357 -0.2651
 4808SOL    HW126057   3.886   4.517   3.710 -0.8945  0.0054 -0.4783
 4808SOL    HW226058   3.868   4.424   3.609 -2.7860  0.8818  0.1374
 4809SOL     OW26059   3.379   4.567   8.590  0.2990  0.5000  0.1261
 4809SOL    HW126060   3.364   4.657   8.562  0.2920  0.7255  0.8405
 4809SOL    HW226061   3.423   4.531   8.513 -2.4678 -1.0522 -0.7264
 4810SOL     OW26062   2.995   0.207   4.228 -0.1777 -0.7428  0.3381
 4810SOL    HW126063   3.087   0.203   4.256  0.0930  1.6554 -0.2278
 4810SOL    HW226064   3.009   0.207   4.133  1.7548 -2.0270  0.6216
 4811SOL     OW26065   3.354   4.258   0.080  0.6351  0.0053  0.5822
 4811SOL    HW126066   3.403   4.256   0.162  0.3842 -2.0981  0.6819
 4811SOL    HW226067   3.412   4.312   0.026 -1.1648  0.9907 -0.3641
 4812SOL     OW26068   3.382   2.465   5.586 -0.1792 -0.2541 -0.6856
 4812SOL    HW126069   3.367   2.531   5.518  1.3728  2.0830  1.2441
 4812SOL    HW226070   3.402   2.525   5.658 -0.4376  0.2423 -1.0224
 4813SOL     OW26071   1.820   2.189   3.420  0.0206  0.1632 -0.2284
 4813SOL    HW126072   1.900   2.239   3.405  0.4937 -0.2130  1.0087
 4813SOL    HW226073   1.849   2.108   3.462 -3.5155 -0.0728  1.7488
 4814SOL     OW26074   0.686   3.844  14.511  0.1590 -0.0045  0.4361
 4814SOL    HW126075   0.762   3.829  14.455 -0.6306  2.2713 -1.2334
 4814SOL    HW226076   0.627   3.775  14.478  1.3026 -0.6800 -0.2053
 4815SOL     OW26077   3.474   0.509   4.174 -0.4900 -0.2375 -0.3791
 4815SOL    HW126078   3.388   0.524   4.215 -0.0313  1.4584 -0.0055
 4815SOL    HW226079   3.447   0.477   4.088 -1.6328  0.2480 -0.2081
 4816SOL     OW26080   3.122   2.993   2.664  0.3482 -0.1045  0.6857
 4816SOL    HW126081   3.172   2.948   2.597  1.2135  1.6888  0.1257
 4816SOL    HW226082   3.042   3.006   2.613  0.4070 -2.7129 -0.0420
 4817SOL     OW26083   1.586   1.125   6.762  0.4160  0.6269 -0.6341
 4817SOL    HW126084   1.565   1.050   6.817  2.6856  0.0349 -0.5785
 4817SOL    HW226085   1.646   1.173   6.818  0.9872  1.5824 -2.0619
 4818SOL     OW26086   4.051   2.767   5.073  0.1266  0.1533  0.0748
 4818SOL    HW126087   4.008   2.717   5.143 -0.4395  1.0016  0.3340
 4818SOL    HW226088   4.061   2.703   5.003 -2.4392  0.3733 -0.5123
 4819SOL     OW26089   4.261   1.580   3.488 -0.2469  0.3024 -0.5913
 4819SOL    HW126090   4.189   1.618   3.437 -0.2384  1.6782  0.4460
 4819SOL    HW226091   4.228   1.595   3.576  1.2238  0.1265 -0.0185
 4820SOL     OW26092   1.987   2.488   2.071 -0.8291  0.0400 -0.3577
 4820SOL    HW126093   1.978   2.413   2.012 -2.6234  0.4551 -0.6374
 4820SOL    HW226094   2.022   2.552   2.009  0.9043 -0.7187 -0.1543
 4821SOL     OW26095   0.533   2.412   3.770  0.2415 -0.4420  0.3824
 4821SOL    HW126096   0.550   2.319   3.786 -1.9168 -0.8377  0.4529
 4821SOL    HW226097   0.597   2.461   3.822 -0.4009 -1.1013  1.8070
 4822SOL     OW26098   2.485   2.540   4.294  0.6336 -0.2481  0.1578
 4822SOL    HW126099   2.444   2.533   4.208  2.1391 -0.5671 -0.5389
 4822SOL    HW226100   2.563   2.490   4.274  0.7506 -0.2250  0.5588
 4823SOL     OW26101   2.929   0.582   9.418  0.5811  0.4497  0.1090
 4823SOL    HW126102   2.946   0.557   9.327 -1.3989 -0.4978  0.0085
 4823SOL    HW226103   3.008   0.628   9.447  1.2979 -2.0019  2.0566
 4824SOL     OW26104   1.463   3.533  17.683  0.8956  0.3115  0.0751
 4824SOL    HW126105   1.402   3.542   0.022  1.3174 -1.0204  0.5944
 4824SOL    HW226106   1.546   3.504  17.721  0.2102 -0.5319  0.9415
 4825SOL     OW26107   0.073   0.267   5.033  0.1369  0.3792  0.2639
 4825SOL    HW126108   4.715   0.253   5.055  0.2407 -0.4484  0.1903
 4825SOL    HW226109   0.100   0.345   5.081 -0.5252  0.8894 -0.1995
 4826SOL     OW26110   3.081   4.220   0.048 -0.4788  0.4676  0.0042
 4826SOL    HW126111   3.098   4.188  17.695  2.7843  0.1540  0.7270
 4826SOL    HW226112   3.167   4.247   0.080 -0.3888 -0.0445  0.1951
 4827SOL     OW26113   0.617   4.577  12.074  0.0649 -0.2261 -0.0299
 4827SOL    HW126114   0.650   4.487  12.062 -0.0441 -0.0162 -1.9792
 4827SOL    HW226115   0.588   4.607  11.988  0.8852  1.8766  0.4371
 4828SOL     OW26116   2.865   3.031   4.042 -0.1805  0.1516 -0.4201
 4828SOL    HW126117   2.873   3.055   4.134  2.9163 -1.0157 -0.3974
 4828SOL    HW226118   2.923   3.096   4.002  1.1259 -1.3778 -1.0422
 4829SOL     OW26119   4.140   1.399   9.589  0.0429  0.4165  0.1480
 4829SOL    HW126120   4.233   1.398   9.565  0.2360  0.6492  0.9073
 4829SOL    HW226121   4.122   1.305   9.583  0.7372  0.2358  1.0196
 4830SOL     OW26122   1.637   2.252   5.147  0.0894  0.2347 -0.3862
 4830SOL    HW126123   1.696   2.197   5.197 -0.1987 -0.3203 -0.6543
 4830SOL    HW226124   1.666   2.232   5.058 -2.2106 -0.4455 -0.9908
 4831SOL     OW26125   0.328   1.359   4.359 -0.1621 -0.0175 -0.5601
 4831SOL    HW126126   0.420   1.353   4.331  0.3685  3.4415  0.4544
 4831SOL    HW226127   0.323   1.453   4.375  1.1148 -0.2361  1.2436
 4832SOL     OW26128   2.350   0.468   7.081 -0.4709 -0.2228  0.1348
 4832SOL    HW126129   2.306   0.383   7.083 -1.4477  0.2796 -0.1709
 4832SOL    HW226130   2.358   0.487   7.175 -0.6008  0.3293  0.0343
 4833SOL     OW26131   1.762   4.139   8.088  0.8603 -0.2627  0.1871
 4833SOL    HW126132   1.716   4.216   8.053  0.8728  0.6551  2.1589
 4833SOL    HW226133   1.699   4.068   8.081  1.0929 -0.4370 -0.1112
 4834SOL     OW26134   0.982   2.537   9.090  0.3257  0.1348  0.4857
 4834SOL    HW126135   1.010   2.616   9.136  0.6203 -1.0743  2.3984
 4834SOL    HW226136   1.044   2.542   9.017 -1.4463  0.4616 -1.0164
 4835SOL     OW26137   3.791   2.795   8.284  0.5716  0.3671  0.0679
 4835SOL    HW126138   3.784   2.702   8.306 -0.3445  0.4821  0.2463
 4835SOL    HW226139   3.701   2.824   8.298 -0.1666 -2.0518  0.3317
 4836SOL     OW26140   2.142   4.649   8.185  0.0510  0.0487  0.0843
 4836SOL    HW126141   2.193   4.706   8.243 -0.3772 -0.0553  0.5600
 4836SOL    HW226142   2.215   4.609   8.137 -0.1595 -1.1877  0.7810
 4837SOL     OW26143   1.479   0.638   2.789  0.6262 -0.1598 -0.0710
 4837SOL    HW126144   1.564   0.603   2.763  0.7622  0.0328  0.1151
 4837SOL    HW226145   1.493   0.622   2.883 -1.1419  1.2313  0.4352
 4838SOL     OW26146   1.051   4.152  16.154  0.2759  0.6499 -0.0751
 4838SOL    HW126147   1.043   4.162  16.060 -1.9799  0.0400  0.0406
 4838SOL    HW226148   1.140   4.117  16.158  0.5191  1.3435  0.7673
 4839SOL     OW26149   2.538   0.767   7.330 -0.0864  0.1766 -0.2124
 4839SOL    HW126150   2.596   0.694   7.352 -0.0929  0.9282  2.2770
 4839SOL    HW226151   2.599   0.838   7.350  0.8312 -0.8234  0.5402
 4840SOL     OW26152   4.571   0.212   8.191  0.0610 -0.2819 -1.0551
 4840SOL    HW126153   4.494   0.176   8.236 -0.8594 -0.0679 -2.4593
 4840SOL    HW226154   4.546   0.214   8.099  0.0104  0.6562 -1.0236
 4841SOL     OW26155   2.723   0.998  12.179  0.5982 -0.3949  0.5512
 4841SOL    HW126156   2.758   1.082  12.150 -0.0427  0.3440  1.8951
 4841SOL    HW226157   2.792   0.936  12.159  2.3815  1.0950  2.0759
 4842SOL     OW26158   3.764   0.702   5.111  0.2749  0.1761 -0.4257
 4842SOL    HW126159   3.782   0.616   5.148 -2.3372 -0.3539 -0.3823
 4842SOL    HW226160   3.675   0.719   5.143  0.9081 -0.9570  1.9190
 4843SOL     OW26161   0.027   3.721  15.135  0.3332  0.2155  0.2534
 4843SOL    HW126162   4.669   3.709  15.110  1.1937  0.8123 -3.0745
 4843SOL    HW226163   0.070   3.705  15.052  2.1462  1.3351  0.9788
 4844SOL     OW26164   2.701   3.795   7.780  0.1112  0.2492 -0.1590
 4844SOL    HW126165   2.724   3.771   7.870  0.3056 -1.5271 -0.6861
 4844SOL    HW226166   2.629   3.736   7.760  1.3555 -0.8416 -1.4435
 4845SOL     OW26167   1.373   0.570  12.281  0.3813 -0.2309  0.0602
 4845SOL    HW126168   1.437   0.566  12.209  1.0061 -1.3552  0.6740
 4845SOL    HW226169   1.335   0.486  12.259  2.9008 -0.8646 -1.8839
 4846SOL     OW26170   0.335   3.245  16.162  0.0517 -0.0620 -0.5546
 4846SOL    HW126171   0.303   3.245  16.072  1.4953 -2.4513 -1.0758
 4846SOL    HW226172   0.389   3.323  16.154 -1.5892  1.2409  1.1470
 4847SOL     OW26173   4.138   4.123   0.787 -0.5991 -0.6529  0.6444
 4847SOL    HW126174   4.058   4.078   0.762 -2.6636  2.6579  1.3021
 4847SOL    HW226175   4.110   4.211   0.759  0.6738 -0.1492  0.9523
 4848SOL     OW26176   0.049   4.064  15.103  0.2274  0.2259 -0.3684
 4848SOL    HW126177   0.046   4.075  15.198 -0.1117 -1.0283 -0.2353
 4848SOL    HW226178   4.698   4.105  15.085 -1.1267 -2.2502  0.3796
 4849SOL     OW26179   4.579   1.918  11.520 -0.5826  0.0026 -0.0583
 4849SOL    HW126180   4.561   1.830  11.488 -0.0409  0.4898 -1.6890
 4849SOL    HW226181   4.534   1.920  11.605  1.4307  1.0903  0.9939
 4850SOL     OW26182   4.161   4.276   3.568  0.3032  0.7424  0.0372
 4850SOL    HW126183   4.182   4.183   3.561  0.7292  0.9455 -1.3724
 4850SOL    HW226184   4.162   4.313   3.479  0.2701 -0.2172 -0.3595
 4851SOL     OW26185   2.266   2.882  11.215 -0.2630  0.0119 -0.1957
 4851SOL    HW126186   2.308   2.814  11.162 -0.4180 -0.1338 -0.1324
 4851SOL    HW226187   2.333   2.903  11.280 -0.6032 -0.3983  0.2876
 4852SOL     OW26188   2.486   0.412  10.031  0.4061  0.2452 -0.5918
 4852SOL    HW126189   2.578   0.431  10.047  0.2707  0.1427  0.2885
 4852SOL    HW226190   2.449   0.465  10.102 -1.0629  0.8915 -1.8383
 4853SOL     OW26191   0.880   2.220   8.531  0.3691  0.3333  0.1782
 4853SOL    HW126192   0.961   2.257   8.565 -0.0535  0.6902  0.7758
 4853SOL    HW226193   0.885   2.135   8.574  2.8583  0.5666  0.3623
 4854SOL     OW26194   1.638   3.826   7.946  0.1166  0.6086  0.3269
 4854SOL    HW126195   1.687   3.797   8.023  0.4123  0.1591 -0.0306
 4854SOL    HW226196   1.547   3.813   7.972  0.7122  1.5925  2.9728
 4855SOL     OW26197   4.598   0.068  15.162 -0.1852  0.4288  0.8250
 4855SOL    HW126198   4.554   0.132  15.105  0.6891  1.2273  1.0359
 4855SOL    HW226199   4.665   0.122  15.205 -0.1030  1.1550 -0.2060
 4856SOL     OW26200   2.671   1.128   9.734  0.1590  1.1345 -0.0704
 4856SOL    HW126201   2.648   1.038   9.758 -0.6682  1.7714  1.5325
 4856SOL    HW226202   2.595   1.177   9.764 -1.3028 -1.7943  0.9777
 4857SOL     OW26203   4.358   2.392   4.307 -0.5865  0.3319  0.1422
 4857SOL    HW126204   4.319   2.320   4.356  0.3754  0.5049  1.1574
 4857SOL    HW226205   4.335   2.377   4.215 -1.3017  2.4329 -0.0369
 4858SOL     OW26206   0.096   1.939   4.515 -0.7893 -0.1335  0.4391
 4858SOL    HW126207   0.155   2.001   4.557 -2.1554  0.6183  1.2341
 4858SOL    HW226208   0.078   1.877   4.586 -0.4746 -1.0175 -0.2509
 4859SOL     OW26209   4.557   3.735   7.163  0.2302  0.4875  0.5862
 4859SOL    HW126210   4.601   3.768   7.241 -0.0400  4.4317 -0.9437
 4859SOL    HW226211   4.607   3.655   7.146 -1.9782 -1.0134  1.0885
 4860SOL     OW26212   3.942   1.585   6.765 -0.6944  0.3421 -0.1558
 4860SOL    HW126213   3.865   1.604   6.818 -2.3397 -2.5558 -1.4970
 4860SOL    HW226214   3.971   1.666   6.722  0.9916 -0.1460  0.0432
 4861SOL     OW26215   0.348   0.259   6.646 -0.6968  0.2610  0.4570
 4861SOL    HW126216   0.258   0.242   6.618  0.2447 -0.6290 -2.0458
 4861SOL    HW226217   0.344   0.353   6.665  1.0954  0.5109 -0.3944
 4862SOL     OW26218   2.477   0.784  14.013 -0.3054 -0.3022  0.4602
 4862SOL    HW126219   2.481   0.871  14.052 -1.0467  1.0328 -2.4817
 4862SOL    HW226220   2.469   0.733  14.094 -0.6096  0.0909  0.6757
 4863SOL     OW26221   0.991   4.413   3.470 -0.1733  0.1329 -0.1841
 4863SOL    HW126222   1.080   4.447   3.482 -1.1104  1.3306  3.5923
 4863SOL    HW226223   0.954   4.395   3.557  1.1321  0.1527  0.3733
 4864SOL     OW26224   2.294   1.034   6.210  0.5327 -0.1034 -0.0777
 4864SOL    HW126225   2.335   1.087   6.141 -1.0954 -0.4221 -1.2822
 4864SOL    HW226226   2.259   1.103   6.265 -1.4787 -0.9500 -0.3143
 4865SOL     OW26227   1.459   1.572   0.109 -0.2933 -0.3253 -0.3692
 4865SOL    HW126228   1.365   1.581   0.122 -0.0115  3.8249 -1.0929
 4865SOL    HW226229   1.503   1.632   0.170  2.4100 -2.8483  0.1649
 4866SOL     OW26230   0.186   4.051   8.108 -0.0103  0.5464  0.2733
 4866SOL    HW126231   0.144   4.083   8.029  0.9511 -1.6919 -1.1528
 4866SOL    HW226232   0.247   4.122   8.126  0.0033  0.5223  0.3243
 4867SOL     OW26233   1.421   3.125  13.437 -0.3218 -0.1793 -0.1115
 4867SOL    HW126234   1.396   3.205  13.392  1.2877  0.0763 -0.5401
 4867SOL    HW226235   1.489   3.163  13.492  0.1762 -0.2216 -0.6931
 4868SOL     OW26236   3.061   4.520   2.306 -0.1737  0.0937  0.2810
 4868SOL    HW126237   3.032   4.498   2.394 -0.5443 -1.0375 -0.1153
 4868SOL    HW226238   3.130   4.581   2.331  0.3413 -1.5144  2.8273
 4869SOL     OW26239   1.946   3.515   6.475  0.0145  0.3202  0.0153
 4869SOL    HW126240   1.964   3.507   6.382  0.2499 -1.3056  0.2002
 4869SOL    HW226241   1.999   3.593   6.494 -0.6580  0.3779  1.6802
 4870SOL     OW26242   1.624   0.262   3.986  0.7943 -0.0944  0.1775
 4870SOL    HW126243   1.682   0.210   4.042  1.1420  0.2133  0.1068
 4870SOL    HW226244   1.660   0.348   4.006 -1.0450  0.6103  0.3505
 4871SOL     OW26245   4.637   2.396   3.923 -0.4786 -0.1417  0.0832
 4871SOL    HW126246   4.713   2.376   3.977 -2.1391 -2.3153  1.5936
 4871SOL    HW226247   4.663   2.351   3.843  0.5108 -1.9110  1.4164
 4872SOL     OW26248   3.635   2.320   5.562 -0.2765  0.1861  0.3011
 4872SOL    HW126249   3.635   2.304   5.656  0.7826  1.8522  0.5759
 4872SOL    HW226250   3.546   2.355   5.552 -0.8478 -0.9574  1.4236
 4873SOL     OW26251   3.568   3.318   3.907  0.6276 -0.4946  0.3011
 4873SOL    HW126252   3.616   3.395   3.876  3.8423 -2.8084 -0.4600
 4873SOL    HW226253   3.618   3.250   3.864  1.7109  0.6762 -0.2862
 4874SOL     OW26254   1.281   4.725   7.351 -0.0300 -0.0857 -0.3775
 4874SOL    HW126255   1.278   0.066   7.411  1.2081  1.0052 -1.6821
 4874SOL    HW226256   1.312   4.656   7.409 -0.9550 -1.2118 -1.2273
 4875SOL     OW26257   2.870   3.348   1.750  0.6017  0.0607  0.4369
 4875SOL    HW126258   2.810   3.379   1.683  1.1203  2.7372  1.1920
 4875SOL    HW226259   2.921   3.428   1.765  0.4602  0.0742  0.8724
 4876SOL     OW26260   1.872   1.661   8.997 -0.4205  0.1410  0.5611
 4876SOL    HW126261   1.852   1.603   8.924 -0.9063  0.9148  0.0845
 4876SOL    HW226262   1.965   1.682   8.983 -0.2518 -0.5655  0.6171
 4877SOL     OW26263   2.720   3.483   7.810  0.5275  0.0280  0.2857
 4877SOL    HW126264   2.749   3.403   7.766  0.6875  1.0269 -1.4249
 4877SOL    HW226265   2.783   3.545   7.773  0.8743 -0.1645  0.5599
 4878SOL     OW26266   3.135   4.424   4.862  0.3830  0.4645  0.5514
 4878SOL    HW126267   3.181   4.445   4.780 -1.2549  1.9075  0.0120
 4878SOL    HW226268   3.210   4.421   4.922 -1.3118  0.7553  2.6474
 4879SOL     OW26269   0.408   4.679   5.774  0.2031 -0.0831  0.5624
 4879SOL    HW126270   0.486   4.627   5.790  0.4899 -0.0557 -0.7869
 4879SOL    HW226271   0.346   4.610   5.797 -1.1846  0.9085 -0.2062
 4880SOL     OW26272   1.919   0.043   8.400  0.0998 -0.1143  0.2312
 4880SOL    HW126273   1.901   4.690   8.437 -4.6809  0.5472 -0.4876
 4880SOL    HW226274   2.007   0.050   8.437 -0.6481  1.0275  1.8269
 4881SOL     OW26275   0.116   1.762  12.720 -0.2026  0.2166  0.2319
 4881SOL    HW126276   0.182   1.700  12.751 -2.0099 -3.7146 -3.6587
 4881SOL    HW226277   0.144   1.840  12.768 -0.6479  0.7019 -0.3010
 4882SOL     OW26278   0.511   2.552  17.624  0.2719  0.1583 -0.4361
 4882SOL    HW126279   0.527   2.646  17.637 -1.3466  0.1865  1.2647
 4882SOL    HW226280   0.461   2.542  17.544 -2.4989 -2.4564  1.6404
 4883SOL     OW26281   4.413   4.076   5.915 -0.6229  0.3307  0.3767
 4883SOL    HW126282   4.343   4.022   5.877  0.4681  0.5009 -1.8562
 4883SOL    HW226283   4.492   4.025   5.896 -1.0734 -0.2923  0.1511
 4884SOL     OW26284   0.516   4.234   2.438  0.2949  0.6367 -0.2715
 4884SOL    HW126285   0.442   4.178   2.462 -0.1997  0.9127 -1.1518
 4884SOL    HW226286   0.527   4.287   2.516  1.7375  0.7165 -0.5224
 4885SOL     OW26287   0.480   1.601   0.798  0.6311 -0.0681 -0.3337
 4885SOL    HW126288   0.433   1.684   0.795  2.5069  1.0455  1.6065
 4885SOL    HW226289   0.450   1.557   0.877 -1.6626  0.1814 -1.0500
 4886SOL     OW26290   0.632   2.060   3.122 -0.3216 -0.0684  0.3401
 4886SOL    HW126291   0.545   2.099   3.107 -0.0207  1.1973  1.8689
 4886SOL    HW226292   0.679   2.130   3.167  1.5772 -1.2671  0.1932
 4887SOL     OW26293   3.141   4.300   0.508 -0.1963 -0.0314 -0.7291
 4887SOL    HW126294   3.133   4.228   0.445 -0.1333 -1.0231  0.4087
 4887SOL    HW226295   3.053   4.332   0.525  0.0784  0.1445  0.3210
 4888SOL     OW26296   0.864   4.085   8.203  0.7429  0.4716  0.1660
 4888SOL    HW126297   0.832   3.995   8.192  0.1798  0.6977 -0.0484
 4888SOL    HW226298   0.802   4.117   8.268  0.1494 -1.8489  0.7481
 4889SOL     OW26299   2.301   1.969   1.401  0.1251 -0.1909 -0.9800
 4889SOL    HW126300   2.330   1.928   1.320  1.3854  1.7913 -1.5284
 4889SOL    HW226301   2.300   1.888   1.452  1.0393  0.3073 -0.1762
 4890SOL     OW26302   4.598   0.243   3.312  0.7931  0.0924 -0.0855
 4890SOL    HW126303   4.588   0.200   3.397 -2.6022  2.8973  0.9284
 4890SOL    HW226304   4.666   0.305   3.339  1.3523 -1.4354  2.0135
 4891SOL     OW26305   3.523   3.112   6.848  0.1209 -0.2737  0.5632
 4891SOL    HW126306   3.561   3.114   6.936 -0.2863  1.2205  0.6982
 4891SOL    HW226307   3.591   3.105   6.781 -0.5513  1.3603 -0.2988
 4892SOL     OW26308   4.589   1.752  12.689  0.2600 -0.5249  0.5211
 4892SOL    HW126309   4.682   1.775  12.695  0.8136 -2.7425  0.5710
 4892SOL    HW226310   4.548   1.788  12.768 -0.9729  1.1017 -0.8684
 4893SOL     OW26311   0.446   3.081   2.297  0.7522  0.1003  0.6740
 4893SOL    HW126312   0.502   3.158   2.282  1.3810 -0.4154  0.3442
 4893SOL    HW226313   0.383   3.099   2.227  0.8122  0.5527  0.7316
 4894SOL     OW26314   4.223   0.607   9.677 -0.4494  0.0220 -0.2260
 4894SOL    HW126315   4.188   0.671   9.615  0.0491 -0.5826 -1.1258
 4894SOL    HW226316   4.203   0.655   9.758 -0.5262  0.2642 -0.3880
 4895SOL     OW26317   1.987   2.463   3.654  0.4850 -0.4257 -0.4274
 4895SOL    HW126318   2.077   2.494   3.644  1.2871 -2.2477  1.1282
 4895SOL    HW226319   1.986   2.473   3.749 -1.0393  0.1019 -0.5021
 4896SOL     OW26320   1.783   0.739   6.620  0.1439 -0.1951  0.1193
 4896SOL    HW126321   1.688   0.732   6.609  0.2215  0.0797 -0.7333
 4896SOL    HW226322   1.795   0.828   6.652  2.8740 -0.8852  1.0035
 4897SOL     OW26323   2.262   0.222  12.379 -0.4655  0.3955 -0.2084
 4897SOL    HW126324   2.328   0.287  12.354  0.8420 -0.6198  0.6538
 4897SOL    HW226325   2.195   0.278  12.418 -0.8891  0.0054 -0.3738
 4898SOL     OW26326   1.696   3.083   0.390 -0.4154 -0.4349  0.1566
 4898SOL    HW126327   1.707   2.999   0.433 -1.1460  0.6619  2.4924
 4898SOL    HW226328   1.658   3.060   0.305  1.4221  0.9275 -1.0278
 4899SOL     OW26329   0.286   0.980   3.257  0.2734 -0.2996 -0.0613
 4899SOL    HW126330   0.239   0.992   3.339  2.0055  1.8571  0.6310
 4899SOL    HW226331   0.353   1.047   3.271  1.8430 -1.5655 -1.3653
 4900SOL     OW26332   3.862   3.128  10.518  0.0807  0.7432 -0.0835
 4900SOL    HW126333   3.914   3.051  10.544  0.6314  1.1776  0.0989
 4900SOL    HW226334   3.898   3.196  10.575 -0.6859  0.4806  0.7076
 4901SOL     OW26335   0.694   0.936   7.358  0.2243  0.7234  0.0396
 4901SOL    HW126336   0.708   1.028   7.335 -0.3458  0.7123 -0.3506
 4901SOL    HW226337   0.609   0.927   7.314 -0.8037  2.4342  1.6223
 4902SOL     OW26338   2.440   2.454   8.353 -0.0527  0.2575 -0.5951
 4902SOL    HW126339   2.489   2.380   8.389  0.1723 -0.3942 -2.2481
 4902SOL    HW226340   2.474   2.522   8.412  1.0702  1.0476 -2.1471
 4903SOL     OW26341   2.955   2.042  12.477  0.2157  0.0520 -0.3903
 4903SOL    HW126342   2.874   2.073  12.437  0.3080 -1.0486 -1.4282
 4903SOL    HW226343   2.991   2.123  12.513  0.9851  0.3563 -1.8518
 4904SOL     OW26344   4.394   3.624  10.515  0.6665 -0.0731 -0.3113
 4904SOL    HW126345   4.396   3.549  10.576  1.8247  1.0803  1.0723
 4904SOL    HW226346   4.488   3.628  10.497  0.5316 -0.7119 -1.1768
 4905SOL     OW26347   4.484   0.211  15.636  0.3867 -0.2134  0.2492
 4905SOL    HW126348   4.471   0.157  15.558  0.0518 -1.3234  1.0708
 4905SOL    HW226349   4.521   0.287  15.592  0.5325 -1.6993 -2.2049
 4906SOL     OW26350   4.077   1.877   4.437 -0.8053 -0.0182  0.5390
 4906SOL    HW126351   4.046   1.955   4.391 -0.4811 -0.6187 -0.7211
 4906SOL    HW226352   4.112   1.819   4.369  2.8917 -0.2158  2.5763
 4907SOL     OW26353   1.022   1.169   2.454  0.1265 -0.1728 -0.1590
 4907SOL    HW126354   1.047   1.230   2.385  0.3352  2.3017  2.0997
 4907SOL    HW226355   1.033   1.221   2.534  2.5392  0.0076 -0.6118
 4908SOL     OW26356   3.408   0.943   0.185 -0.3153  0.6115 -0.4134
 4908SOL    HW126357   3.477   0.920   0.123 -0.3569 -1.4436  0.3153
 4908SOL    HW226358   3.332   0.983   0.141 -0.2510  1.1839 -0.0096
 4909SOL     OW26359   0.116   4.119  16.342  0.6368  0.0896  0.2448
 4909SOL    HW126360   0.058   4.149  16.272  1.0148  0.2303 -0.0065
 4909SOL    HW226361   0.188   4.096  16.284  0.4542 -0.4390  0.2255
 4910SOL     OW26362   2.735   0.360   4.202  0.3565  0.3898  0.2881
 4910SOL    HW126363   2.793   0.299   4.157 -1.4565 -0.3318 -1.0850
 4910SOL    HW226364   2.802   0.409   4.249 -1.3574  3.4418 -0.4813
 4911SOL     OW26365   2.968   2.218  16.251  0.0022 -0.5362 -0.3900
 4911SOL    HW126366   2.973   2.153  16.181  2.3407  1.1182 -1.7682
 4911SOL    HW226367   2.945   2.293  16.195 -0.1660 -0.9018 -0.8138
 4912SOL     OW26368   0.740   3.404   5.113  0.0455  0.0183 -0.5620
 4912SOL    HW126369   0.822   3.438   5.078 -0.8489  1.2132 -1.5024
 4912SOL    HW226370   0.729   3.313   5.083  0.3897 -0.7417  1.6572
 4913SOL     OW26371   0.076   4.134  15.372  0.2202  0.2299  0.1499
 4913SOL    HW126372   0.123   4.051  15.376  1.3102  0.9063  1.5668
 4913SOL    HW226373   0.076   4.160  15.464  1.1518  1.2079 -0.1254
 4914SOL     OW26374   4.238   3.986   3.837 -0.2265  0.0264 -0.3699
 4914SOL    HW126375   4.271   4.016   3.752  0.6903  1.0378  0.3469
 4914SOL    HW226376   4.274   4.058   3.888 -0.5800  0.7265 -1.1222
 4915SOL     OW26377   1.796   0.173   5.203 -0.4662 -1.0349 -0.6607
 4915SOL    HW126378   1.784   0.100   5.264 -1.2723 -0.6576 -0.3750
 4915SOL    HW226379   1.708   0.209   5.216 -0.3256 -2.1433  3.4351
 4916SOL     OW26380   4.193   3.978  13.864 -0.1817  0.6590  0.0113
 4916SOL    HW126381   4.165   3.971  13.955 -1.6813  1.2353 -0.4163
 4916SOL    HW226382   4.109   3.951  13.827  1.7639 -2.6988 -1.9622
 4917SOL     OW26383   1.548   3.218   3.458  0.5154 -0.0036  0.0393
 4917SOL    HW126384   1.517   3.177   3.377 -0.7302  2.4061 -0.7087
 4917SOL    HW226385   1.536   3.309   3.431  0.7474  0.1159  0.3366
 4918SOL     OW26386   0.778   4.557   3.102  0.5036  0.3949 -0.5058
 4918SOL    HW126387   0.823   4.597   3.177 -0.1561 -1.5076  0.9143
 4918SOL    HW226388   0.687   4.564   3.129 -0.1807 -1.4607 -2.4101
 4919SOL     OW26389   0.337   0.352   8.906 -0.3041 -0.4627 -0.1341
 4919SOL    HW126390   0.272   0.413   8.872  0.6807  1.2358  1.0081
 4919SOL    HW226391   0.411   0.402   8.873 -2.1146  0.0163 -3.4280
 4920SOL     OW26392   3.980   2.217  14.594 -0.4997  0.3117  0.0515
 4920SOL    HW126393   4.068   2.254  14.601 -0.3784  0.1341 -0.5257
 4920SOL    HW226394   3.941   2.301  14.570 -0.0172  0.5257  0.0096
 4921SOL     OW26395   0.892   2.678   8.324 -0.0780  0.1321 -0.6111
 4921SOL    HW126396   0.856   2.656   8.238  3.1895 -0.6638 -1.7536
 4921SOL    HW226397   0.812   2.680   8.377  0.8243  0.8890  0.7393
 4922SOL     OW26398   4.713   0.501   7.607  0.2895  0.6169  0.3092
 4922SOL    HW126399   0.011   0.591   7.611 -1.1679  1.2187 -1.3476
 4922SOL    HW226400   0.045   0.448   7.651  0.3826 -0.2848 -0.8918
 4923SOL     OW26401   4.218   3.525   4.957  0.4112  0.0793 -0.2163
 4923SOL    HW126402   4.306   3.512   4.991  0.6313 -2.6853 -1.8202
 4923SOL    HW226403   4.227   3.615   4.925  1.6422 -1.0369 -3.0548
 4924SOL     OW26404   3.263   0.594   8.897  0.0484  0.2668 -0.5085
 4924SOL    HW126405   3.292   0.539   8.970 -0.2929 -1.1294 -1.4137
 4924SOL    HW226406   3.198   0.543   8.848  0.3248  0.6503 -1.2766
 4925SOL     OW26407   0.211   1.448   1.918 -0.1585  0.2935  0.3705
 4925SOL    HW126408   0.266   1.491   1.983  0.7869  1.3018 -1.0999
 4925SOL    HW226409   0.179   1.369   1.962 -0.3759 -0.4370 -1.0822
 4926SOL     OW26410   1.802   1.156   9.097  0.6560 -0.0781  0.0862
 4926SOL    HW126411   1.791   1.067   9.132  1.6801  1.4488  4.2958
 4926SOL    HW226412   1.749   1.211   9.155  0.1270  0.7469 -1.1890
 4927SOL     OW26413   0.281   0.645   3.480 -0.8503  0.2341 -0.1765
 4927SOL    HW126414   0.311   0.557   3.456 -0.7020  0.4636 -0.8424
 4927SOL    HW226415   0.336   0.695   3.419 -2.4520  1.6815 -0.4124
 4928SOL     OW26416   3.368   4.690   1.094 -0.0800  0.3073  0.0168
 4928SOL    HW126417   3.402   0.022   1.154  1.2617  0.4648 -0.9073
 4928SOL    HW226418   3.443   4.691   1.035 -0.3182 -1.3348 -0.3247
 4929SOL     OW26419   3.820   3.434  17.539  0.0464  0.2585  0.4269
 4929SOL    HW126420   3.784   3.377  17.471  0.7842 -0.6607  0.7856
 4929SOL    HW226421   3.899   3.480  17.510 -1.0423  1.4815 -0.5857
 4930SOL     OW26422   1.969   4.368   1.512 -0.3239  0.0770  0.0579
 4930SOL    HW126423   1.998   4.277   1.526 -1.4441 -0.5086 -1.5204
 4930SOL    HW226424   1.970   4.387   1.419 -1.0254 -0.2603 -0.0166
 4931SOL     OW26425   2.264   1.755   3.713  0.0434 -0.0310 -0.7281
 4931SOL    HW126426   2.213   1.836   3.710  0.0726  0.0285  0.1375
 4931SOL    HW226427   2.340   1.773   3.657 -0.9951  1.8205 -1.5431
 4932SOL     OW26428   2.181   1.892   7.396 -0.0111  0.0264 -0.1941
 4932SOL    HW126429   2.123   1.843   7.337  0.4039  1.2299 -1.6018
 4932SOL    HW226430   2.187   1.837   7.474 -0.5507  0.2724  0.0248
 4933SOL     OW26431   4.415   1.213   2.274 -0.2785  0.1148  0.7672
 4933SOL    HW126432   4.497   1.188   2.317 -0.6274 -1.5020  0.4944
 4933SOL    HW226433   4.351   1.160   2.323  1.6582 -3.4862 -0.6105
 4934SOL     OW26434   3.707   4.095   2.728  0.4214 -0.2851 -1.2269
 4934SOL    HW126435   3.714   4.188   2.745 -0.6104 -0.3083 -0.6595
 4934SOL    HW226436   3.730   4.084   2.635 -0.1775 -3.1641 -1.0441
 4935SOL     OW26437   1.861   4.132  14.427  0.6961 -0.0077  0.1568
 4935SOL    HW126438   1.930   4.067  14.435 -0.0253 -0.8672 -0.5670
 4935SOL    HW226439   1.884   4.180  14.347  1.2950  3.2513  2.2783
 4936SOL     OW26440   1.086   3.453   9.165 -0.1278  0.4578  0.3913
 4936SOL    HW126441   1.092   3.470   9.260  0.6224 -0.0164  0.4286
 4936SOL    HW226442   1.136   3.372   9.173 -1.3259 -0.2856  0.2864
 4937SOL     OW26443   3.825   2.658   1.963  0.0869 -0.6513  0.8465
 4937SOL    HW126444   3.877   2.671   2.042  4.7923  0.3250 -2.3578
 4937SOL    HW226445   3.794   2.747   1.946 -2.8525 -1.9535 -0.5739
 4938SOL     OW26446   2.044   3.097  10.455 -0.3954 -0.0208  0.7892
 4938SOL    HW126447   2.059   3.143  10.372  3.7183 -2.9377 -0.1170
 4938SOL    HW226448   2.052   3.010  10.416 -0.2120  1.8271 -3.2733
 4939SOL     OW26449   0.827   3.152   2.437 -0.0073 -0.1569  0.0807
 4939SOL    HW126450   0.918   3.151   2.410 -0.2001 -0.5826 -0.5465
 4939SOL    HW226451   0.794   3.062   2.436 -0.8812  0.1739 -0.8189
 4940SOL     OW26452   4.285   2.547  10.543 -0.4533  0.1196  0.2834
 4940SOL    HW126453   4.372   2.510  10.556 -1.1055 -1.0946  1.1810
 4940SOL    HW226454   4.311   2.595  10.465  1.3700  1.1346  1.5276
 4941SOL     OW26455   1.902   4.157   2.015 -0.0352 -0.1130  0.0607
 4941SOL    HW126456   1.962   4.083   2.025 -1.3028 -1.3365 -1.4208
 4941SOL    HW226457   1.833   4.136   2.079 -0.3397 -0.5109 -0.4033
 4942SOL     OW26458   4.199   4.496   4.066  0.1280 -0.1803 -0.6257
 4942SOL    HW126459   4.135   4.436   4.027  0.1583  0.1866 -1.2417
 4942SOL    HW226460   4.174   4.503   4.158  2.2647  0.9733 -0.1429
 4943SOL     OW26461   4.599   0.052   3.959 -0.6273 -0.3831 -0.3971
 4943SOL    HW126462   4.584   4.692   3.953 -3.3480  0.0134  0.1425
 4943SOL    HW226463   4.610   0.053   4.054  1.2740 -0.9714 -0.6132
 4944SOL     OW26464   4.390   2.402   8.541 -0.5492  0.6268 -1.2104
 4944SOL    HW126465   4.330   2.432   8.609  1.2796  1.6769 -0.0259
 4944SOL    HW226466   4.436   2.482   8.516  2.7450 -1.4621 -1.8676
 4945SOL     OW26467   4.662   1.243   9.737  0.1966 -0.4848  0.0664
 4945SOL    HW126468   4.654   1.251   9.642 -3.1011  1.4773  0.5074
 4945SOL    HW226469   4.651   1.151   9.761  2.0424 -0.9799 -0.9373
 4946SOL     OW26470   3.907   2.123   1.110  0.0696  0.3299 -0.2507
 4946SOL    HW126471   3.988   2.167   1.135  1.0535 -0.6915 -1.5972
 4946SOL    HW226472   3.907   2.034   1.147 -1.4101  0.8070  0.9150
 4947SOL     OW26473   0.441   3.657   0.760 -0.0366  0.7461 -0.0412
 4947SOL    HW126474   0.367   3.607   0.793  0.9324 -0.4527  0.3242
 4947SOL    HW226475   0.518   3.632   0.811 -1.2613 -1.7320  0.5349
 4948SOL     OW26476   0.946   4.092   4.213  0.5691 -0.3015 -0.7704
 4948SOL    HW126477   0.908   4.005   4.205 -0.4952  0.1640 -0.7927
 4948SOL    HW226478   0.863   4.138   4.199  0.6886  0.3357  0.6239
 4949SOL     OW26479   2.216   4.342   3.098  0.6157 -0.3117 -0.3877
 4949SOL    HW126480   2.284   4.354   3.164  0.4788  3.1421 -0.8545
 4949SOL    HW226481   2.206   4.247   3.099  3.9027 -0.6361  0.9938
 4950SOL     OW26482   1.558   3.670   7.513 -0.5132 -0.3691 -0.2638
 4950SOL    HW126483   1.618   3.706   7.578 -0.4394 -1.7719  0.4389
 4950SOL    HW226484   1.566   3.740   7.449  0.3255  0.4306  0.7182
 4951SOL     OW26485   0.437   2.070  13.079  0.2664  0.6637  0.1771
 4951SOL    HW126486   0.377   2.031  13.015  2.3685 -0.9752 -0.7661
 4951SOL    HW226487   0.472   2.146  13.033  1.1895  0.7244  0.9850
 4952SOL     OW26488   2.046   4.504   3.612 -0.3381 -0.4429  0.6547
 4952SOL    HW126489   2.030   4.530   3.702 -1.1015  1.2027  0.0467
 4952SOL    HW226490   1.990   4.428   3.599 -1.2587  0.0596  1.7461
 4953SOL     OW26491   3.591   2.390   7.355  0.1124 -0.4848  0.2542
 4953SOL    HW126492   3.515   2.416   7.407 -0.6112 -0.6287 -0.7276
 4953SOL    HW226493   3.560   2.308   7.317  0.5734 -0.8080  0.5810
 4954SOL     OW26494   2.715   4.704   6.131 -0.3895  0.2157  0.0928
 4954SOL    HW126495   2.807   4.729   6.144  0.4473 -1.1566 -3.1957
 4954SOL    HW226496   2.722   4.612   6.155 -0.9374  0.2254  0.2799
 4955SOL     OW26497   0.057   2.892   1.873  0.1736  0.3871 -0.0302
 4955SOL    HW126498   0.125   2.915   1.937  0.8116  0.9048 -0.8843
 4955SOL    HW226499   4.719   2.857   1.925  0.9967  0.0525  0.8953
 4956SOL     OW26500   1.887   4.375  11.616  0.0009  0.1170 -0.3472
 4956SOL    HW126501   1.964   4.432  11.609 -0.3513  0.6970  0.5175
 4956SOL    HW226502   1.864   4.365  11.524 -0.3810 -0.5886 -0.1734
 4957SOL     OW26503   1.852   0.855  10.118 -0.1433 -0.1029  0.3350
 4957SOL    HW126504   1.847   0.783  10.055 -1.3898  0.8450 -0.6557
 4957SOL    HW226505   1.886   0.816  10.198 -1.7801 -0.4141  0.8773
 4958SOL     OW26506   3.195   2.808   0.642  0.3225 -0.3953 -0.0831
 4958SOL    HW126507   3.119   2.848   0.600  0.8082  0.6276  0.0088
 4958SOL    HW226508   3.146   2.738   0.685 -1.6213  1.0979  0.1574
 4959SOL     OW26509   3.910   3.050   5.949 -0.1155 -0.1561 -0.2530
 4959SOL    HW126510   3.945   3.123   6.000  2.5734 -0.9979 -0.8537
 4959SOL    HW226511   3.880   3.001   6.025 -0.9545  0.9030  0.0944
 4960SOL     OW26512   2.484   1.806   6.744 -0.1167 -0.0384 -0.1253
 4960SOL    HW126513   2.492   1.711   6.752  1.6953  0.1658  0.5756
 4960SOL    HW226514   2.548   1.823   6.814 -1.2261 -1.2206  1.1756
 4961SOL     OW26515   1.197   3.718  11.905  0.2845 -0.2002  0.2251
 4961SOL    HW126516   1.239   3.804  11.905 -1.5537  0.6883  0.8416
 4961SOL    HW226517   1.190   3.703  11.999 -0.7954  0.9482  0.3175
 4962SOL     OW26518   2.636   2.675   6.836  0.0014 -0.0585  0.7135
 4962SOL    HW126519   2.584   2.748   6.869 -0.2282  0.1448 -0.1116
 4962SOL    HW226520   2.567   2.609   6.839  0.4477 -0.5384  0.5227
 4963SOL     OW26521   3.189   2.333   4.745 -0.0290 -0.1464  0.2509
 4963SOL    HW126522   3.236   2.307   4.666 -2.9691  1.7245 -2.1061
 4963SOL    HW226523   3.247   2.406   4.768  0.3573 -0.7861  1.3154
 4964SOL     OW26524   0.527   3.417  15.968  0.2572  0.1620  0.3512
 4964SOL    HW126525   0.478   3.498  15.952 -0.6762 -0.9894 -2.5408
 4964SOL    HW226526   0.607   3.452  16.008  1.0173  0.0974 -1.1144
 4965SOL     OW26527   1.230   0.637   8.496  0.1851 -0.5748  0.0103
 4965SOL    HW126528   1.286   0.643   8.418  1.6872 -1.6503  1.0168
 4965SOL    HW226529   1.295   0.617   8.563 -1.1287  1.2051  1.8250
 4966SOL     OW26530   0.917   4.663   2.518 -0.4348  0.2680  0.2758
 4966SOL    HW126531   0.973   4.734   2.485 -2.8817  2.0850 -0.0197
 4966SOL    HW226532   0.957   4.647   2.603 -0.4266 -0.2363  0.1744
 4967SOL     OW26533   2.607   2.207   8.378  0.0831 -0.3099  0.2618
 4967SOL    HW126534   2.674   2.275   8.370  0.5006 -0.6684  0.7346
 4967SOL    HW226535   2.578   2.200   8.287  2.1194 -1.0213 -0.3264
 4968SOL     OW26536   3.476   4.392  14.144 -0.2562 -0.0117 -0.1633
 4968SOL    HW126537   3.521   4.427  14.221  1.2911 -1.7026 -0.2774
 4968SOL    HW226538   3.525   4.432  14.072 -0.1564 -0.2063 -0.2030
 4969SOL     OW26539   4.675   3.293   2.790 -0.0205 -0.5052 -0.4177
 4969SOL    HW126540   4.712   3.365   2.840  0.1152 -0.0767 -1.1457
 4969SOL    HW226541   4.650   3.320   2.702 -0.0667  0.3068 -0.1590
 4970SOL     OW26542   1.879   2.142   7.926  0.0547 -0.3573  0.1138
 4970SOL    HW126543   1.954   2.115   7.979 -1.3692 -1.0748  1.7800
 4970SOL    HW226544   1.812   2.143   7.994 -0.2818  0.6257 -0.2337
 4971SOL     OW26545   3.917   1.600  13.214  0.0698  0.3996  0.5129
 4971SOL    HW126546   3.865   1.673  13.179  1.2147  1.1089  0.2718
 4971SOL    HW226547   3.982   1.647  13.267 -0.5336  0.0016  1.5940
 4972SOL     OW26548   2.755   3.515   4.303 -0.4988 -0.1254  0.1037
 4972SOL    HW126549   2.726   3.440   4.251 -0.1274 -0.9236  1.0533
 4972SOL    HW226550   2.797   3.564   4.232  1.0560 -0.6980  0.6319
 4973SOL     OW26551   4.389   1.607   7.428 -0.3130  0.0310 -0.4073
 4973SOL    HW126552   4.403   1.632   7.520  0.2536 -3.1039  0.3481
 4973SOL    HW226553   4.388   1.694   7.388 -0.8936  0.0714 -0.3005
 4974SOL     OW26554   2.206   1.164  15.915 -0.3399 -0.3579  0.0371
 4974SOL    HW126555   2.235   1.255  15.918  0.4706 -0.5136 -2.7127
 4974SOL    HW226556   2.115   1.170  15.942  0.0192  0.3634  1.0367
 4975SOL     OW26557   1.641   3.534   8.246  0.4596  1.2597  0.6114
 4975SOL    HW126558   1.637   3.575   8.333  0.2241  0.7758  0.8285
 4975SOL    HW226559   1.551   3.530   8.215  0.4257 -0.9351  0.9996
 4976SOL     OW26560   4.532   3.719   8.421 -0.1084 -0.1483  0.0256
 4976SOL    HW126561   4.533   3.814   8.421 -2.1717 -0.1082  0.4194
 4976SOL    HW226562   4.567   3.694   8.507 -0.7132 -1.8844 -0.2177
 4977SOL     OW26563   1.637   0.744   8.343  0.6005  0.7249 -0.2315
 4977SOL    HW126564   1.621   0.668   8.288  0.9429 -0.0793  0.7830
 4977SOL    HW226565   1.691   0.705   8.412 -0.6563  0.6692  0.7198
 4978SOL     OW26566   4.366   0.809   4.724  0.0886 -0.1766  0.0839
 4978SOL    HW126567   4.434   0.743   4.739  2.2062  2.3070  1.3493
 4978SOL    HW226568   4.359   0.793   4.630  1.8218  0.2524 -0.1193
 4979SOL     OW26569   3.610   4.069   3.915  0.1405 -0.3390 -0.2619
 4979SOL    HW126570   3.634   3.976   3.915  2.4127  0.2481  0.2367
 4979SOL    HW226571   3.581   4.081   4.006 -0.1234  1.3974 -0.5812
 4980SOL     OW26572   2.031   3.345   1.590  0.6485  0.1167  0.1245
 4980SOL    HW126573   2.094   3.405   1.549 -2.1803  2.1346 -1.3238
 4980SOL    HW226574   1.967   3.314   1.526  1.3520 -2.3233  0.6276
 4981SOL     OW26575   3.427   3.838  17.005  0.8136  0.1203  0.2728
 4981SOL    HW126576   3.478   3.792  17.072  0.1918  0.1449  0.7601
 4981SOL    HW226577   3.468   3.803  16.925  1.0462 -2.5086  1.5295
 4982SOL     OW26578   2.211   2.927   3.967  0.0019 -0.8043  0.1186
 4982SOL    HW126579   2.137   2.878   4.004 -0.2283  0.0493  0.7967
 4982SOL    HW226580   2.193   2.916   3.874  0.7756  2.8851 -0.4769
 4983SOL     OW26581   0.543   0.256  11.486 -0.6986  0.4173  0.3187
 4983SOL    HW126582   0.511   0.187  11.428  1.5709  0.9260 -1.5152
 4983SOL    HW226583   0.457   0.291  11.511 -0.4946 -0.4853  2.2433
 4984SOL     OW26584   2.316   4.297   1.581  0.1483 -0.5141 -0.0878
 4984SOL    HW126585   2.389   4.236   1.579  1.1842  0.7719 -1.1297
 4984SOL    HW226586   2.257   4.259   1.515  0.2365  1.0500 -1.0788
 4985SOL     OW26587   3.858   4.255   5.121  0.4004 -0.0198  0.0513
 4985SOL    HW126588   3.864   4.321   5.190  0.7057 -0.5767  0.5644
 4985SOL    HW226589   3.885   4.301   5.042  2.6123 -0.9048  0.2739
 4986SOL     OW26590   0.857   1.376  16.892 -0.1496 -0.1990  0.1666
 4986SOL    HW126591   0.880   1.469  16.902 -0.0863 -0.0631 -1.1634
 4986SOL    HW226592   0.765   1.378  16.920 -0.4469 -0.5642 -0.7750
 4987SOL     OW26593   2.367   3.703   8.292 -0.1257  0.4136  0.2031
 4987SOL    HW126594   2.282   3.679   8.256 -0.2270 -0.8572  1.3075
 4987SOL    HW226595   2.423   3.630   8.265 -1.8851 -0.7517 -0.2300
 4988SOL     OW26596   4.382   3.661   5.587 -0.1724  0.6824  0.1937
 4988SOL    HW126597   4.288   3.649   5.597 -0.2353  0.4371 -0.6566
 4988SOL    HW226598   4.402   3.594   5.521  0.2782 -0.9158  1.9756
 4989SOL     OW26599   3.104   0.466   8.714  0.5803  0.2903 -0.2269
 4989SOL    HW126600   3.017   0.498   8.688 -0.4938  0.2989  3.3655
 4989SOL    HW226601   3.096   0.379   8.675 -2.4787  0.4802 -0.0234
 4990SOL     OW26602   0.528   4.676   5.394  0.5059  0.3055 -0.4005
 4990SOL    HW126603   0.594   4.625   5.347 -1.4407 -1.3043 -1.3677
 4990SOL    HW226604   0.562   4.672   5.483  1.6585  2.7639 -0.7186
 4991SOL     OW26605   2.876   2.975   4.759 -0.2064 -0.3364  0.2391
 4991SOL    HW126606   2.821   3.049   4.734 -1.0561 -0.5863  1.3378
 4991SOL    HW226607   2.817   2.900   4.763 -0.7424  0.0774 -0.0386
 4992SOL     OW26608   1.486   3.182   0.711  0.0335 -0.1803  0.1681
 4992SOL    HW126609   1.415   3.119   0.706 -0.7310  0.8121 -1.3733
 4992SOL    HW226610   1.552   3.146   0.770  0.3335 -0.5632 -0.3978
 4993SOL     OW26611   3.178   1.251   9.912 -0.8567  0.0803  0.3061
 4993SOL    HW126612   3.271   1.236   9.894 -0.6797 -0.0112  1.3297
 4993SOL    HW226613   3.150   1.275   9.823  1.1949  1.8987  0.1466
 4994SOL     OW26614   0.357   3.542  15.347  0.2275  0.0955  0.0420
 4994SOL    HW126615   0.402   3.626  15.343 -1.8252  1.2964  2.6179
 4994SOL    HW226616   0.362   3.531  15.442  1.7175  1.2216  0.0869
 4995SOL     OW26617   3.729   1.253  17.692 -0.0084  0.0831 -0.3633
 4995SOL    HW126618   3.648   1.231   0.003 -0.2144  0.3667 -0.5924
 4995SOL    HW226619   3.718   1.346  17.710  2.4763  0.3260 -0.1049
 4996SOL     OW26620   3.696   1.927   3.152 -0.2964 -0.1738 -0.4696
 4996SOL    HW126621   3.706   1.982   3.229 -0.2747 -0.9708  0.1016
 4996SOL    HW226622   3.610   1.945   3.113 -1.6090 -1.0417  2.0255
 4997SOL     OW26623   0.014   3.365  17.669  0.1954 -0.2406 -0.0497
 4997SOL    HW126624   0.067   3.295  17.708  0.0876 -2.3587 -3.6694
 4997SOL    HW226625   4.687   3.378   0.006  1.1849 -1.1112  0.9437
 4998SOL     OW26626   1.590   3.675  13.085  0.6198 -0.2544 -0.9049
 4998SOL    HW126627   1.658   3.689  13.151  0.0330 -1.4289 -0.0507
 4998SOL    HW226628   1.634   3.704  13.005  2.3539 -0.5655 -0.0761
 4999SOL     OW26629   1.300   2.119  15.565  0.1864 -0.2992  0.1220
 4999SOL    HW126630   1.205   2.128  15.558  0.0491 -1.3274  0.5799
 4999SOL    HW226631   1.335   2.150  15.481 -0.0312  2.4323  1.0355
 5000SOL     OW26632   2.513   0.256   1.142  0.0079 -0.3025  0.3004
 5000SOL    HW126633   2.435   0.309   1.159 -0.1396 -0.8595  1.3364
 5000SOL    HW226634   2.531   0.227   1.231  1.0919 -0.6755 -0.0350
 5001SOL     OW26635   3.824   3.145   1.838  0.1434  0.3445 -0.5101
 5001SOL    HW126636   3.769   3.155   1.915  1.0679 -2.4911  0.5198
 5001SOL    HW226637   3.899   3.098   1.875  0.5457 -0.3390 -2.2030
 5002SOL     OW26638   0.257   0.601  13.456 -0.2874 -0.4161  0.0227
 5002SOL    HW126639   0.229   0.557  13.375  2.2877  0.0791 -1.1264
 5002SOL    HW226640   0.176   0.598  13.506  1.3126 -1.5687  2.5418
 5003SOL     OW26641   1.666   4.408   7.987  0.3685 -0.0553  0.1240
 5003SOL    HW126642   1.747   4.409   7.936  0.8019 -0.0168  0.8081
 5003SOL    HW226643   1.691   4.483   8.042 -2.0858  0.2602  0.7896
 5004SOL     OW26644   2.493   3.472   8.244 -0.4094  0.7362  0.0259
 5004SOL    HW126645   2.559   3.435   8.303 -1.5469 -1.8225 -0.2989
 5004SOL    HW226646   2.476   3.394   8.191  0.7764  0.7993 -0.4428
 5005SOL     OW26647   3.091   1.538   4.692 -0.8315  0.3501  0.1787
 5005SOL    HW126648   3.031   1.514   4.762  1.3170 -0.4225  1.7738
 5005SOL    HW226649   3.119   1.449   4.667 -0.6673 -0.1784  2.2360
 5006SOL     OW26650   2.117   1.933   4.318  0.3390 -0.1939 -0.1141
 5006SOL    HW126651   2.055   2.000   4.348 -1.5850 -0.7279 -2.9003
 5006SOL    HW226652   2.136   1.882   4.397  0.9420 -0.9601 -0.7575
 5007SOL     OW26653   3.699   1.721  16.269 -0.7097 -0.2240 -0.5925
 5007SOL    HW126654   3.771   1.760  16.219  0.5283  0.8460  2.0332
 5007SOL    HW226655   3.730   1.745  16.356 -0.6738 -0.5148 -0.5267
 5008SOL     OW26656   3.399   1.375   3.125  0.2422  0.2512 -0.5891
 5008SOL    HW126657   3.421   1.454   3.174 -0.5581 -0.1826  0.4780
 5008SOL    HW226658   3.482   1.329   3.131 -0.6578 -1.1405  1.2058
 5009SOL     OW26659   1.684   0.256   6.041  0.2602 -0.2751 -0.0416
 5009SOL    HW126660   1.774   0.253   6.073  0.0730  1.6137  0.6193
 5009SOL    HW226661   1.641   0.219   6.119 -0.7379 -0.9094 -0.8848
 5010SOL     OW26662   0.248   0.611  12.218  0.2640  0.3325  0.1628
 5010SOL    HW126663   0.186   0.669  12.260 -1.4335 -2.0323  0.8990
 5010SOL    HW226664   0.267   0.668  12.143 -0.6204 -1.7246 -1.6200
 5011SOL     OW26665   2.286   4.159   6.053 -0.3535  0.5432 -0.0525
 5011SOL    HW126666   2.293   4.142   5.959 -1.6820  0.6849 -0.1725
 5011SOL    HW226667   2.313   4.250   6.063 -2.6175  1.0534  1.2281
 5012SOL     OW26668   2.152   3.037   7.316  0.3472 -0.2979 -0.3307
 5012SOL    HW126669   2.132   3.029   7.222  1.7578 -1.9719 -0.4820
 5012SOL    HW226670   2.075   3.082   7.350 -0.4711 -0.0973 -2.4528
 5013SOL     OW26671   0.686   3.589  11.675 -0.2789  0.4336 -0.3230
 5013SOL    HW126672   0.674   3.540  11.756  0.3742 -0.9684 -1.0861
 5013SOL    HW226673   0.776   3.621  11.682 -0.2131  0.2645 -0.3997
 5014SOL     OW26674   1.376   1.333   7.667  0.7189 -0.0855 -0.2242
 5014SOL    HW126675   1.352   1.260   7.724 -0.2533  1.4365  1.3152
 5014SOL    HW226676   1.387   1.405   7.729  3.4354 -0.2381 -0.5391
 5015SOL     OW26677   0.119   1.695   7.454  0.4034 -0.1855  0.3695
 5015SOL    HW126678   0.177   1.658   7.387  0.0298 -0.5630  0.2558
 5015SOL    HW226679   0.167   1.773   7.484  0.3233  0.4022 -1.0567
 5016SOL     OW26680   2.328   1.299  13.706 -0.1495 -0.2685  0.4418
 5016SOL    HW126681   2.274   1.340  13.773  0.2748  1.3280 -0.1691
 5016SOL    HW226682   2.276   1.237  13.655 -0.1104 -0.2710  0.4044
 5017SOL     OW26683   1.737   0.484   3.399  0.1311 -0.5915 -0.6482
 5017SOL    HW126684   1.696   0.397   3.395  0.8305 -0.9823  0.7468
 5017SOL    HW226685   1.813   0.465   3.454 -0.9841 -0.8552  0.7890
 5018SOL     OW26686   2.780   1.416   7.927 -0.6919  0.0072 -0.3970
 5018SOL    HW126687   2.713   1.484   7.922 -0.5487  0.1216 -0.7677
 5018SOL    HW226688   2.723   1.342   7.904 -2.1949  0.6827  1.1812
 5019SOL     OW26689   3.118   2.877  11.771  0.1669  0.4682  0.0240
 5019SOL    HW126690   3.102   2.939  11.842 -0.2134 -0.4187  0.7171
 5019SOL    HW226691   3.058   2.910  11.704 -0.8312 -0.1729  0.5995
 5020SOL     OW26692   0.555   3.789  13.483 -0.0967 -0.6663  0.1315
 5020SOL    HW126693   0.640   3.833  13.482 -0.2191 -0.3624  3.6185
 5020SOL    HW226694   0.504   3.862  13.449  1.5142 -0.0407 -0.9572
 5021SOL     OW26695   3.498   1.278   6.099  0.3357 -0.1151  0.1215
 5021SOL    HW126696   3.482   1.259   6.007 -1.0531 -0.0683  0.3542
 5021SOL    HW226697   3.589   1.246   6.096  0.9802  1.6314  0.7955
 5022SOL     OW26698   2.908   3.481  11.229 -0.1256  0.1475  0.0227
 5022SOL    HW126699   2.847   3.530  11.173  0.1153  0.1803 -0.2077
 5022SOL    HW226700   2.853   3.410  11.262 -0.5772  1.7387  2.6527
 5023SOL     OW26701   4.323   4.333   3.294 -0.3113  0.2395 -0.1483
 5023SOL    HW126702   4.381   4.403   3.265 -1.2530  0.8204 -0.6214
 5023SOL    HW226703   4.381   4.281   3.349 -0.0933 -0.9902 -1.5709
 5024SOL     OW26704   4.553   3.657   2.281  0.2836  0.4589 -0.2053
 5024SOL    HW126705   4.488   3.590   2.259  1.5184 -0.1120 -2.1690
 5024SOL    HW226706   4.513   3.710   2.349  2.0388 -0.2892  1.3966
 5025SOL     OW26707   3.727   0.251   1.702  0.0594  0.5272 -0.1215
 5025SOL    HW126708   3.667   0.288   1.768  0.0078 -0.6185  0.4668
 5025SOL    HW226709   3.700   0.287   1.618  3.9927  1.6015 -0.9222
 5026SOL     OW26710   3.956   2.286   4.451  0.2812  0.5041  0.3396
 5026SOL    HW126711   4.033   2.233   4.472  0.0641  0.1537  0.2422
 5026SOL    HW226712   3.939   2.260   4.360 -1.2136  0.6781  0.5684
 5027SOL     OW26713   0.815   2.927   2.084 -0.2850 -0.3737  0.2215
 5027SOL    HW126714   0.909   2.916   2.068 -0.3582  0.1364 -0.5484
 5027SOL    HW226715   0.775   2.919   1.998  0.3794  1.8119 -0.3094
 5028SOL     OW26716   3.193   0.663   1.616  0.7182 -0.6692 -0.3382
 5028SOL    HW126717   3.156   0.697   1.535 -1.0191 -1.0927  0.2885
 5028SOL    HW226718   3.253   0.734   1.638  0.1900 -0.5413  0.6756
 5029SOL     OW26719   0.820   1.024  10.366 -0.0050 -0.1254 -0.2591
 5029SOL    HW126720   0.856   0.949  10.413  1.0061  0.4817 -0.0717
 5029SOL    HW226721   0.801   1.088  10.435  2.5496  2.1825 -1.6805
 5030SOL     OW26722   1.828   2.246   7.204 -0.5070 -0.3810 -0.7798
 5030SOL    HW126723   1.873   2.309   7.261 -1.2775  0.0360 -0.6350
 5030SOL    HW226724   1.852   2.167   7.251  0.0355 -1.0878 -2.2461
 5031SOL     OW26725   0.455   3.368   0.798  0.2267  0.1101  0.0274
 5031SOL    HW126726   0.409   3.307   0.740 -1.2882 -0.0224  1.3436
 5031SOL    HW226727   0.379   3.417   0.830 -0.8631 -1.4075 -0.2100
 5032SOL     OW26728   1.323   3.776   4.088  0.0717 -0.1129  0.0739
 5032SOL    HW126729   1.276   3.731   4.157  2.1201  0.5541  1.9032
 5032SOL    HW226730   1.257   3.754   4.022  0.0085  0.6717 -0.1241
 5033SOL     OW26731   3.006   1.384   9.734 -0.5033  0.0917 -0.1418
 5033SOL    HW126732   2.975   1.475   9.737 -2.3135 -0.5739  2.2556
 5033SOL    HW226733   2.990   1.357   9.644  0.4700 -0.8716 -0.0264
 5034SOL     OW26734   4.642   1.642  11.094 -0.1142  0.8360 -0.1386
 5034SOL    HW126735   4.721   1.685  11.126  1.1104 -0.2217 -1.7421
 5034SOL    HW226736   4.572   1.692  11.136  0.6518 -0.0704  2.2636
 5035SOL     OW26737   2.899   1.117   0.759  0.8051  0.0387 -0.0361
 5035SOL    HW126738   2.889   1.071   0.676  0.4310 -1.7424  0.9936
 5035SOL    HW226739   2.899   1.211   0.743  1.6659 -0.0664 -0.6861
 5036SOL     OW26740   1.011   0.544   4.488 -0.0102  0.0991 -0.1864
 5036SOL    HW126741   1.089   0.561   4.540  0.3701  1.0543 -1.0817
 5036SOL    HW226742   1.044   0.490   4.416 -0.0434  1.5037 -1.2512
 5037SOL     OW26743   1.955   2.177   4.025 -0.0620 -0.1447 -0.3556
 5037SOL    HW126744   1.918   2.159   3.938  1.0122 -1.2583 -0.5789
 5037SOL    HW226745   2.036   2.129   4.041 -0.3299 -0.2501  0.6670
 5038SOL     OW26746   4.485   2.699  11.508 -0.3540  0.2618  0.3885
 5038SOL    HW126747   4.428   2.774  11.490 -1.1854  0.2097  2.8027
 5038SOL    HW226748   4.430   2.623  11.490  0.1867 -0.5145  2.0514
 5039SOL     OW26749   1.110   1.260  14.422  0.2410  0.1891  0.0508
 5039SOL    HW126750   1.160   1.312  14.485  2.3867  0.1781 -1.6103
 5039SOL    HW226751   1.055   1.207  14.480  0.5954  1.4537  1.5388
 5040SOL     OW26752   3.263   4.124   4.760  0.3550  0.4693 -0.4536
 5040SOL    HW126753   3.293   4.049   4.811  0.0958  0.3746 -0.4419
 5040SOL    HW226754   3.344   4.175   4.763  1.6393 -1.6444  0.4932
 5041SOL     OW26755   0.699   4.091   7.058  0.0473 -0.0720  0.0753
 5041SOL    HW126756   0.721   4.044   7.139 -1.6351  1.3849  1.3589
 5041SOL    HW226757   0.698   4.182   7.088  2.3668 -0.5159  1.5583
 5042SOL     OW26758   2.445   2.469   4.804 -0.4869 -0.0619 -0.7524
 5042SOL    HW126759   2.434   2.426   4.719  0.5305 -0.1313 -0.8410
 5042SOL    HW226760   2.494   2.398   4.846  1.5089  2.2800  0.8286
 5043SOL     OW26761   0.131   2.313  13.659  0.6815  0.2505 -0.0088
 5043SOL    HW126762   0.092   2.396  13.686  0.0262  0.7479 -2.4299
 5043SOL    HW226763   0.142   2.328  13.565 -1.0876 -1.5403 -0.4963
 5044SOL     OW26764   0.638   3.310   2.310  0.6351 -0.1455 -0.0240
 5044SOL    HW126765   0.701   3.318   2.239  0.2963 -1.0459 -0.4272
 5044SOL    HW226766   0.699   3.271   2.372 -0.9601 -1.2574  0.8290
 5045SOL     OW26767   1.525   3.143   8.103  0.6297  0.2592 -0.4218
 5045SOL    HW126768   1.582   3.195   8.158  0.8915  0.0288 -0.4750
 5045SOL    HW226769   1.544   3.053   8.131 -1.0073  0.2441  0.6922
 5046SOL     OW26770   2.300   1.628   4.990  0.1923 -0.0479 -0.1096
 5046SOL    HW126771   2.394   1.611   4.995 -0.0793 -1.3256  0.7729
 5046SOL    HW226772   2.264   1.561   5.048 -0.0270 -2.4969 -3.0417
 5047SOL     OW26773   2.166   4.558   9.285 -0.1679 -0.5197  0.7389
 5047SOL    HW126774   2.259   4.580   9.279 -0.4567  0.3302 -0.6178
 5047SOL    HW226775   2.175   4.471   9.246  1.1796 -0.1215  0.1658
 5048SOL     OW26776   2.061   0.302  15.161  0.1446 -0.1670  0.3825
 5048SOL    HW126777   2.052   0.223  15.214  2.0076 -0.8901 -0.4100
 5048SOL    HW226778   2.155   0.318  15.160  0.3062 -1.0963  0.6237
 5049SOL     OW26779   3.947   0.515  12.019 -0.0352 -0.4608  0.0881
 5049SOL    HW126780   3.977   0.551  12.102  0.5307  0.7004 -0.6327
 5049SOL    HW226781   3.895   0.440  12.049  2.0796 -1.5833  0.9453
 5050SOL     OW26782   4.350   3.340   1.470  0.1192  0.1916 -0.1156
 5050SOL    HW126783   4.261   3.323   1.437  0.4560 -1.2943 -0.2551
 5050SOL    HW226784   4.399   3.338   1.388  1.4275 -1.8881  0.7368
 5051SOL     OW26785   3.335   1.069   4.353  0.0756 -0.2350  0.4028
 5051SOL    HW126786   3.356   0.980   4.325  0.5107  0.4882 -1.5660
 5051SOL    HW226787   3.413   1.114   4.322  1.0274 -2.2091 -0.0487
 5052SOL     OW26788   0.388   2.518   5.207  0.2923 -0.0928  0.0687
 5052SOL    HW126789   0.467   2.486   5.162  0.5276  0.7588 -0.1226
 5052SOL    HW226790   0.328   2.511   5.133 -0.1558  0.7297  0.3583
 5053SOL     OW26791   3.090   4.036   1.398  0.2927 -0.5116 -0.3638
 5053SOL    HW126792   3.154   4.083   1.345  0.6104  0.0457  0.5231
 5053SOL    HW226793   3.139   3.986   1.463  0.9256 -0.9879 -1.2128
 5054SOL     OW26794   3.440   0.527  11.960 -0.3207 -0.3920  0.2234
 5054SOL    HW126795   3.531   0.514  11.986 -0.6504 -1.1036  1.0159
 5054SOL    HW226796   3.445   0.619  11.934 -0.0252 -0.7963 -1.1930
 5055SOL     OW26797   1.013   1.148   7.790 -0.1240 -0.5405  0.1681
 5055SOL    HW126798   1.001   1.144   7.695 -1.8757 -0.4748  0.3894
 5055SOL    HW226799   0.934   1.198   7.808  1.2975  1.9421 -0.5802
 5056SOL     OW26800   1.259   3.804   2.816 -0.4345  0.8815  0.2235
 5056SOL    HW126801   1.179   3.789   2.866 -1.8286  1.6255 -1.8007
 5056SOL    HW226802   1.246   3.890   2.776 -0.5255  0.8040  0.0857
 5057SOL     OW26803   4.599   2.750  14.682 -0.5765  0.6935  0.5644
 5057SOL    HW126804   4.519   2.698  14.684 -0.9859  1.3585  1.2277
 5057SOL    HW226805   4.660   2.682  14.652  1.3956  3.0617 -0.7579
 5058SOL     OW26806   1.610   4.718   8.546 -0.0045  0.0424  0.5508
 5058SOL    HW126807   1.557   0.001   8.624 -0.0803  0.8765  0.3265
 5058SOL    HW226808   1.555   4.653   8.504  0.5568 -0.4092  0.5124
 5059SOL     OW26809   0.270   2.774   5.408  0.1683  0.6519  0.2895
 5059SOL    HW126810   0.206   2.761   5.338  1.0394 -2.8786  0.1655
 5059SOL    HW226811   0.328   2.845   5.381 -0.5791  1.4438  0.7976
 5060SOL     OW26812   0.892   4.001  13.805  0.3159 -0.2550  0.2842
 5060SOL    HW126813   0.987   4.002  13.817  0.1986 -2.7134  1.4191
 5060SOL    HW226814   0.867   4.022  13.895  1.3362 -1.5410  0.8555
 5061SOL     OW26815   0.764   0.347   3.387 -0.2582 -0.4457 -0.1680
 5061SOL    HW126816   0.790   0.426   3.339  0.1615 -0.1423  0.5592
 5061SOL    HW226817   0.834   0.283   3.374  1.1855  1.2101 -0.7044
 5062SOL     OW26818   3.566   1.202   4.319  0.4735  0.2307 -0.5963
 5062SOL    HW126819   3.599   1.207   4.409  2.4226 -1.2461 -1.2319
 5062SOL    HW226820   3.652   1.186   4.280  1.5722  1.5967  1.2833
 5063SOL     OW26821   2.442   4.561   8.468  0.5115 -0.4574  0.6907
 5063SOL    HW126822   2.368   4.501   8.465 -0.0294  0.1118  2.3798
 5063SOL    HW226823   2.398   4.623   8.527 -0.7000 -1.8795  1.2739
 5064SOL     OW26824   1.331   0.027   9.375  0.3742 -0.7896 -0.5008
 5064SOL    HW126825   1.392   0.017   9.302  0.6508  0.5235 -0.4614
 5064SOL    HW226826   1.255   4.715   9.341  1.1083 -1.4683 -1.2435
 5065SOL     OW26827   3.715   1.031   4.748 -0.0562  0.2704 -0.6229
 5065SOL    HW126828   3.801   0.989   4.755 -0.1316  0.4392  1.3662
 5065SOL    HW226829   3.648   0.966   4.769 -0.8302  0.8317 -1.3840
 5066SOL     OW26830   0.734   4.179   2.952  0.3154  0.0535 -0.3131
 5066SOL    HW126831   0.808   4.228   2.988  1.5645 -0.9663 -1.4662
 5066SOL    HW226832   0.781   4.117   2.896  1.4218  0.1676  0.4836
 5067SOL     OW26833   1.382   1.532   8.969  0.0998  0.4107 -0.1004
 5067SOL    HW126834   1.397   1.461   9.031 -0.4417  0.3836 -0.0012
 5067SOL    HW226835   1.410   1.485   8.891  1.0092  1.4398 -0.3910
 5068SOL     OW26836   1.677   0.885  15.390 -0.0429  0.2305 -0.1320
 5068SOL    HW126837   1.606   0.828  15.421 -0.5580 -0.2969 -2.2756
 5068SOL    HW226838   1.724   0.827  15.330  0.0479 -0.7569  0.9099
 5069SOL     OW26839   4.647   3.833  14.400  0.9070 -0.2156 -0.2915
 5069SOL    HW126840   4.615   3.922  14.414  2.3511 -0.0291  1.9321
 5069SOL    HW226841   0.006   3.854  14.402  1.1366 -1.0851 -1.7981
 5070SOL     OW26842   0.260   0.237  11.266  0.2260  0.7315  0.3145
 5070SOL    HW126843   0.296   0.172  11.206 -0.7093 -0.5306  1.1047
 5070SOL    HW226844   0.272   0.317  11.215 -0.4714 -0.2912 -1.4160
 5071SOL     OW26845   0.706   1.226   1.920  0.6720  0.0821 -0.0389
 5071SOL    HW126846   0.624   1.276   1.914  0.6775  0.2982  1.7565
 5071SOL    HW226847   0.744   1.261   2.001  3.4567  0.3141 -1.4572
 5072SOL     OW26848   4.126   4.722   5.426 -0.1407  0.6673  0.1670
 5072SOL    HW126849   4.209   4.694   5.388 -0.6623 -0.9060  0.1659
 5072SOL    HW226850   4.154   0.046   5.497 -1.5849  0.2017  1.1254
 5073SOL     OW26851   4.410   4.255  14.761 -0.0831  0.2076 -0.2907
 5073SOL    HW126852   4.372   4.342  14.755  0.0048  0.4572  2.8005
 5073SOL    HW226853   4.358   4.199  14.703 -1.0032 -1.3067  1.9964
 5074SOL     OW26854   3.470   2.070  10.161 -0.0976  0.1541 -0.0348
 5074SOL    HW126855   3.512   1.989  10.191  0.8858  0.2613 -1.1393
 5074SOL    HW226856   3.499   2.064  10.070 -0.2730  0.6635 -0.1210
 5075SOL     OW26857   2.615   2.271   6.613 -0.1350  0.1671 -0.2590
 5075SOL    HW126858   2.524   2.250   6.594  0.4544 -1.5856 -1.1222
 5075SOL    HW226859   2.609   2.319   6.696  1.6686  2.2301 -1.3249
 5076SOL     OW26860   0.305   2.125  10.403 -0.2950  0.3187 -0.7657
 5076SOL    HW126861   0.343   2.194  10.349 -0.7062  1.0276 -0.1524
 5076SOL    HW226862   0.340   2.045  10.366  2.0230  0.7884  0.3772
 5077SOL     OW26863   2.206   3.762   1.521 -0.0615  0.1617 -0.4362
 5077SOL    HW126864   2.268   3.728   1.456  0.3045 -0.2243  0.1109
 5077SOL    HW226865   2.134   3.788   1.463  0.6320  1.5131 -0.6774
 5078SOL     OW26866   0.281   2.914  11.022 -0.2374 -0.4739 -0.0771
 5078SOL    HW126867   0.311   2.840  11.074  0.9569 -0.5553 -0.8794
 5078SOL    HW226868   0.366   2.952  10.999 -0.0688 -0.5255  0.4752
 5079SOL     OW26869   1.907   3.399   1.838 -0.1116 -0.3375  0.1197
 5079SOL    HW126870   1.991   3.383   1.881  0.3283  0.6193 -0.3602
 5079SOL    HW226871   1.923   3.365   1.750 -0.3123 -2.3070  0.8503
 5080SOL     OW26872   1.256   2.590   7.069 -0.0160  0.0519 -0.4242
 5080SOL    HW126873   1.348   2.611   7.053 -0.4634  0.3912 -2.5823
 5080SOL    HW226874   1.229   2.529   7.000  1.3064  0.3408 -1.1874
 5081SOL     OW26875   1.097   0.043  14.968 -0.8098 -0.2978  0.0354
 5081SOL    HW126876   1.193   0.037  14.965 -0.9028 -2.2587  1.3145
 5081SOL    HW226877   1.083   4.689  15.001  1.5398 -0.9213 -0.5728
 5082SOL     OW26878   3.732   4.087   5.732 -0.2802 -0.1321  0.0871
 5082SOL    HW126879   3.740   4.032   5.654  2.3680 -1.0074  0.9722
 5082SOL    HW226880   3.641   4.071   5.756  0.2355 -3.5358 -0.1987
 5083SOL     OW26881   3.727   3.422   2.820  0.5246 -0.4462  0.0627
 5083SOL    HW126882   3.660   3.411   2.752 -1.7339 -1.7026  2.4624
 5083SOL    HW226883   3.746   3.330   2.840 -2.4858 -1.5500 -2.0550
 5084SOL     OW26884   0.575   2.805  17.645 -0.1695 -0.6785 -0.2213
 5084SOL    HW126885   0.548   2.826  17.556  1.5624  1.0042 -0.3670
 5084SOL    HW226886   0.626   2.883  17.667  1.6964 -1.5435 -1.4987
 5085SOL     OW26887   1.498   4.589   0.157  0.8716  0.0790  0.1863
 5085SOL    HW126888   1.499   4.684   0.161 -1.7391  0.1296 -0.1753
 5085SOL    HW226889   1.520   4.582   0.064  0.0165  3.0959 -0.2377
 5086SOL     OW26890   0.165   3.884  17.056  0.3348  0.2446 -0.3287
 5086SOL    HW126891   0.249   3.919  17.029  0.6054 -0.8621 -0.9522
 5086SOL    HW226892   0.184   3.810  17.113  2.4692  0.1779 -1.1433
 5087SOL     OW26893   3.264   0.005  12.001  0.2932  0.6992  0.0686
 5087SOL    HW126894   3.181   4.714  11.961  0.2487 -0.0271  0.6148
 5087SOL    HW226895   3.300   0.059  11.931  2.2916  0.6067  1.0430
 5088SOL     OW26896   0.990   0.480   6.626  0.6567  0.1441 -0.1982
 5088SOL    HW126897   0.963   0.563   6.587  2.8907  1.5950  1.3840
 5088SOL    HW226898   0.902   0.452   6.652  1.9906 -2.0583  1.9086
 5089SOL     OW26899   3.166   2.915   4.412  0.1916  0.1202  0.2207
 5089SOL    HW126900   3.175   2.885   4.502 -0.8732 -2.2559 -0.4486
 5089SOL    HW226901   3.219   2.994   4.400 -0.3032  0.4009 -0.1092
 5090SOL     OW26902   0.253   3.084   2.692  0.3911  0.4895 -0.0625
 5090SOL    HW126903   0.204   3.071   2.610 -0.2584  0.3122  0.3548
 5090SOL    HW226904   0.323   3.146   2.671 -0.9430  2.2332  0.6644
 5091SOL     OW26905   0.272   4.207   4.865 -0.0798  0.3342  0.2308
 5091SOL    HW126906   0.322   4.253   4.797 -0.8206  2.5835  1.2035
 5091SOL    HW226907   0.342   4.147   4.891  0.8599  0.8871 -1.0239
 5092SOL     OW26908   4.379   1.439  14.990 -0.0723  0.5274  0.5365
 5092SOL    HW126909   4.444   1.501  15.023 -0.5678  0.2588  2.0155
 5092SOL    HW226910   4.408   1.432  14.899  0.8220  0.0796  0.8598
 5093SOL     OW26911   3.940   1.024  13.799 -0.5812 -0.0654 -0.1917
 5093SOL    HW126912   3.854   1.050  13.767 -0.5234 -0.1033 -0.3798
 5093SOL    HW226913   3.917   1.020  13.892  0.7241  0.9337  0.1672
 5094SOL     OW26914   4.615   2.675  10.720 -0.0662 -0.5845  0.8605
 5094SOL    HW126915   4.695   2.717  10.750 -0.5700 -0.4109  1.9329
 5094SOL    HW226916   4.600   2.622  10.798  0.3004 -3.2361 -0.8472
 5095SOL     OW26917   0.019   2.746   9.927 -0.1178  0.1411 -0.3506
 5095SOL    HW126918   4.732   2.817   9.988 -1.0570 -0.5899  0.1908
 5095SOL    HW226919   4.664   2.746   9.891 -0.5138  0.8558  0.6101
 5096SOL     OW26920   4.312   0.673   5.834 -0.0360 -0.0516 -0.0468
 5096SOL    HW126921   4.223   0.703   5.853 -0.3022 -1.0347  0.2580
 5096SOL    HW226922   4.355   0.709   5.911 -0.2204 -0.6237  0.3244
 5097SOL     OW26923   0.239   3.586  17.078  0.2601  0.5048  0.3820
 5097SOL    HW126924   0.319   3.617  17.035 -0.1827 -1.0847 -1.5719
 5097SOL    HW226925   0.180   3.622  17.012  1.3441 -1.0551 -1.4133
 5098SOL     OW26926   4.329   2.162   2.154 -0.0776 -0.3976  0.2647
 5098SOL    HW126927   4.325   2.073   2.189 -2.2363 -0.5752 -0.4646
 5098SOL    HW226928   4.421   2.156   2.129 -0.2042 -0.3196 -0.2235
 5099SOL     OW26929   1.935   1.402  11.235  0.2213  0.6579 -0.0229
 5099SOL    HW126930   1.931   1.494  11.262  1.3682  0.7933 -0.3344
 5099SOL    HW226931   1.923   1.407  11.140 -1.2544 -3.5451 -0.0522
 5100SOL     OW26932   3.826   2.895   6.556  0.0321 -0.0594 -0.0759
 5100SOL    HW126933   3.920   2.911   6.564 -0.3287  1.8561  0.2272
 5100SOL    HW226934   3.824   2.867   6.464 -1.6775 -1.3050  0.3328
 5101SOL     OW26935   3.331   2.431   8.207  0.1293  0.3049  0.2306
 5101SOL    HW126936   3.370   2.401   8.125  0.5445 -1.1309  0.9577
 5101SOL    HW226937   3.414   2.449   8.250  0.8654  1.7479 -1.7911
 5102SOL     OW26938   1.499   2.914   1.869 -0.3740  0.5007  0.1565
 5102SOL    HW126939   1.531   2.839   1.918 -1.4358 -0.0434  0.0148
 5102SOL    HW226940   1.479   2.977   1.938 -1.4527  0.5727 -0.2246
 5103SOL     OW26941   1.047   2.688   4.325 -0.5757 -0.2143 -0.0646
 5103SOL    HW126942   1.071   2.754   4.391 -0.2350  1.2150 -1.6090
 5103SOL    HW226943   0.964   2.718   4.289 -2.0019 -2.7909  1.0843
 5104SOL     OW26944   4.613   4.290   6.690 -0.2554  0.0908  0.2106
 5104SOL    HW126945   4.624   4.230   6.616  1.3475  0.2384  0.3164
 5104SOL    HW226946   4.603   4.376   6.648  2.3896  1.4981  2.3834
 5105SOL     OW26947   3.743   3.459   3.679  0.4272 -1.0183 -0.1639
 5105SOL    HW126948   3.707   3.477   3.592 -0.6959  1.0519  0.7258
 5105SOL    HW226949   3.773   3.371   3.659 -3.1619 -1.9253 -1.5701
 5106SOL     OW26950   3.553   0.445   2.360 -0.0758 -0.6969 -0.6374
 5106SOL    HW126951   3.551   0.361   2.314 -0.4943 -0.0459 -1.7827
 5106SOL    HW226952   3.636   0.440   2.409  1.0129 -0.7145 -2.4846
 5107SOL     OW26953   3.086   2.333  11.529  0.1442 -0.5572  0.2175
 5107SOL    HW126954   3.136   2.341  11.610 -1.6932 -0.4842  1.3327
 5107SOL    HW226955   3.126   2.261  11.480 -1.4121 -1.6321  0.5317
 5108SOL     OW26956   4.666   2.564   5.115 -0.7927  0.2616  0.6024
 5108SOL    HW126957   4.628   2.487   5.072 -2.2375  0.3468  1.7347
 5108SOL    HW226958   4.659   2.537   5.206 -0.9198 -2.0505 -0.0832
 5109SOL     OW26959   2.738   4.622   2.934 -0.2727 -0.6300 -0.2573
 5109SOL    HW126960   2.681   4.683   2.888 -0.9824 -0.9696  0.1793
 5109SOL    HW226961   2.673   4.607   3.002  1.8481 -0.6734  1.7538
 5110SOL     OW26962   2.019   3.101   8.685  0.3461  0.4339  0.1821
 5110SOL    HW126963   1.942   3.157   8.688 -0.2853 -0.5593  2.3374
 5110SOL    HW226964   2.098   3.155   8.694  1.4440 -0.7681 -2.0493
 5111SOL     OW26965   0.096   3.838  16.516 -0.0654  0.4518 -0.2255
 5111SOL    HW126966   0.120   3.931  16.516 -0.3908  0.5389 -2.5647
 5111SOL    HW226967   0.128   3.809  16.602 -0.0001  2.8996  0.5844
 5112SOL     OW26968   3.892   2.927   4.879 -0.9131 -0.0405  0.1383
 5112SOL    HW126969   3.953   2.883   4.939  0.2173  0.9284 -0.3142
 5112SOL    HW226970   3.956   2.978   4.830  0.2534  0.7112  2.4440
 5113SOL     OW26971   3.770   1.686   5.974 -0.0490 -0.5843 -0.2228
 5113SOL    HW126972   3.760   1.642   5.890 -3.0889  2.0397 -1.2401
 5113SOL    HW226973   3.845   1.742   5.953 -0.8064  0.1224 -1.0434
 5114SOL     OW26974   0.139   1.795  11.147 -0.1697 -0.0301  0.2233
 5114SOL    HW126975   0.135   1.874  11.094  0.2559 -1.2760 -1.6473
 5114SOL    HW226976   0.126   1.832  11.235 -0.6261 -0.3040  0.2715
 5115SOL     OW26977   2.521   4.228   3.808  0.3044  0.3046 -0.6768
 5115SOL    HW126978   2.534   4.214   3.902  2.0563 -0.9743 -1.1175
 5115SOL    HW226979   2.518   4.324   3.809  0.5957  0.2933  3.7966
 5116SOL     OW26980   0.754   0.736   4.139 -0.3980  0.4959 -0.0329
 5116SOL    HW126981   0.748   0.827   4.111 -0.4243  0.3766 -0.4150
 5116SOL    HW226982   0.692   0.697   4.077 -0.5157 -0.3743  0.6433
 5117SOL     OW26983   2.267   0.465  10.319 -0.3734 -0.5362  0.0035
 5117SOL    HW126984   2.197   0.401  10.309  0.6900 -1.7989  0.6971
 5117SOL    HW226985   2.233   0.553  10.301  0.2326  0.1056  1.9001
 5118SOL     OW26986   2.661   4.116   6.228  0.4830 -0.0847  0.1909
 5118SOL    HW126987   2.734   4.119   6.290 -0.3793  1.4310  1.1256
 5118SOL    HW226988   2.600   4.185   6.254 -1.5088 -1.5526 -0.5191
 5119SOL     OW26989   4.327   0.326   4.700 -0.4309  0.1610  0.8583
 5119SOL    HW126990   4.289   0.260   4.642 -0.6875  0.2890  0.8812
 5119SOL    HW226991   4.407   0.339   4.650 -0.3224 -1.1289  0.6930
 5120SOL     OW26992   1.460   0.903   1.140 -0.0627 -0.4488  0.0323
 5120SOL    HW126993   1.381   0.872   1.097 -0.4775 -2.8355  2.5062
 5120SOL    HW226994   1.490   0.817   1.171 -2.1218 -1.3399 -0.4712
 5121SOL     OW26995   2.533   4.678  11.725  0.0080  0.5372 -0.5956
 5121SOL    HW126996   2.584   0.003  11.781  0.2298 -0.5156  0.3192
 5121SOL    HW226997   2.594   4.604  11.721 -0.6732 -0.0387 -0.1897
 5122SOL     OW26998   1.150   3.087   0.748 -0.1211 -0.0136 -0.1276
 5122SOL    HW126999   1.153   3.139   0.668 -1.3301  0.5704  0.2060
 5122SOL    HW227000   1.218   3.026   0.719  0.4254  0.7058 -0.3587
 5123SOL     OW27001   1.667   2.149   8.096 -0.0180  0.5475  0.3897
 5123SOL    HW127002   1.627   2.235   8.079 -2.8948 -0.8862 -0.0018
 5123SOL    HW227003   1.699   2.165   8.185 -1.7775  2.6764  0.6539
 5124SOL     OW27004   3.232   4.274   7.137 -0.4014 -0.2584  0.2782
 5124SOL    HW127005   3.302   4.292   7.074  0.6768 -1.3317  1.1512
 5124SOL    HW227006   3.177   4.229   7.073 -2.0717  2.2120 -0.0274
 5125SOL     OW27007   4.707   1.971   1.850  0.3098 -0.2632  0.0411
 5125SOL    HW127008   0.054   2.022   1.858 -0.4993  1.0151  0.0559
 5125SOL    HW227009   0.001   1.900   1.792  1.1015 -1.1575  1.5158
 5126SOL     OW27010   0.903   4.410  13.378  0.4478  0.0174 -0.5908
 5126SOL    HW127011   0.843   4.446  13.313  0.8365 -2.1018 -2.1145
 5126SOL    HW227012   0.849   4.402  13.457 -0.0530 -3.0716 -1.2792
 5127SOL     OW27013   1.972   4.546   6.922  0.4285  0.2105  0.6124
 5127SOL    HW127014   2.056   4.554   6.877  0.6774 -0.4122  0.9679
 5127SOL    HW227015   1.995   4.478   6.985 -0.5504  0.9829  1.8215
 5128SOL     OW27016   0.696   3.426   1.525  0.0189 -0.5302  0.2980
 5128SOL    HW127017   0.787   3.395   1.523 -0.7565 -2.8007 -0.4966
 5128SOL    HW227018   0.709   3.510   1.567  0.8387  0.0785 -1.1832
 5129SOL     OW27019   0.247   3.208  15.853  0.1549  0.0702  0.2686
 5129SOL    HW127020   0.314   3.167  15.798 -0.0428  1.0272 -0.6939
 5129SOL    HW227021   0.172   3.153  15.829  1.8912 -1.9085 -0.5826
 5130SOL     OW27022   0.622   2.505   2.482 -0.0158 -0.9801  0.4240
 5130SOL    HW127023   0.586   2.446   2.415  2.2053  0.0127 -1.6474
 5130SOL    HW227024   0.713   2.482   2.466 -0.0202 -1.4362  1.0516
 5131SOL     OW27025   2.133   4.125   5.602  0.2470  0.9747  0.1451
 5131SOL    HW127026   2.133   4.193   5.534 -1.1076  0.5488 -0.2879
 5131SOL    HW227027   2.136   4.183   5.677 -2.9406 -2.3841  2.8429
 5132SOL     OW27028   2.811   2.669   3.193 -0.1710  0.3316  0.0098
 5132SOL    HW127029   2.735   2.727   3.202  0.1399  0.3696  2.4163
 5132SOL    HW227030   2.883   2.730   3.213 -0.3156  1.1954 -2.1333
 5133SOL     OW27031   3.852   0.811   4.860 -0.5881  0.2088 -0.3359
 5133SOL    HW127032   3.945   0.830   4.853 -1.0210  2.1463 -0.5714
 5133SOL    HW227033   3.848   0.796   4.955  1.8138 -0.7803 -0.3963
 5134SOL     OW27034   4.578   0.281   7.084 -0.5520 -0.6348  0.0095
 5134SOL    HW127035   4.650   0.286   7.021  0.6505 -2.0021  1.2587
 5134SOL    HW227036   4.543   0.369   7.095 -1.6570 -0.6338 -3.5723
 5135SOL     OW27037   4.188   4.648   0.286  0.1444  0.5054  0.0186
 5135SOL    HW127038   4.178   4.585   0.214 -1.8742  1.0364 -0.1592
 5135SOL    HW227039   4.116   4.709   0.272 -1.9172 -1.6980  0.9718
 5136SOL     OW27040   4.570   3.291   2.209 -0.0966  0.0563 -0.2821
 5136SOL    HW127041   4.559   3.209   2.160  0.2690 -0.4486  0.4900
 5136SOL    HW227042   4.549   3.345   2.132  1.7483 -0.2169 -0.9817
 5137SOL     OW27043   1.336   3.330  13.287 -0.3084 -0.1541 -0.3405
 5137SOL    HW127044   1.354   3.419  13.256 -0.8885 -0.3111 -1.1450
 5137SOL    HW227045   1.280   3.305  13.214 -2.4017 -0.5087  1.4043
 5138SOL     OW27046   1.824   0.025   2.644 -0.0048  0.5622 -0.2243
 5138SOL    HW127047   1.851   0.014   2.552  0.2003 -0.9721  0.0214
 5138SOL    HW227048   1.730   0.013   2.629 -0.2876  1.1095  1.1214
 5139SOL     OW27049   3.473   3.079  15.143  0.4890  0.2560  0.3882
 5139SOL    HW127050   3.492   3.170  15.122  0.9471 -0.4744 -2.3622
 5139SOL    HW227051   3.428   3.056  15.062 -2.4999  1.1115  1.8145
 5140SOL     OW27052   2.088   2.670   1.722  0.5351  0.0546 -0.2049
 5140SOL    HW127053   2.008   2.679   1.775  0.0571  0.5436 -1.0141
 5140SOL    HW227054   2.078   2.591   1.668  0.8486 -0.4635  0.4845
 5141SOL     OW27055   2.855   2.799   8.220  0.0525  0.0440  0.4819
 5141SOL    HW127056   2.810   2.731   8.170 -2.5686  1.7788  0.5149
 5141SOL    HW227057   2.929   2.816   8.161 -0.7769 -0.4059 -0.6891
 5142SOL     OW27058   3.786   2.064   9.128  0.2434 -0.2169  0.0054
 5142SOL    HW127059   3.729   2.085   9.202  2.0092  0.2274  1.2467
 5142SOL    HW227060   3.872   2.035   9.159  0.4678  1.4161  0.8957
 5143SOL     OW27061   2.053   0.591   5.296 -0.0283  0.0677  0.0409
 5143SOL    HW127062   2.041   0.500   5.271 -0.4448  0.3397 -0.7519
 5143SOL    HW227063   2.099   0.590   5.380 -0.7360 -0.8027  0.4115
 5144SOL     OW27064   3.026   0.198   3.454  0.0622  0.6035  0.3173
 5144SOL    HW127065   2.954   0.171   3.398  1.7664  0.1572 -1.6743
 5144SOL    HW227066   3.051   0.109   3.479  2.7062  0.8934 -1.2629
 5145SOL     OW27067   2.457   1.533   0.707  0.2992 -0.3099 -0.0014
 5145SOL    HW127068   2.389   1.522   0.774 -2.0607 -1.2490 -2.5471
 5145SOL    HW227069   2.524   1.475   0.741  0.2119 -0.7283 -0.5465
 5146SOL     OW27070   1.974   0.911   4.094 -0.5695 -0.3942 -0.2881
 5146SOL    HW127071   1.898   0.887   4.042  1.7971 -1.7802 -3.1087
 5146SOL    HW227072   1.945   0.912   4.186  0.4903 -1.2810  0.0553
 5147SOL     OW27073   0.607   4.268   5.455  0.3170  0.5722  0.0836
 5147SOL    HW127074   0.636   4.312   5.535  0.1158 -1.9671  1.5785
 5147SOL    HW227075   0.519   4.234   5.474  1.3283 -1.7136  0.7266
 5148SOL     OW27076   1.451   0.380  14.314  0.7255 -0.4672  0.2162
 5148SOL    HW127077   1.371   0.433  14.324  0.9350  0.0491 -0.9156
 5148SOL    HW227078   1.414   0.306  14.267 -0.7111  1.1200 -1.1807
 5149SOL     OW27079   0.401   1.605   4.437 -0.0959  0.4121  0.2379
 5149SOL    HW127080   0.383   1.651   4.356 -4.5158  0.5807  1.3511
 5149SOL    HW227081   0.495   1.624   4.443 -0.3701  1.7911  0.1164
 5150SOL     OW27082   2.326   4.532   8.845  0.0389 -0.3080  0.5361
 5150SOL    HW127083   2.255   4.520   8.908 -1.2210  0.6981 -0.6905
 5150SOL    HW227084   2.392   4.469   8.872  0.3099 -0.6386 -0.9207
 5151SOL     OW27085   2.851   2.027   8.812 -0.3598  0.2502  0.2155
 5151SOL    HW127086   2.925   2.085   8.793  0.2079 -0.8474 -0.8880
 5151SOL    HW227087   2.880   1.998   8.898 -0.5795  0.5659  0.3979
 5152SOL     OW27088   1.690   2.532   6.225  0.1257  0.3962  0.4311
 5152SOL    HW127089   1.604   2.564   6.253 -0.6834 -1.5118  0.1213
 5152SOL    HW227090   1.702   2.441   6.252 -0.7684 -0.1431 -0.9734
 5153SOL     OW27091   4.119   0.509   4.746 -0.2076  0.3417  0.6393
 5153SOL    HW127092   4.128   0.544   4.835  0.5615  0.7330  0.4107
 5153SOL    HW227093   4.181   0.437   4.753  0.6366  1.1758  1.7564
 5154SOL     OW27094   0.855   1.433   6.817 -0.0863 -0.6242 -0.2364
 5154SOL    HW127095   0.802   1.509   6.793  3.5133  1.8367 -0.3592
 5154SOL    HW227096   0.936   1.476   6.844  0.4654 -2.7299  1.4901
 5155SOL     OW27097   4.282   3.083   8.477  0.2375  0.5359  0.3977
 5155SOL    HW127098   4.240   3.154   8.526  0.2207  0.7218  0.1094
 5155SOL    HW227099   4.261   3.102   8.386 -0.8353 -1.1612  0.3099
 5156SOL     OW27100   4.212   2.277   7.546 -0.1869 -0.1383  0.3524
 5156SOL    HW127101   4.150   2.316   7.608  2.0138  0.2213  2.3365
 5156SOL    HW227102   4.197   2.184   7.562  0.4052  0.0108  1.8389
 5157SOL     OW27103   2.667   4.447   4.737 -0.4630  0.7105 -0.7085
 5157SOL    HW127104   2.658   4.382   4.807  0.6607  1.3870  0.0565
 5157SOL    HW227105   2.739   4.506   4.761  0.8443  0.3809 -3.7706
 5158SOL     OW27106   2.496   4.413   7.732 -0.2448 -0.1454  0.5490
 5158SOL    HW127107   2.502   4.508   7.720  0.5447 -0.4935 -1.7669
 5158SOL    HW227108   2.403   4.402   7.709  0.4721  2.3442 -3.6371
 5159SOL     OW27109   0.430   2.093   2.270  0.5511 -0.5476  0.0313
 5159SOL    HW127110   0.470   2.075   2.184 -0.8069 -0.4484 -0.6151
 5159SOL    HW227111   0.479   2.036   2.330  0.3178  3.1348  3.6342
 5160SOL     OW27112   3.247   0.030   7.112 -0.0678  0.0834  0.1198
 5160SOL    HW127113   3.183   4.699   7.140  0.6552 -0.8709 -0.4606
 5160SOL    HW227114   3.288   4.715   7.041 -2.6933 -1.5176 -0.3156
 5161SOL     OW27115   0.298   3.565   8.483 -0.7949  0.6513 -0.1777
 5161SOL    HW127116   0.272   3.539   8.571  0.8182 -0.3004  0.0147
 5161SOL    HW227117   0.386   3.595   8.502 -0.2970 -0.4278 -0.7541
 5162SOL     OW27118   2.505   2.882   6.967  0.3421  0.0973  0.5482
 5162SOL    HW127119   2.463   2.884   7.053  0.6162  0.7932  0.6627
 5162SOL    HW227120   2.568   2.954   6.975 -1.2418  1.5245  0.1539
 5163SOL     OW27121   2.834   3.583   1.526  0.7257  0.5791 -0.1667
 5163SOL    HW127122   2.771   3.510   1.529 -0.6986  1.8274  0.4298
 5163SOL    HW227123   2.783   3.659   1.500  3.9248  2.1538 -1.8126
 5164SOL     OW27124   2.714   2.711   5.221  0.5489  0.3450  0.3740
 5164SOL    HW127125   2.630   2.752   5.200 -0.0841 -1.1616  0.0039
 5164SOL    HW227126   2.723   2.650   5.147  0.3233 -1.1058  1.5578
 5165SOL     OW27127   0.783   2.459   5.641 -0.2999  0.3408  0.2532
 5165SOL    HW127128   0.736   2.460   5.557  0.4304  1.8806 -0.1457
 5165SOL    HW227129   0.705   2.460   5.697 -1.0175 -0.3871 -0.7310
 5166SOL     OW27130   4.415   1.657   3.979  0.1949 -0.3409  0.3674
 5166SOL    HW127131   4.437   1.654   3.886 -1.3026 -1.9620  0.0622
 5166SOL    HW227132   4.436   1.747   4.004 -0.2234 -0.0959 -0.1645
 5167SOL     OW27133   0.824   1.211   4.130  0.4807 -0.3199  0.1680
 5167SOL    HW127134   0.862   1.265   4.060  0.4199 -1.8534 -1.0446
 5167SOL    HW227135   0.883   1.231   4.203 -0.4796  0.1284  0.8236
 5168SOL     OW27136   4.370   2.112   3.185  0.5677  0.1216  0.5049
 5168SOL    HW127137   4.383   2.124   3.091 -1.2043 -0.8163  0.1412
 5168SOL    HW227138   4.337   2.023   3.194  0.0937  0.1698 -0.7688
 5169SOL     OW27139   0.073   0.964   6.941  0.2724 -0.3536  0.0840
 5169SOL    HW127140   0.016   1.014   6.999  1.6810  0.2198  0.9524
 5169SOL    HW227141   0.111   1.033   6.886 -0.4939  0.0803  0.1047
 5170SOL     OW27142   1.959   1.304  14.920  0.2639  0.3670  0.4323
 5170SOL    HW127143   1.950   1.257  14.837  1.8183 -0.2742  0.6308
 5170SOL    HW227144   2.024   1.247  14.961  1.4334  0.6671 -1.0113
 5171SOL     OW27145   1.431   4.414  13.528  0.9938 -0.0260  0.5950
 5171SOL    HW127146   1.336   4.406  13.532  1.2065 -3.8960 -2.5273
 5171SOL    HW227147   1.437   4.508  13.546  1.9105 -0.4490  2.4077
 5172SOL     OW27148   3.039   1.807  10.867  0.3419  0.6302 -0.1191
 5172SOL    HW127149   3.012   1.734  10.812  0.3813 -1.0101  2.0175
 5172SOL    HW227150   2.960   1.844  10.908  0.8409 -0.2438  1.6523
 5173SOL     OW27151   0.610   2.350   6.246  0.5177 -0.2205 -0.9807
 5173SOL    HW127152   0.561   2.270   6.264 -0.8096  0.4576 -1.6141
 5173SOL    HW227153   0.611   2.384   6.335 -1.5078  0.9785 -1.4269
 5174SOL     OW27154   4.091   1.797   2.210  0.1622  0.4133 -0.3988
 5174SOL    HW127155   4.057   1.766   2.294  0.0355 -1.3785 -1.1029
 5174SOL    HW227156   4.019   1.853   2.181  0.0171 -0.4265 -1.6493
 5175SOL     OW27157   0.609   0.129   3.234  0.0147 -0.2299 -0.3061
 5175SOL    HW127158   0.665   0.139   3.310 -1.6039 -1.5775  1.0595
 5175SOL    HW227159   0.565   0.045   3.250  0.1103 -0.0561  0.8730
 5176SOL     OW27160   2.640   4.699   8.678  0.3182  0.5836 -0.0913
 5176SOL    HW127161   2.648   4.604   8.688  2.6568  0.7326 -0.6099
 5176SOL    HW227162   2.564   4.700   8.621 -2.4271  0.4268  3.5522
 5177SOL     OW27163   4.527   1.380  17.094 -0.0701 -0.5458 -0.0605
 5177SOL    HW127164   4.533   1.370  17.189  0.0218  2.5216  0.2554
 5177SOL    HW227165   4.452   1.322  17.077 -0.2917 -0.5045  0.7351
 5178SOL     OW27166   0.148   2.751  11.370 -0.5677  0.3043 -0.2996
 5178SOL    HW127167   0.057   2.782  11.375 -0.9704 -1.1116  1.0202
 5178SOL    HW227168   0.194   2.792  11.442 -1.6825  1.1172 -0.0499
 5179SOL     OW27169   0.282   2.453   5.841 -0.4198 -0.1728 -0.3084
 5179SOL    HW127170   0.268   2.543   5.811 -2.8161  0.4092  2.6532
 5179SOL    HW227171   0.338   2.436   5.764  0.9581  0.0271  0.6476
 5180SOL     OW27172   0.209   2.182   8.590 -0.9933  0.4267 -0.1964
 5180SOL    HW127173   0.288   2.136   8.619  0.9811  2.8953 -1.5014
 5180SOL    HW227174   0.245   2.271   8.586 -1.1336  0.3752 -2.8750
 5181SOL     OW27175   1.986   4.671   1.716  0.2677  0.5587 -0.3389
 5181SOL    HW127176   2.033   4.697   1.795 -1.6852  0.2691  0.9226
 5181SOL    HW227177   1.897   4.701   1.733 -0.1969 -0.8818 -0.2605
 5182SOL     OW27178   3.427   0.669   2.285  0.3190 -0.8024 -0.0485
 5182SOL    HW127179   3.465   0.586   2.314 -0.3188 -0.3665  2.0045
 5182SOL    HW227180   3.462   0.683   2.196  1.9333  0.7085  0.8291
 5183SOL     OW27181   2.078   0.601  12.071  0.4565  0.1110  0.2587
 5183SOL    HW127182   2.067   0.690  12.039 -0.7187 -0.3260 -0.5345
 5183SOL    HW227183   2.028   0.560  12.001 -0.4978  0.0653  0.9667
 5184SOL     OW27184   4.243   0.889   1.773  0.1750 -0.3402 -0.7535
 5184SOL    HW127185   4.201   0.969   1.741 -0.7157 -0.0314  1.1848
 5184SOL    HW227186   4.186   0.819   1.744  0.7557 -1.6717  1.2961
 5185SOL     OW27187   1.610   3.392  11.132  0.5373 -0.3659 -1.2081
 5185SOL    HW127188   1.662   3.315  11.157  0.8006  0.7636  1.7814
 5185SOL    HW227189   1.527   3.351  11.105  0.5880 -0.1637 -1.6617
 5186SOL     OW27190   0.359   3.800   5.408 -0.3210 -0.4602  0.0475
 5186SOL    HW127191   0.388   3.749   5.483  1.5967 -0.1789 -0.4893
 5186SOL    HW227192   0.446   3.809   5.371 -0.1456 -0.6519  0.4107
 5187SOL     OW27193   2.824   3.801  14.925  0.0179 -0.0061  0.8057
 5187SOL    HW127194   2.874   3.737  14.875 -0.9291  0.0236 -0.1866
 5187SOL    HW227195   2.756   3.824  14.861  0.2681 -0.0177  0.5357
 5188SOL     OW27196   1.001   0.827   6.914 -0.6279 -0.8445  0.2669
 5188SOL    HW127197   0.934   0.786   6.860  0.1297 -2.4870  0.5478
 5188SOL    HW227198   1.071   0.762   6.902 -0.5816 -0.6566 -0.4608
 5189SOL     OW27199   2.898   3.693  11.844  0.0547 -0.2129 -0.5297
 5189SOL    HW127200   2.934   3.699  11.756  0.5811  1.4333 -0.1998
 5189SOL    HW227201   2.920   3.604  11.871 -1.4771  0.5691  3.3436
 5190SOL     OW27202   0.534   4.120   2.101 -0.2691  0.3216  0.3273
 5190SOL    HW127203   0.575   4.099   2.017  0.3536 -0.3646  0.8022
 5190SOL    HW227204   0.468   4.186   2.079 -0.3739 -0.5135 -1.8828
 5191SOL     OW27205   2.082   2.270  16.341  0.4825  0.2879 -0.2777
 5191SOL    HW127206   2.095   2.201  16.406 -0.6220 -0.4414 -0.8312
 5191SOL    HW227207   2.006   2.307  16.387  0.9422  1.8696 -0.8068
 5192SOL     OW27208   2.706   4.421  10.394 -0.0337 -0.3339  0.3004
 5192SOL    HW127209   2.681   4.362  10.465 -0.4318  1.0024  1.2783
 5192SOL    HW227210   2.633   4.403  10.335  0.2370  1.7529 -0.6765
 5193SOL     OW27211   2.613   1.275   2.137 -0.0109  0.2024  0.6367
 5193SOL    HW127212   2.635   1.332   2.064 -1.5236  0.5959  0.4714
 5193SOL    HW227213   2.698   1.240   2.163  0.6630  3.2361  2.4638
 5194SOL     OW27214   0.476   3.830   3.630 -0.6466  0.3736  0.1363
 5194SOL    HW127215   0.464   3.805   3.722  2.0353 -3.1756 -0.4602
 5194SOL    HW227216   0.529   3.752   3.612 -2.4539 -0.2245 -2.5470
 5195SOL     OW27217   2.900   1.209  16.028 -0.0276 -0.2726 -0.5585
 5195SOL    HW127218   2.968   1.144  16.008  0.1467  0.1306 -1.2770
 5195SOL    HW227219   2.953   1.285  16.002  2.4715 -1.0561  2.2151
 5196SOL     OW27220   0.386   3.022  15.654 -0.2649  0.1761  0.2343
 5196SOL    HW127221   0.407   2.929  15.655 -0.7187  0.0728 -0.6936
 5196SOL    HW227222   0.463   3.057  15.611  0.0595  2.6370  2.8114
 5197SOL     OW27223   3.102   4.669   3.948  0.0455  0.2843  0.0968
 5197SOL    HW127224   3.196   4.652   3.953 -0.0365 -0.2035  0.0117
 5197SOL    HW227225   3.103   0.031   3.942 -1.0416  0.2902  0.0817
 5198SOL     OW27226   1.947   3.941   9.077  0.0471  0.0889  0.0241
 5198SOL    HW127227   1.944   3.944   8.981 -5.6506 -1.2872  0.1709
 5198SOL    HW227228   1.908   3.855   9.092  2.1493 -0.9644 -0.5896
 5199SOL     OW27229   3.641   0.248   6.455 -0.0139  0.5284  0.1112
 5199SOL    HW127230   3.679   0.287   6.534 -1.2363  1.6441  0.1584
 5199SOL    HW227231   3.620   0.331   6.413  2.6776 -0.2986 -2.8438
 5200SOL     OW27232   0.956   0.164   3.401  0.5049  0.4758 -0.3611
 5200SOL    HW127233   1.045   0.178   3.434  1.8613 -1.2687 -3.2768
 5200SOL    HW227234   0.962   0.195   3.311 -1.5079  0.2724 -0.5721
 5201SOL     OW27235   0.994   0.048   7.347 -0.0521 -0.1576  0.2159
 5201SOL    HW127236   1.083   0.084   7.352 -0.4942  0.9734 -0.0783
 5201SOL    HW227237   1.003   4.734   7.265  0.4497 -0.5512  0.5008
 5202SOL     OW27238   0.380   2.798   7.454 -0.0946 -0.0182  0.0883
 5202SOL    HW127239   0.438   2.724   7.433  1.0020  0.9484 -0.2847
 5202SOL    HW227240   0.301   2.765   7.412 -0.5418  0.6783  0.3883
 5203SOL     OW27241   3.736   0.253   4.997 -0.0210  0.0344 -0.6845
 5203SOL    HW127242   3.811   0.290   5.044 -2.0328  1.9504  0.9738
 5203SOL    HW227243   3.744   0.299   4.913  0.1503 -0.9223 -1.1992
 5204SOL     OW27244   2.521   0.549  14.835  0.6962  0.8172 -0.8234
 5204SOL    HW127245   2.587   0.618  14.839  1.7684 -0.0752 -3.0701
 5204SOL    HW227246   2.440   0.582  14.874 -0.0947  0.8059 -2.4380
 5205SOL     OW27247   2.004   0.633   6.514 -0.0244 -0.2557 -0.2913
 5205SOL    HW127248   1.925   0.680   6.542  0.0719  1.1916 -2.4940
 5205SOL    HW227249   2.052   0.647   6.595 -0.9811 -1.2636  0.4603
 5206SOL     OW27250   0.987   0.708  16.263 -0.0800 -0.8640  0.1802
 5206SOL    HW127251   0.945   0.630  16.298  2.4353 -1.7602  1.2087
 5206SOL    HW227252   0.917   0.773  16.270  1.4970  0.5648  2.9184
 5207SOL     OW27253   4.473   2.195  11.778 -0.3314  0.0426 -0.1735
 5207SOL    HW127254   4.429   2.215  11.861 -0.3571  0.6644 -0.3355
 5207SOL    HW227255   4.486   2.101  11.778  0.1581  0.1003  0.9740
 5208SOL     OW27256   0.541   2.152   3.523 -0.0803  0.7943  0.2694
 5208SOL    HW127257   0.578   2.237   3.501 -0.9148  0.7603 -1.2918
 5208SOL    HW227258   0.457   2.170   3.480 -1.1376  0.0822  2.0384
 5209SOL     OW27259   1.357   2.155   1.227  0.2678  0.0780  0.4925
 5209SOL    HW127260   1.389   2.082   1.173  1.9438  1.7420 -0.7561
 5209SOL    HW227261   1.264   2.158   1.208  0.9233 -0.8451 -2.8785
 5210SOL     OW27262   3.137   4.445   8.672 -0.3617  0.5293  0.0943
 5210SOL    HW127263   3.222   4.485   8.654  0.5453 -1.3024  0.3239
 5210SOL    HW227264   3.144   4.362   8.624 -1.9197  0.6323 -0.3025
 5211SOL     OW27265   2.259   3.244  14.313  0.6897  0.1428 -0.0783
 5211SOL    HW127266   2.299   3.303  14.377  0.1439 -1.0624  1.3800
 5211SOL    HW227267   2.333   3.191  14.282  0.9144  0.7937 -0.6335
 5212SOL     OW27268   2.295   1.266   4.154 -0.0284 -0.4312 -0.2305
 5212SOL    HW127269   2.334   1.182   4.129  2.2110  0.6831 -0.5320
 5212SOL    HW227270   2.232   1.231   4.217  0.9288 -1.5122  0.1434
 5213SOL     OW27271   3.181   1.703   4.131  0.5837 -0.3853 -0.2452
 5213SOL    HW127272   3.219   1.714   4.218 -1.4648 -0.9062  0.7276
 5213SOL    HW227273   3.144   1.789   4.109  0.3766 -0.3983  0.0435
 5214SOL     OW27274   0.053   3.855   7.905  0.0007  0.8961 -0.1111
 5214SOL    HW127275   0.060   3.916   7.832 -0.7847  0.9924 -0.1069
 5214SOL    HW227276   0.135   3.875   7.950 -0.3089 -0.5387  1.1177
 5215SOL     OW27277   0.542   1.619   5.972 -0.2981  0.3552 -0.6436
 5215SOL    HW127278   0.637   1.618   5.988 -0.0141  1.8773 -2.2855
 5215SOL    HW227279   0.525   1.667   5.891  0.2206 -0.0968 -1.0225
 5216SOL     OW27280   0.950   4.637   4.411  0.2581  0.2758  0.2226
 5216SOL    HW127281   0.871   4.596   4.446  0.8274 -0.8036  0.2406
 5216SOL    HW227282   0.897   4.708   4.374  1.3293  0.6193 -0.6675
 5217SOL     OW27283   0.849   2.706  11.206  0.3585  0.4930  0.2468
 5217SOL    HW127284   0.913   2.771  11.176  2.4343 -1.5135  0.2658
 5217SOL    HW227285   0.776   2.760  11.235  0.9627  1.2580  0.3370
 5218SOL     OW27286   0.963   2.558   5.021  0.2947 -0.1588  0.3080
 5218SOL    HW127287   0.881   2.606   5.035 -0.4069 -1.3168  0.2592
 5218SOL    HW227288   1.019   2.635   5.027  1.3846 -0.7575 -2.1497
 5219SOL     OW27289   0.811   1.395  13.363  0.2045  0.1009 -0.2939
 5219SOL    HW127290   0.822   1.337  13.287  2.3866 -1.0584  0.9016
 5219SOL    HW227291   0.729   1.369  13.405  0.7187 -1.8232 -0.4550
 5220SOL     OW27292   3.648   2.567   2.648  0.1274  0.1467  0.3554
 5220SOL    HW127293   3.709   2.494   2.661 -2.0249 -2.0256 -1.7863
 5220SOL    HW227294   3.663   2.579   2.554  1.0746  1.6497  0.7031
 5221SOL     OW27295   4.641   4.125   6.467  0.0758 -0.5133 -0.7623
 5221SOL    HW127296   4.671   4.181   6.395  0.5727  1.7524  1.2161
 5221SOL    HW227297   4.606   4.050   6.418  0.9752 -1.5231  0.1448
 5222SOL     OW27298   3.717   1.819  13.088 -0.1259  0.0320  0.2541
 5222SOL    HW127299   3.731   1.885  13.156  0.7384  1.3161 -1.1863
 5222SOL    HW227300   3.652   1.868  13.038 -0.8199 -0.9159  0.2241
 5223SOL     OW27301   0.044   0.376   8.211 -0.5711  0.1753 -0.3111
 5223SOL    HW127302   0.022   0.404   8.121 -0.8802 -0.5499 -0.4592
 5223SOL    HW227303   4.707   0.314   8.226  2.1673 -2.5432  1.2250
 5224SOL     OW27304   2.920   1.752   8.540  0.2720 -0.6104 -0.0364
 5224SOL    HW127305   2.855   1.821   8.524 -0.3320 -1.8838 -2.9748
 5224SOL    HW227306   2.879   1.711   8.616 -1.0266  0.2696 -0.2593
 5225SOL     OW27307   4.122   2.155   5.953  0.0614 -0.0311  0.1409
 5225SOL    HW127308   4.037   2.128   5.988 -1.6575  0.1215 -3.8192
 5225SOL    HW227309   4.150   2.072   5.912  1.4441  0.5216 -0.0323
 5226SOL     OW27310   0.432   0.890   3.745 -0.1048  0.4681  1.0161
 5226SOL    HW127311   0.412   0.979   3.717  0.9549  0.4601  0.2197
 5226SOL    HW227312   0.350   0.869   3.790  0.0743 -0.8589  0.7268
 5227SOL     OW27313   1.360   2.315   9.650 -0.4743  0.1311  0.8537
 5227SOL    HW127314   1.307   2.259   9.593  0.2129 -1.0191  1.3473
 5227SOL    HW227315   1.416   2.245   9.683 -1.8634 -1.2061  0.4324
 5228SOL     OW27316   3.101   1.253   8.072 -0.0016 -0.1947 -0.2014
 5228SOL    HW127317   3.103   1.299   7.988 -1.5132  1.2528  0.5644
 5228SOL    HW227318   3.175   1.287   8.122 -1.0728 -1.0373  1.9546
 5229SOL     OW27319   2.275   2.771   3.067 -1.0511 -0.5753 -0.0173
 5229SOL    HW127320   2.247   2.683   3.039 -0.1934 -0.6776 -0.5515
 5229SOL    HW227321   2.212   2.807   3.129 -1.6878 -2.2744  0.3237
 5230SOL     OW27322   0.106   2.330   9.331 -0.4996  0.1599  0.1110
 5230SOL    HW127323   0.085   2.237   9.320  3.1124 -0.5888 -0.4528
 5230SOL    HW227324   0.053   2.366   9.260  0.4177 -0.9083 -1.1446
 5231SOL     OW27325   0.315   1.510   7.360  0.0474  0.3369 -0.5290
 5231SOL    HW127326   0.343   1.455   7.434 -0.9117 -0.9408 -1.1332
 5231SOL    HW227327   0.232   1.468   7.338  0.7261 -0.5851 -1.3177
 5232SOL     OW27328   3.175   1.497   2.637 -0.1063  0.2967  0.1681
 5232SOL    HW127329   3.257   1.542   2.659  0.4983  0.0449 -1.6130
 5232SOL    HW227330   3.200   1.410   2.607 -0.3758 -0.7199  2.8527
 5233SOL     OW27331   2.761   3.241   7.700  0.5258  0.3618 -0.4086
 5233SOL    HW127332   2.702   3.214   7.630 -0.1602 -2.1801  1.1724
 5233SOL    HW227333   2.730   3.188   7.774  0.5864  1.2917  0.2820
 5234SOL     OW27334   3.559   1.053  15.944  0.0342 -0.0892  0.4850
 5234SOL    HW127335   3.521   0.966  15.933  0.1221  0.0373 -0.8257
 5234SOL    HW227336   3.563   1.062  16.039  1.6259 -0.8230  0.4996
 5235SOL     OW27337   1.181   4.356   9.489  0.1557 -0.0017  0.1239
 5235SOL    HW127338   1.174   4.451   9.502  0.5114  0.2568 -1.5290
 5235SOL    HW227339   1.105   4.333   9.543 -1.2377 -1.0284 -2.3072
 5236SOL     OW27340   4.472   2.121   6.173 -0.4205 -0.4165  0.3273
 5236SOL    HW127341   4.485   2.183   6.102 -1.3125  1.4199  1.7832
 5236SOL    HW227342   4.416   2.061   6.124 -0.7929 -0.8680  1.2941
 5237SOL     OW27343   2.237   2.007   9.257 -0.1794 -0.5044 -0.0183
 5237SOL    HW127344   2.305   2.038   9.198  0.4404 -0.4804  0.7185
 5237SOL    HW227345   2.219   1.920   9.222 -2.3516 -0.5416  1.1615
 5238SOL     OW27346   0.216   1.402  12.528  0.1488  0.2342 -0.1525
 5238SOL    HW127347   0.292   1.407  12.586 -0.9146  3.3998  0.9542
 5238SOL    HW227348   0.137   1.433  12.572  0.8066 -1.1531  2.0075
 5239SOL     OW27349   0.911   4.066   6.505 -0.0542  0.1876  0.2538
 5239SOL    HW127350   0.958   4.041   6.425  0.2595  1.3529  0.0788
 5239SOL    HW227351   0.898   3.981   6.547 -1.7965  0.8554  1.0811
 5240SOL     OW27352   4.569   0.746  13.305  0.1761 -0.4548 -0.2871
 5240SOL    HW127353   4.596   0.674  13.248  1.1425  0.3506 -0.8581
 5240SOL    HW227354   4.655   0.772  13.338 -1.1590  1.2438  1.8691
 5241SOL     OW27355   4.184   2.605   1.972  0.0034 -0.1391  0.5480
 5241SOL    HW127356   4.132   2.670   1.924 -2.0415 -1.4757  0.9891
 5241SOL    HW227357   4.256   2.659   2.005  0.7812 -1.7544  1.4448
 5242SOL     OW27358   4.289   1.112  15.755  0.2263  0.2293  0.2053
 5242SOL    HW127359   4.205   1.111  15.709 -0.2223  3.5172  0.9447
 5242SOL    HW227360   4.282   1.188  15.813 -0.2352  0.6484 -0.4011
 5243SOL     OW27361   3.781   4.440   0.861  0.6283 -0.1598 -0.1087
 5243SOL    HW127362   3.844   4.509   0.844  0.3631  0.2101  0.4151
 5243SOL    HW227363   3.814   4.371   0.803  0.3691 -1.1781  0.9412
 5244SOL     OW27364   3.121   2.787   1.034  0.3218  0.3638 -0.0210
 5244SOL    HW127365   3.215   2.791   1.048 -0.1062  6.5875  0.9713
 5244SOL    HW227366   3.107   2.879   1.013 -0.8077  0.3640  0.7245
 5245SOL     OW27367   3.837   2.786  16.261 -0.0441 -0.2168  0.7507
 5245SOL    HW127368   3.861   2.854  16.197  0.6137 -0.0076  1.2167
 5245SOL    HW227369   3.763   2.734  16.230 -0.3367 -0.8226  2.5281
 5246SOL     OW27370   1.208   0.024   5.258  0.0488  0.8712 -0.1453
 5246SOL    HW127371   1.259   4.700   5.201 -1.0643 -0.1936 -0.0528
 5246SOL    HW227372   1.126   0.023   5.210  0.3933  2.9256 -0.7772
 5247SOL     OW27373   4.273   1.317   0.935  0.6232 -0.2503  0.2541
 5247SOL    HW127374   4.272   1.222   0.943  0.2495 -0.3483 -0.9489
 5247SOL    HW227375   4.183   1.331   0.904 -0.7316 -2.7359  3.0093
 5248SOL     OW27376   0.638   4.402   6.604  0.0476  0.4119  0.0894
 5248SOL    HW127377   0.690   4.410   6.684 -0.0707 -0.7860  0.2754
 5248SOL    HW227378   0.662   4.484   6.559  0.8804 -0.4279 -1.0058
 5249SOL     OW27379   0.426   1.575   2.491 -0.1353 -0.2387  0.0761
 5249SOL    HW127380   0.435   1.580   2.396 -0.5234 -1.2973 -0.0137
 5249SOL    HW227381   0.494   1.511   2.511  2.4493  2.0266 -1.6003
 5250SOL     OW27382   3.192   1.683   6.307 -0.7583  0.1233 -0.2787
 5250SOL    HW127383   3.172   1.684   6.214  0.4483 -2.0764 -0.5600
 5250SOL    HW227384   3.286   1.697   6.305 -0.5349 -1.5058 -1.1748
 5251SOL     OW27385   0.471   2.718   3.551 -0.8245  0.6602 -0.1164
 5251SOL    HW127386   0.462   2.736   3.458  0.5880  2.5505  0.0949
 5251SOL    HW227387   0.397   2.670   3.587 -0.0886  0.9133  1.7387
 5252SOL     OW27388   1.351   3.522   3.542  0.0943  0.2731  0.3021
 5252SOL    HW127389   1.309   3.600   3.505  0.9197  0.3235 -0.5335
 5252SOL    HW227390   1.390   3.487   3.462  1.1126  0.4068  0.7473
 5253SOL     OW27391   3.600   3.638  16.917  0.3106  0.0069  0.7324
 5253SOL    HW127392   3.695   3.649  16.908  0.4865 -3.4569 -2.2323
 5253SOL    HW227393   3.590   3.552  16.958  0.2637  0.1992  1.1240
 5254SOL     OW27394   4.522   2.832   2.940  0.2976 -0.0345 -0.7795
 5254SOL    HW127395   4.616   2.851   2.938 -0.0543  1.6322 -1.5650
 5254SOL    HW227396   4.497   2.860   3.029 -2.6434 -1.1736 -1.2455
 5255SOL     OW27397   2.408   1.932   0.570 -0.4246 -0.0742  0.3036
 5255SOL    HW127398   2.395   1.840   0.546  0.2976  0.0611 -0.5957
 5255SOL    HW227399   2.366   1.967   0.492 -0.0463  0.8667  0.5218
 5256SOL     OW27400   0.631   3.487   4.524  0.1997 -0.1829 -0.2202
 5256SOL    HW127401   0.552   3.436   4.510  0.4982 -0.3322 -1.3380
 5256SOL    HW227402   0.661   3.486   4.433 -0.7832 -0.6810 -0.5309
 5257SOL     OW27403   3.738   1.441   7.797  0.0620  0.9786 -0.4978
 5257SOL    HW127404   3.672   1.379   7.765  1.5749 -1.2837  0.7356
 5257SOL    HW227405   3.784   1.386   7.861 -0.5542 -0.8135 -1.5895
 5258SOL     OW27406   0.259   2.457   4.469 -0.1914 -0.3555  0.8937
 5258SOL    HW127407   0.249   2.379   4.523  0.4937 -1.1409 -0.1248
 5258SOL    HW227408   0.209   2.432   4.392 -0.7103 -0.6344  1.3222
 5259SOL     OW27409   3.125   4.199   8.504  0.0960 -0.3309  0.0112
 5259SOL    HW127410   3.195   4.135   8.489 -0.0837  0.0109 -2.2135
 5259SOL    HW227411   3.121   4.236   8.416  1.4264 -0.9492 -0.3171
 5260SOL     OW27412   2.024   2.262   8.820 -0.1457 -0.1683  1.0116
 5260SOL    HW127413   2.057   2.185   8.865  1.0673  1.4783  2.9542
 5260SOL    HW227414   2.081   2.335   8.843  0.3896  0.1123 -1.2183
 5261SOL     OW27415   1.376   1.951   7.650  0.8505  0.4313 -0.2844
 5261SOL    HW127416   1.300   1.936   7.705 -0.4567  0.6805 -2.0134
 5261SOL    HW227417   1.346   2.025   7.597 -1.2149 -0.2384 -0.0555
 5262SOL     OW27418   4.117   1.093   6.862  0.4049  0.0387  0.4826
 5262SOL    HW127419   4.158   1.153   6.800  2.3903 -3.4149 -1.5158
 5262SOL    HW227420   4.072   1.040   6.796  1.1623 -0.7933  0.6234
 5263SOL     OW27421   2.199   3.532  16.065  0.3834 -0.1462 -0.5265
 5263SOL    HW127422   2.289   3.502  16.069  0.1159 -0.9984 -0.8245
 5263SOL    HW227423   2.163   3.486  16.141 -1.0374 -3.0685 -2.9393
 5264SOL     OW27424   3.665   1.481   5.520 -0.6999  0.1045  0.1758
 5264SOL    HW127425   3.575   1.456   5.543 -1.5117  0.4406 -2.7185
 5264SOL    HW227426   3.694   1.401   5.477 -0.1951 -0.2525  1.1649
 5265SOL     OW27427   3.693   0.669   3.924 -0.3842  0.8301 -0.6747
 5265SOL    HW127428   3.692   0.702   3.834 -1.5730  2.6083 -0.0089
 5265SOL    HW227429   3.624   0.604   3.912  1.4580 -1.2369 -0.1765
 5266SOL     OW27430   1.019   1.556  10.060  0.8020  0.3354 -0.6575
 5266SOL    HW127431   0.972   1.571  10.142  0.5504 -0.7918 -0.5986
 5266SOL    HW227432   1.074   1.481  10.080  0.0080 -0.5679 -1.8717
 5267SOL     OW27433   0.177   0.527  16.186  0.5691  0.2717  0.0600
 5267SOL    HW127434   0.113   0.528  16.114 -1.2366  0.8958  1.6843
 5267SOL    HW227435   0.233   0.458  16.151 -0.7271 -1.6450  1.7996
 5268SOL     OW27436   2.562   1.080   6.095 -0.8449  0.2526  0.3614
 5268SOL    HW127437   2.545   0.987   6.103 -1.5832  0.3634  0.0720
 5268SOL    HW227438   2.647   1.096   6.137 -2.1077 -0.5931  3.2095
 5269SOL     OW27439   2.379   4.207   3.520  0.0161  0.2135 -0.0741
 5269SOL    HW127440   2.301   4.166   3.558 -0.6124 -0.8655 -2.5290
 5269SOL    HW227441   2.427   4.216   3.602  1.6085  1.0569 -1.1062
 5270SOL     OW27442   3.182   0.630   7.254 -0.8776 -0.6127  0.2593
 5270SOL    HW127443   3.161   0.693   7.324  2.3914  0.2217  0.5126
 5270SOL    HW227444   3.100   0.615   7.207 -0.1969 -1.6879 -0.5929
 5271SOL     OW27445   4.651   3.187   1.783 -0.5231 -0.6711  1.0043
 5271SOL    HW127446   4.712   3.231   1.723 -1.0578  0.4892  1.3161
 5271SOL    HW227447   4.562   3.213   1.761  0.0892  0.3974 -0.2101
 5272SOL     OW27448   2.593   3.855   6.163  0.3608  0.3508 -0.1176
 5272SOL    HW127449   2.667   3.867   6.222  0.3669  1.2022 -0.3013
 5272SOL    HW227450   2.614   3.932   6.110  0.2260  0.4489 -0.0295
 5273SOL     OW27451   3.637   0.650   1.534  0.1956  0.0156  0.1223
 5273SOL    HW127452   3.661   0.664   1.626 -0.9996 -0.9233  0.5689
 5273SOL    HW227453   3.685   0.722   1.492  0.6781 -0.2880  0.1522
 5274SOL     OW27454   4.634   4.210  16.151  0.4785  0.4394  0.2006
 5274SOL    HW127455   4.683   4.138  16.111 -0.9712 -0.6680  0.3896
 5274SOL    HW227456   4.700   4.278  16.139 -0.0245  1.2296  1.9501
 5275SOL     OW27457   4.469   4.489   7.352  0.1843  0.0263  0.4521
 5275SOL    HW127458   4.553   4.536   7.356  0.1611  0.1615 -0.4701
 5275SOL    HW227459   4.478   4.439   7.433  1.7798  0.1396  0.3462
 5276SOL     OW27460   1.180   2.487   4.228  0.2013  0.1374 -0.2846
 5276SOL    HW127461   1.116   2.551   4.258  0.7035  0.3218  0.3726
 5276SOL    HW227462   1.212   2.525   4.146 -1.3259 -1.4122 -1.6003
 5277SOL     OW27463   1.553   4.328   2.603 -0.8506  0.0183 -0.3581
 5277SOL    HW127464   1.513   4.406   2.642  1.8500  0.8132  0.8258
 5277SOL    HW227465   1.573   4.348   2.512  0.6116 -2.7075 -0.6370
 5278SOL     OW27466   4.414   2.039   8.719  0.2476 -0.3894 -0.5200
 5278SOL    HW127467   4.492   2.033   8.774 -0.7530 -0.6796  0.8495
 5278SOL    HW227468   4.416   2.133   8.701  2.3230 -0.2749  0.3568
 5279SOL     OW27469   0.265   0.882   6.487 -0.3094 -0.5724 -0.0616
 5279SOL    HW127470   0.211   0.821   6.436  0.2189 -0.4531 -0.7602
 5279SOL    HW227471   0.307   0.915   6.408 -0.2085 -1.1397 -0.2509
 5280SOL     OW27472   2.167   0.124   6.302 -0.7053  0.2152  0.7302
 5280SOL    HW127473   2.259   0.097   6.312 -0.1148  1.5609 -0.9541
 5280SOL    HW227474   2.180   0.200   6.244 -1.8164 -0.4708 -0.4174
 5281SOL     OW27475   3.774   4.040   6.133  0.8772  0.3439  0.5097
 5281SOL    HW127476   3.701   4.093   6.102  1.8761  0.8921 -0.9217
 5281SOL    HW227477   3.794   4.099   6.206  1.1486  0.8974 -0.0134
 5282SOL     OW27478   1.443   0.563   2.046 -0.4809  0.3128  0.0792
 5282SOL    HW127479   1.475   0.480   2.080 -2.1507 -0.3972 -0.1111
 5282SOL    HW227480   1.405   0.600   2.126  2.3144  1.3040  0.9597
 5283SOL     OW27481   1.209   4.296   3.848 -0.3041 -0.2336 -0.3173
 5283SOL    HW127482   1.161   4.350   3.784 -0.6748  0.9813  0.9902
 5283SOL    HW227483   1.150   4.289   3.923 -0.5544  0.0818 -0.4840
 5284SOL     OW27484   4.036   1.796   6.631  0.0537  0.0417 -0.2616
 5284SOL    HW127485   3.979   1.844   6.571  0.1014 -0.1966 -0.4988
 5284SOL    HW227486   4.076   1.738   6.566  2.3866  0.2655  0.9698
 5285SOL     OW27487   3.038   1.618   5.020  0.1109 -0.5721  0.3977
 5285SOL    HW127488   3.060   1.613   5.113  2.0508 -2.8568 -0.2161
 5285SOL    HW227489   2.958   1.670   5.031  0.8845  0.0240  3.2991
 5286SOL     OW27490   2.587   2.904   9.121  0.5505 -0.3092  0.2281
 5286SOL    HW127491   2.637   2.983   9.145 -1.1979  0.7768  0.2733
 5286SOL    HW227492   2.507   2.942   9.086  0.6538 -0.0226  0.3023
 5287SOL     OW27493   2.327   4.078  11.490  0.5906 -0.3837 -0.3723
 5287SOL    HW127494   2.377   4.012  11.537  0.6185 -0.9694 -1.2490
 5287SOL    HW227495   2.274   4.111  11.563  1.9503 -1.4068  1.0653
 5288SOL     OW27496   1.457   1.976   4.452  0.0706 -0.1020 -0.5694
 5288SOL    HW127497   1.419   2.024   4.378  0.1977  1.2366  0.2406
 5288SOL    HW227498   1.485   1.900   4.401 -1.6417  0.8089 -2.8831
 5289SOL     OW27499   4.472   2.653   9.959  0.0742 -0.4526  1.1460
 5289SOL    HW127500   4.496   2.680   9.870 -0.0121 -1.2711  0.8736
 5289SOL    HW227501   4.433   2.729  10.001 -3.7272 -1.7190 -0.0831
 5290SOL     OW27502   3.892   1.790  16.104  0.0774  0.0001  0.2633
 5290SOL    HW127503   3.927   1.754  16.022  1.5419 -0.1269  0.9519
 5290SOL    HW227504   3.961   1.841  16.147  0.4460  1.9054 -2.5607
 5291SOL     OW27505   4.531   2.975   0.822  0.4652 -0.1746  0.1403
 5291SOL    HW127506   4.458   2.958   0.762  0.8574 -2.6774  0.3766
 5291SOL    HW227507   4.598   2.930   0.770  0.2466  0.0544 -0.3439
 5292SOL     OW27508   3.681   1.037  13.720  0.5704  0.4138 -0.4191
 5292SOL    HW127509   3.631   1.086  13.785 -0.5933 -2.4090  0.8037
 5292SOL    HW227510   3.649   0.950  13.746  2.2647 -0.9556 -2.8732
 5293SOL     OW27511   2.124   1.698   9.248  0.6455 -0.1648 -0.2415
 5293SOL    HW127512   2.039   1.678   9.287 -0.5411  0.1925 -2.6166
 5293SOL    HW227513   2.092   1.711   9.158 -0.1466 -0.8261 -0.0581
 5294SOL     OW27514   3.813   3.024   7.749 -0.2775 -0.3186 -0.6075
 5294SOL    HW127515   3.792   2.989   7.836  3.2526 -1.6690 -0.2766
 5294SOL    HW227516   3.909   3.028   7.756 -0.2584 -0.1600 -1.0117
 5295SOL     OW27517   3.910   2.648  11.109  0.5442 -0.4146  0.2447
 5295SOL    HW127518   3.887   2.608  11.026 -1.2325  1.6772 -0.2832
 5295SOL    HW227519   3.958   2.572  11.141 -0.3240 -0.6553  0.9742
 5296SOL     OW27520   3.816   4.664   9.599  0.2015 -0.4916  0.5528
 5296SOL    HW127521   3.903   4.648   9.562  1.7422  0.9020  3.4926
 5296SOL    HW227522   3.794   4.575   9.628  0.4851 -0.4778  0.8144
 5297SOL     OW27523   1.818   1.082  12.485 -0.0171 -0.3786  0.1437
 5297SOL    HW127524   1.822   1.095  12.580 -1.9476 -2.8767  0.5534
 5297SOL    HW227525   1.725   1.064  12.477 -0.0761 -0.8438  1.7229
 5298SOL     OW27526   4.628   4.333   5.758  0.0393  0.5443  0.2094
 5298SOL    HW127527   4.626   4.256   5.701 -0.2883  1.4942 -1.0473
 5298SOL    HW227528   4.670   4.294   5.836  0.5921 -0.9088 -0.8197
 5299SOL     OW27529   1.505   4.519   3.600  0.3816 -0.0785 -0.7150
 5299SOL    HW127530   1.563   4.594   3.594 -0.9072  1.0146  0.4652
 5299SOL    HW227531   1.524   4.487   3.688 -2.3580  0.1389 -0.0448
 5300SOL     OW27532   2.568   2.257   4.920 -0.3744  0.2882  0.7596
 5300SOL    HW127533   2.649   2.246   4.970  0.7879 -0.6851 -1.3594
 5300SOL    HW227534   2.504   2.203   4.968  1.4262 -0.0575  2.7500
 5301SOL     OW27535   1.313   3.355   5.067  0.4472  0.0508 -0.0954
 5301SOL    HW127536   1.271   3.384   5.147 -0.3059 -2.0244  0.2559
 5301SOL    HW227537   1.380   3.423   5.056 -1.0657  1.7654  1.4926
 5302SOL     OW27538   1.623   1.697   5.684  0.4660  0.4248 -0.1581
 5302SOL    HW127539   1.699   1.744   5.650  0.9602  0.6523  1.2520
 5302SOL    HW227540   1.563   1.720   5.613  0.8936 -0.9675 -0.9709
 5303SOL     OW27541   0.364   1.800  15.246  0.0130  0.5127  0.9526
 5303SOL    HW127542   0.453   1.788  15.279  0.7922  0.5472 -1.1318
 5303SOL    HW227543   0.366   1.886  15.203 -0.8721 -0.4572 -1.0196
 5304SOL     OW27544   1.616   1.563  17.194 -0.4149  0.1701 -0.0204
 5304SOL    HW127545   1.641   1.619  17.121  0.0219 -0.4287 -0.3252
 5304SOL    HW227546   1.696   1.546  17.245 -1.0640 -2.8088  0.0042
 5305SOL     OW27547   2.422   2.794   7.927  0.6039  0.0237 -0.5154
 5305SOL    HW127548   2.400   2.710   7.887  2.5170  0.0919 -1.7157
 5305SOL    HW227549   2.446   2.764   8.014 -0.8856  2.1452  0.6443
 5306SOL     OW27550   3.905   0.529   2.781 -0.3880  0.1864  0.2373
 5306SOL    HW127551   3.874   0.555   2.867 -2.7490 -1.5688 -0.0887
 5306SOL    HW227552   3.982   0.583   2.764  0.1035 -0.7835 -0.6327
 5307SOL     OW27553   3.055   2.506   8.177 -0.1564  0.8285 -0.3500
 5307SOL    HW127554   3.042   2.506   8.272 -0.3460  3.4224 -0.3891
 5307SOL    HW227555   3.148   2.526   8.174  0.2774 -1.1618 -0.0532
 5308SOL     OW27556   3.876   4.708  10.460 -0.2535  0.5688 -0.0042
 5308SOL    HW127557   3.925   4.681  10.382 -3.2495  1.5643 -2.2611
 5308SOL    HW227558   3.923   4.654  10.524 -4.8741 -2.8636  0.5453
 5309SOL     OW27559   0.184   2.248   2.068 -0.3058 -0.2138 -0.1472
 5309SOL    HW127560   0.241   2.217   1.996 -0.6191 -0.2576 -0.3758
 5309SOL    HW227561   0.147   2.320   2.018  0.2316 -1.2279 -2.0169
 5310SOL     OW27562   3.242   4.106   5.427 -0.2155 -0.1309  1.0122
 5310SOL    HW127563   3.261   4.045   5.356 -1.5265 -0.1398  0.6803
 5310SOL    HW227564   3.314   4.169   5.414 -0.4205 -0.8100 -3.3633
 5311SOL     OW27565   0.548   4.564   3.543  0.0505  0.1517  0.1437
 5311SOL    HW127566   0.539   4.484   3.595 -2.4337  1.0482  1.0795
 5311SOL    HW227567   0.619   4.602   3.595  0.6760 -0.6170 -0.1532
 5312SOL     OW27568   1.002   3.451  16.593  0.0435 -0.0224  0.6997
 5312SOL    HW127569   0.980   3.543  16.580 -1.2650 -0.6188 -1.3046
 5312SOL    HW227570   0.962   3.425  16.676  2.2739 -0.2723  1.6850
 5313SOL     OW27571   2.181   0.556   2.521  0.1113 -0.3884  0.2085
 5313SOL    HW127572   2.134   0.485   2.476 -1.7066  0.7951  0.2132
 5313SOL    HW227573   2.188   0.530   2.613  0.2478 -1.2348 -0.0434
 5314SOL     OW27574   0.122   1.627   8.552 -0.6352 -0.4238  0.2189
 5314SOL    HW127575   0.108   1.604   8.460 -0.3953  0.1750  0.0325
 5314SOL    HW227576   0.032   1.625   8.585 -0.6123 -0.8572  0.2551
 5315SOL     OW27577   0.252   1.783   8.720 -0.4381 -0.3497  0.0052
 5315SOL    HW127578   0.339   1.775   8.681 -0.1671  0.0950  0.5146
 5315SOL    HW227579   0.192   1.726   8.672 -1.4705  1.6112 -1.0327
 5316SOL     OW27580   1.919   2.292  17.239  0.4930  0.1013  0.2650
 5316SOL    HW127581   1.840   2.239  17.241 -0.4138  1.4788  1.5404
 5316SOL    HW227582   1.947   2.270  17.328 -0.5990 -0.0861  0.5559
 5317SOL     OW27583   0.224   1.055  16.344 -0.7771 -0.0007  0.1141
 5317SOL    HW127584   0.252   0.975  16.389  0.1289 -0.9769 -2.1712
 5317SOL    HW227585   0.161   1.024  16.279 -1.3488 -0.1274  0.7184
 5318SOL     OW27586   1.169   4.188   8.457  0.1898  0.2504  0.5118
 5318SOL    HW127587   1.081   4.217   8.483 -1.6879 -2.9814 -2.4102
 5318SOL    HW227588   1.182   4.200   8.363  0.8726 -0.3662  0.5327
 5319SOL     OW27589   2.540   1.880   6.501 -0.5347  0.0516  0.1322
 5319SOL    HW127590   2.502   1.857   6.586  0.6482 -0.6476  0.4818
 5319SOL    HW227591   2.625   1.919   6.522  0.3669 -0.9321 -1.6352
 5320SOL     OW27592   2.069   2.295   7.442  0.4691  0.0907  0.3345
 5320SOL    HW127593   2.005   2.360   7.412  1.3841 -0.3152 -2.4738
 5320SOL    HW227594   2.035   2.263   7.525 -0.6103  0.9405  0.2214
 5321SOL     OW27595   1.432   2.670   6.282  0.2277  0.2193  0.0228
 5321SOL    HW127596   1.376   2.732   6.328  1.0123  1.2437 -0.4199
 5321SOL    HW227597   1.371   2.608   6.242 -0.4643  0.2406  1.0284
 5322SOL     OW27598   1.090   3.549  17.494  0.0848 -0.4345  0.3910
 5322SOL    HW127599   1.126   3.637  17.489  0.9343 -0.7482  0.9176
 5322SOL    HW227600   1.023   3.566  17.560  2.2316 -0.8139  2.6725
 5323SOL     OW27601   2.486   2.992   3.418  0.1360 -0.2076  0.5110
 5323SOL    HW127602   2.432   2.934   3.365 -0.0404  0.9623 -0.6198
 5323SOL    HW227603   2.422   3.028   3.479  0.6155  1.3778  0.1009
 5324SOL     OW27604   0.692   4.237   4.647 -0.4382 -0.0463 -0.3948
 5324SOL    HW127605   0.756   4.253   4.578 -1.6785  1.7557 -1.1530
 5324SOL    HW227606   0.612   4.231   4.594 -0.7507  0.6453 -0.0050
 5325SOL     OW27607   4.699   1.524   3.261 -0.2769 -0.4985  0.4475
 5325SOL    HW127608   0.036   1.543   3.322  0.5166  0.0171 -0.6227
 5325SOL    HW227609   4.631   1.510   3.326  0.0889 -0.8935  0.7476
 5326SOL     OW27610   1.309   2.462   0.077  0.1936  0.4700 -0.3412
 5326SOL    HW127611   1.338   2.478  17.723 -2.9144 -0.3427 -1.4898
 5326SOL    HW227612   1.233   2.520   0.079  0.0127  0.3056 -2.2294
 5327SOL     OW27613   3.536   2.530   6.546  0.2043 -0.3657 -0.0224
 5327SOL    HW127614   3.444   2.541   6.570  0.6882  1.0428  1.1078
 5327SOL    HW227615   3.581   2.596   6.598  0.2588 -1.8161  1.7595
 5328SOL     OW27616   1.222   0.348   2.297  0.1689 -0.1450  0.2095
 5328SOL    HW127617   1.308   0.315   2.272 -0.6818 -0.9605 -1.6037
 5328SOL    HW227618   1.170   0.306   2.228  0.3501  0.4283 -0.2726
 5329SOL     OW27619   4.133   0.513   6.573 -0.3275 -0.3821 -0.2508
 5329SOL    HW127620   4.095   0.542   6.490  2.3059 -0.8721 -1.6416
 5329SOL    HW227621   4.149   0.423   6.545 -1.5840 -0.3526 -1.0573
 5330SOL     OW27622   0.038   4.589   7.751  0.1560  0.0007 -0.1174
 5330SOL    HW127623   0.041   4.678   7.785  1.1964  0.1848 -0.6958
 5330SOL    HW227624   0.072   4.610   7.664  0.6553  1.4817  0.4288
 5331SOL     OW27625   1.201   0.357  12.547 -0.3091  0.2128  0.0983
 5331SOL    HW127626   1.197   0.452  12.562 -1.5712  0.0385  0.8638
 5331SOL    HW227627   1.248   0.353  12.464 -1.5569  0.2221 -0.5948
 5332SOL     OW27628   0.419   3.610   2.650  0.3296 -0.6491 -0.1955
 5332SOL    HW127629   0.417   3.705   2.658 -0.2128 -0.6004 -0.9353
 5332SOL    HW227630   0.459   3.612   2.563  0.8315  0.5236  0.0566
 5333SOL     OW27631   4.475   3.166  17.295  0.1788 -0.4541 -0.3905
 5333SOL    HW127632   4.434   3.233  17.240 -0.3035 -0.4757 -0.0618
 5333SOL    HW227633   4.465   3.093  17.235 -0.1927 -0.6310 -0.1128
 5334SOL     OW27634   3.298   2.280  11.747  0.3238 -0.2752  0.5118
 5334SOL    HW127635   3.331   2.365  11.777 -0.5440 -0.3921  1.8272
 5334SOL    HW227636   3.325   2.227  11.822  0.8627 -2.0379 -0.9352
 5335SOL     OW27637   2.981   0.559   1.201 -0.0549 -0.0433  0.2161
 5335SOL    HW127638   2.906   0.522   1.155  0.6069 -0.7831 -0.2869
 5335SOL    HW227639   3.016   0.595   1.119  0.6865 -1.3483 -0.0542
 5336SOL     OW27640   2.033   0.732   3.236 -0.0187 -0.2039 -0.0552
 5336SOL    HW127641   1.947   0.771   3.249  0.1474  0.4173 -0.7634
 5336SOL    HW227642   2.073   0.804   3.187 -1.1831  0.3778 -0.1407
 5337SOL     OW27643   0.193   0.633   5.578 -0.6953  0.0351  0.0461
 5337SOL    HW127644   0.127   0.694   5.546 -1.1423 -0.3041  0.3266
 5337SOL    HW227645   0.266   0.671   5.528 -1.8353  0.0667 -1.5933
 5338SOL     OW27646   2.886   3.623   6.511 -0.2730  0.5167  0.0862
 5338SOL    HW127647   2.957   3.683   6.534  0.7992  0.0667 -1.9935
 5338SOL    HW227648   2.827   3.626   6.586 -0.8395 -0.2679 -0.3279
 5339SOL     OW27649   1.807   2.000  11.576 -0.4340  0.6423  0.5105
 5339SOL    HW127650   1.886   2.047  11.550 -0.5651  0.9327  0.6334
 5339SOL    HW227651   1.736   2.060  11.555 -0.1525  0.9358  0.4070
 5340SOL     OW27652   1.620   4.029   1.640  0.3768  0.7902  0.0880
 5340SOL    HW127653   1.693   4.076   1.601  0.0305  0.6599 -0.7118
 5340SOL    HW227654   1.660   3.975   1.709  1.0147 -0.6988 -1.4376
 5341SOL     OW27655   3.224   0.053   5.929 -0.0314  0.3052  0.0446
 5341SOL    HW127656   3.283   4.720   5.963  0.4779 -0.3774 -2.1809
 5341SOL    HW227657   3.269   0.136   5.941 -3.4253  1.8977  1.5428
 5342SOL     OW27658   4.646   1.637   5.986 -0.4878 -0.0929 -0.4877
 5342SOL    HW127659   0.000   1.635   5.950  0.2755  2.6724  1.2125
 5342SOL    HW227660   4.591   1.621   5.909  0.1998 -0.2484 -0.9443
 5343SOL     OW27661   0.362   2.671   4.903  0.2011 -0.3773 -0.1772
 5343SOL    HW127662   0.304   2.609   4.947  1.7937 -2.4757 -0.9844
 5343SOL    HW227663   0.395   2.616   4.831 -1.2242  0.4716 -1.4537
 5344SOL     OW27664   1.476   4.385   3.838  0.9172 -0.6458 -0.1040
 5344SOL    HW127665   1.466   4.446   3.911  4.8305 -0.3796  0.2374
 5344SOL    HW227666   1.389   4.361   3.808 -0.3375  1.6778  1.6713
 5345SOL     OW27667   2.382   0.742   5.777 -0.3921  0.1617 -0.0216
 5345SOL    HW127668   2.402   0.720   5.686 -0.1934 -0.9628  0.2966
 5345SOL    HW227669   2.304   0.796   5.763 -0.1217  1.7402  4.5717
 5346SOL     OW27670   3.733   2.414   3.840  0.0337  0.0828  0.1264
 5346SOL    HW127671   3.826   2.430   3.827 -0.1104  0.2115 -0.7052
 5346SOL    HW227672   3.738   2.439   3.932  1.6919  1.1196 -0.2427
 5347SOL     OW27673   2.249   0.186   9.632 -0.0697 -0.5411 -0.4857
 5347SOL    HW127674   2.328   0.155   9.676 -0.7481  1.8609  2.3957
 5347SOL    HW227675   2.283   0.180   9.542 -1.1054  1.1054 -0.9832
 5348SOL     OW27676   0.419   4.221   9.761 -0.2927  0.4547 -0.2126
 5348SOL    HW127677   0.357   4.242   9.691  0.1368 -0.9088 -1.0089
 5348SOL    HW227678   0.443   4.309   9.790  0.6970  0.3587 -0.7499
 5349SOL     OW27679   1.882   3.577   0.798  0.0457  0.7765  0.2224
 5349SOL    HW127680   1.967   3.538   0.781  1.0763  2.2272  2.0270
 5349SOL    HW227681   1.882   3.555   0.891 -0.6308  1.6280  0.4305
 5350SOL     OW27682   0.530   1.607   6.547  0.4617  0.2235 -0.5316
 5350SOL    HW127683   0.471   1.674   6.581 -0.0674 -0.0612 -0.8943
 5350SOL    HW227684   0.526   1.621   6.452 -1.5526 -0.8520 -0.6005
 5351SOL     OW27685   1.494   2.615   9.676 -0.3654  0.6827 -0.3349
 5351SOL    HW127686   1.426   2.559   9.714  1.1409  0.2321  1.6682
 5351SOL    HW227687   1.529   2.569   9.599  2.2936  1.6909  0.2785
 5352SOL     OW27688   1.440   1.009   0.422 -0.2244 -0.4220 -0.0303
 5352SOL    HW127689   1.443   0.915   0.404 -1.3346 -0.5328  0.3652
 5352SOL    HW227690   1.467   1.006   0.514 -0.7663 -3.2831  0.0140
 5353SOL     OW27691   3.818   4.519  14.735 -0.1830  0.2894  0.1642
 5353SOL    HW127692   3.729   4.529  14.701 -0.2520  1.0679  0.5645
 5353SOL    HW227693   3.842   4.439  14.689  1.5501  1.1450 -0.4021
 5354SOL     OW27694   2.360   0.602  13.482  0.2496 -0.5643  0.2789
 5354SOL    HW127695   2.356   0.507  13.468 -3.5016 -0.5448  1.2818
 5354SOL    HW227696   2.440   0.618  13.532 -0.6441 -0.0189  1.5324
 5355SOL     OW27697   0.119   3.947  14.860 -0.6705  0.0878 -0.2268
 5355SOL    HW127698   0.085   3.992  14.937  0.0695 -1.3817  0.9632
 5355SOL    HW227699   0.053   3.963  14.793 -1.1389 -0.6371  0.0620
 5356SOL     OW27700   3.530   1.993  11.720 -0.2065 -0.0620 -0.0123
 5356SOL    HW127701   3.444   1.954  11.734 -1.5848  3.3252  0.9481
 5356SOL    HW227702   3.589   1.917  11.717 -2.6446 -1.8845 -1.5037
 5357SOL     OW27703   3.286   2.945  13.782  0.2031 -0.4241  0.3879
 5357SOL    HW127704   3.309   2.852  13.787  1.1569 -0.2992 -1.5580
 5357SOL    HW227705   3.246   2.951  13.695  2.0876 -2.2518 -0.6074
 5358SOL     OW27706   0.917   3.188  17.643 -0.5018  0.1245 -0.3097
 5358SOL    HW127707   0.976   3.214  17.573  1.5471  0.9342  1.7250
 5358SOL    HW227708   0.880   3.274  17.662 -0.1758  0.2316 -0.1609
 5359SOL     OW27709   3.966   2.158   3.513 -0.4010 -0.1531  0.1086
 5359SOL    HW127710   4.052   2.190   3.536 -1.8644  2.5515  1.7487
 5359SOL    HW227711   3.945   2.090   3.577 -1.0175 -0.4257 -0.3756
 5360SOL     OW27712   2.724   4.498   5.380 -0.1872 -0.9488 -0.0794
 5360SOL    HW127713   2.692   4.471   5.466 -0.8052  0.8916  0.2534
 5360SOL    HW227714   2.653   4.560   5.364 -1.1291 -1.7024  1.0854
 5361SOL     OW27715   3.551   1.670   7.524  0.0347  0.5095  0.7632
 5361SOL    HW127716   3.529   1.580   7.499 -1.4015  0.1248  3.5076
 5361SOL    HW227717   3.542   1.704   7.435 -1.3948  2.7944  1.7897
 5362SOL     OW27718   1.409   1.778  17.150  0.2304 -0.3722  0.1572
 5362SOL    HW127719   1.399   1.707  17.214 -1.9525 -1.2740 -1.2132
 5362SOL    HW227720   1.433   1.721  17.077  2.1835  0.7161 -0.0511
 5363SOL     OW27721   1.133   2.922   1.363 -0.0551  0.1932  0.4205
 5363SOL    HW127722   1.151   2.884   1.277 -0.9512 -0.1774  0.3975
 5363SOL    HW227723   1.049   2.964   1.347  0.9882  1.2156 -2.3592
 5364SOL     OW27724   0.696   0.945   9.022  0.2942  0.1749 -0.3540
 5364SOL    HW127725   0.602   0.949   9.005  0.5505 -2.6444 -2.4777
 5364SOL    HW227726   0.725   1.012   8.960 -1.7376  2.1044  0.7906
 5365SOL     OW27727   3.434   2.152  11.955  0.2242  0.3182 -0.2865
 5365SOL    HW127728   3.466   2.168  12.043 -0.0416 -0.4887 -0.0421
 5365SOL    HW227729   3.493   2.084  11.923  1.6918  2.6213 -2.5021
 5366SOL     OW27730   3.155   3.322   5.415 -0.5597 -0.2509 -0.0213
 5366SOL    HW127731   3.209   3.386   5.370 -0.4068 -0.2638  0.1449
 5366SOL    HW227732   3.121   3.266   5.345 -0.9502 -0.5141  0.3794
 5367SOL     OW27733   3.468   0.800   8.505  0.0247  0.0804  0.2042
 5367SOL    HW127734   3.446   0.889   8.531  0.1949  0.3478 -0.5732
 5367SOL    HW227735   3.545   0.779   8.558 -0.8901 -0.1029  1.4447
 5368SOL     OW27736   2.608   3.605   8.546 -0.2261  0.1244  0.6827
 5368SOL    HW127737   2.615   3.656   8.465  0.0479 -1.6627 -0.4321
 5368SOL    HW227738   2.668   3.534   8.521  0.3470  0.6392  0.5931
 5369SOL     OW27739   3.754   1.912   0.977 -0.8344 -0.5761 -0.0339
 5369SOL    HW127740   3.659   1.907   0.971 -0.7861 -2.8327  1.0708
 5369SOL    HW227741   3.776   2.004   0.993 -1.6077 -0.1850 -1.2392
 5370SOL     OW27742   2.637   2.013  14.210  0.0599 -0.4569  0.3418
 5370SOL    HW127743   2.569   2.078  14.192  1.1900  0.9491  1.1588
 5370SOL    HW227744   2.615   1.977  14.296 -1.4682 -1.1796 -0.3518
 5371SOL     OW27745   3.680   3.471  11.432 -0.1150 -0.1589  0.0528
 5371SOL    HW127746   3.616   3.519  11.485 -0.3657 -0.8945  0.4030
 5371SOL    HW227747   3.695   3.387  11.475  0.7539 -0.1960 -0.3223
 5372SOL     OW27748   4.133   4.352   4.296 -0.2124  0.2988 -0.4788
 5372SOL    HW127749   4.043   4.383   4.286  0.0288  0.9855 -0.5222
 5372SOL    HW227750   4.128   4.330   4.389  0.9148 -0.9959 -0.7316
 5373SOL     OW27751   3.252   3.942   5.228  0.1482  0.9004  0.0203
 5373SOL    HW127752   3.262   3.947   5.133  0.9723 -1.7318 -0.0478
 5373SOL    HW227753   3.321   3.878   5.249 -0.9145  0.3954  1.8950
 5374SOL     OW27754   1.866   2.481   7.376  0.2577  0.0129 -0.6324
 5374SOL    HW127755   1.771   2.487   7.372  0.0087 -2.7812  1.0673
 5374SOL    HW227756   1.882   2.569   7.342  1.4428  1.0580  2.6065
 5375SOL     OW27757   4.152   3.978   1.285 -0.0283  0.1142 -0.5841
 5375SOL    HW127758   4.153   4.036   1.209  1.7111  1.3516  0.3948
 5375SOL    HW227759   4.170   3.896   1.238  1.2566 -0.3046  0.6537
 5376SOL     OW27760   2.676   0.169  14.231 -0.1478  0.5388  0.1370
 5376SOL    HW127761   2.764   0.196  14.259  1.4102 -2.5310 -1.6868
 5376SOL    HW227762   2.661   0.228  14.158 -0.6057  0.5216  0.2216
 5377SOL     OW27763   2.967   2.607  16.544 -0.4759 -0.1579  0.6456
 5377SOL    HW127764   2.978   2.702  16.539  0.5066 -0.3220 -0.3450
 5377SOL    HW227765   2.880   2.592  16.508  0.1007 -2.6060  0.2746
 5378SOL     OW27766   0.973   3.372   2.757  0.2474 -0.0524 -0.2931
 5378SOL    HW127767   0.931   3.359   2.842  2.4846  3.5197  1.3624
 5378SOL    HW227768   1.050   3.316   2.770  0.2733 -0.0398 -0.3919
 5379SOL     OW27769   1.946   0.993   3.371  0.3880  0.1979  0.0808
 5379SOL    HW127770   1.983   1.051   3.438 -0.9507  0.7458  0.3489
 5379SOL    HW227771   1.902   0.920   3.414  0.5968  0.4402  0.7066
 5380SOL     OW27772   2.445   0.595   1.416 -0.0981  0.5250  0.2148
 5380SOL    HW127773   2.456   0.647   1.495  1.6324  2.0919 -1.0679
 5380SOL    HW227774   2.519   0.534   1.409  0.4722  1.4232 -1.3646
 5381SOL     OW27775   0.024   2.166   9.740 -0.6563 -0.3323 -0.4908
 5381SOL    HW127776   0.032   2.238   9.678 -0.0281  0.4176  0.4468
 5381SOL    HW227777   0.037   2.217   9.820 -0.5384 -2.9659  1.1921
 5382SOL     OW27778   0.723   1.542  10.143 -0.0889 -0.5409  0.1937
 5382SOL    HW127779   0.699   1.451  10.126 -0.0982 -0.3376 -0.8784
 5382SOL    HW227780   0.642   1.578  10.180 -1.8559 -1.2632 -2.9784
 5383SOL     OW27781   3.233   3.158   2.905  0.3057 -0.0601 -0.1742
 5383SOL    HW127782   3.143   3.187   2.913 -0.0217 -0.9130 -0.6989
 5383SOL    HW227783   3.230   3.140   2.811 -2.6136  0.1433 -0.0936
 5384SOL     OW27784   4.253   2.597   3.214 -0.0182  0.7701 -0.0969
 5384SOL    HW127785   4.161   2.620   3.227  0.1775  1.8910 -0.6797
 5384SOL    HW227786   4.244   2.503   3.200  0.1287  1.2403 -3.3244
 5385SOL     OW27787   0.200   3.666  11.381 -0.2017  0.8317 -0.1634
 5385SOL    HW127788   0.178   3.745  11.332  2.1891  1.6666  0.1523
 5385SOL    HW227789   0.112   3.636  11.405  0.8834 -1.0711  1.4209
 5386SOL     OW27790   4.557   0.551   7.105  0.2557 -0.3629 -0.3063
 5386SOL    HW127791   4.605   0.617   7.156  0.5025 -0.4551 -0.4195
 5386SOL    HW227792   4.548   0.586   7.017  3.0253 -3.1243 -1.6837
 5387SOL     OW27793   3.342   3.116   9.641  0.3911 -0.0583  0.2116
 5387SOL    HW127794   3.250   3.144   9.648 -0.0554 -1.3513 -0.5679
 5387SOL    HW227795   3.344   3.062   9.563 -0.6621 -2.6684  2.0055
 5388SOL     OW27796   1.850   1.795   5.569 -0.2349 -0.4156 -0.4906
 5388SOL    HW127797   1.941   1.778   5.542 -0.3966 -0.4848 -0.9927
 5388SOL    HW227798   1.811   1.832   5.490 -0.5026 -0.1442 -0.2309
 5389SOL     OW27799   4.076   3.118   7.938  0.6799  0.3370  0.2769
 5389SOL    HW127800   4.129   3.120   8.018  0.0711 -0.2918  0.6964
 5389SOL    HW227801   4.058   3.024   7.925  2.9390  0.0731 -0.8725
 5390SOL     OW27802   3.288   0.684   0.973 -0.4719 -0.0371  0.0029
 5390SOL    HW127803   3.300   0.589   0.975  0.6762  0.1112  0.3114
 5390SOL    HW227804   3.336   0.711   0.895 -0.1593  0.0618  0.2286
 5391SOL     OW27805   2.577   0.361   4.951  0.0652 -0.1658 -0.4711
 5391SOL    HW127806   2.607   0.339   4.862 -1.5574 -0.2144 -1.0140
 5391SOL    HW227807   2.499   0.415   4.941 -0.1433 -0.4388 -0.3207
 5392SOL     OW27808   1.160   2.621   7.535 -0.3898  0.3125 -0.0736
 5392SOL    HW127809   1.236   2.601   7.481 -0.4607 -1.0344  0.3280
 5392SOL    HW227810   1.168   2.716   7.524 -0.2241  0.1414 -1.4056
 5393SOL     OW27811   2.185   0.733   3.676  0.3435 -0.3187  0.5442
 5393SOL    HW127812   2.089   0.734   3.683  0.3780 -2.1631  1.3547
 5393SOL    HW227813   2.189   0.703   3.585  0.8474 -0.5968  0.6567
 5394SOL     OW27814   1.849   3.087   0.158 -0.5010  0.6157 -0.0465
 5394SOL    HW127815   1.890   3.004   0.134 -2.4463 -0.1824 -0.5652
 5394SOL    HW227816   1.909   3.111   0.230  1.0799  1.3640 -1.6225
 5395SOL     OW27817   2.685   0.825   6.829 -0.0625 -0.4859 -0.5050
 5395SOL    HW127818   2.617   0.878   6.790 -1.4992 -1.5357  0.5501
 5395SOL    HW227819   2.738   0.891   6.873 -1.7301 -0.5376  1.5986
 5396SOL     OW27820   2.443   2.819   8.677 -0.4168 -0.4273  0.0542
 5396SOL    HW127821   2.532   2.855   8.674 -0.8979  0.9466  2.4368
 5396SOL    HW227822   2.460   2.729   8.704 -0.1922 -0.6051 -0.6742
 5397SOL     OW27823   0.068   1.172  11.804 -0.3384 -0.4582 -0.1427
 5397SOL    HW127824   0.108   1.126  11.878  1.2407  0.3206 -0.5013
 5397SOL    HW227825   0.121   1.132  11.735  1.0799  1.5743 -0.2257
 5398SOL     OW27826   0.159   3.105   3.556  0.0195  0.3692  0.3034
 5398SOL    HW127827   0.188   3.160   3.629 -1.0747 -0.1885  1.1796
 5398SOL    HW227828   0.163   3.170   3.486 -0.4363 -0.3506 -0.3910
 5399SOL     OW27829   3.901   0.175   3.508 -0.1969 -0.3218 -0.4671
 5399SOL    HW127830   3.825   0.224   3.477 -0.8135  0.4910  2.3672
 5399SOL    HW227831   3.973   0.220   3.464 -1.6368  0.9722 -1.5089
 5400SOL     OW27832   4.397   1.800   8.590 -0.0953  0.0001  0.1262
 5400SOL    HW127833   4.470   1.747   8.624 -1.5468  0.6648  4.2742
 5400SOL    HW227834   4.403   1.879   8.643 -1.2161 -0.3026  0.7183
 5401SOL     OW27835   2.445   3.052   7.746 -0.2596 -0.2301 -0.2723
 5401SOL    HW127836   2.420   2.959   7.747 -1.2460  0.0498  1.0711
 5401SOL    HW227837   2.515   3.045   7.810 -1.2991  0.8161  0.9698
 5402SOL     OW27838   2.639   0.208  12.743 -0.3552  0.1604  0.0683
 5402SOL    HW127839   2.631   0.237  12.652 -0.2953  0.2183  0.0808
 5402SOL    HW227840   2.591   0.277  12.788 -0.1895  0.9013 -0.8717
 5403SOL     OW27841   0.207   2.602  15.710  0.0685 -0.0784 -0.1206
 5403SOL    HW127842   0.160   2.613  15.627 -1.5411 -2.7827  0.4255
 5403SOL    HW227843   0.139   2.557  15.761  0.1135 -1.1692 -1.0109
 5404SOL     OW27844   2.625   3.922   8.838 -0.0471  0.0502  0.2794
 5404SOL    HW127845   2.594   3.943   8.750  3.6012 -1.4561 -1.3649
 5404SOL    HW227846   2.542   3.919   8.886 -0.2073 -0.1121 -0.0088
 5405SOL     OW27847   2.590   1.048  11.949  0.6697 -0.3490 -0.0227
 5405SOL    HW127848   2.656   1.104  11.907 -1.3609  2.4710  0.5096
 5405SOL    HW227849   2.640   0.996  12.011 -1.0649 -1.2194  0.6100
 5406SOL     OW27850   0.367   2.730   1.487 -0.5872  0.4558  0.1108
 5406SOL    HW127851   0.277   2.763   1.485 -0.3015  1.3269  1.2888
 5406SOL    HW227852   0.359   2.646   1.532  0.7904  0.8462  1.0561
 5407SOL     OW27853   1.521   0.079   6.880 -0.7871  0.8966 -0.3834
 5407SOL    HW127854   1.519   0.044   6.969 -1.1728 -1.0483 -1.1498
 5407SOL    HW227855   1.601   0.034   6.853 -0.1810  0.6118  1.8969
 5408SOL     OW27856   3.887   1.321  13.265  0.1079 -0.6167 -0.0035
 5408SOL    HW127857   3.796   1.311  13.292  0.4963 -1.2279  1.0767
 5408SOL    HW227858   3.895   1.414  13.245  0.4344 -1.1059 -2.1530
 5409SOL     OW27859   1.103   4.277   4.102 -0.3138  0.1926 -0.3896
 5409SOL    HW127860   1.058   4.219   4.164  0.2989 -1.1650 -1.2105
 5409SOL    HW227861   1.123   4.349   4.162  0.4523 -1.6732  1.5827
 5410SOL     OW27862   2.929   0.152   4.697 -0.1024  0.0806  0.4619
 5410SOL    HW127863   3.020   0.128   4.716 -0.9648 -0.9633  3.2274
 5410SOL    HW227864   2.934   0.152   4.602 -0.8992  1.5046  0.4231
 5411SOL     OW27865   4.244   3.006   3.286  0.3489 -0.7348  0.2881
 5411SOL    HW127866   4.306   2.934   3.272  0.1250 -0.4092 -2.2835
 5411SOL    HW227867   4.292   3.070   3.233  0.3831 -0.8665  0.1608
 5412SOL     OW27868   0.812   4.692   2.229 -0.1893  0.0819 -0.5133
 5412SOL    HW127869   0.798   0.038   2.280  0.5258 -0.5217  0.6373
 5412SOL    HW227870   0.755   4.627   2.269  0.4023  0.4954  0.9952
 5413SOL     OW27871   3.066   2.432  15.850 -0.8540  0.0142 -0.8173
 5413SOL    HW127872   3.156   2.456  15.873 -1.4253  1.6405 -0.3050
 5413SOL    HW227873   3.070   2.466  15.761 -3.0785  1.3918 -0.3828
 5414SOL     OW27874   1.656   3.741   7.023  0.7225 -0.5762 -0.2537
 5414SOL    HW127875   1.606   3.788   6.957  2.7122  1.4255 -0.3427
 5414SOL    HW227876   1.591   3.759   7.092  0.8310  0.8755 -0.5276
 5415SOL     OW27877   2.660   4.201   7.262  1.0526  0.2539 -0.1060
 5415SOL    HW127878   2.685   4.113   7.289  1.0140  0.1118 -0.5226
 5415SOL    HW227879   2.566   4.195   7.281  0.9594 -0.2414 -0.7476
 5416SOL     OW27880   2.727   0.780  11.803  0.4025 -0.8606 -0.8612
 5416SOL    HW127881   2.651   0.806  11.750  1.3692  1.1910 -1.2274
 5416SOL    HW227882   2.795   0.810  11.743 -1.4891 -0.5939 -2.8987
 5417SOL     OW27883   4.044   3.702   5.729  0.1212 -0.7184 -0.5445
 5417SOL    HW127884   3.965   3.746   5.697 -0.6717  0.5004  3.0596
 5417SOL    HW227885   4.021   3.683   5.820 -3.2338 -1.2992 -1.5187
 5418SOL     OW27886   2.009   1.715   7.250 -0.2484  0.0010  0.0377
 5418SOL    HW127887   1.923   1.732   7.212 -0.1285 -1.1131 -0.7406
 5418SOL    HW227888   2.023   1.627   7.216 -1.6176  0.0178 -0.5795
 5419SOL     OW27889   1.559   0.031   7.850  0.1187 -0.2784 -0.5121
 5419SOL    HW127890   1.647   0.059   7.823 -0.6860  0.0506 -2.7494
 5419SOL    HW227891   1.524   0.118   7.871  4.1016  0.7937  1.6860
 5420SOL     OW27892   2.875   0.049   8.513  0.7588  0.5580 -0.3331
 5420SOL    HW127893   2.837   0.006   8.590  2.6770  0.4877  0.5615
 5420SOL    HW227894   2.940   4.721   8.480  2.0053  2.0018 -0.6271
 5421SOL     OW27895   3.963   0.202   6.698  0.5359  0.2068 -0.3400
 5421SOL    HW127896   3.996   0.114   6.712 -0.4145  0.4880  3.5808
 5421SOL    HW227897   4.036   0.247   6.654  0.6963  0.0312 -0.2522
 5422SOL     OW27898   4.500   3.076   5.396 -0.4187 -0.3877 -0.3525
 5422SOL    HW127899   4.559   3.151   5.398 -1.5704  0.4834  1.2817
 5422SOL    HW227900   4.413   3.107   5.370 -0.7862 -0.8379  0.3291
 5423SOL     OW27901   1.402   2.203   9.293 -0.0583  0.5046 -0.0685
 5423SOL    HW127902   1.382   2.294   9.269 -1.5351 -0.1441 -1.3368
 5423SOL    HW227903   1.497   2.203   9.295 -0.1061 -0.4443  2.0343
 5424SOL     OW27904   2.784   1.312   7.324 -0.0725 -0.2170 -0.2058
 5424SOL    HW127905   2.803   1.406   7.325  1.3004 -0.4936 -0.4888
 5424SOL    HW227906   2.798   1.288   7.232  0.0348  2.3367 -0.8807
 5425SOL     OW27907   2.664   4.092   4.386  0.0089  0.0661  0.1668
 5425SOL    HW127908   2.570   4.076   4.389  0.2809 -1.0581  2.3778
 5425SOL    HW227909   2.674   4.187   4.382  1.3703 -0.1249 -1.2249
 5426SOL     OW27910   3.238   3.539  11.971 -0.2003  0.0391  0.5951
 5426SOL    HW127911   3.279   3.614  11.927 -0.0031 -0.2898  0.2142
 5426SOL    HW227912   3.191   3.494  11.901  0.6470  0.5179 -0.2776
 5427SOL     OW27913   3.378   2.018   3.521 -0.0448 -0.2375  0.2766
 5427SOL    HW127914   3.371   2.113   3.513 -2.8385 -0.3865  1.2527
 5427SOL    HW227915   3.328   1.983   3.448  0.6566  1.2525 -0.9220
 5428SOL     OW27916   1.387   4.346   7.991  0.7537  0.0512 -0.1867
 5428SOL    HW127917   1.482   4.351   7.995  0.4913  3.4525  2.1331
 5428SOL    HW227918   1.356   4.431   7.960 -0.1489 -1.4799 -3.5579
 5429SOL     OW27919   1.405   2.986   6.553 -0.4429  0.0275  0.7619
 5429SOL    HW127920   1.489   3.023   6.527 -0.3461 -0.6697  0.0879
 5429SOL    HW227921   1.343   3.054   6.525 -0.3023  1.3820  3.7269
 5430SOL     OW27922   3.691   4.554   5.000  0.4792 -0.3479  0.1998
 5430SOL    HW127923   3.730   4.606   5.070  0.3044  0.0412  0.0081
 5430SOL    HW227924   3.765   4.519   4.951  0.3789  0.7230 -0.7056
 5431SOL     OW27925   4.434   3.901  13.716  0.0499 -0.3368  0.6572
 5431SOL    HW127926   4.348   3.906  13.759  1.6013 -0.4761  3.7645
 5431SOL    HW227927   4.479   3.832  13.764  0.0995  0.2653  1.4762
 5432SOL     OW27928   3.250   4.443  11.803  0.2863 -0.6268  0.0522
 5432SOL    HW127929   3.230   4.527  11.842 -0.0930  0.1948 -1.8850
 5432SOL    HW227930   3.285   4.406  11.884 -1.4710 -0.4545  0.8955
 5433SOL     OW27931   1.599   0.480  15.307  0.1175 -0.5838  0.3166
 5433SOL    HW127932   1.559   0.564  15.287  1.1471  0.1256  1.2729
 5433SOL    HW227933   1.584   0.474  15.401 -3.2444  1.0073 -0.1489
 5434SOL     OW27934   3.262   0.215   6.765  0.0106  0.3513 -0.2115
 5434SOL    HW127935   3.346   0.259   6.751 -0.7984  1.6425 -0.9920
 5434SOL    HW227936   3.234   0.245   6.851 -0.2875  0.1935 -0.2521
 5435SOL     OW27937   0.868   1.992   7.950  0.4461 -0.4528 -0.0234
 5435SOL    HW127938   0.826   1.946   7.878  0.3025 -1.6590  0.8365
 5435SOL    HW227939   0.886   2.075   7.906 -2.5597  0.1550 -0.1654
 5436SOL     OW27940   3.968   4.051   3.897 -0.5485 -0.2754  0.0168
 5436SOL    HW127941   4.017   4.131   3.878 -1.5707  0.8959  2.4187
 5436SOL    HW227942   4.028   3.981   3.873 -0.5314 -1.2482  2.8888
 5437SOL     OW27943   0.376   0.230  12.086 -0.3530  0.0481 -0.7965
 5437SOL    HW127944   0.318   0.289  12.039 -2.9861 -1.7709  0.1639
 5437SOL    HW227945   0.336   0.143  12.096 -0.0991 -0.1474 -1.4885
 5438SOL     OW27946   2.200   0.227  16.232  0.0152  0.3381 -0.2951
 5438SOL    HW127947   2.119   0.200  16.273 -0.9711  1.0203 -1.8007
 5438SOL    HW227948   2.229   0.139  16.206 -2.0958 -0.4860  0.2036
 5439SOL     OW27949   2.826   0.905   2.741  0.2079  0.0806  0.2943
 5439SOL    HW127950   2.766   0.975   2.716  0.4813  0.3600  0.4302
 5439SOL    HW227951   2.821   0.851   2.661 -0.6184  1.6830 -0.7196
 5440SOL     OW27952   4.213   1.243   9.197  0.7485 -0.8197  0.2226
 5440SOL    HW127953   4.276   1.214   9.262  0.2925 -1.3669  0.4200
 5440SOL    HW227954   4.132   1.208   9.233  0.6207 -1.3835 -0.6006
 5441SOL     OW27955   1.898   0.937   5.303 -0.9004 -0.0159 -0.0246
 5441SOL    HW127956   1.954   0.859   5.305  0.5184  1.0066 -0.1815
 5441SOL    HW227957   1.819   0.905   5.259 -1.6434  0.3882  1.0276
 5442SOL     OW27958   0.511   2.987   8.580 -0.1138  0.3325 -0.0323
 5442SOL    HW127959   0.470   3.073   8.577  2.0894  1.3042 -1.8431
 5442SOL    HW227960   0.431   2.943   8.550  0.2428 -0.2691 -0.1011
 5443SOL     OW27961   4.540   4.417   5.255 -0.1797 -0.0714 -0.4734
 5443SOL    HW127962   4.476   4.385   5.318  1.6304  0.5236  1.6826
 5443SOL    HW227963   4.610   4.384   5.312  0.0898  2.2823  0.5959
 5444SOL     OW27964   2.774   3.250   0.166 -0.1294 -0.4471  0.1553
 5444SOL    HW127965   2.840   3.183   0.147 -0.0927  0.2004 -2.0269
 5444SOL    HW227966   2.831   3.319   0.199 -0.1706 -1.0777  1.5425
 5445SOL     OW27967   3.296   0.058   9.389  0.3363  0.0659  0.7604
 5445SOL    HW127968   3.259   0.145   9.370 -3.2855 -2.2537 -2.7815
 5445SOL    HW227969   3.333   0.071   9.476  0.8528  1.2243  0.3714
 5446SOL     OW27970   3.545   0.381   6.946  0.1632  0.2936  0.7154
 5446SOL    HW127971   3.470   0.422   6.989 -1.6007 -1.2444 -0.8972
 5446SOL    HW227972   3.615   0.384   7.011  1.3214  1.6740 -0.5805
 5447SOL     OW27973   4.246   4.318   6.198 -0.5597  0.4021 -0.0588
 5447SOL    HW127974   4.213   4.232   6.172 -0.0632  0.8625 -2.2681
 5447SOL    HW227975   4.339   4.310   6.176 -0.4642 -0.4711  0.6853
 5448SOL     OW27976   1.951   2.580   5.104  0.0832 -0.7103  0.0591
 5448SOL    HW127977   2.010   2.533   5.045  0.2133 -0.3069 -0.1333
 5448SOL    HW227978   1.926   2.654   5.048  1.1134 -0.5635 -0.2026
 5449SOL     OW27979   0.687   4.022   4.829  0.4026  0.2695  0.3083
 5449SOL    HW127980   0.726   4.085   4.769  1.5129  0.8451  1.6198
 5449SOL    HW227981   0.683   4.077   4.907  0.7371  0.3190  0.2906
 5450SOL     OW27982   3.836   0.092   1.008 -0.1077  0.2008 -0.2706
 5450SOL    HW127983   3.849   0.021   0.945  2.0008  0.3924 -0.0405
 5450SOL    HW227984   3.792   0.161   0.958 -2.6240  0.1549  1.9242
 5451SOL     OW27985   2.868   1.105   5.466  0.0231 -0.0840  0.2603
 5451SOL    HW127986   2.823   1.137   5.387 -0.2953 -0.3559  0.3340
 5451SOL    HW227987   2.941   1.065   5.418  0.1802 -0.1387  0.5444
 5452SOL     OW27988   3.260   0.200   5.563  0.6172  0.0640 -0.0024
 5452SOL    HW127989   3.330   0.232   5.619 -0.0038  1.1975  0.1245
 5452SOL    HW227990   3.321   0.182   5.491  0.3181  2.0888 -0.7837
 5453SOL     OW27991   4.360   3.276  16.843  0.1666 -0.3994 -0.3214
 5453SOL    HW127992   4.348   3.281  16.749 -0.7911  0.4470 -0.1539
 5453SOL    HW227993   4.455   3.290  16.843  0.2406 -0.8624  1.3278
 5454SOL     OW27994   4.616   3.031   1.177 -1.2472  0.2431  0.4152
 5454SOL    HW127995   4.605   2.941   1.145  0.1481 -0.5859  2.3069
 5454SOL    HW227996   4.641   3.018   1.268 -0.1042 -1.7323 -0.1629
 5455SOL     OW27997   4.680   1.940   3.674  0.3219 -0.4029  0.1840
 5455SOL    HW127998   4.589   1.960   3.695  1.6069  5.2086  0.5562
 5455SOL    HW227999   4.677   1.847   3.697 -3.4429 -0.3235 -0.0058
 5456SOL     OW28000   2.967   0.537   5.669  0.2691 -0.3221 -0.2190
 5456SOL    HW128001   3.057   0.507   5.652 -0.1157 -1.5132 -0.1328
 5456SOL    HW228002   2.908   0.499   5.604  1.6350 -1.2093 -0.9642
 5457SOL     OW28003   2.660   4.124   2.198  0.1296  0.4770  0.5466
 5457SOL    HW128004   2.699   4.195   2.250  0.7956  1.5373 -1.4141
 5457SOL    HW228005   2.612   4.166   2.127  0.3091  0.5963  0.4961
 5458SOL     OW28006   4.143   3.840  13.491 -0.2679  0.3947  0.3077
 5458SOL    HW128007   4.096   3.863  13.572 -0.7326 -0.6125  0.3321
 5458SOL    HW228008   4.150   3.928  13.455  0.3918 -0.8905 -2.6881
 5459SOL     OW28009   2.478   3.872   7.982 -0.0457 -0.0151 -0.9038
 5459SOL    HW128010   2.455   3.918   7.901 -1.0723  1.8107  0.4285
 5459SOL    HW228011   2.414   3.801   7.983 -0.5185  0.4339  2.0726
 5460SOL     OW28012   1.462   1.144   9.327  0.1115 -0.5703  0.4264
 5460SOL    HW128013   1.408   1.126   9.404 -3.3188  0.3081 -1.7920
 5460SOL    HW228014   1.401   1.132   9.254 -0.0686 -0.1084  0.5004
 5461SOL     OW28015   2.638   3.349  10.812  0.4856  0.0670  0.4802
 5461SOL    HW128016   2.605   3.420  10.867 -0.9243  1.1548 -1.7647
 5461SOL    HW228017   2.601   3.360  10.724 -0.4671 -0.5605  0.8039
 5462SOL     OW28018   3.631   4.171   8.940  0.3305  0.0313  0.6736
 5462SOL    HW128019   3.570   4.195   9.010 -1.0579 -0.4030 -0.3921
 5462SOL    HW228020   3.713   4.192   8.984 -0.2965  2.6865  0.5845
 5463SOL     OW28021   0.129   4.064   5.579  0.3616 -0.3788  0.2862
 5463SOL    HW128022   0.145   4.090   5.488 -0.2095 -0.1330  0.2582
 5463SOL    HW228023   0.102   4.152   5.606  1.4261 -0.1482  0.5774
 5464SOL     OW28024   2.419   3.499   6.623 -0.1103  0.3227  0.3435
 5464SOL    HW128025   2.458   3.573   6.577  0.7868 -0.1168  0.3844
 5464SOL    HW228026   2.366   3.454   6.558 -1.0989  0.6895  0.8880
 5465SOL     OW28027   2.783   0.074   7.975  0.4222  0.4133 -0.3364
 5465SOL    HW128028   2.753   0.107   7.890 -1.4198 -1.4114 -0.3897
 5465SOL    HW228029   2.790   0.150   8.032  1.8840  1.4247 -1.8575
 5466SOL     OW28030   2.964   2.416   4.114 -0.1272 -0.1971 -0.5306
 5466SOL    HW128031   3.047   2.463   4.111  0.4749 -1.1525  2.2071
 5466SOL    HW228032   2.974   2.326   4.084 -1.2684 -0.7704  0.8393
 5467SOL     OW28033   3.287   4.481   3.274 -0.6995 -0.7120  0.5821
 5467SOL    HW128034   3.232   4.419   3.225 -3.0976  0.3981  1.9088
 5467SOL    HW228035   3.232   4.558   3.262  0.4764  0.1364  0.6416
 5468SOL     OW28036   1.946   1.393   7.464 -0.3612  0.4496  0.7515
 5468SOL    HW128037   1.877   1.327   7.474  0.1215 -0.4768 -1.9965
 5468SOL    HW228038   1.912   1.475   7.501  3.1140  1.2452  2.2674
 5469SOL     OW28039   2.209   0.486   7.943  0.4871  0.0722  0.1280
 5469SOL    HW128040   2.265   0.478   7.866  0.1602  0.7352 -0.1730
 5469SOL    HW228041   2.188   0.579   7.938  2.2534  0.4252 -0.8911
 5470SOL     OW28042   2.250   0.283   1.220 -0.1016  0.0332 -0.1729
 5470SOL    HW128043   2.215   0.360   1.266 -0.1585  0.9955 -1.8249
 5470SOL    HW228044   2.179   0.219   1.226 -2.2529  2.4111 -0.3032
 5471SOL     OW28045   2.025   0.553  16.804 -0.2969  0.1993  0.0010
 5471SOL    HW128046   2.066   0.496  16.739 -1.1336 -0.2024 -0.1623
 5471SOL    HW228047   1.943   0.582  16.764 -0.1898 -1.4359 -1.4084
 5472SOL     OW28048   0.921   1.032   7.072 -0.2534 -0.0832 -0.0161
 5472SOL    HW128049   0.876   1.073   6.999 -0.6095 -1.7815 -0.7289
 5472SOL    HW228050   0.950   0.949   7.035  1.2398  1.3892 -2.1301
 5473SOL     OW28051   2.493   4.452   2.881 -0.0608 -0.0450  0.0051
 5473SOL    HW128052   2.534   4.394   2.818 -1.2464  0.3855 -1.1579
 5473SOL    HW228053   2.555   4.459   2.954 -0.1727 -0.0861  0.1052
 5474SOL     OW28054   0.487   2.784   6.667 -0.5121 -0.7111  0.1230
 5474SOL    HW128055   0.521   2.696   6.684 -0.6767 -0.4326  1.9073
 5474SOL    HW228056   0.566   2.834   6.690 -0.0269 -1.0390 -0.8565
 5475SOL     OW28057   1.220   0.698   6.593  0.6236  0.1966  0.3392
 5475SOL    HW128058   1.189   0.668   6.679 -1.2742 -2.0054 -1.1282
 5475SOL    HW228059   1.150   0.757   6.565  0.5405 -0.1746 -0.2285
 5476SOL     OW28060   3.987   0.722   4.240 -0.4259 -0.2184 -0.0453
 5476SOL    HW128061   3.914   0.676   4.282  0.6505 -3.4535 -1.6902
 5476SOL    HW228062   3.948   0.797   4.196 -1.7592  0.1851  1.8527
 5477SOL     OW28063   1.864   1.601   6.558  0.0537  0.0791 -0.1903
 5477SOL    HW128064   1.786   1.573   6.510  1.1221  0.3373 -2.1067
 5477SOL    HW228065   1.909   1.521   6.585  1.9887  0.8140 -1.2461
 5478SOL     OW28066   2.796   4.626   9.434  0.1571  0.1665  0.5340
 5478SOL    HW128067   2.870   4.607   9.491  0.6205 -1.5611 -0.6555
 5478SOL    HW228068   2.820   4.699   9.378  0.9026 -0.1504  0.4495
 5479SOL     OW28069   4.718   0.224   5.841 -0.4762  0.0409  0.1816
 5479SOL    HW128070   0.054   0.212   5.777 -1.8938 -0.7651 -1.2053
 5479SOL    HW228071   4.707   0.319   5.839 -2.2849 -0.2378 -2.2433
 5480SOL     OW28072   1.036   0.093   0.408 -0.4053 -0.1782  0.1406
 5480SOL    HW128073   1.037   0.062   0.317 -1.8557 -1.0966  0.4208
 5480SOL    HW228074   1.125   0.116   0.431 -0.2446 -1.7734  1.1121
 5481SOL     OW28075   0.465   0.123  12.858 -0.1838  0.4895  0.2553
 5481SOL    HW128076   0.387   0.096  12.809 -0.2489  1.2312 -0.0397
 5481SOL    HW228077   0.506   0.036  12.865 -2.5213 -0.5657  0.9448
 5482SOL     OW28078   0.992   0.949   5.238  0.2651 -0.2004  0.3198
 5482SOL    HW128079   0.925   0.963   5.304  0.9499  2.2376  0.4960
 5482SOL    HW228080   1.063   0.978   5.296  1.2169 -0.1225 -0.8890
 5483SOL     OW28081   1.138   1.126   8.822  0.2606 -0.1039 -0.0548
 5483SOL    HW128082   1.057   1.175   8.837  0.1014 -0.7076  1.0441
 5483SOL    HW228083   1.145   1.124   8.727  1.0206 -2.6163  0.0551
 5484SOL     OW28084   1.730   0.822   3.964 -0.7276 -0.9836  0.3913
 5484SOL    HW128085   1.678   0.752   4.004  0.0313 -3.6129 -3.1859
 5484SOL    HW228086   1.668   0.882   3.923 -1.2459 -2.0451 -0.3875
 5485SOL     OW28087   3.373   3.276   1.963 -0.2055  0.1033  0.1540
 5485SOL    HW128088   3.409   3.259   2.050 -0.2127 -2.0065 -0.2525
 5485SOL    HW228089   3.449   3.289   1.906  1.0771 -2.7774  1.2354
 5486SOL     OW28090   2.498   2.150   8.624 -0.0930  0.1082  0.0578
 5486SOL    HW128091   2.404   2.140   8.613 -0.1435  0.1441  0.4428
 5486SOL    HW228092   2.525   2.140   8.533 -2.4941 -0.1505 -0.6146
 5487SOL     OW28093   1.256   2.061   3.982 -0.3907 -0.0822 -0.2637
 5487SOL    HW128094   1.300   2.001   3.922 -2.1093  0.5871 -2.2282
 5487SOL    HW228095   1.205   2.123   3.930 -1.5706 -1.8945 -1.2798
 5488SOL     OW28096   2.025   3.984   8.315  0.6822 -0.2038  0.0416
 5488SOL    HW128097   2.026   3.891   8.339  2.2756 -0.2602 -0.2576
 5488SOL    HW228098   2.099   4.019   8.365  2.6134 -0.6059 -2.5785
 5489SOL     OW28099   1.117   3.286  11.828  0.0089  0.2796  0.3838
 5489SOL    HW128100   1.173   3.357  11.795  0.4740  0.0882  0.7571
 5489SOL    HW228101   1.035   3.335  11.838 -0.6528 -0.9163  0.7280
 5490SOL     OW28102   2.139   0.541   9.996 -0.2031  0.2679  0.3883
 5490SOL    HW128103   2.115   0.596  10.071 -1.8085  1.8836 -1.2991
 5490SOL    HW228104   2.073   0.473  10.010 -2.5680  1.8618 -2.9454
 5491SOL     OW28105   3.428   2.314   8.849  0.6755  0.2275 -0.2080
 5491SOL    HW128106   3.406   2.285   8.938 -0.7898  2.0104  0.0198
 5491SOL    HW228107   3.406   2.233   8.803 -0.3836 -0.2090  1.0618
 5492SOL     OW28108   2.759   3.722   8.733 -0.1502 -0.0268 -0.4245
 5492SOL    HW128109   2.712   3.786   8.787  0.6988 -0.4371  0.7896
 5492SOL    HW228110   2.687   3.689   8.679 -1.0047  0.9637  0.1013
 5493SOL     OW28111   1.912   1.184   2.650 -0.5187 -0.1421 -0.5266
 5493SOL    HW128112   2.004   1.160   2.638 -0.1008  0.6648  1.0947
 5493SOL    HW228113   1.869   1.150   2.571 -2.4728 -1.1816  0.9682
 5494SOL     OW28114   2.242   0.640  16.939  0.5350  0.5108  0.7701
 5494SOL    HW128115   2.159   0.618  16.897  0.5271 -0.5763  1.3603
 5494SOL    HW228116   2.234   0.736  16.933 -1.5354  0.4026  1.7791
 5495SOL     OW28117   1.706   3.887   3.548  0.0673 -0.4697  0.6725
 5495SOL    HW128118   1.756   3.843   3.616  0.2927 -0.3126  0.6086
 5495SOL    HW228119   1.718   3.829   3.473 -2.7571 -0.1309 -0.0636
 5496SOL     OW28120   3.371   3.923   0.457 -0.2619  0.0971 -0.3387
 5496SOL    HW128121   3.449   3.934   0.403 -0.6237 -5.1307 -1.8981
 5496SOL    HW228122   3.400   3.924   0.548  1.1470 -0.8955 -0.7731
 5497SOL     OW28123   1.836   4.036  15.798  0.3089  0.6850 -0.2387
 5497SOL    HW128124   1.874   4.007  15.715  1.1216 -1.5202  0.8803
 5497SOL    HW228125   1.867   3.965  15.855 -1.7100 -0.1274 -0.1437
 5498SOL     OW28126   2.951   2.823   5.257 -0.5382  0.2893 -0.1956
 5498SOL    HW128127   2.863   2.787   5.247  0.0830 -1.2402 -0.0811
 5498SOL    HW228128   2.936   2.907   5.300 -1.2847  1.0428 -1.9064
 5499SOL     OW28129   1.520   2.562   6.686 -0.3230 -0.1156 -0.2338
 5499SOL    HW128130   1.598   2.565   6.630  0.1808 -0.9248  0.4232
 5499SOL    HW228131   1.515   2.654   6.714  0.6574 -0.4141  0.9216
 5500SOL     OW28132   3.096   2.279   0.793  0.4325  0.4161 -0.2490
 5500SOL    HW128133   3.134   2.341   0.732  1.2034  1.5610  1.3849
 5500SOL    HW228134   3.050   2.212   0.742 -0.5164  1.6293 -0.9948
 5501SOL     OW28135   1.225   3.183   6.493 -0.4520 -0.0884  0.3695
 5501SOL    HW128136   1.147   3.206   6.543 -3.5806 -2.7094 -3.3235
 5501SOL    HW228137   1.209   3.235   6.414 -2.2620  0.0214  0.7949
 5502SOL     OW28138   1.000   2.931   7.067  0.4143 -0.0456  0.1439
 5502SOL    HW128139   0.989   2.839   7.045  1.6272 -0.5305  1.4900
 5502SOL    HW228140   0.914   2.973   7.068  0.2658 -0.3546  0.5228
 5503SOL     OW28141   0.299   1.958   3.648  0.5194  1.1490  0.1854
 5503SOL    HW128142   0.376   2.008   3.620  0.5450  1.7014  1.2272
 5503SOL    HW228143   0.259   2.028   3.700 -0.0993 -0.1569  1.4753
 5504SOL     OW28144   1.043   4.622   4.679 -0.3266  0.1058  0.0358
 5504SOL    HW128145   1.136   4.611   4.656 -0.8842  0.0463 -2.1413
 5504SOL    HW228146   1.010   4.654   4.596  0.6231  0.1880 -0.3153
 5505SOL     OW28147   1.647   4.679   6.459  0.0781  0.1786  0.3194
 5505SOL    HW128148   1.639   0.000   6.382  0.4289  2.1536  1.6872
 5505SOL    HW228149   1.738   4.700   6.481  0.3076  0.8859 -1.3606
 5506SOL     OW28150   1.370   3.070   3.645  0.1118  0.2447 -0.1468
 5506SOL    HW128151   1.328   3.155   3.655 -2.2096 -0.5823 -2.6891
 5506SOL    HW228152   1.449   3.093   3.595  1.0117  0.0505  1.1909
 5507SOL     OW28153   4.513   1.790   6.243 -0.2451  0.1129  0.5102
 5507SOL    HW128154   4.548   1.742   6.168 -0.4830  0.5293  0.1412
 5507SOL    HW228155   4.419   1.778   6.232 -0.0257 -1.2856  0.1225
 5508SOL     OW28156   4.058   4.069   2.940  0.2792 -0.0894 -0.1353
 5508SOL    HW128157   4.112   4.072   3.020 -2.4665 -1.6873  1.7846
 5508SOL    HW228158   4.006   4.148   2.954  2.1808  1.3964 -1.5272
 5509SOL     OW28159   4.324   2.241   8.336 -0.0372 -0.1609  0.1072
 5509SOL    HW128160   4.418   2.240   8.316 -0.3814  0.2765 -1.5821
 5509SOL    HW228161   4.327   2.308   8.405 -0.4274  1.2275 -1.2166
 5510SOL     OW28162   0.072   3.979  10.524 -0.3724 -0.2852 -0.6143
 5510SOL    HW128163   0.151   3.999  10.575  0.2183 -1.3098 -1.1371
 5510SOL    HW228164   0.080   4.048  10.458 -0.9366 -1.1165 -1.5487
 5511SOL     OW28165   4.416   1.302   9.463 -0.2257  0.0646  0.2603
 5511SOL    HW128166   4.506   1.332   9.476 -0.1352 -0.7346  1.5119
 5511SOL    HW228167   4.425   1.207   9.459  0.0839  0.1501 -1.0884
 5512SOL     OW28168   1.408   0.676   3.715 -0.4246 -0.0480  0.1414
 5512SOL    HW128169   1.380   0.652   3.803  0.7955 -0.5306  0.4072
 5512SOL    HW228170   1.329   0.690   3.663  0.8085  1.7292 -1.2799
 5513SOL     OW28171   0.281   3.273   9.144 -0.0230 -0.0463  0.3619
 5513SOL    HW128172   0.247   3.323   9.071 -0.8732  1.3130  1.6975
 5513SOL    HW228173   0.337   3.341   9.181  1.5279 -0.3645 -1.3902
 5514SOL     OW28174   2.498   4.047   3.265  0.8191  0.1154  0.3642
 5514SOL    HW128175   2.485   4.112   3.334 -1.0358 -1.3458  1.4175
 5514SOL    HW228176   2.489   4.098   3.185 -1.1031 -0.5046  0.1619
 5515SOL     OW28177   1.468   2.946   3.878 -0.0535 -0.0982 -0.3907
 5515SOL    HW128178   1.450   2.861   3.838 -0.2866 -0.7244  1.0573
 5515SOL    HW228179   1.438   3.000   3.804 -2.2944 -0.9997 -0.1256
 5516SOL     OW28180   3.642   0.858   7.234  0.0058 -0.0461  0.5449
 5516SOL    HW128181   3.612   0.949   7.233 -0.2359 -0.1565 -3.1443
 5516SOL    HW228182   3.565   0.811   7.266 -0.9553  0.1723 -1.4193
 5517SOL     OW28183   3.579   3.113   3.550  0.0541 -0.4920 -0.7331
 5517SOL    HW128184   3.534   3.051   3.608  0.3969  0.1583  0.2109
 5517SOL    HW228185   3.666   3.122   3.589 -0.2883  0.0868 -0.1129
 5518SOL     OW28186   3.632   4.464   3.940 -0.0227 -0.0646 -0.1996
 5518SOL    HW128187   3.594   4.423   3.862 -1.5173  0.8642  0.0423
 5518SOL    HW228188   3.717   4.421   3.933  0.1706 -0.2312  3.2302
 5519SOL     OW28189   4.167   4.691   2.690  0.2779  0.0123 -0.1473
 5519SOL    HW128190   4.108   4.690   2.614  0.9664 -3.0089 -0.6448
 5519SOL    HW228191   4.251   4.654   2.663  1.7635  1.5888  2.3902
 5520SOL     OW28192   4.144   1.683   8.552 -0.5046  0.4452 -0.1136
 5520SOL    HW128193   4.129   1.679   8.457  0.9945 -2.1343 -0.2359
 5520SOL    HW228194   4.230   1.723   8.560 -0.0448 -0.7171  0.7487
 5521SOL     OW28195   3.960   1.874   8.594  0.4300 -0.6574  0.3864
 5521SOL    HW128196   4.025   1.944   8.605  0.0484 -0.1532 -0.5544
 5521SOL    HW228197   4.016   1.798   8.580  0.2578 -0.8658  0.8276
 5522SOL     OW28198   1.612   3.272   1.710 -0.1442 -0.2282 -0.1971
 5522SOL    HW128199   1.537   3.318   1.674 -0.0477 -1.0236 -1.3950
 5522SOL    HW228200   1.617   3.307   1.799 -1.8623  0.5461 -0.3942
 5523SOL     OW28201   0.071   3.994   7.673  0.2411 -0.0916  0.2925
 5523SOL    HW128202   4.725   4.005   7.623 -0.4410 -0.1600  1.3613
 5523SOL    HW228203   0.131   3.984   7.599 -0.2710  0.4325 -0.1882
 5524SOL     OW28204   4.006   0.405  14.254  0.3069  0.1025 -0.3531
 5524SOL    HW128205   4.010   0.430  14.346 -3.2466  0.6003 -0.3165
 5524SOL    HW228206   4.031   0.313  14.261  1.1968  0.2087 -2.0336
 5525SOL     OW28207   0.140   1.534   3.495  0.5310 -0.2542  0.5031
 5525SOL    HW128208   0.219   1.547   3.441 -0.6308  2.3576 -0.6006
 5525SOL    HW228209   0.174   1.566   3.579  3.0628  0.7878 -0.9019
 5526SOL     OW28210   1.414   3.606   8.764  0.6589  0.0914  0.5810
 5526SOL    HW128211   1.424   3.562   8.679  0.7755  0.0066  0.6387
 5526SOL    HW228212   1.332   3.653   8.748  0.8348  0.1055 -0.2978
 5527SOL     OW28213   0.031   0.731  15.547  0.2857  0.6897 -0.2295
 5527SOL    HW128214   4.714   0.812  15.543  0.3808  0.8312  1.5258
 5527SOL    HW228215   4.728   0.682  15.473 -1.5099  0.7029  0.6530
 5528SOL     OW28216   3.698   2.550  16.054 -0.4219  0.0867 -0.1326
 5528SOL    HW128217   3.760   2.590  15.992  0.7057  0.7482  1.4160
 5528SOL    HW228218   3.723   2.459  16.038 -1.2892  0.1579 -1.8538
 5529SOL     OW28219   0.338   3.203   8.424 -0.1882  0.2738  0.3574
 5529SOL    HW128220   0.271   3.232   8.485 -3.0534 -1.8510 -1.8147
 5529SOL    HW228221   0.357   3.288   8.383  1.5185  0.2629  1.1434
 5530SOL     OW28222   0.590   0.544  12.786 -0.1183 -0.5238  0.5378
 5530SOL    HW128223   0.582   0.478  12.855 -0.1774  2.2246  3.1516
 5530SOL    HW228224   0.629   0.493  12.715  0.3396 -1.6236  1.5853
 5531SOL     OW28225   2.312   3.831   2.146  0.0017 -0.4417 -0.3334
 5531SOL    HW128226   2.323   3.744   2.183  0.8169  0.6839  2.1138
 5531SOL    HW228227   2.347   3.891   2.212  1.1527 -1.3405 -0.1426
 5532SOL     OW28228   2.491   3.514  16.291 -0.1124  0.1407  0.7356
 5532SOL    HW128229   2.549   3.577  16.247 -0.5279  0.3633  0.5074
 5532SOL    HW228230   2.462   3.464  16.215 -1.4185  0.3974  1.0635
 5533SOL     OW28231   3.582   1.248   2.401 -0.1891 -0.3226 -0.9784
 5533SOL    HW128232   3.564   1.214   2.489  3.8240 -0.3543 -0.1870
 5533SOL    HW228233   3.677   1.239   2.398  0.0263  0.3624  3.2693
 5534SOL     OW28234   2.660   4.256  10.672 -0.3333  0.5403 -0.2632
 5534SOL    HW128235   2.600   4.185  10.649 -1.4792  0.7949  1.9203
 5534SOL    HW228236   2.740   4.215  10.705 -0.1520 -0.7036 -2.2164
 5535SOL     OW28237   3.776   3.228   7.558  0.0719 -0.0570  0.2079
 5535SOL    HW128238   3.869   3.242   7.571  0.0692 -0.2670  0.4447
 5535SOL    HW228239   3.768   3.154   7.617 -1.0759 -0.1287 -0.0382
 5536SOL     OW28240   0.421   1.052   2.352 -0.1907 -0.5585 -0.2250
 5536SOL    HW128241   0.472   1.132   2.337 -0.8492 -0.3626 -1.4493
 5536SOL    HW228242   0.371   1.049   2.270 -1.5967 -1.4678  0.6734
 5537SOL     OW28243   2.748   2.989   1.208 -0.3913 -0.1009  0.2877
 5537SOL    HW128244   2.786   3.064   1.162  0.0803 -0.4723  0.0588
 5537SOL    HW228245   2.808   2.968   1.279  0.0837 -1.4251 -0.4997
 5538SOL     OW28246   2.899   0.506   1.456  0.1580  0.0741  0.0592
 5538SOL    HW128247   2.846   0.581   1.484  0.1291  0.8851 -2.2016
 5538SOL    HW228248   2.900   0.523   1.362  1.7575  0.8072  0.2071
 5539SOL     OW28249   0.644   2.495   5.147 -0.0085  0.0041 -0.0340
 5539SOL    HW128250   0.672   2.585   5.134  0.9301 -0.4231 -0.9593
 5539SOL    HW228251   0.715   2.457   5.095 -1.1570 -1.8811 -0.2463
 5540SOL     OW28252   2.138   0.443   3.227 -0.0748  0.3699 -0.0293
 5540SOL    HW128253   2.071   0.375   3.233  0.5070 -0.0874  1.3902
 5540SOL    HW228254   2.086   0.522   3.215 -1.0034 -0.1383  0.6199
 5541SOL     OW28255   1.290   4.187   2.426  0.1029  0.0798  0.3729
 5541SOL    HW128256   1.224   4.195   2.357  0.5777  1.6768  0.0860
 5541SOL    HW228257   1.288   4.278   2.456 -2.7806 -0.0068  0.4361
 5542SOL     OW28258   0.588   3.515  13.529  0.2944  0.4329  0.5076
 5542SOL    HW128259   0.673   3.543  13.562 -0.5033  1.7449  1.4468
 5542SOL    HW228260   0.550   3.601  13.513  1.9236  1.0019 -0.2847
 5543SOL     OW28261   3.461   3.842   8.716 -0.1485 -0.3439  0.0346
 5543SOL    HW128262   3.527   3.911   8.726  0.1130 -0.5234 -0.4215
 5543SOL    HW228263   3.458   3.827   8.621 -2.5107  4.0119 -0.5554
 5544SOL     OW28264   1.658   2.450  17.386  0.2781 -0.5433  0.2877
 5544SOL    HW128265   1.636   2.357  17.394 -0.9096 -0.5111 -2.2800
 5544SOL    HW228266   1.736   2.438  17.439 -0.1396 -0.5958  0.8824
 5545SOL     OW28267   1.840   4.695   4.568 -0.0834  0.6322  0.6119
 5545SOL    HW128268   1.914   4.730   4.618  0.3807  2.1545 -1.1496
 5545SOL    HW228269   1.828   4.607   4.605 -0.5885 -0.0214 -1.0892
 5546SOL     OW28270   3.289   3.755  11.747 -0.2029  0.1781  0.2335
 5546SOL    HW128271   3.258   3.822  11.808 -2.5609  0.8022 -1.6212
 5546SOL    HW228272   3.211   3.741  11.693 -0.1054  0.0631  0.1233
 5547SOL     OW28273   1.139   2.130  11.661  0.4356 -0.2878  0.1584
 5547SOL    HW128274   1.087   2.092  11.591  0.4331 -0.1287  0.0732
 5547SOL    HW228275   1.126   2.225  11.655  1.5240 -0.2554 -1.7109
 5548SOL     OW28276   3.732   1.269   8.222 -0.7594  0.2267 -0.1994
 5548SOL    HW128277   3.716   1.221   8.303  2.0711 -2.6401 -1.3774
 5548SOL    HW228278   3.647   1.296   8.187 -0.3843  0.5845 -0.8353
 5549SOL     OW28279   2.998   4.205   4.741  0.7053 -0.4488 -0.0634
 5549SOL    HW128280   3.023   4.288   4.782 -1.4421 -0.1029  0.5255
 5549SOL    HW228281   3.083   4.162   4.749  1.1341  0.5309  0.6740
 5550SOL     OW28282   1.277   0.744   3.087  0.3146 -0.3698  1.1195
 5550SOL    HW128283   1.275   0.668   3.030 -0.0548 -0.4336  1.2161
 5550SOL    HW228284   1.205   0.722   3.147  0.7497  2.7082  2.7864
 5551SOL     OW28285   0.023   0.790   6.722 -0.1292  0.1168 -0.3735
 5551SOL    HW128286   4.697   0.843   6.669 -1.3230 -1.0450 -0.1956
 5551SOL    HW228287   0.046   0.843   6.798  0.8869 -1.2339  0.2581
 5552SOL     OW28288   1.129   4.520   4.251 -0.1169 -0.1406  0.1466
 5552SOL    HW128289   1.071   4.555   4.319  0.0490 -1.5899  1.0106
 5552SOL    HW228290   1.214   4.556   4.275 -1.1430  0.5172  2.7708
 5553SOL     OW28291   3.596   3.988   0.323  0.1186  0.3103  0.1093
 5553SOL    HW128292   3.609   4.082   0.333 -1.6550  0.6696 -0.9883
 5553SOL    HW228293   3.685   3.955   0.330  1.0901  2.4439 -2.1899
 5554SOL     OW28294   4.073   3.299   4.836  0.3902 -0.1752  0.2717
 5554SOL    HW128295   4.123   3.366   4.883  0.0739 -0.0339  0.4021
 5554SOL    HW228296   3.991   3.342   4.816  0.8768  0.5581 -0.1432
 5555SOL     OW28297   4.015   2.340   8.584 -0.3774  0.1563  0.1775
 5555SOL    HW128298   4.074   2.411   8.609 -1.1848  0.5469  0.9808
 5555SOL    HW228299   3.975   2.306   8.664  0.6314  0.4225  0.8036
 5556SOL     OW28300   1.673   2.880   1.078 -0.0418  0.5673  0.1232
 5556SOL    HW128301   1.598   2.824   1.096  0.9239 -1.0105 -0.7459
 5556SOL    HW228302   1.674   2.912   1.168  1.0021 -0.8226  0.6046
 5557SOL     OW28303   2.394   3.683   7.466  0.8159 -0.1193 -0.8867
 5557SOL    HW128304   2.408   3.685   7.561  1.0938  0.7450 -0.9450
 5557SOL    HW228305   2.354   3.597   7.455  3.6168 -1.4480 -0.5437
 5558SOL     OW28306   0.349   1.988  15.025  0.4241 -0.1417 -0.3425
 5558SOL    HW128307   0.284   2.052  15.053 -0.8345 -1.1064 -1.1005
 5558SOL    HW228308   0.306   1.952  14.948 -0.5823  0.7239 -0.1791
 5559SOL     OW28309   2.578   3.443   8.883 -0.3709  0.4958 -0.4734
 5559SOL    HW128310   2.604   3.457   8.974 -1.3481 -0.2292 -0.0806
 5559SOL    HW228311   2.487   3.472   8.874  0.2111  2.0531 -1.3634
 5560SOL     OW28312   1.708   1.521  14.694  0.3472  0.2955  0.6957
 5560SOL    HW128313   1.701   1.426  14.684 -1.7120  0.6877 -1.6650
 5560SOL    HW228314   1.667   1.553  14.613  0.4030  0.7015  0.8244
 5561SOL     OW28315   4.707   3.096   6.462  0.1606  0.4246  0.1706
 5561SOL    HW128316   4.652   3.086   6.539  0.4530  0.4825  0.3881
 5561SOL    HW228317   4.678   3.183   6.437 -0.7930  0.4989  1.5544
 5562SOL     OW28318   0.177   3.289  16.784 -0.5789  0.5114  0.1554
 5562SOL    HW128319   0.146   3.211  16.739  4.5142 -1.7715  0.5718
 5562SOL    HW228320   0.228   3.333  16.716 -1.1319 -2.2919 -2.0648
 5563SOL     OW28321   2.921   0.605  14.814  0.2800  0.9145 -0.6156
 5563SOL    HW128322   3.014   0.601  14.837 -0.6338 -1.2512  2.7182
 5563SOL    HW228323   2.923   0.583  14.721  0.1051  0.2584 -0.4654
 5564SOL     OW28324   3.209   0.610   8.230 -0.2079  0.2951  0.5488
 5564SOL    HW128325   3.202   0.602   8.325  0.7955  1.0761  0.6787
 5564SOL    HW228326   3.269   0.683   8.219  0.3365 -0.1523  0.5465
 5565SOL     OW28327   4.361   2.302   6.738 -0.5393  0.1473 -0.0288
 5565SOL    HW128328   4.330   2.380   6.783 -0.2205  0.2531  0.0083
 5565SOL    HW228329   4.403   2.352   6.669 -0.2752 -1.6429 -1.1780
 5566SOL     OW28330   1.961   2.610   5.519  0.8571 -0.0234 -0.2658
 5566SOL    HW128331   2.025   2.558   5.471  0.3152 -1.3557  0.4771
 5566SOL    HW228332   2.004   2.614   5.605 -2.0407  3.6056  1.0401
 5567SOL     OW28333   3.045   2.077  13.320 -0.0936 -0.3517 -0.4510
 5567SOL    HW128334   3.138   2.100  13.309  0.2998 -0.5200  2.6344
 5567SOL    HW228335   3.027   2.023  13.242  0.4830 -3.4206  1.5506
 5568SOL     OW28336   0.259   2.339   6.101  0.1958 -0.5715  0.3770
 5568SOL    HW128337   0.252   2.427   6.136  0.3706  0.0785 -1.2166
 5568SOL    HW228338   0.281   2.357   6.010  3.2124 -3.0436  0.6116
 5569SOL     OW28339   1.481   3.922  14.350 -0.4570  0.4048  0.7968
 5569SOL    HW128340   1.478   3.828  14.368 -1.2815 -0.0072 -1.4688
 5569SOL    HW228341   1.560   3.915  14.296 -1.3622 -1.2485 -0.3010
 5570SOL     OW28342   2.301   3.782   1.857  0.3221 -0.0271 -0.0118
 5570SOL    HW128343   2.315   3.767   1.951  2.5141  3.2578  0.1945
 5570SOL    HW228344   2.305   3.876   1.841 -0.3533  0.2530  1.4746
 5571SOL     OW28345   0.069   1.268   3.513  0.1886 -0.4727  0.2274
 5571SOL    HW128346   4.719   1.278   3.557  0.9440 -0.0578  1.5758
 5571SOL    HW228347   0.106   1.356   3.522  2.1169 -1.3342  0.7350
 5572SOL     OW28348   4.034   1.483   1.453 -0.6966  0.0123  0.0364
 5572SOL    HW128349   4.012   1.393   1.475 -1.4129  0.3019  0.4995
 5572SOL    HW228350   4.031   1.488   1.358  0.3210  0.3488  0.0282
 5573SOL     OW28351   0.228   3.019  13.518  0.8202 -0.1714  0.2860
 5573SOL    HW128352   0.203   2.927  13.530 -0.2296  0.0622 -0.1542
 5573SOL    HW228353   0.215   3.030  13.424  1.6584  0.8733  0.2939
 5574SOL     OW28354   0.283   3.843  11.603  0.2339 -0.2762  0.5072
 5574SOL    HW128355   0.247   3.810  11.520 -0.0948 -1.5439  1.1623
 5574SOL    HW228356   0.316   3.929  11.577 -3.9172  1.2242  0.2096
 5575SOL     OW28357   2.528   2.801   5.884  0.0317  0.0869 -0.6535
 5575SOL    HW128358   2.622   2.787   5.881  0.1319  0.4404  1.0677
 5575SOL    HW228359   2.516   2.871   5.948  1.8329  0.2124 -0.4678
 5576SOL     OW28360   0.500   3.125   6.525  0.1222 -0.2111 -0.0265
 5576SOL    HW128361   0.426   3.163   6.477 -0.5597 -1.3701  0.1076
 5576SOL    HW228362   0.499   3.039   6.484  1.5261  0.2834 -1.0639
 5577SOL     OW28363   2.608   0.481   2.908  0.0533 -0.3194  0.1612
 5577SOL    HW128364   2.573   0.452   2.824 -0.2326 -0.7367  0.4263
 5577SOL    HW228365   2.545   0.452   2.974 -0.4093 -0.8777 -0.5316
 5578SOL     OW28366   3.914   3.198   5.048 -0.4524  0.4358  0.1006
 5578SOL    HW128367   3.976   3.135   5.087 -1.7833  0.2156  1.8770
 5578SOL    HW228368   3.961   3.237   4.974 -0.9460 -1.1163 -1.0198
 5579SOL     OW28369   1.896   1.113   3.830  0.0339  0.3282 -0.0053
 5579SOL    HW128370   1.815   1.127   3.880  0.1223  0.1818  0.1778
 5579SOL    HW228371   1.963   1.143   3.890 -0.2336  0.9415 -0.0176
 5580SOL     OW28372   2.230   2.001   3.511 -0.1946 -0.2719  0.5938
 5580SOL    HW128373   2.268   2.084   3.538 -0.3805 -0.5595  1.7224
 5580SOL    HW228374   2.182   1.977   3.590 -4.2563  0.3251 -1.6811
 5581SOL     OW28375   2.867   0.390   6.370  0.0144 -0.5395  0.4123
 5581SOL    HW128376   2.824   0.416   6.451  1.6699  0.6135  0.9327
 5581SOL    HW228377   2.900   0.474   6.336  0.6569 -0.2743  1.6851
 5582SOL     OW28378   4.177   3.174  10.472 -0.5963 -0.1192  0.6508
 5582SOL    HW128379   4.256   3.195  10.521 -1.0792  3.1829  0.0332
 5582SOL    HW228380   4.108   3.220  10.520 -1.3558 -1.5343  0.8908
 5583SOL     OW28381   1.359   0.884   7.827  0.4685  0.0513  0.0397
 5583SOL    HW128382   1.307   0.824   7.880 -1.2224 -1.9699 -3.9579
 5583SOL    HW228383   1.339   0.850   7.740  0.1795  1.1138 -0.3134
 5584SOL     OW28384   1.903   1.689   9.815  0.7116 -0.2599  0.1359
 5584SOL    HW128385   1.975   1.736   9.858  1.8273 -2.2873  0.5119
 5584SOL    HW228386   1.952   1.636   9.752 -0.2070 -0.1058 -0.7072
 5585SOL     OW28387   2.011   0.336   2.345  0.0986 -0.0982 -0.0561
 5585SOL    HW128388   2.014   0.245   2.374 -0.6782  0.1078  0.6835
 5585SOL    HW228389   1.918   0.359   2.354  0.5163  0.7564  1.9827
 5586SOL     OW28390   0.750   2.947   2.661  0.3592 -0.0567 -0.0406
 5586SOL    HW128391   0.678   2.911   2.609 -0.5050  0.8165  0.5373
 5586SOL    HW228392   0.823   2.907   2.614  0.2884 -0.1700 -0.0526
 5587SOL     OW28393   1.192   0.360   7.951  0.2031 -0.3444 -0.0420
 5587SOL    HW128394   1.179   0.343   8.044  0.9305  0.6542  0.2426
 5587SOL    HW228395   1.103   0.390   7.931 -0.1301  0.6300  2.9362
 5588SOL     OW28396   4.671   0.316  15.805  0.8637  0.1341  0.0731
 5588SOL    HW128397   4.595   0.314  15.864 -0.7782  0.0179 -2.0360
 5588SOL    HW228398   4.629   0.295  15.721 -1.6701 -1.4629  1.7423
 5589SOL     OW28399   2.429   2.079   9.031  0.0574 -0.2966 -0.4069
 5589SOL    HW128400   2.447   1.988   9.008 -0.9713 -0.6146  0.0635
 5589SOL    HW228401   2.499   2.093   9.095 -0.8470 -1.0918  0.7458
 5590SOL     OW28402   3.426   2.688   8.500  0.3881 -0.1607  0.5392
 5590SOL    HW128403   3.398   2.688   8.592  0.0975 -0.3355  0.4502
 5590SOL    HW228404   3.492   2.619   8.508  1.5734  0.6798 -2.2106
 5591SOL     OW28405   1.284   1.617   7.626 -0.0487  0.3361 -0.0160
 5591SOL    HW128406   1.222   1.650   7.690  2.8157  0.3270  2.7425
 5591SOL    HW228407   1.361   1.623   7.682  1.2825 -0.8274 -1.7190
 5592SOL     OW28408   0.497   1.917   7.782 -0.8771  0.7456 -0.0100
 5592SOL    HW128409   0.487   2.003   7.825 -2.3694  1.2076 -1.3055
 5592SOL    HW228410   0.441   1.858   7.833 -0.2102 -0.2226 -0.4020
 5593SOL     OW28411   1.691   3.693   2.380 -0.1994  0.0692  0.1283
 5593SOL    HW128412   1.718   3.767   2.433  0.6147  1.0371 -1.6641
 5593SOL    HW228413   1.610   3.665   2.423 -1.1954 -0.4530 -2.0696
 5594SOL     OW28414   4.171   2.072   8.898 -0.2240 -0.0176  0.4722
 5594SOL    HW128415   4.114   2.139   8.935 -0.5334 -0.9601  1.6843
 5594SOL    HW228416   4.254   2.121   8.903 -0.1547  0.0647 -1.6965
 5595SOL     OW28417   1.425   3.645   0.310  0.2722 -0.5716 -0.0751
 5595SOL    HW128418   1.382   3.590   0.375  0.8404 -0.6549  0.2359
 5595SOL    HW228419   1.354   3.642   0.246  0.9967 -0.7906 -0.8707
 5596SOL     OW28420   1.923   2.419  14.488  0.1146 -0.1873 -0.5134
 5596SOL    HW128421   1.953   2.476  14.417 -1.4048  0.0775 -0.9416
 5596SOL    HW228422   1.854   2.473  14.527 -0.5792 -0.9358 -0.7082
 5597SOL     OW28423   3.786   3.654   5.359  0.2639  0.5581 -0.0933
 5597SOL    HW128424   3.882   3.652   5.362  0.2331 -0.5813  0.0340
 5597SOL    HW228425   3.781   3.572   5.310  0.4646 -0.9344  2.4440
 5598SOL     OW28426   0.984   1.747   7.202 -0.2903 -0.6026  0.3994
 5598SOL    HW128427   0.894   1.746   7.171  0.1618  3.6395 -0.9893
 5598SOL    HW228428   1.038   1.786   7.133  0.3846 -2.6232 -0.2261
 5599SOL     OW28429   1.793   3.676   8.637  0.8451  0.2596 -0.2121
 5599SOL    HW128430   1.867   3.622   8.668  0.7309  0.0517 -0.3007
 5599SOL    HW228431   1.737   3.693   8.713  0.6834 -1.1746 -0.0002
 5600SOL     OW28432   4.409   3.024   5.819  0.0663  0.4912 -0.0041
 5600SOL    HW128433   4.473   3.048   5.753  0.9106  0.4373  0.7928
 5600SOL    HW228434   4.335   3.025   5.759  1.4008 -0.2467 -1.6535
 5601SOL     OW28435   4.235   1.794   6.182 -0.2705  0.3545  0.2316
 5601SOL    HW128436   4.201   1.708   6.159 -0.6915  0.7748 -0.7310
 5601SOL    HW228437   4.168   1.833   6.239 -0.2981  3.3457 -1.8526
 5602SOL     OW28438   2.212   0.560   5.512  0.4117  0.3692  0.3216
 5602SOL    HW128439   2.241   0.474   5.542 -0.9248  0.2005  1.1374
 5602SOL    HW228440   2.155   0.581   5.586  0.1057 -0.0066  0.1937
 5603SOL     OW28441   0.857   1.996  13.409  0.0268 -0.2906  0.7483
 5603SOL    HW128442   0.920   2.065  13.387  2.0851 -1.5318  2.7811
 5603SOL    HW228443   0.817   1.988  13.323  2.4532  2.0141 -0.5806
 5604SOL     OW28444   4.136   0.616  13.315  0.3184  0.6112  0.5118
 5604SOL    HW128445   4.064   0.562  13.347  1.4896 -1.5770 -0.6016
 5604SOL    HW228446   4.117   0.702  13.354 -2.3448 -0.2908  1.2234
 5605SOL     OW28447   4.076   1.776  13.313  0.2977 -0.1086  0.1056
 5605SOL    HW128448   4.074   1.848  13.249  1.8171  0.7963  1.0627
 5605SOL    HW228449   4.160   1.736  13.287  1.0944  2.5308 -1.4066
 5606SOL     OW28450   3.757   2.636   1.363  0.5524  0.5075 -0.4092
 5606SOL    HW128451   3.784   2.641   1.455  0.7976  1.4752 -0.5293
 5606SOL    HW228452   3.787   2.725   1.342  1.8636  0.6610  2.0928
 5607SOL     OW28453   1.820   4.572   2.953 -0.1464  0.4301 -0.4641
 5607SOL    HW128454   1.868   4.557   3.034 -0.7096 -0.9283 -0.3788
 5607SOL    HW228455   1.778   4.654   2.977  1.4368  0.6001  1.7229
 5608SOL     OW28456   0.350   4.191   7.781  0.2075  0.1548 -0.2146
 5608SOL    HW128457   0.400   4.246   7.721  1.6784  1.5961  2.3906
 5608SOL    HW228458   0.408   4.115   7.785 -0.9238 -0.8035 -1.8554
 5609SOL     OW28459   1.514   0.719  15.495 -0.6241 -0.3075 -0.2862
 5609SOL    HW128460   1.481   0.638  15.536 -1.5204 -0.4060 -1.2069
 5609SOL    HW228461   1.442   0.782  15.496  1.0861  1.6953 -3.6336
 5610SOL     OW28462   4.288   3.739   3.988  0.3082 -0.4160 -0.8026
 5610SOL    HW128463   4.205   3.739   4.036  0.2020  2.8965 -0.9567
 5610SOL    HW228464   4.260   3.799   3.919 -1.1519  0.3158  0.4040
 5611SOL     OW28465   2.537   1.237  11.575  0.7405 -0.0069  0.2710
 5611SOL    HW128466   2.533   1.307  11.509  3.3664  0.6218  0.7980
 5611SOL    HW228467   2.629   1.212  11.571  1.3042  1.8057  1.8769
 5612SOL     OW28468   2.616   1.778   1.755 -0.2016  0.4605  0.1461
 5612SOL    HW128469   2.559   1.818   1.689 -3.2025 -2.9581  0.6638
 5612SOL    HW228470   2.696   1.762   1.705 -0.4050 -0.5155  0.1203
 5613SOL     OW28471   3.287   4.724   7.965 -0.3255 -0.2767 -0.2929
 5613SOL    HW128472   3.248   4.647   7.923  0.6965 -0.6997 -0.4842
 5613SOL    HW228473   3.357   0.017   7.905  0.7464  0.8629  1.4913
 5614SOL     OW28474   4.470   4.064   1.125  0.2152  0.2762  0.0481
 5614SOL    HW128475   4.385   4.031   1.095  0.0684  0.2943  0.4382
 5614SOL    HW228476   4.529   4.054   1.051  1.3617 -0.4979  1.0666
 5615SOL     OW28477   3.679   0.313   4.715 -0.1137 -0.1836 -0.1372
 5615SOL    HW128478   3.704   0.396   4.756  0.5211 -1.2297  1.6101
 5615SOL    HW228479   3.699   0.337   4.624  1.4962 -2.2587 -0.3301
 5616SOL     OW28480   3.363   4.646   3.996  0.2199 -0.1024 -0.1930
 5616SOL    HW128481   3.442   4.669   3.946 -1.1146 -0.0303 -2.2706
 5616SOL    HW228482   3.404   4.578   4.049 -0.6841 -1.6740 -1.4969
 5617SOL     OW28483   1.532   0.494   7.201  0.9230 -0.4740  0.5755
 5617SOL    HW128484   1.574   0.567   7.155  0.8303 -0.4895  0.4657
 5617SOL    HW228485   1.487   0.542   7.270  0.1616 -0.3013 -0.0339
 5618SOL     OW28486   0.044   0.929   2.409  0.0065  0.7877 -0.6445
 5618SOL    HW128487   0.044   0.838   2.380 -0.7073  1.0987 -1.6245
 5618SOL    HW228488   0.066   0.916   2.501  0.7826  1.6580 -0.7046
 5619SOL     OW28489   3.172   0.329   2.363  0.0164  0.5054 -0.0426
 5619SOL    HW128490   3.241   0.367   2.309 -1.7072  0.2818 -2.4316
 5619SOL    HW228491   3.177   0.234   2.347 -1.1982  0.1753  1.5463
 5620SOL     OW28492   3.357   1.046   8.601  0.2969 -0.4559  0.4093
 5620SOL    HW128493   3.327   1.013   8.685 -0.7685  0.2465  0.3099
 5620SOL    HW228494   3.406   1.125   8.623 -1.7594  0.8442  0.3063
 5621SOL     OW28495   2.136   4.568   5.104  0.1808  0.4722 -0.8098
 5621SOL    HW128496   2.167   4.576   5.013  2.3131  0.8302 -0.0448
 5621SOL    HW228497   2.109   4.477   5.105 -2.0926  1.1592  0.0063
 5622SOL     OW28498   2.302   2.601  11.397  0.6919 -0.2579  0.9652
 5622SOL    HW128499   2.266   2.674  11.448  0.4332  2.8233 -3.6335
 5622SOL    HW228500   2.389   2.629  11.369  0.1214  2.1007  1.5325
 5623SOL     OW28501   3.277   0.413  15.557 -0.3565 -0.3937 -0.0824
 5623SOL    HW128502   3.230   0.485  15.515  1.4997  0.8417 -0.0363
 5623SOL    HW228503   3.221   0.401  15.634 -1.0022  1.4799 -0.2427
 5624SOL     OW28504   1.914   0.433   9.821  0.1641 -0.4777  0.0811
 5624SOL    HW128505   1.860   0.357   9.798 -1.8642  0.4524  1.8304
 5624SOL    HW228506   1.999   0.425   9.778 -0.1053  0.5311 -0.6399
 5625SOL     OW28507   2.071   4.127   6.827 -0.7189 -0.2998  0.0414
 5625SOL    HW128508   2.113   4.209   6.799 -0.4152  0.1406  1.7934
 5625SOL    HW228509   2.136   4.090   6.886  0.7772 -1.8828 -2.6431
 5626SOL     OW28510   4.383   2.764   5.919 -0.1995  0.5442 -0.2106
 5626SOL    HW128511   4.344   2.717   5.846 -1.7880 -0.5007  1.3360
 5626SOL    HW228512   4.411   2.846   5.878 -1.5294  2.5418  2.8980
 5627SOL     OW28513   4.674   3.582   4.183 -0.3759  0.2819  0.1736
 5627SOL    HW128514   4.615   3.606   4.255  0.1027  2.5339 -0.1927
 5627SOL    HW228515   4.734   3.654   4.167 -1.4752  0.6493 -2.2458
 5628SOL     OW28516   3.138   1.616   8.651 -0.0086  0.0449 -0.1859
 5628SOL    HW128517   3.077   1.643   8.582  0.2446  0.9503 -0.0554
 5628SOL    HW228518   3.076   1.629   8.723  0.1406  2.1902 -0.4451
 5629SOL     OW28519   2.445   1.635   5.453 -0.0880  0.2435  0.2251
 5629SOL    HW128520   2.401   1.560   5.412 -0.5983 -0.0980  1.3951
 5629SOL    HW228521   2.400   1.702   5.402  1.1430  0.1291 -1.0014
 5630SOL     OW28522   0.352   0.904  16.608  0.2983  0.2686 -0.1939
 5630SOL    HW128523   0.370   0.996  16.589 -1.1748  0.3287 -1.2741
 5630SOL    HW228524   0.414   0.878  16.677  0.4803 -1.4427 -1.0067
 5631SOL     OW28525   2.837   2.912   0.941  0.8201  0.4665  0.5078
 5631SOL    HW128526   2.774   2.860   0.890  2.4100 -0.6176 -0.3451
 5631SOL    HW228527   2.818   2.880   1.029 -0.6605  1.9334  0.7300
 5632SOL     OW28528   0.728   0.360   7.786 -0.5655 -0.1815 -0.4626
 5632SOL    HW128529   0.642   0.339   7.820 -0.5620 -0.4318 -0.6111
 5632SOL    HW228530   0.692   0.424   7.724 -2.1901 -0.0794  0.5922
 5633SOL     OW28531   3.321   2.659   6.185  0.0074  0.1765 -0.1787
 5633SOL    HW128532   3.361   2.706   6.259 -0.6986  2.3583 -1.1956
 5633SOL    HW228533   3.262   2.724   6.149 -0.6887  0.9178  2.2917
 5634SOL     OW28534   0.600   2.496   5.423 -0.0270 -0.6913  0.6235
 5634SOL    HW128535   0.667   2.518   5.357 -0.1292 -0.2865  0.6583
 5634SOL    HW228536   0.527   2.471   5.366  0.3254 -2.5210  0.9575
 5635SOL     OW28537   0.117   2.538   8.474  0.4978 -1.0739 -0.0883
 5635SOL    HW128538   0.082   2.602   8.536 -0.3328  0.1670 -1.8200
 5635SOL    HW228539   0.209   2.521   8.492  1.4821  2.8185 -1.4069
 5636SOL     OW28540   4.209   2.513   5.468  0.0118 -0.9933 -0.0252
 5636SOL    HW128541   4.160   2.524   5.551  0.6550 -0.5116  0.2852
 5636SOL    HW228542   4.230   2.420   5.471  1.6613 -0.5884  0.7446
 5637SOL     OW28543   1.156   0.611   6.882 -0.2456  0.0850  0.1605
 5637SOL    HW128544   1.250   0.612   6.901  0.3862 -1.7835 -2.9539
 5637SOL    HW228545   1.126   0.527   6.917 -0.6200  0.3994  0.5944
 5638SOL     OW28546   2.787   2.843  12.303  0.1120 -0.0834 -0.7857
 5638SOL    HW128547   2.817   2.800  12.222  0.7459  1.5103 -1.4017
 5638SOL    HW228548   2.870   2.887  12.323  0.2915  0.0717 -1.8744
 5639SOL     OW28549   3.224   0.722  13.382  0.7381 -0.2548  0.2985
 5639SOL    HW128550   3.165   0.692  13.313 -0.8427  1.6976  0.7956
 5639SOL    HW228551   3.312   0.700  13.351  1.7216  0.9575  2.2453
 5640SOL     OW28552   0.993   1.771   2.790 -0.6093 -0.8149 -0.3929
 5640SOL    HW128553   0.959   1.691   2.750 -1.9243 -0.7278  0.5635
 5640SOL    HW228554   0.918   1.811   2.834  0.3167 -2.0780  2.3359
 5641SOL     OW28555   2.973   3.224   3.783 -0.2390 -0.4232  0.4314
 5641SOL    HW128556   3.038   3.212   3.852  0.4297 -1.3312 -0.3490
 5641SOL    HW228557   3.019   3.290   3.730 -2.6583 -0.6334 -1.9280
 5642SOL     OW28558   1.469   3.398  11.863  0.2477  0.0540  0.2015
 5642SOL    HW128559   1.411   3.451  11.809  0.3903  1.5773  1.5308
 5642SOL    HW228560   1.521   3.352  11.797  0.2598  3.3544 -2.0793
 5643SOL     OW28561   2.190   1.952   6.244  0.4816  0.1807 -0.3520
 5643SOL    HW128562   2.166   2.037   6.206  2.0287  0.4649 -0.6796
 5643SOL    HW228563   2.226   1.907   6.168 -1.3343 -0.6687 -0.7127
 5644SOL     OW28564   0.431   1.106   1.850  0.7139 -0.3956 -0.1093
 5644SOL    HW128565   0.356   1.078   1.797 -0.3915 -2.2111  2.3596
 5644SOL    HW228566   0.449   1.194   1.818 -0.8165 -1.2327 -3.2379
 5645SOL     OW28567   0.041   3.178  12.719 -0.4125 -0.0006  0.0362
 5645SOL    HW128568   0.081   3.240  12.780 -1.1646  0.6569 -0.1283
 5645SOL    HW228569   0.038   3.231  12.639  1.4510 -1.9660 -1.3269
 5646SOL     OW28570   2.772   2.291  15.383 -0.3946 -0.6350  0.0814
 5646SOL    HW128571   2.747   2.267  15.473  0.1631  1.8741  0.9213
 5646SOL    HW228572   2.805   2.208  15.349 -1.0198 -0.1984 -1.5800
 5647SOL     OW28573   2.100   4.528   8.994 -0.7141 -0.4958  0.3917
 5647SOL    HW128574   2.085   4.617   9.027 -0.1697  0.3864 -1.7274
 5647SOL    HW228575   2.036   4.483   9.048 -1.3434 -1.6286 -1.3153
 5648SOL     OW28576   1.570   1.001  12.445  0.1475 -0.6096  0.1606
 5648SOL    HW128577   1.515   1.057  12.390  1.4016  0.8515  0.4196
 5648SOL    HW228578   1.522   0.997  12.527  0.4016  0.8018  0.3725
 5649SOL     OW28579   1.183   4.317   6.853  0.1890 -0.6896 -0.2323
 5649SOL    HW128580   1.273   4.316   6.821  0.1064 -0.9135 -0.4559
 5649SOL    HW228581   1.170   4.401   6.896  1.1741  1.0086 -3.2806
 5650SOL     OW28582   4.323   2.947  14.119  0.3101  0.1410 -0.0761
 5650SOL    HW128583   4.367   3.026  14.088  3.7781 -2.7854 -2.4548
 5650SOL    HW228584   4.307   2.963  14.212 -1.3248 -2.8287  0.1580
 5651SOL     OW28585   4.408   3.137   3.536 -0.1350  0.5238 -0.3909
 5651SOL    HW128586   4.404   3.089   3.453  0.2740  0.6470 -0.4817
 5651SOL    HW228587   4.331   3.193   3.530 -1.0412 -0.9961 -2.9031
 5652SOL     OW28588   1.535   3.532  17.384 -0.3940 -0.3163  0.3329
 5652SOL    HW128589   1.544   3.547  17.477  1.2303 -0.7943  0.2456
 5652SOL    HW228590   1.627   3.534  17.360 -0.2986 -0.3747  0.6979
 5653SOL     OW28591   1.472   2.390   3.456  0.2433  0.0998  0.1766
 5653SOL    HW128592   1.466   2.300   3.486 -1.7172  0.0745 -0.2717
 5653SOL    HW228593   1.560   2.414   3.487  0.3137 -0.1694  0.1837
 5654SOL     OW28594   3.381   2.914   0.192  0.1377  0.1102  0.3513
 5654SOL    HW128595   3.351   2.884   0.277  0.8271  0.2117  0.6296
 5654SOL    HW228596   3.382   3.007   0.213 -0.9005  0.1037  0.4435
 5655SOL     OW28597   2.118   0.452  12.497 -0.2409 -0.0898 -0.3376
 5655SOL    HW128598   2.132   0.513  12.425  0.2319  0.3170  0.1038
 5655SOL    HW228599   2.025   0.473  12.506 -1.0475 -4.0460  0.5422
 5656SOL     OW28600   0.357   0.383  13.579 -0.0601  0.2013  0.0233
 5656SOL    HW128601   0.325   0.464  13.539 -0.3297 -0.3416 -0.8616
 5656SOL    HW228602   0.308   0.311  13.539  0.5276  0.3417 -0.9565
 5657SOL     OW28603   1.911   4.347   4.185  0.0708 -0.3100  0.1315
 5657SOL    HW128604   1.914   4.254   4.166 -1.3275  0.1907 -2.5147
 5657SOL    HW228605   1.977   4.371   4.120 -0.5100  0.3364 -0.2301
 5658SOL     OW28606   4.245   1.314  16.889  0.2209 -0.0642  0.4301
 5658SOL    HW128607   4.292   1.249  16.941  0.7116  0.0576  0.1310
 5658SOL    HW228608   4.192   1.343  16.963 -0.2333 -0.0329  0.0958
 5659SOL     OW28609   0.196   4.031   5.323 -0.5102  0.0973 -0.2996
 5659SOL    HW128610   0.264   4.085   5.282 -0.2689 -1.4958 -1.9617
 5659SOL    HW228611   0.250   3.954   5.340 -0.6500  0.5115  2.0251
 5660SOL     OW28612   0.761   0.548   4.555 -0.3807  0.5767  0.2734
 5660SOL    HW128613   0.855   0.555   4.539  0.0481 -0.1778  2.4500
 5660SOL    HW228614   0.747   0.613   4.624 -2.2626 -1.1524  1.5469
 5661SOL     OW28615   3.145   0.940   5.368 -0.2081 -0.1311  0.1797
 5661SOL    HW128616   3.128   1.012   5.308  0.5896  0.2607  0.4224
 5661SOL    HW228617   3.205   0.984   5.429 -1.0561  0.3009  0.7098
 5662SOL     OW28618   2.167   1.901  15.735  0.0113 -0.6231  0.1820
 5662SOL    HW128619   2.150   1.873  15.645 -0.1975 -0.6411  0.2275
 5662SOL    HW228620   2.262   1.885  15.732  0.2087  0.6936 -0.4404
 5663SOL     OW28621   2.353   2.237  16.352  0.4287 -0.3425 -0.1185
 5663SOL    HW128622   2.334   2.164  16.410 -2.5113 -0.8039 -1.6698
 5663SOL    HW228623   2.273   2.287  16.365  0.9663  0.1044  1.5062
 5664SOL     OW28624   0.869   3.525  16.361 -0.0561 -0.4207  0.7213
 5664SOL    HW128625   0.891   3.612  16.394  0.4506  0.1980 -1.2085
 5664SOL    HW228626   0.885   3.485  16.446  0.2252  0.3867  1.0463
 5665SOL     OW28627   2.011   1.959   4.982  0.2947 -0.2485 -0.0066
 5665SOL    HW128628   2.000   1.981   4.890 -0.0920 -0.7190 -0.0724
 5665SOL    HW228629   2.027   2.045   5.020 -0.8545  0.2764 -0.7038
 5666SOL     OW28630   4.070   3.410   6.347  0.1770  0.2662  0.4363
 5666SOL    HW128631   4.108   3.359   6.419 -1.2445 -1.4516 -0.0481
 5666SOL    HW228632   4.120   3.492   6.350 -0.2489  0.5132  0.7048
 5667SOL     OW28633   3.431   2.631   8.778  0.2347 -0.0473  0.0067
 5667SOL    HW128634   3.370   2.661   8.846  1.0962 -0.1661  0.8372
 5667SOL    HW228635   3.490   2.706   8.770 -1.3465  0.8844 -3.0146
 5668SOL     OW28636   2.008   2.155   6.802  0.6548  0.4784 -0.4688
 5668SOL    HW128637   1.944   2.183   6.868  1.9406 -1.6540  1.7084
 5668SOL    HW228638   2.032   2.066   6.828 -1.3421  0.4631  1.2701
 5669SOL     OW28639   1.498   0.763   6.612 -0.4506 -0.3614 -0.1884
 5669SOL    HW128640   1.409   0.731   6.611 -0.7590  0.4986 -0.7132
 5669SOL    HW228641   1.502   0.787   6.705 -0.8295 -0.5335 -0.1282
 5670SOL     OW28642   1.401   3.591  13.265  0.4705  0.1925 -0.4750
 5670SOL    HW128643   1.470   3.645  13.226  0.9258 -0.8771 -1.1689
 5670SOL    HW228644   1.332   3.657  13.273  0.3788 -0.1790  1.8931
 5671SOL     OW28645   2.796   0.005   3.401 -0.1464 -0.1416  0.2983
 5671SOL    HW128646   2.710   0.046   3.401  0.2303  0.6523  0.1496
 5671SOL    HW228647   2.782   4.661   3.456 -2.5665  0.7528  0.9215
 5672SOL     OW28648   4.318   0.486   3.875  0.7599 -0.3662  0.4684
 5672SOL    HW128649   4.314   0.391   3.872  0.8321 -0.3683  0.4418
 5672SOL    HW228650   4.261   0.511   3.948  0.8319  1.7093 -0.1576
 5673SOL     OW28651   0.427   2.478   2.681  0.3823 -0.2712  0.0990
 5673SOL    HW128652   0.450   2.495   2.772  1.0846  1.0499 -0.3267
 5673SOL    HW228653   0.514   2.493   2.644  0.0129 -2.5822 -1.6577
 5674SOL     OW28654   2.238   1.865   5.398  0.1478 -0.3374  0.0768
 5674SOL    HW128655   2.149   1.854   5.366 -0.7473  1.6790  1.8855
 5674SOL    HW228656   2.257   1.927   5.327 -0.4562  0.8268  0.9134
 5675SOL     OW28657   4.237   1.349  14.541 -0.3743 -0.5616  0.3750
 5675SOL    HW128658   4.183   1.423  14.514  0.2147 -0.5296 -0.7309
 5675SOL    HW228659   4.223   1.287  14.469 -0.9758  1.8021 -1.5407
 5676SOL     OW28660   0.054   2.817  14.313 -0.0634 -0.0040 -0.2722
 5676SOL    HW128661   4.716   2.754  14.312 -0.1287  0.0949 -1.6548
 5676SOL    HW228662   0.009   2.901  14.328  1.0494  0.7870 -1.3034
 5677SOL     OW28663   3.988   0.546  17.508 -0.1461 -0.0571 -0.0367
 5677SOL    HW128664   3.942   0.615  17.555 -1.7003 -0.9695 -0.2122
 5677SOL    HW228665   4.001   0.588  17.423  1.3859  1.9204  1.1829
 5678SOL     OW28666   4.451   0.848  12.741 -0.4202  0.1374  0.0835
 5678SOL    HW128667   4.446   0.855  12.837  2.2074 -1.2570  0.3286
 5678SOL    HW228668   4.383   0.904  12.704 -1.2336 -1.2564 -0.4858
 5679SOL     OW28669   0.715   4.329  11.989  0.1041  0.2876  0.1621
 5679SOL    HW128670   0.755   4.308  11.904  3.3843  0.6176  1.6099
 5679SOL    HW228671   0.687   4.240  12.010  2.0879 -0.6497 -1.1578
 5680SOL     OW28672   0.189   3.536   7.358 -0.2645  0.1313  0.1024
 5680SOL    HW128673   0.137   3.476   7.413  1.6323 -0.9187  0.7519
 5680SOL    HW228674   0.200   3.613   7.413 -1.3410  1.2193 -1.2133
 5681SOL     OW28675   3.015   4.364   3.333 -0.0474 -0.8277 -0.4145
 5681SOL    HW128676   3.033   4.444   3.285  0.0554  0.3586  1.6305
 5681SOL    HW228677   2.984   4.311   3.259 -1.7540  0.0835 -0.3542
 5682SOL     OW28678   1.528   3.489   6.124  0.3624 -0.2080  0.3861
 5682SOL    HW128679   1.451   3.442   6.154  0.5424 -0.3060  0.6934
 5682SOL    HW228680   1.527   3.558   6.191  0.3244 -1.9409  2.1618
 5683SOL     OW28681   4.613   1.357   0.104 -0.1708 -0.0956  0.0575
 5683SOL    HW128682   4.629   1.265   0.122 -0.7903 -0.2280 -0.0453
 5683SOL    HW228683   4.564   1.378   0.184 -2.7422 -2.3997 -0.9160
 5684SOL     OW28684   2.517   3.102   1.284  0.5731  0.3164 -0.3627
 5684SOL    HW128685   2.521   3.132   1.375 -1.2452  1.7585 -0.7415
 5684SOL    HW228686   2.599   3.059   1.261  0.1947 -0.2991 -0.5387
 5685SOL     OW28687   0.405   3.340   5.106 -0.4674 -0.2387 -0.0588
 5685SOL    HW128688   0.360   3.256   5.111 -0.5361 -0.1258  1.1955
 5685SOL    HW228689   0.492   3.313   5.076 -0.1185 -0.0314  0.7577
 5686SOL     OW28690   4.499   0.797   6.935  0.2296 -0.4448  0.2353
 5686SOL    HW128691   4.436   0.850   6.984 -1.1303  0.7175 -2.7393
 5686SOL    HW228692   4.535   0.865   6.877  0.2544 -0.4085  0.2931
 5687SOL     OW28693   3.363   4.441   5.004  0.0715 -0.1543  0.4087
 5687SOL    HW128694   3.446   4.397   5.021  0.8848  0.0979 -2.8015
 5687SOL    HW228695   3.306   4.391   5.062 -2.4779  1.2431 -0.9057
 5688SOL     OW28696   2.838   3.461  14.400 -0.2067 -0.2323  0.7807
 5688SOL    HW128697   2.750   3.434  14.373  1.5862 -4.3138 -1.0132
 5688SOL    HW228698   2.874   3.378  14.432 -0.8425 -0.6877  0.3100
 5689SOL     OW28699   0.718   2.567   9.019  0.2801 -0.7023  0.1887
 5689SOL    HW128700   0.813   2.578   9.023  0.3778 -1.6095  0.3310
 5689SOL    HW228701   0.704   2.507   8.946  1.1942  1.2562 -1.6385
 5690SOL     OW28702   2.024   3.556  12.300 -0.1109 -0.2243 -0.8518
 5690SOL    HW128703   2.110   3.592  12.277  0.0938  0.1196  0.4574
 5690SOL    HW228704   2.033   3.475  12.249 -1.4151  0.1271 -1.6515
 5691SOL     OW28705   2.422   1.091   2.056  0.1039 -0.5129  0.1696
 5691SOL    HW128706   2.473   1.165   2.088 -0.5832  0.0377 -0.0257
 5691SOL    HW228707   2.397   1.039   2.133 -1.0954 -1.2710 -0.7326
 5692SOL     OW28708   2.391   0.786  13.272 -0.2863 -0.0487  0.2192
 5692SOL    HW128709   2.346   0.866  13.301 -1.4647 -0.4512 -0.5022
 5692SOL    HW228710   2.388   0.731  13.350  0.2505  2.5581  2.0775
 5693SOL     OW28711   2.766   2.876   4.431 -0.4010  0.1627 -0.0951
 5693SOL    HW128712   2.691   2.935   4.429 -0.7430 -0.2516  0.4928
 5693SOL    HW228713   2.750   2.826   4.511 -2.7438 -2.4335 -2.1840
 5694SOL     OW28714   0.073   2.891   1.588  0.7290 -0.2878  0.0588
 5694SOL    HW128715   0.066   2.804   1.548  2.0093 -0.0100 -0.7825
 5694SOL    HW228716   0.080   2.871   1.681 -1.2466 -0.6386  0.1285
 5695SOL     OW28717   0.756   1.827   2.038 -0.5200 -0.6407 -0.8517
 5695SOL    HW128718   0.827   1.799   2.097 -1.9868 -0.0195  1.2015
 5695SOL    HW228719   0.803   1.900   1.997 -1.1181 -0.7061 -1.6571
 5696SOL     OW28720   2.599   4.514  12.311  0.6182 -0.4242 -0.1527
 5696SOL    HW128721   2.592   4.600  12.270 -0.2684  0.6262  2.1472
 5696SOL    HW228722   2.595   4.544  12.402  1.4099  0.9241 -0.5544
 5697SOL     OW28723   2.773   2.442  17.046 -0.0542  0.3968  1.0009
 5697SOL    HW128724   2.829   2.513  17.080  1.4272 -0.4119  0.2342
 5697SOL    HW228725   2.800   2.455  16.955  0.9039  3.0395  1.6463
 5698SOL     OW28726   3.825   1.022   5.776 -0.1654  0.3327 -0.3403
 5698SOL    HW128727   3.830   1.025   5.681  0.1495  1.6104 -0.2915
 5698SOL    HW228728   3.904   1.070   5.802  0.3242 -0.2898 -0.6779
 5699SOL     OW28729   3.714   1.907   2.164 -0.3775 -0.5314  0.3799
 5699SOL    HW128730   3.702   1.871   2.252  0.0723 -1.0903  0.2170
 5699SOL    HW228731   3.799   1.951   2.168 -0.2705 -0.7398  0.4395
 5700SOL     OW28732   0.072   2.537  12.902 -0.0194 -0.1899  0.7561
 5700SOL    HW128733   0.015   2.613  12.901  0.7115  0.3449 -0.3129
 5700SOL    HW228734   0.048   2.496  12.819  0.3246 -0.4396  0.7822
 5701SOL     OW28735   1.975   2.644   0.465  0.1395 -0.2229 -0.4556
 5701SOL    HW128736   2.041   2.683   0.523 -0.4057 -0.5403  0.3848
 5701SOL    HW228737   1.948   2.569   0.518 -1.0241  0.6311  0.1687
 5702SOL     OW28738   0.843   4.520  11.002  0.3722 -0.1964  0.4422
 5702SOL    HW128739   0.894   4.439  10.999  0.0858 -0.3291 -0.9580
 5702SOL    HW228740   0.773   4.482  11.055  1.6265 -1.1113  1.4390
 5703SOL     OW28741   2.694   2.144   6.894  0.6304  0.2337 -0.3770
 5703SOL    HW128742   2.661   2.105   6.975 -2.9438 -0.6308 -2.2333
 5703SOL    HW228743   2.709   2.237   6.912  0.1362  0.2920 -0.2811
 5704SOL     OW28744   2.750   1.743   6.161 -0.4010  0.5687 -0.4331
 5704SOL    HW128745   2.751   1.834   6.192 -0.0628  0.6410 -0.6593
 5704SOL    HW228746   2.699   1.757   6.081 -2.0427 -2.0573  0.1687
 5705SOL     OW28747   2.544   3.224  12.966 -0.6845 -0.5885  0.0539
 5705SOL    HW128748   2.611   3.213  13.033 -2.1529  0.4326  1.6763
 5705SOL    HW228749   2.599   3.252  12.892  0.9120 -1.8250  0.8081
 5706SOL     OW28750   4.720   4.535   4.324 -0.5250 -0.3274  0.4177
 5706SOL    HW128751   4.691   4.443   4.324 -3.1597  0.5251  1.8248
 5706SOL    HW228752   4.709   4.565   4.414  3.2810 -0.5501  0.9439
 5707SOL     OW28753   2.415   2.960   6.326 -1.0822  0.4278 -0.8006
 5707SOL    HW128754   2.344   2.952   6.263 -2.1681  1.8431  0.2395
 5707SOL    HW228755   2.422   3.051   6.355  1.5287 -0.3363  1.0296
 5708SOL     OW28756   2.579   4.010  13.923  0.3614 -0.1486 -0.0250
 5708SOL    HW128757   2.521   4.086  13.915  0.6243 -0.1371 -1.6615
 5708SOL    HW228758   2.570   3.974  13.835 -2.3693 -0.0558  0.2286
 5709SOL     OW28759   3.450   4.431   7.387  0.3056 -0.1059  0.2579
 5709SOL    HW128760   3.537   4.436   7.349 -0.0678 -1.7187 -0.8036
 5709SOL    HW228761   3.395   4.416   7.310 -2.2704  2.3547  1.5949
 5710SOL     OW28762   2.618   0.956  11.430 -0.4136 -0.2137 -0.0990
 5710SOL    HW128763   2.589   0.967  11.340  0.6536  3.5042  0.0417
 5710SOL    HW228764   2.700   0.910  11.413  0.7056  1.6420  0.3765
 5711SOL     OW28765   4.260   2.536   9.109  0.1634 -0.0245 -0.5103
 5711SOL    HW128766   4.176   2.560   9.070  0.2975  0.0276 -0.7670
 5711SOL    HW228767   4.297   2.617   9.143 -2.4541  1.4324 -1.1531
 5712SOL     OW28768   2.803   1.169  11.623  0.3005 -0.3010 -0.2658
 5712SOL    HW128769   2.861   1.105  11.581  2.1256  1.1815 -0.0303
 5712SOL    HW228770   2.816   1.148  11.716 -0.2831 -0.9622 -0.3306
 5713SOL     OW28771   4.182   0.106   2.932  0.2853  0.6758 -0.1942
 5713SOL    HW128772   4.242   0.177   2.907  0.8511 -0.3643 -1.8352
 5713SOL    HW228773   4.146   0.083   2.846  0.3423 -2.3444  0.5829
 5714SOL     OW28774   0.219   1.018   8.743  0.3494 -0.0029  0.0762
 5714SOL    HW128775   0.125   1.016   8.759 -0.1082  1.3631 -2.3387
 5714SOL    HW228776   0.216   1.069   8.662 -2.2714  0.7423  0.6165
 5715SOL     OW28777   0.694   2.781   5.628  0.2463 -0.0966 -0.8995
 5715SOL    HW128778   0.730   2.729   5.556  2.0518  0.1141 -0.1572
 5715SOL    HW228779   0.767   2.786   5.690 -0.8687 -3.0151  0.6370
 5716SOL     OW28780   2.452   0.688  15.464  0.2358  0.2555 -0.0480
 5716SOL    HW128781   2.368   0.715  15.427 -0.1886 -0.7100  0.2257
 5716SOL    HW228782   2.498   0.670  15.382 -0.0038  0.2178 -0.1735
 5717SOL     OW28783   1.786   1.178   4.163  0.0472 -0.2952 -0.2493
 5717SOL    HW128784   1.769   1.226   4.244  3.2243 -1.0386  0.8515
 5717SOL    HW228785   1.700   1.143   4.138 -2.2705  3.4995  2.2966
 5718SOL     OW28786   2.882   4.469  12.760  0.1196 -0.7713 -0.1065
 5718SOL    HW128787   2.867   4.432  12.673 -1.8265 -3.0653  1.2137
 5718SOL    HW228788   2.830   4.549  12.753 -2.4558 -2.3400  0.8219
 5719SOL     OW28789   4.088   2.764   1.496 -0.3733 -0.9853 -0.3671
 5719SOL    HW128790   4.133   2.847   1.482 -4.5563  1.2727 -0.3477
 5719SOL    HW228791   4.107   2.726   1.411 -1.6431  1.1821 -1.6087
 5720SOL     OW28792   3.914   0.072   7.593  0.1735  0.3862 -0.5921
 5720SOL    HW128793   3.967   0.100   7.668 -1.4465 -1.4672  1.2463
 5720SOL    HW228794   3.985   0.073   7.528  0.0666 -0.3434 -0.7292
 5721SOL     OW28795   1.803   3.272   1.216 -0.6913  0.2163  0.0221
 5721SOL    HW128796   1.858   3.200   1.248  1.7505  0.8511 -2.7661
 5721SOL    HW228797   1.723   3.258   1.267 -0.7212  2.3401  0.5494
 5722SOL     OW28798   2.984   0.091   0.293 -0.1295 -0.2190 -0.7822
 5722SOL    HW128799   3.009   0.001   0.314  1.2410  0.4461  0.4223
 5722SOL    HW228800   3.000   0.089   0.199  1.3834  2.6744 -0.5745
 5723SOL     OW28801   1.485   0.304  10.285 -0.6991 -0.0180 -0.3884
 5723SOL    HW128802   1.529   0.239  10.230  1.6853  0.3744  1.0704
 5723SOL    HW228803   1.438   0.246  10.345  3.3109 -1.5597  1.2304
 5724SOL     OW28804   4.219   4.400   0.475 -0.6856 -0.0391 -0.4386
 5724SOL    HW128805   4.244   4.308   0.482 -0.8316 -0.1627 -1.4993
 5724SOL    HW228806   4.248   4.429   0.388 -1.0264 -0.5633 -0.7294
 5725SOL     OW28807   0.498   2.888  13.835  0.4674  0.5817 -0.0783
 5725SOL    HW128808   0.431   2.838  13.881  2.2455  1.7394  3.7766
 5725SOL    HW228809   0.464   2.882  13.745  1.7910  0.6920 -0.5905
 5726SOL     OW28810   3.148   1.944   7.282  0.3934  0.0946 -0.4144
 5726SOL    HW128811   3.132   2.031   7.246  0.5817  0.6714  0.8955
 5726SOL    HW228812   3.219   1.908   7.228 -1.5884 -0.5049 -2.6348
 5727SOL     OW28813   2.916   0.841   9.701  0.5353  0.0491  0.4645
 5727SOL    HW128814   2.946   0.765   9.651  0.8370 -0.6812  1.7518
 5727SOL    HW228815   2.920   0.819   9.794 -0.2549 -1.3558  0.1698
 5728SOL     OW28816   4.306   1.480   5.652  0.0591  0.2530  0.5313
 5728SOL    HW128817   4.276   1.467   5.562  0.9583 -0.3475  0.3285
 5728SOL    HW228818   4.223   1.490   5.699  0.6342  1.5216  1.2816
 5729SOL     OW28819   3.320   0.976  13.318  0.3256  0.1061 -0.1856
 5729SOL    HW128820   3.272   0.894  13.310 -2.3486  1.6394  0.2343
 5729SOL    HW228821   3.291   0.994  13.407 -0.1516 -1.6113  0.0139
 5730SOL     OW28822   1.694   1.477  10.171  0.5723 -0.4963  0.1309
 5730SOL    HW128823   1.652   1.550  10.217 -3.5163 -2.7112 -0.0335
 5730SOL    HW228824   1.672   1.479  10.078 -1.4732 -0.6178  0.5929
 5731SOL     OW28825   2.205   3.901   5.422 -0.4577  0.3254 -0.1932
 5731SOL    HW128826   2.289   3.945   5.433 -1.3463  1.9048  0.2309
 5731SOL    HW228827   2.147   3.965   5.462  0.6153  1.1592  0.0129
 5732SOL     OW28828   2.705   2.713   7.837  0.5697 -0.2254 -0.0685
 5732SOL    HW128829   2.620   2.714   7.794 -1.5191 -2.1015  3.9377
 5732SOL    HW228830   2.757   2.785   7.801  1.9813 -0.9517  0.5087
 5733SOL     OW28831   2.883   1.304   4.303  0.3835  0.1276  0.2113
 5733SOL    HW128832   2.877   1.263   4.217  2.8501  2.8380 -1.2363
 5733SOL    HW228833   2.939   1.377   4.277  1.1986 -0.3127  0.7274
 5734SOL     OW28834   4.125   3.534   0.025  0.1854 -0.2118  0.0070
 5734SOL    HW128835   4.161   3.598  17.699  1.0841 -1.8425 -1.1895
 5734SOL    HW228836   4.131   3.452  17.712 -2.6700  0.0978 -0.8087
 5735SOL     OW28837   1.623   0.617   9.045  0.6073 -0.0475 -0.0340
 5735SOL    HW128838   1.645   0.533   9.004  0.4955  1.3965 -3.1038
 5735SOL    HW228839   1.530   0.623   9.025  0.7044 -2.3240 -1.2109
 5736SOL     OW28840   0.418   4.582   9.448  0.3700  0.0952 -0.0424
 5736SOL    HW128841   0.392   4.619   9.532  1.9589 -0.4891  0.7008
 5736SOL    HW228842   0.336   4.597   9.400  0.1423  0.6781  0.5221
 5737SOL     OW28843   2.900   3.825   4.633  0.0470  0.4807 -0.0208
 5737SOL    HW128844   2.932   3.825   4.723 -0.1812 -1.6317  0.0464
 5737SOL    HW228845   2.875   3.918   4.627 -2.8269 -0.2664  0.3562
 5738SOL     OW28846   2.698   2.006   5.580 -0.1521 -0.3407 -0.2891
 5738SOL    HW128847   2.666   2.077   5.635 -0.3616 -0.0888 -0.7398
 5738SOL    HW228848   2.787   1.985   5.609 -0.0284 -2.2149 -1.9782
 5739SOL     OW28849   1.910   4.259   4.932  0.4309  0.1813 -0.2892
 5739SOL    HW128850   1.846   4.307   4.984  0.8113  1.8384 -1.3297
 5739SOL    HW228851   1.987   4.309   4.960 -0.7284  1.4589  0.6181
 5740SOL     OW28852   0.517   3.145  16.875  0.0874 -0.1211  0.9835
 5740SOL    HW128853   0.545   3.222  16.826 -2.5437  1.3362  1.7503
 5740SOL    HW228854   0.463   3.194  16.937  0.8324 -0.4230  1.8668
 5741SOL     OW28855   4.601   3.721   5.047 -0.1053  0.2870 -0.4158
 5741SOL    HW128856   4.631   3.760   5.129 -2.6852  0.0759  0.6206
 5741SOL    HW228857   4.675   3.678   5.004 -1.5951 -0.2119 -2.4972
 5742SOL     OW28858   2.514   4.503  15.231 -0.0334 -0.1674 -0.5382
 5742SOL    HW128859   2.573   4.456  15.172  0.4347 -0.5947  0.2648
 5742SOL    HW228860   2.568   4.558  15.287  2.5342 -3.8778  0.5967
 5743SOL     OW28861   0.612   3.626   5.050 -0.0563  0.2110  0.0428
 5743SOL    HW128862   0.693   3.660   5.010  1.3176 -2.0163  0.9163
 5743SOL    HW228863   0.623   3.531   5.060 -0.1005  0.1763 -0.2200
 5744SOL     OW28864   1.207   3.669   7.303  0.3177 -0.0491  0.4635
 5744SOL    HW128865   1.121   3.704   7.280  0.1898 -0.0006  1.0146
 5744SOL    HW228866   1.273   3.724   7.260 -0.5752 -1.6076 -2.9173
 5745SOL     OW28867   1.567   3.169   7.830  0.6444  0.1962  0.3323
 5745SOL    HW128868   1.544   3.129   7.914  1.3899 -0.8602  0.0232
 5745SOL    HW228869   1.501   3.121   7.779  0.9870  0.2928 -0.1971
 5746SOL     OW28870   2.000   3.531  15.607 -0.1125 -0.1462  0.2124
 5746SOL    HW128871   1.942   3.559  15.537 -0.1975 -0.3512  0.2002
 5746SOL    HW228872   2.039   3.457  15.561  1.3219  2.5413 -2.9001
 5747SOL     OW28873   2.834   4.154  17.453 -0.2988 -0.2261  0.0162
 5747SOL    HW128874   2.765   4.172  17.516 -0.8078 -1.7966 -0.0925
 5747SOL    HW228875   2.797   4.087  17.396 -0.1000  0.3534 -0.8027
 5748SOL     OW28876   4.087   4.196  17.261  0.2875  0.1229 -0.0426
 5748SOL    HW128877   4.178   4.182  17.288  0.1297  1.9232  1.4414
 5748SOL    HW228878   4.088   4.290  17.245  1.4765  0.1723  0.2811
 5749SOL     OW28879   1.397   2.005   7.206  1.1495  0.0308  0.5091
 5749SOL    HW128880   1.377   1.930   7.150  0.1028  0.1988  0.6662
 5749SOL    HW228881   1.429   2.069   7.142 -1.0614  1.1347  0.5207
 5750SOL     OW28882   2.453   4.567   1.651  0.1601 -0.4958 -0.3017
 5750SOL    HW128883   2.534   4.520   1.669  0.9950  1.2390  0.4812
 5750SOL    HW228884   2.404   4.504   1.597  0.5572 -2.0796  1.1982
 5751SOL     OW28885   2.296   0.005   7.830  0.6381 -0.2761  0.5985
 5751SOL    HW128886   2.317   4.655   7.871 -0.0292 -0.2916  0.8957
 5751SOL    HW228887   2.375   0.015   7.776  1.0125  0.3131  1.2426
 5752SOL     OW28888   1.477   0.101  17.656  0.7438 -0.1486 -0.2254
 5752SOL    HW128889   1.454   0.105   0.014  1.1169 -0.8381 -0.1023
 5752SOL    HW228890   1.570   0.121  17.667  0.1370  1.2844  2.3130
 5753SOL     OW28891   2.157   2.076   8.606  0.1437  0.0375 -0.0032
 5753SOL    HW128892   2.134   2.090   8.698  0.4106  1.5048 -0.1529
 5753SOL    HW228893   2.164   1.980   8.605 -1.7448 -0.1386  2.9047
 5754SOL     OW28894   3.141   2.311   5.674 -0.3423  0.0316 -0.3150
 5754SOL    HW128895   3.212   2.366   5.642  0.8457 -1.7566 -0.7717
 5754SOL    HW228896   3.198   2.238   5.699  0.6945  1.1525  0.6123
 5755SOL     OW28897   2.432   1.458   4.612  0.1050  0.4341  0.0781
 5755SOL    HW128898   2.439   1.535   4.556 -0.1046 -0.2148 -0.8266
 5755SOL    HW228899   2.439   1.392   4.544  1.5902 -0.6330  1.2696
 5756SOL     OW28900   2.189   2.770   9.212 -0.4968  0.0099  0.1863
 5756SOL    HW128901   2.205   2.737   9.124 -2.8228  1.8098 -0.9212
 5756SOL    HW228902   2.277   2.756   9.246 -0.0361 -0.4968 -1.2123
 5757SOL     OW28903   0.609   0.451  14.323 -0.6191  0.0725 -0.2510
 5757SOL    HW128904   0.610   0.381  14.388 -0.5627  0.0732 -0.2510
 5757SOL    HW228905   0.696   0.440  14.284 -0.1568 -0.2436  0.8672
 5758SOL     OW28906   1.714   3.139   7.588 -0.7482 -0.8812 -0.1420
 5758SOL    HW128907   1.620   3.159   7.587 -0.4139  0.6519 -0.3398
 5758SOL    HW228908   1.708   3.043   7.594  0.4984 -1.0064 -0.9046
 5759SOL     OW28909   1.090   0.126   2.466 -0.5796  0.3652  0.1814
 5759SOL    HW128910   1.103   0.204   2.412  1.3495  1.1370  1.7542
 5759SOL    HW228911   1.170   0.079   2.445  0.1224  1.2303  0.9062
 5760SOL     OW28912   1.041   1.477   8.121 -0.6504 -0.4802  0.3877
 5760SOL    HW128913   1.026   1.485   8.027  2.1006 -0.9016 -0.0981
 5760SOL    HW228914   1.117   1.419   8.116  1.8645  2.7750  0.7418
 5761SOL     OW28915   0.407   4.623  10.020 -0.0444  0.0365 -0.0506
 5761SOL    HW128916   0.434   4.557   9.956 -0.6656 -0.1804 -0.0935
 5761SOL    HW228917   0.311   4.622  10.029  0.1115 -0.0037  1.5615
 5762SOL     OW28918   0.545   1.373   5.204 -0.2063 -0.0333  0.2744
 5762SOL    HW128919   0.617   1.330   5.252 -2.1663 -1.5985  1.7991
 5762SOL    HW228920   0.503   1.417   5.277 -1.4004  1.5671 -1.4076
 5763SOL     OW28921   4.614   2.847   5.456  0.1004  0.2142 -0.4184
 5763SOL    HW128922   4.570   2.930   5.436 -1.3757 -0.0816  1.5809
 5763SOL    HW228923   4.537   2.789   5.455 -1.1608  1.8829 -0.2161
 5764SOL     OW28924   0.004   4.004   1.903 -0.5108 -0.6639 -0.4377
 5764SOL    HW128925   0.090   3.965   1.915  0.3335  0.9224 -1.3900
 5764SOL    HW228926   4.690   3.935   1.857 -0.0677 -1.6511  0.5620
 5765SOL     OW28927   0.256   4.499  11.530  0.6421 -0.0308 -0.4394
 5765SOL    HW128928   0.170   4.489  11.490  1.0875 -2.5757 -0.7626
 5765SOL    HW228929   0.236   4.556  11.604  3.2003  2.5441 -1.7379
 5766SOL     OW28930   1.468   3.462   3.293  0.1207 -0.3991  0.8591
 5766SOL    HW128931   1.474   3.394   3.226  0.7649  1.7059 -1.2140
 5766SOL    HW228932   1.418   3.530   3.249  2.3398 -1.0694 -2.7396
 5767SOL     OW28933   1.353   1.312   2.887 -0.0972 -0.6965 -0.1368
 5767SOL    HW128934   1.422   1.246   2.888 -1.2598 -1.8831  2.0329
 5767SOL    HW228935   1.298   1.297   2.965 -0.3457 -1.1289 -0.3988
 5768SOL     OW28936   3.683   2.194   9.674 -0.0705  0.1409 -0.1704
 5768SOL    HW128937   3.763   2.163   9.717 -0.0586 -1.2378 -1.2049
 5768SOL    HW228938   3.654   2.109   9.640 -1.5798  1.0832 -1.2214
 5769SOL     OW28939   4.410   4.367   5.893 -0.8776 -0.7059 -0.3319
 5769SOL    HW128940   4.489   4.364   5.840 -1.3146  2.5346 -1.1593
 5769SOL    HW228941   4.407   4.282   5.937  1.5479 -0.0217  1.1234
 5770SOL     OW28942   4.385   0.682   5.211 -0.1509 -0.2543 -0.3274
 5770SOL    HW128943   4.474   0.675   5.176  0.6024 -1.7502  1.8972
 5770SOL    HW228944   4.376   0.617   5.281  0.7909  1.1328  1.0832
 5771SOL     OW28945   1.415   0.546  11.160  0.1500 -1.1068  0.5202
 5771SOL    HW128946   1.337   0.550  11.215 -0.4174 -0.3258 -0.3463
 5771SOL    HW228947   1.398   0.469  11.106 -2.0323  1.7558 -2.8414
 5772SOL     OW28948   0.806   4.446  12.537  0.4878 -0.5094 -0.1382
 5772SOL    HW128949   0.864   4.376  12.567 -1.2583 -1.0910  1.8978
 5772SOL    HW228950   0.798   4.434  12.442 -1.6837 -1.6964  0.2003
 5773SOL     OW28951   3.947   1.317   5.657 -0.0941 -0.2993  0.1754
 5773SOL    HW128952   3.980   1.249   5.717 -0.2161  0.1967  0.8104
 5773SOL    HW228953   4.001   1.322   5.579  1.4369  3.4820  1.4941
 5774SOL     OW28954   4.566   4.465  10.900  0.3643  0.1608  0.2535
 5774SOL    HW128955   4.619   4.420  10.834 -0.0226  2.5989 -1.7445
 5774SOL    HW228956   4.627   4.503  10.963  0.7002 -0.4249  0.2771
 5775SOL     OW28957   3.217   0.648  10.380 -0.2936 -0.0844 -0.6919
 5775SOL    HW128958   3.299   0.619  10.339 -0.5811  0.0030 -1.3361
 5775SOL    HW228959   3.230   0.602  10.463 -0.4478 -0.6850 -0.9986
 5776SOL     OW28960   2.865   0.456   4.567 -0.4172  0.6344 -0.3520
 5776SOL    HW128961   2.868   0.528   4.504 -2.0708 -0.8478 -2.1039
 5776SOL    HW228962   2.779   0.468   4.607  0.6980  0.2809  2.1422
 5777SOL     OW28963   1.312   0.455   8.979  0.3288  0.5789  0.0693
 5777SOL    HW128964   1.292   0.386   9.042  0.9686 -1.2008 -1.6580
 5777SOL    HW228965   1.335   0.531   9.032  1.2510 -0.6949  1.4759
 5778SOL     OW28966   2.198   1.286   9.781  0.5455 -0.2113 -0.1650
 5778SOL    HW128967   2.213   1.194   9.803  2.1996 -0.0538 -0.6697
 5778SOL    HW228968   2.244   1.298   9.698 -0.3203 -1.1881 -0.7875
 5779SOL     OW28969   3.391   0.973   2.178 -0.1266  0.8990 -0.0713
 5779SOL    HW128970   3.470   0.946   2.130 -1.1707 -0.4168 -1.0602
 5779SOL    HW228971   3.408   0.963   2.271  0.3663  0.7218 -0.1812
 5780SOL     OW28972   3.989   3.516   1.855 -0.1062 -0.1152  0.4849
 5780SOL    HW128973   4.019   3.434   1.817  0.7736 -1.7034  4.6809
 5780SOL    HW228974   4.073   3.560   1.848 -0.7026  1.0614  0.6677
 5781SOL     OW28975   0.875   2.238   6.910 -0.0111 -0.6247  0.2575
 5781SOL    HW128976   0.863   2.302   6.839  1.8962  1.1003  1.4851
 5781SOL    HW228977   0.895   2.156   6.866  4.3809  0.9230 -0.6134
 5782SOL     OW28978   0.331   3.043   6.735  0.5908  0.4819  0.6480
 5782SOL    HW128979   0.376   2.979   6.791  3.2811  2.0680  0.2669
 5782SOL    HW228980   0.398   3.076   6.676  2.0856  1.0004  2.6417
 5783SOL     OW28981   0.747   1.947  16.265 -0.4596  0.3250 -0.2158
 5783SOL    HW128982   0.657   1.917  16.274 -0.4243 -0.4243 -2.4379
 5783SOL    HW228983   0.771   1.958  16.357 -1.2324  1.4567 -0.1449
 5784SOL     OW28984   2.158   0.357  17.027  0.1609  0.7167  0.2597
 5784SOL    HW128985   2.164   0.285  16.965  0.9978 -0.8614  2.1951
 5784SOL    HW228986   2.236   0.410  17.009  1.1881 -0.6791  0.6058
 5785SOL     OW28987   4.457   0.599   8.543  0.0013 -0.4680 -0.0177
 5785SOL    HW128988   4.380   0.601   8.486  0.0589 -2.1307 -0.1657
 5785SOL    HW228989   4.456   0.689   8.575 -3.9495 -0.0788 -1.2306
 5786SOL     OW28990   0.783   0.193  10.256  0.5376 -0.1381 -0.4671
 5786SOL    HW128991   0.727   0.153  10.190  1.8785 -1.6695 -0.6701
 5786SOL    HW228992   0.812   0.265  10.200 -2.0432  2.6578  1.7950
 5787SOL     OW28993   1.804   3.731   8.153 -0.2229  0.4800  0.5947
 5787SOL    HW128994   1.749   3.668   8.200  2.2128 -1.6950  0.5240
 5787SOL    HW228995   1.876   3.736   8.216 -0.2422  1.2124  0.5634
 5788SOL     OW28996   2.686   2.535  16.444  0.3689 -0.2876  0.5324
 5788SOL    HW128997   2.666   2.625  16.471  0.6367  0.5671 -2.1384
 5788SOL    HW228998   2.695   2.546  16.349 -0.4241  0.2647  0.5182
 5789SOL     OW28999   3.663   4.563   4.200  0.3322 -0.6587  0.1525
 5789SOL    HW129000   3.577   4.521   4.194  0.0936  0.0852 -1.7915
 5789SOL    HW229001   3.677   4.554   4.106  1.6241 -1.1606  0.3973
 5790SOL     OW29002   2.775   3.474  13.689 -0.8229  0.1840 -0.3607
 5790SOL    HW129003   2.705   3.506  13.632 -0.7204 -0.8685 -1.0925
 5790SOL    HW229004   2.816   3.548  13.733  0.2363  0.2036 -1.3866
 5791SOL     OW29005   2.058   1.769   6.608  0.1729 -0.1751  0.4281
 5791SOL    HW129006   1.979   1.718   6.588 -0.5092  0.8140  0.5835
 5791SOL    HW229007   2.065   1.746   6.701 -2.0338 -2.2331  0.0719
 5792SOL     OW29008   3.863   2.241   5.422  0.3494 -0.1969  0.4298
 5792SOL    HW129009   3.926   2.265   5.489  2.0183 -0.6422 -0.9834
 5792SOL    HW229010   3.783   2.267   5.467  0.3711 -0.6432  0.7234
 5793SOL     OW29011   2.727   1.957  17.658 -0.3623 -0.6165  0.1159
 5793SOL    HW129012   2.633   1.951  17.645 -0.1180  0.0079 -1.8226
 5793SOL    HW229013   2.738   1.934   0.016  1.7621  0.0124  0.0390
 5794SOL     OW29014   2.479   4.277   8.934 -0.1991 -0.7267  0.1052
 5794SOL    HW129015   2.545   4.272   9.003  0.1997  2.5293 -0.0377
 5794SOL    HW229016   2.525   4.299   8.853  0.2612 -0.3272  0.4714
 5795SOL     OW29017   0.098   4.447   1.706 -0.1834 -0.6979 -0.3587
 5795SOL    HW129018   0.120   4.460   1.798 -0.5269  1.3222 -0.5633
 5795SOL    HW229019   0.175   4.402   1.673 -1.6199 -2.3428 -1.5232
 5796SOL     OW29020   3.776   3.432   4.895  0.5017 -0.1149 -0.7297
 5796SOL    HW129021   3.752   3.382   4.817  3.3356 -1.0549 -0.9850
 5796SOL    HW229022   3.688   3.448   4.931  0.8605  1.2536 -0.4694
 5797SOL     OW29023   4.490   3.617   3.057  0.1155  0.6349 -0.2700
 5797SOL    HW129024   4.548   3.652   2.989  1.0316 -0.1722  0.0956
 5797SOL    HW229025   4.509   3.685   3.123  1.5638 -2.1061  2.1606
 5798SOL     OW29026   2.725   0.046   0.182 -0.4971 -0.5464  0.1313
 5798SOL    HW129027   2.672   4.700   0.188  0.1577 -0.9245  0.8374
 5798SOL    HW229028   2.805   0.018   0.226  1.2926  2.3866 -1.2562
 5799SOL     OW29029   4.685   3.989  11.988 -0.3855  0.0078  0.1052
 5799SOL    HW129030   4.598   4.024  12.009 -0.7170 -1.1588  0.6819
 5799SOL    HW229031   4.665   3.896  11.996  0.6643 -0.5859 -3.9121
 5800SOL     OW29032   0.938   1.786   8.982 -0.3136  0.6082 -0.2660
 5800SOL    HW129033   1.030   1.812   8.975 -0.2114  0.8061  1.9738
 5800SOL    HW229034   0.923   1.829   9.066  2.5537  0.2209  0.4291
 5801SOL     OW29035   2.593   2.231   8.102  0.3053  0.5023 -0.0353
 5801SOL    HW129036   2.519   2.182   8.066 -0.1434  1.0469  0.1468
 5801SOL    HW229037   2.582   2.319   8.065 -1.6801  0.4486  0.4506
 5802SOL     OW29038   1.234   4.609   2.942 -0.0623  0.2936 -0.1621
 5802SOL    HW129039   1.284   4.536   2.980 -1.1079 -0.9950 -1.2497
 5802SOL    HW229040   1.270   4.679   2.996 -1.8490  1.7055 -0.8205
 5803SOL     OW29041   1.006   4.481   8.873  0.0874  0.4074  0.1980
 5803SOL    HW129042   0.961   4.551   8.920 -1.1829  0.3752 -0.9597
 5803SOL    HW229043   0.988   4.406   8.930 -0.1757 -0.6988 -1.3467
 5804SOL     OW29044   1.590   4.587   2.313  0.2585 -0.4470 -0.1313
 5804SOL    HW129045   1.547   4.601   2.228  0.3791 -0.2323 -0.1562
 5804SOL    HW229046   1.609   4.494   2.300 -1.5385 -0.9681  0.8849
 5805SOL     OW29047   0.075   3.740   9.248  0.1320 -0.2306  0.4766
 5805SOL    HW129048   0.019   3.708   9.319 -1.9229  2.9127  0.2696
 5805SOL    HW229049   0.073   3.834   9.266  0.4831 -0.7980  3.4707
 5806SOL     OW29050   2.084   3.824   7.479 -0.3979  0.3793 -0.3259
 5806SOL    HW129051   2.004   3.876   7.475  0.1637  1.3488  0.9642
 5806SOL    HW229052   2.059   3.762   7.547  0.9710  0.2944  0.1026
 5807SOL     OW29053   4.166   4.113  16.337  0.6889  0.2921 -0.4876
 5807SOL    HW129054   4.161   4.092  16.243 -4.0798 -2.4154  0.3786
 5807SOL    HW229055   4.236   4.053  16.365  0.3134  0.0703 -0.0341
 5808SOL     OW29056   1.671   0.308   4.349  0.8861 -0.3904 -0.4756
 5808SOL    HW129057   1.708   0.365   4.416  1.6752 -0.6020 -0.7234
 5808SOL    HW229058   1.605   0.366   4.310  0.0885 -1.1123 -0.2058
 5809SOL     OW29059   1.914   2.529   0.710  0.4530 -0.5580  0.3121
 5809SOL    HW129060   1.990   2.526   0.768  0.3890 -1.5746  0.3497
 5809SOL    HW229061   1.844   2.554   0.770  1.4377 -1.6907  1.9295
 5810SOL     OW29062   2.176   1.882  12.835 -0.6174 -0.4412  0.0386
 5810SOL    HW129063   2.176   1.948  12.766 -0.2629  0.1126  0.5671
 5810SOL    HW229064   2.263   1.843  12.826  0.5411  2.6023 -1.8275
 5811SOL     OW29065   0.193   0.857   3.869  0.1699  0.4302  0.4123
 5811SOL    HW129066   0.156   0.785   3.921 -1.0078  0.3439 -0.5481
 5811SOL    HW229067   0.136   0.921   3.912 -3.1957 -1.6076 -0.9808
 5812SOL     OW29068   1.577   0.367   8.002  0.1245 -0.3931 -0.5885
 5812SOL    HW129069   1.531   0.318   8.071  0.5540 -1.8309 -1.3208
 5812SOL    HW229070   1.667   0.364   8.034 -0.3681 -0.6171  0.8005
 5813SOL     OW29071   4.698   2.090  13.610  0.2358 -0.1124 -0.0261
 5813SOL    HW129072   4.715   2.101  13.516 -0.9546  0.1916 -0.2122
 5813SOL    HW229073   0.010   2.167  13.644 -0.7122  0.5928 -0.3338
 5814SOL     OW29074   2.532   0.541  14.537  0.5576 -0.5921  0.1296
 5814SOL    HW129075   2.527   0.458  14.490 -1.4246 -1.8655  2.6201
 5814SOL    HW229076   2.457   0.529  14.595 -0.8486  0.6164 -1.4449
 5815SOL     OW29077   1.676   3.021   6.211 -0.5998 -0.1668 -0.1893
 5815SOL    HW129078   1.620   2.966   6.156 -1.7957 -0.0324  0.8812
 5815SOL    HW229079   1.758   2.972   6.202 -0.2781  0.7312 -2.1200
 5816SOL     OW29080   0.438   3.495   9.175 -0.2382 -0.5230 -0.3985
 5816SOL    HW129081   0.383   3.546   9.116 -0.2011  1.1545  1.0101
 5816SOL    HW229082   0.472   3.560   9.237  3.0512 -1.1114 -1.5825
 5817SOL     OW29083   1.350   1.431   6.398  0.4196 -0.3340  0.3882
 5817SOL    HW129084   1.403   1.372   6.344  0.9378  0.4180  0.0942
 5817SOL    HW229085   1.281   1.367   6.418 -0.9454  1.8298  2.6683
 5818SOL     OW29086   0.100   1.944  13.088 -0.0506  0.1679  0.3825
 5818SOL    HW129087   0.058   1.904  13.164  0.9543  0.7493  1.2448
 5818SOL    HW229088   0.033   2.006  13.058 -0.6997 -0.7637 -0.1047
 5819SOL     OW29089   0.205   1.668  14.011  0.2997 -0.1501 -0.5768
 5819SOL    HW129090   0.263   1.613  13.958  1.6624  1.4991 -0.8123
 5819SOL    HW229091   0.116   1.652  13.980 -0.2544 -0.5772  1.2720
 5820SOL     OW29092   3.965   2.489   1.210  0.2701 -0.1465  0.3285
 5820SOL    HW129093   3.936   2.399   1.225  0.6878 -0.1131  1.3667
 5820SOL    HW229094   3.896   2.541   1.252  1.5838  1.6949  0.2100
 5821SOL     OW29095   2.352   3.132   5.435  0.0975 -0.3084  0.6621
 5821SOL    HW129096   2.302   3.090   5.365 -3.4041  2.3348  1.5682
 5821SOL    HW229097   2.296   3.116   5.511  1.6749 -2.8197  1.2823
 5822SOL     OW29098   2.210   1.089   2.670 -0.1966  0.4395  0.0949
 5822SOL    HW129099   2.220   1.092   2.575 -2.0808  1.0489 -0.0909
 5822SOL    HW229100   2.208   0.995   2.684 -0.7027  0.2005 -1.5049
 5823SOL     OW29101   0.756   3.118   9.535  0.0552 -0.1337  0.2913
 5823SOL    HW129102   0.684   3.125   9.472  0.7083 -1.4695 -0.6058
 5823SOL    HW229103   0.752   3.029   9.570  0.8155 -0.0322  0.6421
 5824SOL     OW29104   1.280   1.000  15.049  0.4164  0.2739  0.3796
 5824SOL    HW129105   1.341   1.042  14.988  1.1261 -0.4258  0.5989
 5824SOL    HW229106   1.248   0.940  14.982 -0.3961  0.6715  0.4103
 5825SOL     OW29107   0.453   3.270   2.582 -0.2318  0.6957  0.4979
 5825SOL    HW129108   0.425   3.275   2.490  1.3216 -2.2362 -0.1405
 5825SOL    HW229109   0.538   3.313   2.579  0.5812 -0.9940 -0.4934
 5826SOL     OW29110   2.971   2.068   7.892 -0.2370  0.4780  0.0295
 5826SOL    HW129111   2.957   2.047   7.984 -0.1777  2.0499  0.3913
 5826SOL    HW229112   2.957   2.162   7.886 -0.5736  0.3238 -1.7818
 5827SOL     OW29113   2.961   3.909   6.077  0.1572 -0.4893 -0.4289
 5827SOL    HW129114   3.042   3.929   6.124  1.4814  0.1559 -2.9580
 5827SOL    HW229115   2.902   3.933   6.148  2.2920  0.7135  0.9345
 5828SOL     OW29116   2.665   4.260   2.673  0.0827  0.2666  0.2167
 5828SOL    HW129117   2.682   4.176   2.631  2.1231  0.0251  1.5700
 5828SOL    HW229118   2.633   4.301   2.593  2.2357 -1.7954 -1.7003
 5829SOL     OW29119   4.489   3.565   5.341  0.2044  0.5586 -0.6192
 5829SOL    HW129120   4.464   3.490   5.286  0.7348 -1.3320  1.6862
 5829SOL    HW229121   4.451   3.639   5.294  0.3663  0.0929 -1.4826
 5830SOL     OW29122   2.170   1.150   5.371  0.1376 -0.3288 -0.6586
 5830SOL    HW129123   2.190   1.159   5.464  1.9925 -0.8951 -1.0033
 5830SOL    HW229124   2.077   1.171   5.361  0.7173  3.3089  1.5820
 5831SOL     OW29125   1.902   0.427  14.164 -0.4774  0.1520 -0.4515
 5831SOL    HW129126   1.986   0.435  14.119 -1.3251  0.1466 -2.0476
 5831SOL    HW229127   1.871   0.351  14.115 -0.4721 -1.6477  2.2835
 5832SOL     OW29128   1.183   3.924  15.150 -0.1051  0.8015  0.2239
 5832SOL    HW129129   1.191   4.004  15.202 -1.3104 -0.1639  1.8657
 5832SOL    HW229130   1.088   3.915  15.143  0.2095 -1.4242 -1.0254
 5833SOL     OW29131   4.408   3.171  13.018  0.7272  0.4464 -0.0931
 5833SOL    HW129132   4.331   3.152  13.073 -0.3012  1.5887 -1.1371
 5833SOL    HW229133   4.394   3.249  12.964 -1.7462 -0.4980 -0.8132
 5834SOL     OW29134   4.610   4.346  11.827 -0.1323  0.0421 -0.9029
 5834SOL    HW129135   4.670   4.419  11.811  0.0356  0.1894  0.4154
 5834SOL    HW229136   4.575   4.333  11.739 -0.3493  2.3388 -1.1462
 5835SOL     OW29137   2.029   2.156   6.519  0.7068 -0.0751 -0.0915
 5835SOL    HW129138   2.092   2.084   6.529  1.3542  0.4397 -0.4574
 5835SOL    HW229139   2.009   2.171   6.611 -0.1119  1.0442 -0.4461
 5836SOL     OW29140   1.257   3.688   5.932 -0.1368  0.4618 -0.1524
 5836SOL    HW129141   1.238   3.683   5.838 -0.7145  0.4199 -0.0305
 5836SOL    HW229142   1.174   3.730   5.956  0.9895  1.7046  1.5976
 5837SOL     OW29143   3.455   1.819   2.317 -0.2508 -0.0664 -0.5140
 5837SOL    HW129144   3.513   1.885   2.354  0.7917 -0.1146 -2.0370
 5837SOL    HW229145   3.395   1.870   2.263 -0.8516  0.0946  0.3130
 5838SOL     OW29146   2.304   2.658   5.927 -0.1627  0.5033 -0.3669
 5838SOL    HW129147   2.372   2.724   5.918  1.9678 -1.3530  2.0622
 5838SOL    HW229148   2.358   2.581   5.945  1.3684  2.0653  1.7419
 5839SOL     OW29149   0.866   0.156   6.598  0.0813 -0.1045 -0.5775
 5839SOL    HW129150   0.832   0.242   6.623  0.0406 -0.1741 -0.3919
 5839SOL    HW229151   0.818   0.106   6.663 -0.1903  1.2229  0.2577
 5840SOL     OW29152   1.829   2.823   2.513 -0.2024 -0.3527  0.5368
 5840SOL    HW129153   1.839   2.791   2.423  0.6720 -0.7102  0.7563
 5840SOL    HW229154   1.906   2.786   2.557  0.5322  0.5963  0.0316
 5841SOL     OW29155   3.740   2.493  17.625  0.5188  0.5609  0.6178
 5841SOL    HW129156   3.802   2.548  17.576  0.7073 -0.5681 -0.4176
 5841SOL    HW229157   3.774   2.411  17.589  0.5526  0.1814  1.5282
 5842SOL     OW29158   0.861   2.309  16.683  0.3209 -0.4036  0.4365
 5842SOL    HW129159   0.881   2.398  16.656  0.2670 -0.3535  0.5620
 5842SOL    HW229160   0.890   2.299  16.774 -3.1100  0.7155  1.6514
 5843SOL     OW29161   0.556   0.233   9.833  0.1572 -0.6034  0.3883
 5843SOL    HW129162   0.572   0.326   9.816 -0.7529 -1.0898 -3.1984
 5843SOL    HW229163   0.565   0.182   9.752 -2.2557  0.6117 -0.6410
 5844SOL     OW29164   3.284   1.272   9.109 -0.2286 -0.1682  0.1048
 5844SOL    HW129165   3.254   1.278   9.199 -0.2716  1.3007 -0.0143
 5844SOL    HW229166   3.376   1.293   9.126 -1.1850  2.4070  2.0036
 5845SOL     OW29167   1.570   4.582   5.908 -0.1796  0.3408 -0.3393
 5845SOL    HW129168   1.497   4.582   5.970 -0.2520 -1.4174 -0.4214
 5845SOL    HW229169   1.630   4.624   5.969  0.0577 -0.8206  0.2407
 5846SOL     OW29170   0.996   0.510   8.412 -0.7147 -0.0734  0.3587
 5846SOL    HW129171   0.978   0.445   8.480 -0.6643 -2.5501 -1.9654
 5846SOL    HW229172   1.058   0.560   8.464  0.6595  1.9891 -3.2156
 5847SOL     OW29173   4.100   3.777   2.463 -0.2589 -0.3951 -0.2618
 5847SOL    HW129174   4.121   3.702   2.519 -0.6729 -0.6300 -0.4151
 5847SOL    HW229175   4.087   3.835   2.538 -2.8751 -0.4939 -0.6256
 5848SOL     OW29176   3.865   2.342   7.367  0.3213  0.3482 -0.0512
 5848SOL    HW129177   3.857   2.259   7.320 -0.5046  0.5659 -0.2801
 5848SOL    HW229178   3.774   2.370   7.374  0.8499  1.9799  0.0793
 5849SOL     OW29179   0.224   4.262  14.492  0.4064 -0.0251  0.0209
 5849SOL    HW129180   0.192   4.301  14.410  1.4100  1.1234  0.1652
 5849SOL    HW229181   0.246   4.172  14.468  1.7040  0.0206  1.0644
 5850SOL     OW29182   0.510   0.151  16.016  0.4968  0.1590 -0.2771
 5850SOL    HW129183   0.545   0.192  15.936  2.3723  0.9899  0.9502
 5850SOL    HW229184   0.515   0.058  15.996 -0.2773 -0.1201  0.8822
 5851SOL     OW29185   4.110   2.865   3.490  0.2584  0.2316 -0.1052
 5851SOL    HW129186   4.101   2.783   3.442 -0.1251 -1.1882  2.3810
 5851SOL    HW229187   4.165   2.927   3.441  0.3557 -0.8249 -1.3193
 5852SOL     OW29188   2.521   0.849  11.654 -0.1089  0.9221 -0.0038
 5852SOL    HW129189   2.486   0.918  11.711 -4.0226 -1.2605  0.2528
 5852SOL    HW229190   2.546   0.903  11.579 -1.5214 -1.6640 -2.3435
 5853SOL     OW29191   0.784   4.127   0.587  0.1825  0.3029  0.1629
 5853SOL    HW129192   0.791   4.117   0.682 -1.4682  1.5120  0.4024
 5853SOL    HW229193   0.844   4.201   0.580  0.6726 -0.1432 -0.3352
 5854SOL     OW29194   0.571   0.039   6.997  0.0011  0.3448 -0.4587
 5854SOL    HW129195   0.657   0.003   6.974  0.1129  0.2434  0.1114
 5854SOL    HW229196   0.515   4.713   6.948  0.6118 -0.4409 -0.1944
 5855SOL     OW29197   3.869   3.650   5.015 -0.1841  0.7701  0.2700
 5855SOL    HW129198   3.872   3.587   5.087  1.5037  0.2902 -0.2054
 5855SOL    HW229199   3.842   3.590   4.945 -4.1578  1.3336  1.3328
 5856SOL     OW29200   1.077   0.867   5.634 -0.0636  0.6961  0.2380
 5856SOL    HW129201   1.064   0.934   5.566 -0.5227 -1.0426 -1.3955
 5856SOL    HW229202   1.169   0.882   5.659 -0.0647  0.5766  0.3114
 5857SOL     OW29203   2.766   2.743  16.766 -0.5264 -0.4177  0.3213
 5857SOL    HW129204   2.702   2.752  16.837 -0.9148  0.2978 -0.1278
 5857SOL    HW229205   2.811   2.663  16.792  0.5821 -0.4746 -1.7832
 5858SOL     OW29206   0.665   2.524   2.082  0.1818  0.4721  0.4018
 5858SOL    HW129207   0.605   2.466   2.128  0.1629 -0.1883 -0.4564
 5858SOL    HW229208   0.753   2.494   2.103  0.6854  2.8081  1.6554
 5859SOL     OW29209   3.032   0.740   0.766 -0.9149 -0.6325  0.4570
 5859SOL    HW129210   3.084   0.733   0.687 -0.6942 -0.8696  0.6202
 5859SOL    HW229211   3.058   0.669   0.825 -0.4652 -1.1028 -0.3081
 5860SOL     OW29212   1.017   3.044   3.964 -0.7064  0.0383  0.1629
 5860SOL    HW129213   1.065   3.127   3.974  1.3504 -0.9307 -1.6886
 5860SOL    HW229214   1.086   2.985   3.995  0.8108  1.8138  0.2103
 5861SOL     OW29215   0.942   3.047   4.675  0.3273  0.5034 -0.0381
 5861SOL    HW129216   0.966   3.123   4.727  0.4482 -0.7438  1.7447
 5861SOL    HW229217   1.002   2.982   4.711 -1.2834 -0.8234  0.2660
 5862SOL     OW29218   0.193   4.024   7.436  0.5761  0.0515  0.2814
 5862SOL    HW129219   0.284   4.040   7.462  0.0829  3.1160  0.1984
 5862SOL    HW229220   0.170   4.117   7.430 -2.0431 -0.5836  0.3321
 5863SOL     OW29221   0.985   0.777  10.439 -0.8754  0.0241  0.2353
 5863SOL    HW129222   1.027   0.818  10.514 -0.5290 -2.2556  1.2800
 5863SOL    HW229223   0.909   0.731  10.476 -2.6695  2.9944  0.2528
 5864SOL     OW29224   2.707   4.428   6.155  0.0715 -0.9069  0.3496
 5864SOL    HW129225   2.802   4.421   6.144  0.1296 -0.3737  0.5314
 5864SOL    HW229226   2.685   4.350   6.103 -0.3181  0.0476 -0.9180
 5865SOL     OW29227   1.706   2.524   5.232  0.0319 -0.0606 -0.3537
 5865SOL    HW129228   1.666   2.439   5.214  3.3295 -1.8549  0.7946
 5865SOL    HW229229   1.797   2.515   5.204  0.2488  1.4488 -0.1600
 5866SOL     OW29230   2.572   2.367   7.496 -0.5765  0.8990 -1.0218
 5866SOL    HW129231   2.652   2.416   7.475 -0.1110  1.4534  1.9547
 5866SOL    HW229232   2.606   2.311   7.565 -0.4312  0.9128 -1.0819
 5867SOL     OW29233   1.940   0.539   2.870  0.6434  0.1282 -0.3501
 5867SOL    HW129234   1.912   0.509   2.957  1.6398  1.4381  0.4243
 5867SOL    HW229235   1.854   0.529   2.830 -0.3549  0.1439  1.7793
 5868SOL     OW29236   3.194   1.142  16.150 -0.3927 -0.6447 -0.1204
 5868SOL    HW129237   3.111   1.130  16.198 -1.1017  1.5062 -0.8016
 5868SOL    HW229238   3.237   1.059  16.133 -1.2785 -0.4209 -3.4475
 5869SOL     OW29239   1.096   3.316   3.438  0.1867  0.1276  0.4216
 5869SOL    HW129240   1.128   3.344   3.524 -0.0158  0.9491  0.2298
 5869SOL    HW229241   1.048   3.237   3.459 -2.1169  1.1244 -1.1589
 5870SOL     OW29242   2.365   0.023  12.529  0.0592 -0.6661 -0.8419
 5870SOL    HW129243   2.296   4.692  12.538  2.2125 -2.7898  0.4827
 5870SOL    HW229244   2.328   0.088  12.469 -0.8947 -0.4971 -0.0626
 5871SOL     OW29245   3.048   0.761   2.508  0.3780  0.2513  0.0231
 5871SOL    HW129246   3.081   0.720   2.428  1.4104 -1.0108  1.1057
 5871SOL    HW229247   3.024   0.682   2.557  0.0668  1.0361  1.1431
 5872SOL     OW29248   0.877   4.322   3.992  0.2556  0.2914  0.4228
 5872SOL    HW129249   0.953   4.278   4.029 -0.2559  1.2567  2.6092
 5872SOL    HW229250   0.888   4.408   4.031  0.2125  0.6019 -0.2508
 5873SOL     OW29251   2.752   3.635  15.141  0.5927  0.5454 -0.5414
 5873SOL    HW129252   2.694   3.657  15.214 -2.0165 -1.6633 -1.9578
 5873SOL    HW229253   2.769   3.716  15.092 -1.5474  1.6186  0.5022
 5874SOL     OW29254   2.609   1.843   9.140 -0.4006 -0.5420  0.0861
 5874SOL    HW129255   2.573   1.811   9.223  2.0097  0.4534  1.5110
 5874SOL    HW229256   2.648   1.761   9.109 -2.7622 -1.7018  0.2038
 5875SOL     OW29257   4.511   3.886  13.438  0.3118 -0.0369  0.1468
 5875SOL    HW129258   4.469   3.881  13.524 -1.4122 -1.9010 -0.7829
 5875SOL    HW229259   4.592   3.925  13.470  0.3479  1.0873 -1.3535
 5876SOL     OW29260   2.828   4.455  12.487 -0.0724  0.4964  0.1862
 5876SOL    HW129261   2.753   4.512  12.501 -2.3679 -3.0191  2.1172
 5876SOL    HW229262   2.873   4.509  12.422  1.6376 -0.5695  0.4764
 5877SOL     OW29263   3.563   2.583   0.102 -0.0974 -0.3075  0.6183
 5877SOL    HW129264   3.629   2.563   0.035  0.2936  0.3640  0.8022
 5877SOL    HW229265   3.607   2.654   0.149 -2.3770  0.0939  2.1173
 5878SOL     OW29266   1.170   0.579  17.494  0.4612 -0.0987  0.2646
 5878SOL    HW129267   1.087   0.557  17.535 -0.5534  0.3521 -1.5493
 5878SOL    HW229268   1.223   0.514  17.541  0.2168  1.2575  2.3931
 5879SOL     OW29269   0.060   4.166   2.388  0.1854  0.0143 -0.5294
 5879SOL    HW129270   0.015   4.095   2.434  0.1074  1.2674  1.3379
 5879SOL    HW229271   0.033   4.133   2.302 -0.9965 -3.5753  1.2001
 5880SOL     OW29272   2.089   0.143   9.839  0.1486  0.1543 -0.1395
 5880SOL    HW129273   2.157   0.164   9.903 -0.0715 -1.1851  0.5325
 5880SOL    HW229274   2.128   0.165   9.755 -0.6884  0.4085 -0.4646
 5881SOL     OW29275   1.757   0.736   9.654  0.3690  0.4375  0.3826
 5881SOL    HW129276   1.773   0.719   9.747  0.3788 -0.7635  0.1631
 5881SOL    HW229277   1.670   0.775   9.655  0.0220 -0.3076 -0.4161
 5882SOL     OW29278   0.599   2.425   3.495  0.2873  0.1822 -0.3068
 5882SOL    HW129279   0.670   2.488   3.506 -0.3157  1.2001 -2.2333
 5882SOL    HW229280   0.563   2.430   3.583 -0.4720 -0.6497 -0.5672
 5883SOL     OW29281   3.979   2.920  14.062  0.0766  0.1805  0.1421
 5883SOL    HW129282   4.041   2.988  14.035 -0.3373  0.8894  1.0104
 5883SOL    HW229283   4.030   2.852  14.106  1.0373  0.6657 -0.2116
 5884SOL     OW29284   4.581   0.924   5.703 -0.4277 -0.4049  0.5780
 5884SOL    HW129285   4.497   0.917   5.659  0.4245 -0.0165 -1.0838
 5884SOL    HW229286   4.627   0.946   5.622 -0.4917  0.1075  0.6805
 5885SOL     OW29287   4.215   4.163   7.922  0.5630  0.2315 -0.0691
 5885SOL    HW129288   4.247   4.109   7.995  1.0392  1.2562  0.4762
 5885SOL    HW229289   4.121   4.157   7.938  0.4227  1.2066 -0.5388
 5886SOL     OW29290   2.586   2.044   1.108 -0.4277  0.2922 -0.4463
 5886SOL    HW129291   2.659   2.081   1.058  1.1278 -0.2789  1.3895
 5886SOL    HW229292   2.612   1.953   1.121  1.1854  0.8840  0.4243
 5887SOL     OW29293   0.616   1.912   3.581 -0.0365 -0.0739  0.4924
 5887SOL    HW129294   0.586   2.001   3.560  1.2250  0.9192  2.8323
 5887SOL    HW229295   0.607   1.857   3.503  0.5060  2.4754 -1.3645
 5888SOL     OW29296   2.965   0.948   3.280 -0.2741 -0.2960  0.3951
 5888SOL    HW129297   2.874   0.930   3.257 -0.4189  0.6076  0.2698
 5888SOL    HW229298   2.957   1.043   3.285 -1.3344 -0.3968  0.4986
 5889SOL     OW29299   2.430   2.368   4.543 -0.1955  0.5186  0.1536
 5889SOL    HW129300   2.393   2.364   4.455 -1.4163 -0.2825  0.6970
 5889SOL    HW229301   2.523   2.389   4.538  0.0001 -0.3374  0.0873
 5890SOL     OW29302   0.613   1.231   3.867 -0.5014  0.6231  0.1391
 5890SOL    HW129303   0.652   1.193   3.789  0.5121 -2.2385  2.0275
 5890SOL    HW229304   0.589   1.154   3.919  0.9366 -0.5791 -0.9879
 5891SOL     OW29305   4.371   1.871   4.983  0.1172  0.2174  0.6969
 5891SOL    HW129306   4.287   1.890   4.942  0.6212 -0.8427 -0.8662
 5891SOL    HW229307   4.390   1.794   4.930  0.8536  0.2294  0.9422
 5892SOL     OW29308   2.568   0.962   0.355 -0.7671 -0.2763 -0.5632
 5892SOL    HW129309   2.535   0.888   0.304  0.1195 -1.0373 -0.0135
 5892SOL    HW229310   2.623   1.014   0.297  0.5044 -0.2273  0.7034
 5893SOL     OW29311   4.442   1.784   3.425 -0.0872  0.3287 -0.3388
 5893SOL    HW129312   4.474   1.798   3.336  1.0932 -0.0051  0.0319
 5893SOL    HW229313   4.369   1.726   3.403 -0.8323  1.2049 -0.1612
 5894SOL     OW29314   2.933   1.705   9.244 -0.1035 -0.4439 -0.1489
 5894SOL    HW129315   2.895   1.629   9.201  0.8345 -0.7394 -0.4577
 5894SOL    HW229316   3.025   1.677   9.246  0.7168  2.0940 -2.2123
 5895SOL     OW29317   1.818   0.814   7.387  0.4046 -0.3142 -0.2188
 5895SOL    HW129318   1.758   0.746   7.420 -1.2639  0.5963 -1.3937
 5895SOL    HW229319   1.746   0.876   7.373  0.3845 -0.9241 -2.8242
 5896SOL     OW29320   2.981   1.198  12.650  0.1556  0.0511  0.1313
 5896SOL    HW129321   2.976   1.231  12.739  0.8952  0.2555  0.0983
 5896SOL    HW229322   3.014   1.280  12.614 -1.2786  0.6417  0.1347
 5897SOL     OW29323   4.724   4.129   1.645 -0.2811  0.3621  0.1697
 5897SOL    HW129324   4.728   4.050   1.699  0.6222  0.4535  0.2408
 5897SOL    HW229325   0.005   4.196   1.712  0.7316 -1.0517  1.3760
 5898SOL     OW29326   0.709   1.505   7.435 -0.5165  0.2257 -0.5487
 5898SOL    HW129327   0.713   1.592   7.475 -0.8722  0.1046 -0.2508
 5898SOL    HW229328   0.660   1.518   7.354 -2.0046 -0.6066  0.2113
 5899SOL     OW29329   2.438   2.866   2.674 -0.1681 -0.0781 -0.1850
 5899SOL    HW129330   2.489   2.890   2.751  1.2930  1.9716 -1.8041
 5899SOL    HW229331   2.501   2.902   2.612  1.0801 -0.0630  1.0978
 5900SOL     OW29332   4.702   3.129   3.162 -0.4813  0.0281 -0.1961
 5900SOL    HW129333   0.042   3.139   3.102 -0.2744  2.2475  0.4212
 5900SOL    HW229334   4.702   3.034   3.173  1.8693  0.1297  0.8816
 5901SOL     OW29335   3.732   3.202   7.028 -0.4620 -0.0542  0.1772
 5901SOL    HW129336   3.799   3.171   6.967 -0.4540  2.5604 -1.1392
 5901SOL    HW229337   3.766   3.166   7.109  1.6778  1.1681 -0.1785
 5902SOL     OW29338   3.082   0.842  14.430 -0.0744 -0.2432  0.0325
 5902SOL    HW129339   3.093   0.866  14.338  0.0598  1.4612  0.4931
 5902SOL    HW229340   3.071   0.749  14.411  2.0839 -0.7278  1.0737
 5903SOL     OW29341   3.411   3.333  15.096  0.2165  0.2916  0.2123
 5903SOL    HW129342   3.430   3.375  15.180  0.8750  3.0630 -1.3092
 5903SOL    HW229343   3.355   3.398  15.052 -0.2518 -1.5277 -1.8462
 5904SOL     OW29344   2.030   3.585   2.511  0.1563  0.4146 -0.4278
 5904SOL    HW129345   2.052   3.622   2.596  0.6326  0.6907 -0.6689
 5904SOL    HW229346   2.108   3.533   2.487  0.9351  1.5342 -0.3117
 5905SOL     OW29347   3.016   1.417  16.292 -0.1634 -0.5491 -0.0676
 5905SOL    HW129348   2.937   1.463  16.265 -1.5363 -2.0334  1.4033
 5905SOL    HW229349   3.026   1.452  16.381  0.9283  0.9480 -0.7795
 5906SOL     OW29350   2.440   1.350  15.130 -0.4280 -0.4983  0.1879
 5906SOL    HW129351   2.393   1.403  15.065  0.7339  1.6671  1.0870
 5906SOL    HW229352   2.505   1.417  15.154  0.8005 -1.3496 -0.7412
 5907SOL     OW29353   2.263   2.517   3.685  0.6965 -0.2107 -0.0069
 5907SOL    HW129354   2.287   2.480   3.770 -0.3061  0.3984  0.5416
 5907SOL    HW229355   2.347   2.550   3.653 -0.1695 -0.6267 -2.7474
 5908SOL     OW29356   3.547   2.901   5.478 -0.6158  0.2243  0.6235
 5908SOL    HW129357   3.459   2.912   5.440 -1.1516  0.9857  2.0978
 5908SOL    HW229358   3.519   2.935   5.563  1.1966 -0.3078  1.4189
 5909SOL     OW29359   2.355   3.661   5.208 -0.1565 -0.1209 -0.7954
 5909SOL    HW129360   2.438   3.693   5.172  0.7108 -1.3657  0.1071
 5909SOL    HW229361   2.373   3.635   5.299 -1.3968 -1.8694 -1.0601
 5910SOL     OW29362   0.191   0.766  16.290  0.7571  0.2333 -0.1546
 5910SOL    HW129363   0.270   0.813  16.266 -0.1877  2.6529  1.5581
 5910SOL    HW229364   0.200   0.675  16.261  2.3607  0.0090  1.0413
 5911SOL     OW29365   0.555   1.119   7.938  0.2037  0.1795 -0.6718
 5911SOL    HW129366   0.613   1.139   7.864  0.4272  1.7649 -0.0743
 5911SOL    HW229367   0.467   1.142   7.908  0.1994  2.1937  0.8662
 5912SOL     OW29368   4.712   3.956   2.516 -0.7839 -0.6864  0.6134
 5912SOL    HW129369   0.007   3.888   2.578  3.2398 -0.1564 -0.7043
 5912SOL    HW229370   4.621   3.928   2.502 -0.4275 -0.4368 -2.2024
 5913SOL     OW29371   1.606   4.272   4.774  0.6675  0.0322 -0.0208
 5913SOL    HW129372   1.629   4.296   4.864 -1.1249 -0.2701  0.5294
 5913SOL    HW229373   1.658   4.193   4.760 -0.0546  0.1235 -3.1281
 5914SOL     OW29374   2.726   0.729  14.931  0.4393  0.1339 -0.2402
 5914SOL    HW129375   2.753   0.814  14.898 -1.3304  0.8202  0.0705
 5914SOL    HW229376   2.790   0.674  14.886 -0.5786 -0.3972 -1.0527
 5915SOL     OW29377   4.126   0.957   8.012  0.4428 -0.1550 -0.8150
 5915SOL    HW129378   4.169   1.014   7.949 -1.6048  1.7121 -0.5146
 5915SOL    HW229379   4.097   1.021   8.077  0.3938 -0.7222 -0.2726
 5916SOL     OW29380   0.792   2.919  10.030 -0.5584 -0.2378 -0.2418
 5916SOL    HW129381   0.700   2.931  10.007 -0.1065 -1.6135 -2.7272
 5916SOL    HW229382   0.794   2.954  10.120  1.0890  0.2321 -0.4576
 5917SOL     OW29383   4.689   0.092   2.318  0.7048  0.0996 -0.1916
 5917SOL    HW129384   4.597   0.081   2.341  1.6026 -3.3394  1.6904
 5917SOL    HW229385   4.729   0.065   2.401 -0.3192 -2.1724 -0.4606
 5918SOL     OW29386   1.372   2.243   3.037  0.2513  0.0567  0.0933
 5918SOL    HW129387   1.350   2.156   3.069  2.4347  0.4789  2.7677
 5918SOL    HW229388   1.328   2.236   2.952  2.2051 -1.3938 -0.7929
 5919SOL     OW29389   2.288   0.121  12.782 -0.0110  0.3881  0.1649
 5919SOL    HW129390   2.227   0.194  12.777  0.1262  0.5178  0.3609
 5919SOL    HW229391   2.334   0.118  12.698  2.6141 -1.2435  1.6327
 5920SOL     OW29392   2.501   3.052   4.540 -0.1779  0.0770 -0.0901
 5920SOL    HW129393   2.553   3.081   4.615  0.4669 -0.5963 -0.2770
 5920SOL    HW229394   2.486   3.140   4.506  0.4238  0.8611  1.6387
 5921SOL     OW29395   3.265   2.731   9.000 -0.1951 -0.1127 -0.0150
 5921SOL    HW129396   3.237   2.816   9.034  1.8421  0.6936 -0.3464
 5921SOL    HW229397   3.309   2.692   9.075  0.9579  1.4120  0.1045
 5922SOL     OW29398   2.033   4.638   9.654 -0.1869 -0.1664  0.1769
 5922SOL    HW129399   2.121   4.623   9.619 -0.7113 -0.0036 -1.2087
 5922SOL    HW229400   2.005   4.711   9.600  0.5284  0.4169  0.5897
 5923SOL     OW29401   2.559   1.955   3.384 -0.1510 -0.2599  0.3667
 5923SOL    HW129402   2.525   1.929   3.298  0.5799 -1.6989  0.5167
 5923SOL    HW229403   2.578   2.047   3.369 -0.7671 -0.1988 -0.0341
 5924SOL     OW29404   3.358   0.288   4.927 -0.4858 -0.4113  0.0094
 5924SOL    HW129405   3.278   0.324   4.890  0.9769 -1.6784 -4.3282
 5924SOL    HW229406   3.400   0.252   4.849 -2.2716 -0.0861 -1.1006
 5925SOL     OW29407   0.365   4.708  10.290  0.0469 -0.2637 -0.2709
 5925SOL    HW129408   0.278   4.711  10.252  0.5258 -0.4507 -1.3931
 5925SOL    HW229409   0.408   4.654  10.224 -1.3906 -1.9192  0.1273
 5926SOL     OW29410   2.210   3.058   1.455  0.4443  0.0154  0.2292
 5926SOL    HW129411   2.252   2.982   1.496  1.4474 -0.5949 -1.9288
 5926SOL    HW229412   2.196   3.105   1.537  0.4728  1.8934 -0.8520
 5927SOL     OW29413   0.259   2.916   9.848 -0.1784 -0.2025  0.3077
 5927SOL    HW129414   0.170   2.888   9.869 -0.1985  0.8428  1.6290
 5927SOL    HW229415   0.257   3.003   9.890 -1.1036 -0.7831  1.4661
 5928SOL     OW29416   0.430   4.234   6.736  0.0096 -0.0835  0.4835
 5928SOL    HW129417   0.480   4.297   6.684 -0.8378 -0.0369 -0.2758
 5928SOL    HW229418   0.383   4.292   6.795 -2.1361 -0.0733 -1.2256
 5929SOL     OW29419   1.509   1.234   5.219  0.1987  0.3563 -0.1647
 5929SOL    HW129420   1.537   1.300   5.155  0.5075  0.1984 -0.1913
 5929SOL    HW229421   1.597   1.199   5.227  0.5644  2.1123  3.9159
 5930SOL     OW29422   4.215   3.733  10.773  0.4230 -0.0285  0.2689
 5930SOL    HW129423   4.272   3.808  10.787 -0.2087  0.7555 -1.3725
 5930SOL    HW229424   4.264   3.683  10.708 -0.5140  0.5709 -0.8956
 5931SOL     OW29425   3.600   1.987  13.865 -0.3866 -0.4770 -0.5311
 5931SOL    HW129426   3.683   1.947  13.839  0.9589  2.0256 -0.0441
 5931SOL    HW229427   3.642   2.035  13.936 -0.5544 -1.5226  0.2760
 5932SOL     OW29428   3.355   0.868   8.255 -0.2251 -0.0268 -0.4044
 5932SOL    HW129429   3.383   0.954   8.224  1.4252 -0.9227 -1.3993
 5932SOL    HW229430   3.406   0.851   8.334 -1.9246 -1.7022  0.3389
 5933SOL     OW29431   4.472   3.938   0.398 -0.8290 -0.3090 -0.5991
 5933SOL    HW129432   4.548   3.959   0.452 -2.6958  0.7421  1.6266
 5933SOL    HW229433   4.487   4.001   0.328  0.9398  0.9921  0.9540
 5934SOL     OW29434   2.792   1.811   2.616 -0.3555  0.0120 -0.1840
 5934SOL    HW129435   2.779   1.796   2.522  2.4110  0.6183 -0.6513
 5934SOL    HW229436   2.824   1.724   2.640 -0.4865  0.9313  3.3381
 5935SOL     OW29437   0.282   0.257   6.958 -0.0106  0.3168  0.0088
 5935SOL    HW129438   0.261   0.224   7.045  0.8982 -2.6955 -0.8987
 5935SOL    HW229439   0.197   0.274   6.917  0.0875 -0.9988 -0.7486
 5936SOL     OW29440   0.816   4.389   2.725  0.0047 -0.2546 -0.0823
 5936SOL    HW129441   0.748   4.323   2.719 -2.0220  1.8224  0.2299
 5936SOL    HW229442   0.889   4.337   2.759 -0.4353 -1.5209 -1.0911
 5937SOL     OW29443   0.374   0.621   6.857  0.9028 -0.5151  0.7724
 5937SOL    HW129444   0.306   0.619   6.790  2.6649 -0.5073 -1.0232
 5937SOL    HW229445   0.359   0.536   6.898 -1.6925 -0.5571 -0.2549
 5938SOL     OW29446   1.980   1.055   5.699  0.2044 -0.4935 -0.2470
 5938SOL    HW129447   1.896   1.010   5.713 -0.0952  0.4924  1.1857
 5938SOL    HW229448   1.952   1.142   5.728  1.6027 -0.3377  0.6541
 5939SOL     OW29449   0.098   3.719   2.314  0.9639  0.3046 -1.0297
 5939SOL    HW129450   0.092   3.814   2.316  1.7463  0.2980  1.2820
 5939SOL    HW229451   0.009   3.687   2.297 -0.3159  2.8928  0.7720
 5940SOL     OW29452   3.540   2.023   6.652  0.1197 -0.2770  0.2516
 5940SOL    HW129453   3.462   1.968   6.645 -0.7224  1.1776 -2.0831
 5940SOL    HW229454   3.516   2.100   6.600 -1.2546 -0.6046  0.4063
 5941SOL     OW29455   0.017   0.955  13.143  0.0884 -0.2329  0.1074
 5941SOL    HW129456   0.076   0.953  13.068 -0.0892 -0.6390 -0.0242
 5941SOL    HW229457   0.075   0.984  13.213  0.1173 -0.2335  0.0834
 5942SOL     OW29458   2.921   0.717   6.687  0.1845  0.1432 -0.0376
 5942SOL    HW129459   2.905   0.628   6.653  0.5801  0.2636 -0.5418
 5942SOL    HW229460   2.838   0.719   6.735  0.2463 -0.4687  0.1073
 5943SOL     OW29461   3.192   0.568  12.182  0.0257  0.1107 -0.0528
 5943SOL    HW129462   3.267   0.520  12.147  1.2375  2.0967 -0.1862
 5943SOL    HW229463   3.233   0.598  12.263  1.3822 -0.3959 -0.5498
 5944SOL     OW29464   3.346   3.146   2.549  0.1359  0.2012 -0.1173
 5944SOL    HW129465   3.405   3.125   2.476 -1.0653 -1.1661 -0.7013
 5944SOL    HW229466   3.264   3.115   2.509  0.4263  1.1423 -1.4488
 5945SOL     OW29467   0.053   1.095   5.006 -0.2435 -0.3456 -0.2487
 5945SOL    HW129468   0.009   1.039   5.070 -0.5239 -1.2723 -1.2742
 5945SOL    HW229469   4.721   1.146   4.959 -1.1343  0.8257  2.2813
 5946SOL     OW29470   0.845   1.697   3.438 -0.4674  0.6696 -0.5656
 5946SOL    HW129471   0.872   1.780   3.475  1.5036  0.5769 -1.7892
 5946SOL    HW229472   0.797   1.729   3.362 -1.3511  1.7178  0.4494
 5947SOL     OW29473   2.810   1.161   2.643 -0.3607  0.3456  0.6809
 5947SOL    HW129474   2.893   1.184   2.685 -0.8896  3.8602 -0.1674
 5947SOL    HW229475   2.837   1.188   2.555 -0.2663 -0.0292  0.5965
 5948SOL     OW29476   2.609   4.525   3.144  0.3580 -0.1196 -0.2478
 5948SOL    HW129477   2.571   4.584   3.209  2.6469  0.2529  0.7580
 5948SOL    HW229478   2.631   4.448   3.196 -0.8652 -1.4709 -1.7234
 5949SOL     OW29479   4.139   2.667   7.681 -0.2433 -0.0427 -0.2144
 5949SOL    HW129480   4.052   2.707   7.672  0.1094  1.0928  1.4805
 5949SOL    HW229481   4.151   2.662   7.586  1.0235 -1.2448  0.0179
 5950SOL     OW29482   1.725   2.416   3.531 -0.1256  0.2164  0.0964
 5950SOL    HW129483   1.810   2.443   3.566 -0.8878  0.0509  2.0550
 5950SOL    HW229484   1.737   2.336   3.480  0.5882  0.0895  0.4627
 5951SOL     OW29485   0.154   3.648  11.796 -0.0451  0.0412 -0.3604
 5951SOL    HW129486   0.195   3.651  11.882  1.3831  1.3272 -1.0832
 5951SOL    HW229487   0.166   3.739  11.767 -0.3073 -0.1478 -1.0691
 5952SOL     OW29488   3.210   2.604   0.245 -0.1093  0.5381 -0.4835
 5952SOL    HW129489   3.263   2.526   0.227 -0.4629  0.2553 -0.2956
 5952SOL    HW229490   3.257   2.661   0.305 -1.2331  0.0656  0.8541
 5953SOL     OW29491   4.398   1.459   7.017 -0.0196  0.0375 -0.5274
 5953SOL    HW129492   4.321   1.512   7.034 -0.7919 -1.8564  1.9042
 5953SOL    HW229493   4.432   1.497   6.936 -1.4779  1.4809 -0.4486
 5954SOL     OW29494   2.609   4.480   1.384  0.3270 -0.2541  0.1531
 5954SOL    HW129495   2.562   4.525   1.454  0.2948 -0.2636  0.1376
 5954SOL    HW229496   2.611   4.387   1.407  0.9279 -0.7975 -2.0754
 5955SOL     OW29497   1.385   1.038   4.676 -0.0850 -0.4220  0.5481
 5955SOL    HW129498   1.315   0.974   4.686 -0.8194  0.0810 -1.3142
 5955SOL    HW229499   1.330   1.115   4.659 -1.4038 -1.5596 -0.2451
 5956SOL     OW29500   4.331   4.492   2.463 -0.2121  0.4753  0.2842
 5956SOL    HW129501   4.256   4.439   2.436 -0.0298 -0.8956  2.5607
 5956SOL    HW229502   4.401   4.428   2.475 -0.0075  0.9390  1.5956
 5957SOL     OW29503   3.903   4.183   4.739  0.1129  0.5814 -0.1070
 5957SOL    HW129504   3.917   4.116   4.807  0.6316  0.0745 -0.7109
 5957SOL    HW229505   3.827   4.144   4.696 -0.0741 -0.5360  1.2216
 5958SOL     OW29506   3.555   2.677  13.259 -0.2414 -0.0559 -0.2700
 5958SOL    HW129507   3.589   2.711  13.342 -1.2536 -3.6563  1.6141
 5958SOL    HW229508   3.460   2.684  13.270 -0.7564 -3.2969 -2.8778
 5959SOL     OW29509   3.446   1.231   9.938  0.1185 -0.0167  0.5928
 5959SOL    HW129510   3.442   1.239  10.033 -1.8041 -1.0556  0.6009
 5959SOL    HW229511   3.515   1.296   9.925  1.1302 -1.3417 -0.5136
 5960SOL     OW29512   3.387   4.168   8.671 -0.3233 -0.1134  0.2960
 5960SOL    HW129513   3.361   4.204   8.756  1.0145  0.2365  0.5570
 5960SOL    HW229514   3.431   4.089   8.701 -1.8901 -1.0029  0.2576
 5961SOL     OW29515   4.518   2.714   3.503 -0.3473 -0.7467 -0.5105
 5961SOL    HW129516   4.505   2.767   3.582  0.1274 -0.5959 -0.5295
 5961SOL    HW229517   4.610   2.692   3.520  0.1307  1.2847 -0.3835
 5962SOL     OW29518   2.787   2.400   6.465  0.3214  0.0270 -0.0016
 5962SOL    HW129519   2.734   2.474   6.495 -0.2746 -0.8237  1.0502
 5962SOL    HW229520   2.742   2.326   6.504 -0.1414 -0.5747 -1.6851
 5963SOL     OW29521   4.030   1.438   1.997  0.9570  0.2277 -0.4742
 5963SOL    HW129522   4.052   1.457   1.906  1.4184 -0.7283 -0.5619
 5963SOL    HW229523   3.937   1.417   1.994  0.9327  0.2910 -0.1584
 5964SOL     OW29524   4.110   1.934  13.112  0.5866 -0.1645  0.0276
 5964SOL    HW129525   4.121   2.026  13.137  0.6593  0.1078 -1.0015
 5964SOL    HW229526   4.134   1.930  13.020  0.9092 -0.7550  0.1375
 5965SOL     OW29527   0.019   2.125   3.498 -0.6060 -0.8310 -0.2820
 5965SOL    HW129528   4.670   2.171   3.492 -0.3796 -0.4036 -0.0958
 5965SOL    HW229529   0.020   2.073   3.579  0.2369  0.1291  0.3211
 5966SOL     OW29530   3.486   1.600   4.037 -0.4819 -0.4390  0.0571
 5966SOL    HW129531   3.534   1.524   4.002 -1.0061 -0.6675 -0.1597
 5966SOL    HW229532   3.462   1.564   4.122 -0.0388 -1.5533 -0.2802
 5967SOL     OW29533   3.580   3.816   5.282  0.4598 -0.2947  0.9812
 5967SOL    HW129534   3.563   3.762   5.205  3.4279  0.6444 -0.3360
 5967SOL    HW229535   3.647   3.761   5.323  0.4137 -2.1844 -1.5092
 5968SOL     OW29536   0.722   3.596   3.961  0.2727  0.0123 -0.2006
 5968SOL    HW129537   0.749   3.613   3.871  0.3950 -0.2969 -0.2212
 5968SOL    HW229538   0.628   3.592   3.946  0.2086  0.5073  0.0552
 5969SOL     OW29539   3.186   0.893   6.257  0.0317 -0.3174 -0.2912
 5969SOL    HW129540   3.224   0.975   6.286 -0.6370  0.3359 -1.2712
 5969SOL    HW229541   3.153   0.862   6.341 -1.0206  0.2206 -0.5115
 5970SOL     OW29542   3.960   3.826  10.663  0.0559 -0.1018  0.4167
 5970SOL    HW129543   4.046   3.809  10.702 -0.4311 -0.2242  1.4170
 5970SOL    HW229544   3.903   3.859  10.732  0.3095 -0.3264  0.7338
 5971SOL     OW29545   3.717   4.023   4.623  0.3482  0.2221  0.0626
 5971SOL    HW129546   3.769   3.948   4.594 -0.2963  0.1683 -0.9198
 5971SOL    HW229547   3.637   4.019   4.572  0.5913 -2.5014 -0.1001
 5972SOL     OW29548   1.820   3.548  15.318 -0.0324 -0.2700  0.5715
 5972SOL    HW129549   1.752   3.604  15.280  2.6201  2.5181  0.0050
 5972SOL    HW229550   1.893   3.565  15.258 -1.5546  0.8999 -0.9599
 5973SOL     OW29551   1.112   2.392   5.953  0.1638 -0.1233  0.3570
 5973SOL    HW129552   1.049   2.463   5.969 -0.9939 -1.0866  0.0155
 5973SOL    HW229553   1.105   2.380   5.858 -0.9569  1.5538  0.2209
 5974SOL     OW29554   1.821   2.666   0.927 -0.1723  0.7446 -0.1189
 5974SOL    HW129555   1.794   2.607   0.997  4.1572  0.9052  1.6648
 5974SOL    HW229556   1.780   2.747   0.958  1.9652  2.5427 -2.0139
 5975SOL     OW29557   1.847   4.294   5.638 -0.4377 -0.1773  0.1752
 5975SOL    HW129558   1.845   4.204   5.672  2.3002 -0.9240 -1.5584
 5975SOL    HW229559   1.927   4.323   5.682 -1.0267  2.2789 -0.4288
 5976SOL     OW29560   2.633   4.658  14.966 -0.6880 -0.2711 -0.0395
 5976SOL    HW129561   2.695   4.671  15.038  0.2322  1.2989 -1.1061
 5976SOL    HW229562   2.693   4.627  14.898 -0.1287  0.2793  0.1971
 5977SOL     OW29563   2.663   4.221   1.434  0.5513  0.1142  0.1200
 5977SOL    HW129564   2.587   4.165   1.416  0.0280  0.9478 -0.3185
 5977SOL    HW229565   2.702   4.173   1.506  0.4782  0.9227  0.6967
 5978SOL     OW29566   1.397   2.829   3.289 -0.4765  0.2498 -0.1319
 5978SOL    HW129567   1.374   2.907   3.237 -2.8859  1.3205  2.5550
 5978SOL    HW229568   1.474   2.789   3.249 -0.4730 -0.1127  0.2509
 5979SOL     OW29569   4.370   3.739   0.117  0.4191 -0.3817  0.1137
 5979SOL    HW129570   4.459   3.753   0.084  0.6814 -1.9501  0.1726
 5979SOL    HW229571   4.324   3.763   0.037 -0.0593  0.3598  0.6090
 5980SOL     OW29572   0.078   4.159   3.793 -0.3690  0.0265  0.6486
 5980SOL    HW129573   4.717   4.149   3.796 -0.4019  0.1666  0.0943
 5980SOL    HW229574   0.082   4.221   3.865 -0.1483  0.2511  0.4423
 5981SOL     OW29575   0.478   0.092   8.371  0.0637 -0.3735 -0.2944
 5981SOL    HW129576   0.480   0.138   8.287  1.0820 -0.0840 -0.1039
 5981SOL    HW229577   0.383   0.083   8.380  0.1066  1.1492  1.5243
 5982SOL     OW29578   3.608   1.145   2.675 -0.0646 -0.5932 -0.6281
 5982SOL    HW129579   3.533   1.123   2.730 -1.3012  0.9773 -1.6773
 5982SOL    HW229580   3.674   1.178   2.735 -0.6341  1.0462 -0.9049
 5983SOL     OW29581   0.129   2.840  10.786 -0.2194 -0.5192  0.4250
 5983SOL    HW129582   0.221   2.825  10.763 -0.3029 -1.5672  0.7802
 5983SOL    HW229583   0.131   2.900  10.860  2.3475 -0.5791  0.4152
 5984SOL     OW29584   4.352   3.419  12.905 -0.2703  0.0380 -0.4268
 5984SOL    HW129585   4.307   3.485  12.957 -0.1762 -0.4521  0.2646
 5984SOL    HW229586   4.351   3.474  12.826 -0.4344 -1.6563 -1.5985
 5985SOL     OW29587   2.637   4.360  11.187  0.4617  0.4211 -0.0785
 5985SOL    HW129588   2.628   4.361  11.282  3.0572 -1.0909  0.1744
 5985SOL    HW229589   2.547   4.379  11.162 -0.1613 -0.3295  1.6134
 5986SOL     OW29590   0.005   2.045   6.002  0.0092  0.1896  0.4982
 5986SOL    HW129591   4.662   2.095   6.031 -0.3012  0.8155 -1.3910
 5986SOL    HW229592   4.718   2.017   5.913  0.0317 -0.4088  0.6794
 5987SOL     OW29593   2.360   0.563   4.781 -0.0753 -0.3307  0.5323
 5987SOL    HW129594   2.266   0.543   4.777  0.2429 -1.2346 -2.2765
 5987SOL    HW229595   2.367   0.653   4.749 -2.3918 -0.6497 -0.9372
 5988SOL     OW29596   0.444   4.057   5.218 -0.3118 -0.4863  0.5225
 5988SOL    HW129597   0.452   4.044   5.124  1.2957 -2.2895  0.9263
 5988SOL    HW229598   0.523   4.010   5.245 -0.3413 -0.2811  0.9759
 5989SOL     OW29599   3.999   0.418   5.567 -0.2966 -0.1958 -0.1617
 5989SOL    HW129600   4.063   0.352   5.541  0.6101  1.1572 -1.3630
 5989SOL    HW229601   3.926   0.391   5.510 -0.8069 -0.2921  0.5326
 5990SOL     OW29602   0.550   0.083  13.438 -0.4275 -0.4376 -0.4387
 5990SOL    HW129603   0.463   0.084  13.478 -0.4398 -1.7192 -0.4162
 5990SOL    HW229604   0.607   0.035  13.499  0.9727  1.9499  0.1192
 5991SOL     OW29605   3.754   1.082   3.653 -0.1836 -0.3397  0.1578
 5991SOL    HW129606   3.667   1.074   3.615  0.6329  1.6507 -2.0975
 5991SOL    HW229607   3.742   1.139   3.728  0.2288  0.2442 -0.2240
 5992SOL     OW29608   3.707   2.091   8.881 -0.3909  0.1335 -0.3354
 5992SOL    HW129609   3.639   2.027   8.902  0.7735 -1.0574 -0.1493
 5992SOL    HW229610   3.747   2.087   8.968  0.8187  1.6685 -0.8307
 5993SOL     OW29611   3.509   1.417  16.128 -0.2949  0.2506  0.1748
 5993SOL    HW129612   3.499   1.486  16.063 -0.1437  0.9943  0.9315
 5993SOL    HW229613   3.431   1.436  16.180 -0.3106  2.1035 -0.5325
 5994SOL     OW29614   2.129   0.788   5.134 -0.0165  0.2439  0.2062
 5994SOL    HW129615   2.135   0.839   5.215 -0.2801  1.1326 -0.3332
 5994SOL    HW229616   2.095   0.704   5.165 -0.5123  0.4375  0.1935
 5995SOL     OW29617   4.529   3.723   7.498 -0.0837  0.3973  0.6371
 5995SOL    HW129618   4.541   3.712   7.592  0.3150 -0.9208  0.4259
 5995SOL    HW229619   4.597   3.787   7.474 -0.5051  0.6877  0.2178
 5996SOL     OW29620   0.162   1.826   5.672  0.1613  0.5244  0.1056
 5996SOL    HW129621   0.224   1.898   5.676  1.4189 -0.6292  1.5041
 5996SOL    HW229622   0.080   1.873   5.657  0.3837  0.5868 -0.8951
 5997SOL     OW29623   4.272   0.770   3.717 -0.5088  0.1717  0.3892
 5997SOL    HW129624   4.196   0.720   3.688  1.2267 -0.8092 -2.4969
 5997SOL    HW229625   4.320   0.694   3.753  1.5182  0.5745 -1.4585
 5998SOL     OW29626   0.127   3.498   5.957  0.3202  0.2529 -0.2368
 5998SOL    HW129627   0.129   3.576   5.902  0.1632  0.3045 -0.1699
 5998SOL    HW229628   0.217   3.485   5.987  1.4306 -1.7255 -4.4162
 5999SOL     OW29629   1.892   4.232  17.130  0.5019  0.1733  0.0189
 5999SOL    HW129630   1.988   4.232  17.136  0.5955 -0.1813 -1.5993
 5999SOL    HW229631   1.880   4.168  17.061 -0.4717 -0.8537  1.1386
 6000SOL     OW29632   4.614   1.359   2.109  0.1322  0.3457  0.4869
 6000SOL    HW129633   4.558   1.307   2.166 -0.9133 -2.0237 -2.7175
 6000SOL    HW229634   4.585   1.441   2.149 -1.0817 -0.1932  0.6913
 6001SOL     OW29635   3.681   0.214  16.620 -0.2767  0.4241  0.2760
 6001SOL    HW129636   3.775   0.206  16.640 -0.0406 -1.6089 -1.5776
 6001SOL    HW229637   3.647   0.130  16.652 -0.1032  0.1053 -0.3703
 6002SOL     OW29638   0.015   2.029   7.389 -0.4918  0.0236 -0.5690
 6002SOL    HW129639   0.017   1.933   7.381  0.2414 -0.0997  1.1862
 6002SOL    HW229640   0.024   2.064   7.300 -0.4786  0.4932 -0.3836
 6003SOL     OW29641   1.471   1.517   7.848  0.3663  0.1227  0.2356
 6003SOL    HW129642   1.548   1.530   7.793 -0.9525  0.2392 -1.5796
 6003SOL    HW229643   1.512   1.514   7.935  0.8192 -1.1720 -0.0254
 6004SOL     OW29644   2.881   0.655   4.885 -0.0771  0.2492  0.5011
 6004SOL    HW129645   2.913   0.722   4.824  0.1238 -0.8931 -0.6596
 6004SOL    HW229646   2.804   0.616   4.844 -0.1260  0.8907 -0.0159
 6005SOL     OW29647   3.588   1.597  17.127  0.5680  0.4359  0.1273
 6005SOL    HW129648   3.674   1.638  17.117  0.4438  1.0845  1.8000
 6005SOL    HW229649   3.535   1.627  17.053  1.5801 -0.9760 -1.1762
 6006SOL     OW29650   3.259   3.708   6.666 -0.7998  0.6601  0.1991
 6006SOL    HW129651   3.259   3.721   6.761 -2.3772 -1.0825  0.4168
 6006SOL    HW229652   3.338   3.761   6.653  0.1406 -0.4009  1.6416
 6007SOL     OW29653   2.176   1.716   8.533 -0.1670 -0.3082  0.1453
 6007SOL    HW129654   2.263   1.758   8.532  0.3652 -1.3945  1.4100
 6007SOL    HW229655   2.200   1.628   8.560  1.0578  0.1274  0.5013
 6008SOL     OW29656   1.982   1.413   3.500 -0.4366 -0.2737 -0.2102
 6008SOL    HW129657   1.990   1.330   3.547  0.0276 -0.0690  0.0802
 6008SOL    HW229658   2.026   1.390   3.419 -0.9827  1.3042 -0.9599
 6009SOL     OW29659   4.139   0.586   4.083 -0.5401  0.8222  0.3341
 6009SOL    HW129660   4.112   0.645   4.154 -1.5372  0.3014  0.3688
 6009SOL    HW229661   4.079   0.616   4.015  2.0259  1.0704 -1.8585
 6010SOL     OW29662   1.877   4.184   2.534  0.4110 -0.6561  1.3030
 6010SOL    HW129663   1.840   4.271   2.551 -1.0175 -1.1429  0.7300
 6010SOL    HW229664   1.925   4.162   2.613  1.2211 -2.0294  0.4183
 6011SOL     OW29665   3.558   4.623   5.869  0.2066 -0.3222 -0.0625
 6011SOL    HW129666   3.492   4.672   5.918  1.6517  1.4655  0.0776
 6011SOL    HW229667   3.531   4.535   5.895  0.4149 -0.0124  1.2058
 6012SOL     OW29668   1.840   1.534  14.934 -0.2875  0.3095 -0.2688
 6012SOL    HW129669   1.893   1.454  14.922  0.8726  1.0142  0.1523
 6012SOL    HW229670   1.810   1.547  14.845 -2.7668 -0.1889  0.4948
 6013SOL     OW29671   0.408   2.955  15.017  0.1472 -0.6053 -0.5148
 6013SOL    HW129672   0.473   2.929  15.082  1.4344 -0.4547 -1.7267
 6013SOL    HW229673   0.355   2.875  15.009 -0.1333 -0.5403  0.8449
 6014SOL     OW29674   1.071   2.042   7.345  0.6529 -0.1873 -0.1951
 6014SOL    HW129675   1.029   2.025   7.261  0.6758 -2.0464  0.1682
 6014SOL    HW229676   1.087   1.953   7.378  0.2592  0.0051  0.5027
 6015SOL     OW29677   1.186   3.267   8.852 -0.4672 -0.2689 -0.0248
 6015SOL    HW129678   1.282   3.267   8.848 -0.3808 -0.7670  2.2889
 6015SOL    HW229679   1.160   3.285   8.762  0.7440 -1.8016 -0.6861
 6016SOL     OW29680   3.281   0.544   6.521 -0.4620  0.5127 -0.2610
 6016SOL    HW129681   3.328   0.525   6.602 -0.9471 -0.4534 -0.2020
 6016SOL    HW229682   3.270   0.458   6.480 -0.3860  1.5885 -2.5238
 6017SOL     OW29683   3.613   1.129   8.444 -0.0506  0.4221 -0.7448
 6017SOL    HW129684   3.595   1.108   8.536 -0.0699 -0.9451 -1.0707
 6017SOL    HW229685   3.637   1.043   8.411  0.3415  0.0645  0.4563
 6018SOL     OW29686   0.026   3.701   4.674 -0.4538  0.7194 -0.5338
 6018SOL    HW129687   0.012   3.640   4.747 -2.1616  0.4390 -1.0919
 6018SOL    HW229688   0.061   3.777   4.720 -1.3078  0.9368 -0.2492
 6019SOL     OW29689   4.042   3.130   5.415 -0.4391  0.1138 -0.3481
 6019SOL    HW129690   4.068   3.068   5.348 -0.3285 -0.2549  0.0345
 6019SOL    HW229691   3.950   3.112   5.434  0.0171 -0.5091  1.2876
 6020SOL     OW29692   2.804   2.760   4.029 -0.2789  0.5509  0.1722
 6020SOL    HW129693   2.892   2.737   4.000 -0.4536  2.8038 -2.1523
 6020SOL    HW229694   2.810   2.855   4.038  2.2255  0.2712  1.4310
 6021SOL     OW29695   3.126   3.177   4.027  0.7140  0.3936 -0.2380
 6021SOL    HW129696   3.156   3.260   3.990 -0.2377  0.2802 -1.2547
 6021SOL    HW229697   3.137   3.198   4.119 -1.2091 -2.8818  0.7574
 6022SOL     OW29698   4.205   0.443  16.845 -0.1587 -0.1228  0.0689
 6022SOL    HW129699   4.249   0.360  16.824 -1.1305 -0.3989 -0.8621
 6022SOL    HW229700   4.160   0.451  16.761 -0.8053  0.8562  0.5052
 6023SOL     OW29701   0.190   1.066   3.002  0.0273  0.5474 -0.4623
 6023SOL    HW129702   0.224   1.022   3.080  0.5553  4.0337  1.3017
 6023SOL    HW229703   0.122   1.129   3.029  1.5233  1.0561  2.0737
 6024SOL     OW29704   3.538   1.258   2.112 -0.0301 -0.7980  0.1993
 6024SOL    HW129705   3.534   1.165   2.133  0.3209 -0.9466 -0.3914
 6024SOL    HW229706   3.513   1.298   2.195  0.8089  0.3327 -0.0865
 6025SOL     OW29707   1.338   1.040   7.447  0.0813  0.8029 -0.2749
 6025SOL    HW129708   1.301   0.998   7.525 -0.5641  0.3205 -0.8435
 6025SOL    HW229709   1.282   1.013   7.375 -1.4610  0.0076  1.2205
 6026SOL     OW29710   4.424   1.562  12.128 -0.1175  0.2260  0.0959
 6026SOL    HW129711   4.436   1.513  12.210  1.0202 -0.3030 -0.3888
 6026SOL    HW229712   4.386   1.491  12.077  1.8763 -1.9659  1.6714
 6027SOL     OW29713   3.225   3.958   7.794 -0.1075 -0.4881 -0.1736
 6027SOL    HW129714   3.235   4.041   7.840  2.8098  0.0655 -1.7894
 6027SOL    HW229715   3.157   3.988   7.734 -1.1385 -2.7838 -0.1399
 6028SOL     OW29716   3.573   2.653   4.219 -0.1176  1.2139 -0.0852
 6028SOL    HW129717   3.580   2.608   4.303 -1.7729  1.1499  0.0027
 6028SOL    HW229718   3.493   2.705   4.222 -1.5122 -0.7849 -2.8032
 6029SOL     OW29719   1.466   3.259   7.484 -0.0263  0.7404 -0.3517
 6029SOL    HW129720   1.491   3.249   7.392  1.6956  0.3485  0.1740
 6029SOL    HW229721   1.402   3.330   7.487 -2.0441 -1.1770  1.9049
 6030SOL     OW29722   2.854   3.979   1.273 -0.4187  0.1603  0.2766
 6030SOL    HW129723   2.927   4.006   1.328  0.2672 -1.2778  0.0826
 6030SOL    HW229724   2.842   4.055   1.215  0.6901  1.9989  2.4643
 6031SOL     OW29725   0.506   0.009   1.623  0.3195  0.4441 -0.4134
 6031SOL    HW129726   0.489   4.693   1.702  1.0542  1.6501  0.4960
 6031SOL    HW229727   0.425   0.001   1.571  1.0134 -0.4830 -1.3369
 6032SOL     OW29728   2.441   0.164   8.847 -0.1341  0.2896  0.2434
 6032SOL    HW129729   2.370   0.198   8.901 -1.4134  0.9723 -1.8520
 6032SOL    HW229730   2.515   0.171   8.907 -0.0024 -0.9265  0.2374
 6033SOL     OW29731   2.415   4.638  11.434 -0.0583  0.2246 -0.2973
 6033SOL    HW129732   2.460   4.667  11.513 -2.1651  0.6359  0.7471
 6033SOL    HW229733   2.495   4.636  11.380  0.2160  1.2391  0.0863
 6034SOL     OW29734   4.236   2.291  14.607 -0.3477 -0.1132  0.2789
 6034SOL    HW129735   4.286   2.333  14.538 -1.6442  0.4993 -0.2998
 6034SOL    HW229736   4.197   2.372  14.639 -0.9757 -0.3621  0.1683
 6035SOL     OW29737   1.807   1.792   5.038 -0.1763  0.1066  0.2207
 6035SOL    HW129738   1.842   1.720   4.986  1.2719 -1.4237  3.3264
 6035SOL    HW229739   1.870   1.857   5.008 -0.5032 -0.0634 -0.8167
 6036SOL     OW29740   1.829   0.133   8.147  0.2254 -0.4582 -1.2244
 6036SOL    HW129741   1.876   0.211   8.116  1.4389 -0.4091  0.7387
 6036SOL    HW229742   1.884   0.112   8.223 -0.1128 -1.1382 -1.1683
 6037SOL     OW29743   4.449   3.804   2.503  0.5441  0.0034  0.1909
 6037SOL    HW129744   4.373   3.830   2.451 -0.3469  1.0402  2.0028
 6037SOL    HW229745   4.418   3.799   2.593 -1.9169  0.4127 -0.6400
 6038SOL     OW29746   4.452   2.637   6.856  0.1836 -0.2144  0.3415
 6038SOL    HW129747   4.520   2.618   6.791  0.9236  1.0993  0.7252
 6038SOL    HW229748   4.493   2.720   6.880  1.2767 -0.4028 -0.8183
 6039SOL     OW29749   3.428   4.701   7.548 -0.4139  0.2658 -0.2806
 6039SOL    HW129750   3.519   4.705   7.517 -0.9805  0.7588 -1.8785
 6039SOL    HW229751   3.405   4.612   7.525 -2.1591  0.4995  0.6084
 6040SOL     OW29752   3.309   0.919  11.505 -0.2228  0.3829  0.4646
 6040SOL    HW129753   3.342   0.896  11.419  2.9453  0.5937  1.6110
 6040SOL    HW229754   3.324   0.839  11.556  0.8127  0.9819  1.1047
 6041SOL     OW29755   3.802   3.126  11.899 -0.4592  0.1595  0.5864
 6041SOL    HW129756   3.819   3.215  11.866  1.2348 -0.5218 -0.3701
 6041SOL    HW229757   3.889   3.095  11.874 -0.4860 -1.1795  2.2130
 6042SOL     OW29758   3.222   1.653   5.677  0.0318 -0.0225 -0.5134
 6042SOL    HW129759   3.221   1.611   5.763 -1.8525  0.9726 -0.0485
 6042SOL    HW229760   3.129   1.642   5.654 -0.1188  2.7817 -1.2865
 6043SOL     OW29761   1.196   1.162   4.116 -0.5353  0.2766  0.3729
 6043SOL    HW129762   1.262   1.102   4.152  0.3836  1.9602  1.4906
 6043SOL    HW229763   1.131   1.131   4.178 -0.8213 -1.0253 -0.5870
 6044SOL     OW29764   3.181   1.995   5.011 -0.1893 -0.3792 -0.4970
 6044SOL    HW129765   3.114   1.958   5.068  2.0551 -2.2514  0.9081
 6044SOL    HW229766   3.216   1.919   4.966  0.3456 -0.2743 -0.2593
 6045SOL     OW29767   1.142   3.958   1.178 -0.5496 -0.3692 -0.0868
 6045SOL    HW129768   1.155   4.048   1.148 -1.4963 -0.2265 -0.0590
 6045SOL    HW229769   1.134   3.911   1.095  0.7453 -1.0234  0.1582
 6046SOL     OW29770   3.231   4.225   1.250 -0.7802  0.0966  0.4210
 6046SOL    HW129771   3.155   4.275   1.218 -0.3512 -0.3689 -1.3619
 6046SOL    HW229772   3.294   4.296   1.247 -1.6282  0.9469  3.4658
 6047SOL     OW29773   2.920   0.943  11.480 -0.2169  0.9071  0.6670
 6047SOL    HW129774   2.928   0.876  11.548 -0.0667  2.2381  1.9606
 6047SOL    HW229775   2.894   0.885  11.408 -1.4392 -0.1213  1.9327
 6048SOL     OW29776   3.287   0.880   5.053  0.4835 -0.2921 -0.9679
 6048SOL    HW129777   3.297   0.815   5.123  0.2363  0.2337 -0.4510
 6048SOL    HW229778   3.241   0.821   4.994  2.0033 -2.2273 -0.2310
 6049SOL     OW29779   3.629   0.877   2.928  0.3847  0.1645 -0.2098
 6049SOL    HW129780   3.716   0.879   2.888  0.6544  3.7741  0.5545
 6049SOL    HW229781   3.606   0.802   2.872 -0.5504 -0.3003  0.7911
 6050SOL     OW29782   0.259   3.971   1.360 -0.1771 -0.1140  0.3673
 6050SOL    HW129783   0.236   4.049   1.411 -2.6322  0.6169 -1.9003
 6050SOL    HW229784   0.196   3.984   1.290 -0.5532  0.4329  0.8039
 6051SOL     OW29785   3.371   0.153   1.741  0.0051  0.0258 -0.0148
 6051SOL    HW129786   3.417   0.213   1.800 -1.5734  0.3527  0.9064
 6051SOL    HW229787   3.322   0.221   1.694  0.2515 -0.3302 -0.7911
 6052SOL     OW29788   2.262   3.898  10.707 -0.1059  0.0669  0.5827
 6052SOL    HW129789   2.253   3.888  10.613 -0.6631 -2.0755  0.8770
 6052SOL    HW229790   2.358   3.907  10.708 -0.0762 -0.1833 -0.9106
 6053SOL     OW29791   1.234   3.542   9.840 -0.0187  0.0673  0.0791
 6053SOL    HW129792   1.210   3.451   9.823  1.8964 -0.8336  2.2264
 6053SOL    HW229793   1.241   3.579   9.752 -0.9696 -1.2426 -0.5641
 6054SOL     OW29794   1.779   3.402   8.050  0.3358  0.4910  0.0918
 6054SOL    HW129795   1.725   3.453   8.111 -0.1141  2.4641 -1.9485
 6054SOL    HW229796   1.784   3.321   8.101 -2.5498  2.2257  3.1353
 6055SOL     OW29797   1.448   1.529   9.536  0.3479  0.4376 -0.2046
 6055SOL    HW129798   1.439   1.585   9.459 -0.6903  0.5577  0.0077
 6055SOL    HW229799   1.535   1.562   9.556  1.4036 -0.9054 -2.6138
 6056SOL     OW29800   3.965   1.436   2.914  0.1801 -0.4515  0.5225
 6056SOL    HW129801   3.971   1.458   2.821 -1.6953 -1.2655  0.2084
 6056SOL    HW229802   3.969   1.525   2.950 -1.4367 -0.3257  0.3708
 6057SOL     OW29803   3.706   3.988  13.633 -0.6134 -0.0556  0.3368
 6057SOL    HW129804   3.689   4.055  13.567 -1.0360 -0.0004  0.4975
 6057SOL    HW229805   3.647   4.014  13.704 -0.3449  0.5772  0.3352
 6058SOL     OW29806   0.757   2.418   2.979 -0.0585  0.1051 -0.0848
 6058SOL    HW129807   0.726   2.506   2.955  0.9180  0.5926  0.4266
 6058SOL    HW229808   0.789   2.431   3.068 -1.0967 -0.0055  0.3069
 6059SOL     OW29809   4.329   0.910  16.040 -0.1788  0.3442  0.2226
 6059SOL    HW129810   4.390   0.923  16.113  1.0420  0.5801 -0.8403
 6059SOL    HW229811   4.263   0.976  16.063  0.9361  1.8714 -0.9289
 6060SOL     OW29812   0.713   3.017  17.032  0.0602  0.4181  0.3294
 6060SOL    HW129813   0.774   3.024  16.958 -0.4713 -2.1787 -0.3468
 6060SOL    HW229814   0.636   3.038  16.979  0.2072 -1.8403 -0.7544
 6061SOL     OW29815   3.764   1.962   7.823 -0.0156 -0.3675  0.0200
 6061SOL    HW129816   3.750   1.877   7.865  2.8993 -2.1572 -2.5525
 6061SOL    HW229817   3.737   1.945   7.732  2.2633  2.6542 -1.1926
 6062SOL     OW29818   0.107   1.970   1.286  0.0032  0.0099  0.5450
 6062SOL    HW129819   0.027   1.987   1.237  1.2118  0.8021 -1.1537
 6062SOL    HW229820   0.083   1.922   1.365 -3.4706  1.4035  0.3393
 6063SOL     OW29821   0.972   2.082   5.814 -0.2149 -0.3362  0.5321
 6063SOL    HW129822   0.928   2.087   5.729 -2.2244  1.3422  1.6751
 6063SOL    HW229823   0.935   2.157   5.861 -0.7066  0.0742 -0.5123
 6064SOL     OW29824   3.137   1.865  12.436 -0.3947 -0.5159  0.9970
 6064SOL    HW129825   3.109   1.788  12.485 -2.1095  0.1358  1.0267
 6064SOL    HW229826   3.068   1.927  12.458 -2.7305 -1.7501 -2.7980
 6065SOL     OW29827   3.727   4.561  15.062  0.0194  0.1360  0.3067
 6065SOL    HW129828   3.650   4.588  15.112 -0.5524 -0.9241  0.0081
 6065SOL    HW229829   3.713   4.468  15.045 -0.3527  0.1061  0.7617
 6066SOL     OW29830   0.430   3.982   4.917  0.1614 -0.4024  0.0114
 6066SOL    HW129831   0.518   3.976   4.880  1.0811  0.3649  2.0849
 6066SOL    HW229832   0.394   3.893   4.912 -2.8711  0.7768  0.7151
 6067SOL     OW29833   1.627   2.220  15.317 -0.3781 -0.4884 -0.1861
 6067SOL    HW129834   1.534   2.227  15.297 -0.1539  1.4953 -0.5835
 6067SOL    HW229835   1.646   2.183  15.231  1.8736 -0.4760  0.2958
 6068SOL     OW29836   3.451   2.564  11.555 -0.2960 -0.2448 -0.4007
 6068SOL    HW129837   3.360   2.591  11.568  0.1262  0.0215  1.9104
 6068SOL    HW229838   3.476   2.599  11.640  1.1252  0.9855 -1.3034
 6069SOL     OW29839   1.312   1.723   2.496  0.5696 -0.1948  0.2608
 6069SOL    HW129840   1.356   1.683   2.571  0.1350 -1.1043  0.0323
 6069SOL    HW229841   1.329   1.810   2.533  3.9685 -0.7212 -0.0977
 6070SOL     OW29842   0.371   3.541   2.143  0.4128  0.0625  0.2127
 6070SOL    HW129843   0.385   3.518   2.051  1.1318  0.9348  0.1027
 6070SOL    HW229844   0.400   3.632   2.152  2.1940 -0.4237 -0.6876
 6071SOL     OW29845   4.238   2.442   1.597  0.0802  0.1318  0.1433
 6071SOL    HW129846   4.145   2.463   1.592  0.3979  1.4631 -0.2536
 6071SOL    HW229847   4.275   2.525   1.626 -1.1122  0.4829  0.6645
 6072SOL     OW29848   4.607   2.394   7.387 -0.0738 -0.8282  0.3357
 6072SOL    HW129849   4.673   2.410   7.454 -0.1473 -0.6074  0.3562
 6072SOL    HW229850   4.646   2.321   7.339 -0.3915  0.3804 -1.7559
 6073SOL     OW29851   0.340   4.240   8.782  0.2868  0.0020  0.4988
 6073SOL    HW129852   0.377   4.237   8.870  3.3641  0.2816 -0.7688
 6073SOL    HW229853   0.329   4.148   8.760  0.8509  0.0110  0.1556
 6074SOL     OW29854   0.597   4.103  10.728  0.1265 -0.1931 -0.0327
 6074SOL    HW129855   0.653   4.170  10.768  0.5485 -0.8454  0.4526
 6074SOL    HW229856   0.564   4.150  10.651  2.5301  1.6453  0.0577
 6075SOL     OW29857   3.785   4.245   4.071 -0.4146 -0.3343  0.1794
 6075SOL    HW129858   3.796   4.176   4.005  0.2517  0.1474 -0.2176
 6075SOL    HW229859   3.781   4.188   4.147 -1.8514 -1.0313 -0.4125
 6076SOL     OW29860   1.716   0.570   7.452 -0.1708  0.0031 -0.0588
 6076SOL    HW129861   1.632   0.597   7.489 -0.5901 -1.1958 -0.1239
 6076SOL    HW229862   1.733   0.503   7.519  2.5916  2.1376  1.3553
 6077SOL     OW29863   2.240   2.667   0.687  0.4607 -0.0292  0.1725
 6077SOL    HW129864   2.194   2.736   0.734 -2.3583  0.1885 -2.9551
 6077SOL    HW229865   2.231   2.587   0.739  1.6195 -1.2776 -1.5688
 6078SOL     OW29866   1.771   2.180   8.350 -0.0112  0.0322 -0.7425
 6078SOL    HW129867   1.711   2.151   8.419  0.8202  0.5107  0.1846
 6078SOL    HW229868   1.778   2.276   8.357  3.7840 -0.2782 -0.3253
 6079SOL     OW29869   1.593   3.499   1.898  0.1140 -0.8881  0.7418
 6079SOL    HW129870   1.685   3.483   1.920  0.2026 -0.4575  0.6744
 6079SOL    HW229871   1.572   3.550   1.977 -3.4637 -2.1030  0.5924
 6080SOL     OW29872   3.067   0.035   5.708 -0.3720 -0.0932  0.4206
 6080SOL    HW129873   3.104   0.035   5.796  2.0576 -0.7502 -0.5929
 6080SOL    HW229874   3.140   0.071   5.658 -0.8993  2.2678  1.3912
 6081SOL     OW29875   3.987   2.693   2.720 -0.1859 -0.2940 -0.1996
 6081SOL    HW129876   3.947   2.759   2.776 -1.2667  1.2910 -2.8264
 6081SOL    HW229877   4.080   2.703   2.743  0.2416  1.5583 -2.7228
 6082SOL     OW29878   1.171   1.834   6.390  0.4906  0.4213  0.1944
 6082SOL    HW129879   1.223   1.891   6.334  0.4246  1.1537  0.8866
 6082SOL    HW229880   1.162   1.885   6.470 -3.2281  0.9359 -0.5889
 6083SOL     OW29881   0.068   4.557  11.769  0.5890  0.1032  0.2369
 6083SOL    HW129882   0.115   4.639  11.759  2.2371 -0.9432 -0.7353
 6083SOL    HW229883   0.076   4.546  11.863  3.0368 -1.7691 -0.1731
 6084SOL     OW29884   2.798   1.649   2.042 -0.1609 -0.0146  0.3340
 6084SOL    HW129885   2.885   1.656   2.002 -0.5305 -0.9309 -0.6375
 6084SOL    HW229886   2.764   1.737   2.058  0.3626  0.0716  0.9837
 6085SOL     OW29887   1.852   3.775   9.894 -0.1157  0.6195 -0.1102
 6085SOL    HW129888   1.905   3.792   9.816 -0.2436  0.5593 -0.2112
 6085SOL    HW229889   1.765   3.763   9.855 -1.0251 -1.9017  2.6512
 6086SOL     OW29890   1.851   0.210   4.936 -0.2460 -0.1919  0.6736
 6086SOL    HW129891   1.862   0.225   5.030  0.7129  0.3917  0.4640
 6086SOL    HW229892   1.878   0.118   4.938  0.9075  0.1829  2.7531
 6087SOL     OW29893   3.558   4.077   4.915  0.2149 -0.2921  0.3907
 6087SOL    HW129894   3.520   3.994   4.885 -1.4172  1.4955 -2.4785
 6087SOL    HW229895   3.640   4.043   4.953 -1.5987 -3.3815  1.5702
 6088SOL     OW29896   1.753   2.465   5.788 -0.3998  0.5920  0.2692
 6088SOL    HW129897   1.783   2.374   5.780 -0.1647  0.7436 -0.5854
 6088SOL    HW229898   1.796   2.488   5.870 -0.4970  1.1492  0.1626
 6089SOL     OW29899   0.816   0.625   3.707  0.3814 -0.0539  0.2614
 6089SOL    HW129900   0.819   0.687   3.634  0.0002 -0.7035 -0.3119
 6089SOL    HW229901   0.724   0.605   3.689  0.8658 -1.8141 -0.2290
 6090SOL     OW29902   2.188   3.427   5.718  0.1821  0.4662  0.3685
 6090SOL    HW129903   2.253   3.357   5.714 -0.7429 -0.5628  3.1694
 6090SOL    HW229904   2.110   3.377   5.743 -0.7976  2.3251  1.0127
 6091SOL     OW29905   0.114   3.238   6.769 -0.1222 -0.6269  0.7470
 6091SOL    HW129906   0.115   3.278   6.681  0.4103 -0.3696  0.8693
 6091SOL    HW229907   0.164   3.161   6.744  2.5263  0.8354  1.4622
 6092SOL     OW29908   3.679   3.495   7.216  0.4733 -0.1572  1.0324
 6092SOL    HW129909   3.751   3.436   7.194 -1.7019 -2.3256 -0.3087
 6092SOL    HW229910   3.681   3.475   7.310  0.1742 -1.5219  0.7492
 6093SOL     OW29911   2.855   0.369   9.570  0.1870  0.2061  0.5708
 6093SOL    HW129912   2.901   0.399   9.648  1.0028 -1.4282  0.7249
 6093SOL    HW229913   2.861   0.444   9.511 -0.6303 -0.2668 -0.1024
 6094SOL     OW29914   2.086   4.310   5.153 -0.1342 -0.3718 -0.5496
 6094SOL    HW129915   2.148   4.242   5.126  2.2469  1.3287  0.6046
 6094SOL    HW229916   2.007   4.261   5.176 -0.6444 -0.2890 -2.0577
 6095SOL     OW29917   4.293   3.904  12.167 -0.2267  0.2288 -0.3339
 6095SOL    HW129918   4.373   3.855  12.185 -0.5057 -0.2826 -0.4957
 6095SOL    HW229919   4.319   3.967  12.099 -0.6424  2.4605  1.5873
 6096SOL     OW29920   4.266   2.895   0.735  0.2362  0.3605  0.0820
 6096SOL    HW129921   4.222   2.810   0.739 -0.1777  0.4845 -1.5312
 6096SOL    HW229922   4.250   2.919   0.644 -1.2821 -0.2923  0.1739
 6097SOL     OW29923   3.458   4.206   2.238  0.3817  0.3259  0.9175
 6097SOL    HW129924   3.505   4.134   2.195  0.0238  1.1431 -0.8074
 6097SOL    HW229925   3.373   4.201   2.195  0.8809 -1.4360  0.1159
 6098SOL     OW29926   1.171   1.550   0.102 -0.5216 -0.0142  0.4088
 6098SOL    HW129927   1.106   1.514   0.163  0.5576 -1.2593  0.8468
 6098SOL    HW229928   1.140   1.527   0.015 -1.7321 -2.0015  1.3574
 6099SOL     OW29929   0.101   4.267   4.464 -0.0764  0.4556 -0.0058
 6099SOL    HW129930   0.076   4.227   4.547  0.3464  0.5757  0.1764
 6099SOL    HW229931   0.034   4.229   4.406 -0.1516 -1.0973  1.0955
 6100SOL     OW29932   4.732   0.305   7.426 -0.9478 -0.5764  0.5710
 6100SOL    HW129933   4.668   0.257   7.478 -2.6873  1.8661  0.6639
 6100SOL    HW229934   4.727   0.393   7.464 -0.7847 -0.8105  1.1463
 6101SOL     OW29935   3.386   3.985  17.519 -0.0837 -0.0027  0.1234
 6101SOL    HW129936   3.327   3.960  17.591 -0.9769  0.8546 -0.3077
 6101SOL    HW229937   3.470   3.949  17.546 -0.5732 -0.6348  0.8243
 6102SOL     OW29938   1.130   0.873   2.586  0.0568  0.3657  0.2915
 6102SOL    HW129939   1.102   0.944   2.527 -0.7267 -0.5298 -0.4022
 6102SOL    HW229940   1.043   0.834   2.595 -0.6756  1.5049 -1.7757
 6103SOL     OW29941   1.984   1.779   3.942  0.3535  0.0528 -0.1579
 6103SOL    HW129942   2.049   1.745   4.004 -1.6438 -1.2694  1.1730
 6103SOL    HW229943   1.998   1.721   3.867  2.1954 -0.7174  0.7743
 6104SOL     OW29944   1.641   3.886   7.336 -0.0879  0.2820  0.3311
 6104SOL    HW129945   1.608   3.976   7.340 -2.5809 -0.4597 -3.8401
 6104SOL    HW229946   1.732   3.914   7.331  0.2746 -1.0193 -0.2696
 6105SOL     OW29947   3.139   1.840   1.733 -0.3672  0.0093 -0.4233
 6105SOL    HW129948   3.199   1.909   1.759  1.0576 -1.1939 -0.5213
 6105SOL    HW229949   3.063   1.881   1.691 -0.3369 -1.1451 -1.6024
 6106SOL     OW29950   2.115   3.679  10.015 -0.1718 -0.2027  0.4156
 6106SOL    HW129951   2.185   3.680   9.950  0.6902 -1.6845  1.3069
 6106SOL    HW229952   2.070   3.754   9.975 -2.5633 -0.8190  1.9695
 6107SOL     OW29953   0.166   1.002   6.086 -0.8041  0.3713 -0.4258
 6107SOL    HW129954   0.137   0.960   6.005 -0.9313 -1.2589  0.4626
 6107SOL    HW229955   0.080   1.002   6.127 -0.1532 -1.4946  0.9410
 6108SOL     OW29956   2.324   1.889   2.367  0.3169 -0.0142 -0.4840
 6108SOL    HW129957   2.364   1.837   2.437  2.4488 -0.2035 -1.8639
 6108SOL    HW229958   2.346   1.980   2.386 -0.2709 -0.1749  0.9653
 6109SOL     OW29959   1.302   4.290   5.792  0.2042 -0.4034  0.3114
 6109SOL    HW129960   1.396   4.309   5.793  0.2718 -0.7541  0.9333
 6109SOL    HW229961   1.285   4.242   5.873  0.3872  0.5607  0.9209
 6110SOL     OW29962   4.016   1.382   7.183  0.0311 -0.7860  0.7912
 6110SOL    HW129963   4.097   1.417   7.145  0.9110 -3.4473  0.1973
 6110SOL    HW229964   3.964   1.380   7.102 -1.0900  1.5567  1.4335
 6111SOL     OW29965   3.128   1.627  15.967 -0.2704 -0.4575 -0.0022
 6111SOL    HW129966   3.054   1.575  15.935  0.3208 -1.0464 -0.4183
 6111SOL    HW229967   3.089   1.650  16.051 -1.1474 -2.4870  0.1593
 6112SOL     OW29968   3.548   4.410  17.694  0.2666  0.3357  0.3332
 6112SOL    HW129969   3.528   4.387  17.603  1.1693  0.7853  0.0126
 6112SOL    HW229970   3.617   4.351  17.725 -0.0707 -1.0307 -1.4557
 6113SOL     OW29971   1.738   1.474   9.881  0.4422  0.2151  0.0039
 6113SOL    HW129972   1.804   1.405   9.891  1.9384  1.8525  1.2975
 6113SOL    HW229973   1.791   1.552   9.869  2.0220 -0.7706  0.6366
 6114SOL     OW29974   2.474   2.737  11.803 -0.7086  0.7831  0.0132
 6114SOL    HW129975   2.475   2.742  11.899  0.0935 -0.0800  0.0601
 6114SOL    HW229976   2.476   2.643  11.784 -3.2030  0.1281  2.8435
 6115SOL     OW29977   2.226   3.310  16.478  0.9103  1.0844  0.6263
 6115SOL    HW129978   2.265   3.364  16.546 -0.1978 -1.6189  3.3967
 6115SOL    HW229979   2.172   3.260  16.539 -2.5201  2.6573 -1.0778
 6116SOL     OW29980   1.286   4.134  13.665 -0.2795 -0.2556  0.1462
 6116SOL    HW129981   1.322   4.108  13.749  0.2970 -0.0385 -0.0391
 6116SOL    HW229982   1.363   4.113  13.612 -0.2740  0.8984 -0.3019
 6117SOL     OW29983   4.156   2.682   1.247 -0.5684 -0.4088  0.2478
 6117SOL    HW129984   4.158   2.726   1.162  2.8638  0.4604  0.8179
 6117SOL    HW229985   4.104   2.607   1.217  0.3869 -1.4754  1.2468
 6118SOL     OW29986   3.216   3.046   5.790  0.0800  0.0114 -0.7000
 6118SOL    HW129987   3.134   3.062   5.837  1.8419 -2.1676  3.1863
 6118SOL    HW229988   3.181   3.043   5.701  0.8552 -0.4580 -0.9884
 6119SOL     OW29989   1.218   2.809   1.130 -0.7597  0.9818 -0.1901
 6119SOL    HW129990   1.312   2.796   1.126 -1.0597 -1.0248 -0.5420
 6119SOL    HW229991   1.194   2.723   1.164 -1.2839  0.4911 -1.8137
 6120SOL     OW29992   2.218   1.580  15.207 -0.1820 -0.2878  0.2102
 6120SOL    HW129993   2.220   1.536  15.122 -1.8778  0.7008 -0.3573
 6120SOL    HW229994   2.206   1.671  15.178 -1.0160 -0.6043 -0.4290
 6121SOL     OW29995   4.447   0.936   2.013 -0.1783  0.0172  0.2244
 6121SOL    HW129996   4.442   1.020   1.969  0.7138 -0.2177 -0.3148
 6121SOL    HW229997   4.510   0.953   2.083  0.3572 -2.5512  0.3646
 6122SOL     OW29998   2.407   2.884   4.289 -0.4116 -0.0208 -0.0962
 6122SOL    HW129999   2.486   2.938   4.299 -2.1141  2.0849  2.0361
 6122SOL    HW230000   2.402   2.844   4.376  1.2099 -0.7762 -0.3557
 6123SOL     OW30001   1.587   0.721   7.955  0.0070  0.3387  0.2125
 6123SOL    HW130002   1.597   0.726   7.860 -1.9108 -2.7822 -0.1500
 6123SOL    HW230003   1.505   0.672   7.964  0.3202 -0.0812  0.7766
 6124SOL     OW30004   2.299   1.810   1.186 -0.3337  0.3778  0.3753
 6124SOL    HW130005   2.319   1.819   1.093  0.0489 -3.6140  0.1044
 6124SOL    HW230006   2.277   1.718   1.193 -2.2077  0.8216  0.3143
 6125SOL     OW30007   0.163   0.906  14.751  0.2946  0.2022  0.3819
 6125SOL    HW130008   0.078   0.862  14.751  0.1696  0.4303  1.5324
 6125SOL    HW230009   0.145   0.978  14.691  1.1923  0.5372  0.5112
 6126SOL     OW30010   3.051   1.542   4.319 -0.0348 -0.5633 -0.2261
 6126SOL    HW130011   3.076   1.602   4.249  2.3470 -0.0380  1.0503
 6126SOL    HW230012   3.137   1.503   4.337  0.6973  0.1120 -2.2600
 6127SOL     OW30013   4.390   0.634   6.185  0.1038  0.2667  0.0501
 6127SOL    HW130014   4.468   0.670   6.143 -0.1749  0.3393 -0.3975
 6127SOL    HW230015   4.423   0.553   6.225  1.4472  0.8565  0.1266
 6128SOL     OW30016   2.573   0.927   3.422 -0.2322 -0.5273  0.1683
 6128SOL    HW130017   2.615   0.979   3.353 -0.6795 -0.8251 -0.3338
 6128SOL    HW230018   2.604   0.971   3.501 -1.2539 -0.4358  0.5177
 6129SOL     OW30019   2.318   3.679  14.393 -0.0385 -0.2623 -0.0093
 6129SOL    HW130020   2.275   3.750  14.345 -0.7910 -1.3780 -0.9654
 6129SOL    HW230021   2.258   3.606  14.376 -0.6785  0.1712  0.3896
 6130SOL     OW30022   1.156   4.106   3.025  0.3386 -0.5297 -0.8857
 6130SOL    HW130023   1.144   4.013   3.048  2.9759 -0.1327  2.2110
 6130SOL    HW230024   1.073   4.142   3.056  0.7408 -0.2597 -0.1149
 6131SOL     OW30025   3.170   3.243  10.855 -0.3462  0.0295  0.3836
 6131SOL    HW130026   3.227   3.260  10.930  1.3781  2.6286 -1.5252
 6131SOL    HW230027   3.165   3.148  10.865  1.1838  0.0477  1.3202
 6132SOL     OW30028   1.380   2.722   9.328  0.1018  0.4818  0.3220
 6132SOL    HW130029   1.359   2.810   9.357  5.5396  0.8182  3.1696
 6132SOL    HW230030   1.368   2.740   9.234  0.1987 -0.9136  0.0306
 6133SOL     OW30031   1.110   3.687   3.556 -0.2389 -0.4351  0.2895
 6133SOL    HW130032   1.121   3.646   3.642  2.4283 -0.1587  0.0758
 6133SOL    HW230033   1.139   3.777   3.573 -1.9936  0.2062 -0.1280
 6134SOL     OW30034   2.899   2.104   8.546 -0.1336  0.4564 -0.5462
 6134SOL    HW130035   2.831   2.062   8.598  1.7988 -0.6340  1.1145
 6134SOL    HW230036   2.969   2.110   8.611 -1.2465  0.9279  0.6126
 6135SOL     OW30037   3.986   3.321   1.655  0.0873 -0.4585 -0.1326
 6135SOL    HW130038   3.947   3.234   1.660  2.1725 -1.3094  1.2980
 6135SOL    HW230039   3.957   3.359   1.572  0.1780 -2.6917 -1.1754
 6136SOL     OW30040   3.920   4.280  11.550  0.3111  0.0042  0.1493
 6136SOL    HW130041   3.977   4.213  11.512  0.0521  0.4244 -0.9925
 6136SOL    HW230042   3.943   4.255  11.639  0.0963  1.1619  0.5302
 6137SOL     OW30043   0.107   1.024   4.104  0.0023 -0.6123  0.5602
 6137SOL    HW130044   0.055   0.948   4.130  0.8940 -1.0240  1.1309
 6137SOL    HW230045   0.107   1.068   4.188  2.4020 -0.2270  0.3656
 6138SOL     OW30046   0.157   2.353  13.403 -0.0711 -0.1164 -0.7350
 6138SOL    HW130047   0.141   2.439  13.365  1.8460 -1.2193 -3.9986
 6138SOL    HW230048   0.081   2.304  13.371 -1.7304  1.5099  0.6615
 6139SOL     OW30049   2.631   2.811   4.784 -0.0209  0.6002 -0.2144
 6139SOL    HW130050   2.536   2.801   4.774  0.1335 -0.9339 -0.1801
 6139SOL    HW230051   2.664   2.752   4.716 -3.7772 -1.8018  0.0403
 6140SOL     OW30052   4.187   4.479   8.092 -0.2989 -0.9692  0.1909
 6140SOL    HW130053   4.095   4.469   8.068 -0.3826 -1.2694  0.6173
 6140SOL    HW230054   4.226   4.467   8.006  1.0086 -0.2559  0.6921
 6141SOL     OW30055   4.611   2.331   3.671 -0.8357 -0.0579 -0.0155
 6141SOL    HW130056   4.555   2.315   3.595 -0.9622  3.0827 -0.5947
 6141SOL    HW230057   4.651   2.414   3.643  0.7583 -0.8869 -0.1748
 6142SOL     OW30058   1.116   3.454   1.600 -0.0049  0.5142 -0.1857
 6142SOL    HW130059   1.119   3.548   1.613 -1.7979  0.9708 -3.0885
 6142SOL    HW230060   1.186   3.444   1.535  1.0137 -2.8489  1.3998
 6143SOL     OW30061   3.282   2.320   3.820  0.3394  0.0142 -0.0667
 6143SOL    HW130062   3.264   2.380   3.748  0.2198  0.1121  0.0476
 6143SOL    HW230063   3.265   2.373   3.897  1.1046  2.5348 -1.6471
 6144SOL     OW30064   1.824   0.173   8.969  0.4626  0.8107 -0.6037
 6144SOL    HW130065   1.774   0.255   8.964 -0.9366  0.0793  1.3961
 6144SOL    HW230066   1.860   0.167   8.881  1.1825  0.5679 -0.2935
 6145SOL     OW30067   1.778   3.584   6.694 -0.2751 -0.0764  0.0119
 6145SOL    HW130068   1.686   3.604   6.680  0.4178  0.7630 -3.3016
 6145SOL    HW230069   1.805   3.543   6.611  0.3114 -1.6983  1.0086
 6146SOL     OW30070   1.867   0.095   9.556 -1.0799  0.4192 -0.3732
 6146SOL    HW130071   1.787   0.070   9.510 -0.8154 -0.0314 -0.5895
 6146SOL    HW230072   1.837   0.129   9.640 -0.7706  1.7598 -0.8095
 6147SOL     OW30073   3.705   4.197   3.265  0.4423 -0.0487 -0.2997
 6147SOL    HW130074   3.612   4.186   3.287 -0.0613  0.7598 -1.9943
 6147SOL    HW230075   3.721   4.107   3.237  0.9988  0.9274 -3.0734
 6148SOL     OW30076   0.188   2.369   2.987  0.1436  0.0464 -0.2486
 6148SOL    HW130077   0.274   2.410   2.980  0.2703 -0.1002  0.4668
 6148SOL    HW230078   0.172   2.320   2.906  0.7533  1.1568 -1.0409
 6149SOL     OW30079   0.690   3.235   6.838 -0.3390 -0.7674 -0.1065
 6149SOL    HW130080   0.685   3.245   6.933  1.5808  1.1395 -0.1898
 6149SOL    HW230081   0.784   3.252   6.833 -0.8440  1.3662 -2.4915
 6150SOL     OW30082   3.277   0.459   3.500  0.4126  0.0603 -0.2335
 6150SOL    HW130083   3.280   0.395   3.429 -2.0001 -0.4285  0.1231
 6150SOL    HW230084   3.352   0.512   3.472 -0.5959  0.6437 -1.8798
 6151SOL     OW30085   3.908   2.289   5.026  0.4488  0.4451  0.4413
 6151SOL    HW130086   3.932   2.211   4.975  0.8991  0.1083  1.1609
 6151SOL    HW230087   3.864   2.236   5.092 -0.2829 -0.4551 -0.7713
 6152SOL     OW30088   4.728   2.484   7.863 -0.1061  0.4343  0.0082
 6152SOL    HW130089   4.637   2.472   7.889 -0.1111 -0.5226 -0.4575
 6152SOL    HW230090   0.040   2.406   7.895  0.6488  0.7488 -0.3063
 6153SOL     OW30091   1.645   2.982   5.004 -0.2944  0.2008 -0.1980
 6153SOL    HW130092   1.658   2.934   4.922  0.7710  0.6460 -0.2834
 6153SOL    HW230093   1.626   2.921   5.075  0.6925  0.3877  0.2264
 6154SOL     OW30094   4.130   2.347   1.924  0.7840  0.3453  0.8255
 6154SOL    HW130095   4.223   2.327   1.938  0.8609  0.2113  0.1300
 6154SOL    HW230096   4.129   2.442   1.907 -1.7059  0.1068 -0.4047
 6155SOL     OW30097   2.748   3.358   3.862 -0.1421 -0.2084 -0.7832
 6155SOL    HW130098   2.753   3.433   3.802 -0.7503  0.4361 -0.0364
 6155SOL    HW230099   2.828   3.314   3.834 -1.1000 -2.0714 -0.5815
 6156SOL     OW30100   2.240   3.337   1.332 -0.1718 -0.1209 -0.0944
 6156SOL    HW130101   2.234   3.246   1.363 -0.0417 -0.4603 -1.0450
 6156SOL    HW230102   2.252   3.333   1.237  0.3307 -0.3345 -0.0269
 6157SOL     OW30103   4.494   3.440   6.556 -0.3081 -0.8165  0.5021
 6157SOL    HW130104   4.575   3.401   6.523  0.8163  0.9020  1.2649
 6157SOL    HW230105   4.516   3.528   6.586  0.7969 -0.4987 -1.2477
 6158SOL     OW30106   4.183   4.069   1.953  0.1805  0.1892  0.0079
 6158SOL    HW130107   4.235   3.989   1.963 -0.9172 -0.6132 -0.6137
 6158SOL    HW230108   4.136   4.061   1.870  0.5073  0.8126 -0.2353
 6159SOL     OW30109   4.720   1.489   9.875 -0.7312  0.1569 -0.1319
 6159SOL    HW130110   0.060   1.531   9.831 -2.5231  1.5700 -1.8068
 6159SOL    HW230111   4.712   1.397   9.851 -0.1979 -0.3744  1.7160
 6160SOL     OW30112   3.759   0.389   6.656  0.5089  0.1756  0.6472
 6160SOL    HW130113   3.787   0.456   6.719  2.7663 -0.2351  0.0882
 6160SOL    HW230114   3.819   0.317   6.673  0.2713 -0.0991  0.3070
 6161SOL     OW30115   1.020   1.025  14.219  0.2607 -0.8002  0.0186
 6161SOL    HW130116   0.995   1.081  14.293 -2.5235 -0.9484 -0.8204
 6161SOL    HW230117   0.958   0.957  14.246 -0.7563  1.1445  2.5910
 6162SOL     OW30118   0.300   4.461   5.854  0.4340 -0.7807  0.3816
 6162SOL    HW130119   0.224   4.438   5.907  1.5051 -0.5065  2.0209
 6162SOL    HW230120   0.371   4.432   5.911  3.2573  2.3303 -1.5671
 6163SOL     OW30121   1.140   1.308   1.639 -0.2986 -0.0400 -0.2014
 6163SOL    HW130122   1.187   1.225   1.627 -2.4463 -1.3566  0.4375
 6163SOL    HW230123   1.095   1.285   1.721  0.5686 -1.5616 -0.1551
 6164SOL     OW30124   2.677   0.181   7.708  0.2315  0.0756  0.1268
 6164SOL    HW130125   2.645   0.205   7.621  1.0207  2.7255  0.5561
 6164SOL    HW230126   2.695   0.266   7.749  2.4750  0.1384 -0.9891
 6165SOL     OW30127   1.547   0.462  16.372  0.0040  0.2561 -0.3952
 6165SOL    HW130128   1.569   0.396  16.307 -0.2240  0.6184 -0.8446
 6165SOL    HW230129   1.564   0.545  16.326 -0.4932  0.4559 -0.2167
 6166SOL     OW30130   2.237   0.834   4.438 -0.9257  0.2080 -0.1996
 6166SOL    HW130131   2.226   0.848   4.344  2.1219  0.0729 -0.5747
 6166SOL    HW230132   2.153   0.792   4.455 -0.6207 -0.4841 -0.4386
 6167SOL     OW30133   3.482   3.799   1.586  0.3904 -0.2889  0.1304
 6167SOL    HW130134   3.576   3.796   1.567  0.0073 -0.6844 -1.7102
 6167SOL    HW230135   3.474   3.744   1.664 -1.0059  1.4457  1.2089
 6168SOL     OW30136   0.019   4.473  14.444 -0.5251 -0.4552 -0.4758
 6168SOL    HW130137   4.705   4.404  14.399  1.9318 -1.1201 -2.0669
 6168SOL    HW230138   0.043   4.430  14.526  3.0265  1.5411 -0.4378
 6169SOL     OW30139   1.357   3.198  15.667 -0.2642  0.0872 -0.2120
 6169SOL    HW130140   1.351   3.109  15.633 -1.3001 -0.5369  1.6565
 6169SOL    HW230141   1.294   3.197  15.739 -0.6414  2.0599 -0.5037
 6170SOL     OW30142   1.303   0.671   6.128 -0.0396 -0.1114 -0.4207
 6170SOL    HW130143   1.372   0.618   6.088 -0.3639 -0.2191 -0.8362
 6170SOL    HW230144   1.269   0.612   6.196 -1.4161  0.0667 -0.9543
 6171SOL     OW30145   2.330   2.528   7.599 -0.2965  0.4187 -0.1581
 6171SOL    HW130146   2.391   2.479   7.544  1.9684  1.1368  1.7184
 6171SOL    HW230147   2.289   2.465   7.658 -0.0536  0.5338  0.1351
 6172SOL     OW30148   1.218   0.343   6.510 -0.2522  0.0793 -0.0183
 6172SOL    HW130149   1.166   0.403   6.565  1.0648  2.3196 -1.2217
 6172SOL    HW230150   1.270   0.305   6.580  0.4433  3.3430  1.2537
 6173SOL     OW30151   1.091   2.659   2.019  0.4163  0.4785  0.5182
 6173SOL    HW130152   1.051   2.716   1.953 -1.8573 -1.0323  0.5624
 6173SOL    HW230153   1.168   2.623   1.975 -0.9904  1.7220 -2.9594
 6174SOL     OW30154   3.225   2.724   5.573 -0.2105  0.2321 -0.2102
 6174SOL    HW130155   3.181   2.727   5.658 -0.0423 -0.7699 -0.0835
 6174SOL    HW230156   3.252   2.814   5.554 -2.6998  0.7446 -1.4008
 6175SOL     OW30157   0.280   2.285   8.989 -0.2252 -0.2970  0.6686
 6175SOL    HW130158   0.239   2.214   8.939 -1.8386  1.0908  0.0660
 6175SOL    HW230159   0.319   2.236   9.062  1.3761 -0.0298 -0.0158
 6176SOL     OW30160   0.338   0.618  17.282  0.2795  0.7895 -0.2915
 6176SOL    HW130161   0.277   0.546  17.268  2.0120 -1.1270  2.0885
 6176SOL    HW230162   0.296   0.674  17.348  2.7863 -1.2104  3.0094
 6177SOL     OW30163   2.634   3.085   7.920  0.0034  0.1824  0.0916
 6177SOL    HW130164   2.683   3.134   7.986  0.7804 -2.1911  1.2890
 6177SOL    HW230165   2.699   3.015   7.916 -1.6853 -1.3950  0.2954
 6178SOL     OW30166   4.638   2.637   9.225 -0.2547  0.4343 -0.5136
 6178SOL    HW130167   4.734   2.640   9.219 -0.3083  1.8114 -0.7844
 6178SOL    HW230168   4.610   2.650   9.134  2.5550  3.2447 -0.9642
 6179SOL     OW30169   3.108   3.928  10.700 -0.5526  0.3701 -0.4568
 6179SOL    HW130170   3.175   3.891  10.641  2.4584  4.4018  0.4255
 6179SOL    HW230171   3.112   3.870  10.776 -0.0181 -0.7193 -1.3183
 6180SOL     OW30172   1.250   3.134   5.604 -0.5566 -0.3036  0.5208
 6180SOL    HW130173   1.314   3.166   5.668  1.2343 -0.2097 -1.3023
 6180SOL    HW230174   1.271   3.196   5.534  0.8304 -1.1131  0.2081
 6181SOL     OW30175   2.314   2.933   7.512 -0.8334  0.2163 -0.0003
 6181SOL    HW130176   2.233   2.939   7.564  0.3225  0.6054  1.7381
 6181SOL    HW230177   2.287   2.982   7.434 -0.2767  2.4359  1.2055
 6182SOL     OW30178   0.039   3.034   8.993  0.1413  0.4537  0.4922
 6182SOL    HW130179   0.029   3.113   8.941 -0.8363 -1.7098 -2.5818
 6182SOL    HW230180   0.130   3.013   8.971  0.3189  0.9496  0.7611
 6183SOL     OW30181   0.963   2.681  13.493 -0.0845 -0.4196  0.1468
 6183SOL    HW130182   1.002   2.752  13.545 -0.6879  0.7543 -0.9999
 6183SOL    HW230183   0.870   2.694  13.515 -0.1705 -1.0766  0.1729
 6184SOL     OW30184   2.286   4.313   8.228  0.2162  0.3821 -0.4774
 6184SOL    HW130185   2.235   4.350   8.301 -1.0707 -0.6021 -0.8690
 6184SOL    HW230186   2.319   4.229   8.261 -2.1438  0.4177  2.0255
 6185SOL     OW30187   0.426   0.269   7.688 -0.1333 -0.2421  0.6676
 6185SOL    HW130188   0.416   0.274   7.593  2.3469  1.6101  0.4955
 6185SOL    HW230189   0.338   0.293   7.716 -0.4519  0.0057 -0.5476
 6186SOL     OW30190   3.157   0.274   7.024  0.6980 -0.4663  0.5934
 6186SOL    HW130191   3.236   0.324   7.046  0.5760 -0.0522  0.0790
 6186SOL    HW230192   3.178   0.184   7.051  0.4193 -0.7029  0.0135
 6187SOL     OW30193   1.387   0.764   2.557 -0.3418 -0.9406  0.5415
 6187SOL    HW130194   1.411   0.721   2.639 -3.8291 -0.7980  1.6330
 6187SOL    HW230195   1.299   0.797   2.575  0.4384  1.1693  0.5411
 6188SOL     OW30196   1.065   2.426   5.671  0.5871  0.3748  0.5144
 6188SOL    HW130197   0.970   2.435   5.663  0.4241 -1.5020  0.3307
 6188SOL    HW230198   1.085   2.409   5.579  0.3432  1.8121  0.1951
 6189SOL     OW30199   2.893   3.350   2.362  0.4507  0.0242 -0.2359
 6189SOL    HW130200   2.854   3.396   2.288 -0.4416  1.1954  0.9663
 6189SOL    HW230201   2.815   3.357   2.417 -0.1828  1.2232 -1.3041
 6190SOL     OW30202   0.736   1.814  12.626 -0.3248  0.0073 -0.3051
 6190SOL    HW130203   0.776   1.897  12.598 -1.0751  1.1103  1.8559
 6190SOL    HW230204   0.662   1.844  12.679 -0.8397 -3.1176  0.7192
 6191SOL     OW30205   1.946   3.707   1.832 -0.2434 -0.6424 -0.2268
 6191SOL    HW130206   1.916   3.618   1.848 -0.4126 -0.1728  2.0914
 6191SOL    HW230207   2.032   3.706   1.872 -1.3708 -0.9964  2.1580
 6192SOL     OW30208   1.389   3.122   6.032 -0.0734  0.6494 -0.1041
 6192SOL    HW130209   1.336   3.154   6.105 -1.1686 -0.0221 -0.6200
 6192SOL    HW230210   1.433   3.047   6.073  1.1697  1.1386 -0.5384
 6193SOL     OW30211   4.680   2.308   2.725  0.3869  0.3931  0.3190
 6193SOL    HW130212   4.642   2.393   2.744  0.6391 -0.1336  3.2199
 6193SOL    HW230213   0.010   2.312   2.654 -1.0915 -3.0325 -1.2192
 6194SOL     OW30214   1.885   3.648   7.133 -0.3785  0.1616  0.1564
 6194SOL    HW130215   1.947   3.713   7.098 -0.4644  1.4765  2.4654
 6194SOL    HW230216   1.796   3.672   7.105 -1.1341 -2.3550  0.4610
 6195SOL     OW30217   2.760   0.769   3.970  0.0652  0.0457  0.3316
 6195SOL    HW130218   2.781   0.862   3.979 -0.2689  0.2327 -0.7151
 6195SOL    HW230219   2.691   0.761   4.036  0.6033  0.0433  0.8955
 6196SOL     OW30220   2.484   3.869   9.844  0.5905 -0.2580  0.4108
 6196SOL    HW130221   2.569   3.866   9.800  0.1697  3.1992 -0.6379
 6196SOL    HW230222   2.448   3.953   9.814 -0.3293 -0.7328  0.1728
 6197SOL     OW30223   3.151   3.471   2.945 -0.6256 -0.5684  0.3831
 6197SOL    HW130224   3.179   3.444   2.858  1.6890 -1.1679  1.2960
 6197SOL    HW230225   3.172   3.564   2.942  0.7795 -0.9720 -2.3196
 6198SOL     OW30226   1.812   4.702  11.212  0.0191  0.3142 -0.0811
 6198SOL    HW130227   1.879   4.651  11.259  0.7927  0.0153 -1.5196
 6198SOL    HW230228   1.779   0.020  11.285  2.8265 -0.2311  1.6015
 6199SOL     OW30229   3.883   3.858   6.345 -0.2514  0.6863 -0.6799
 6199SOL    HW130230   3.816   3.924   6.335 -0.1661  1.0645  1.1155
 6199SOL    HW230231   3.938   3.905   6.408  1.6449 -1.3100 -0.8006
 6200SOL     OW30232   4.011   0.371   4.975 -0.5535 -0.4848  0.0612
 6200SOL    HW130233   4.024   0.398   5.066  0.4720  0.1864 -0.2995
 6200SOL    HW230234   4.096   0.331   4.958 -1.6408 -2.8093 -0.0637
 6201SOL     OW30235   2.955   0.588   8.417 -0.5697  0.0656  0.3222
 6201SOL    HW130236   3.029   0.649   8.426  1.3290 -2.2494  0.4391
 6201SOL    HW230237   2.976   0.528   8.346  0.3550 -1.6155  1.9961
 6202SOL     OW30238   4.639   3.050   1.461  0.0149 -0.7601 -0.0392
 6202SOL    HW130239   4.697   2.995   1.514  0.7434 -0.1364 -0.1840
 6202SOL    HW230240   4.621   3.108   1.535 -1.8626 -0.5530 -0.6694
 6203SOL     OW30241   3.329   4.517   4.660  0.0218  0.0969  0.1443
 6203SOL    HW130242   3.344   4.580   4.730  0.4712  0.6981 -0.5025
 6203SOL    HW230243   3.396   4.454   4.687 -0.7705  0.2156  2.3844
 6204SOL     OW30244   3.868   1.789  14.061 -0.1138 -0.0840  0.1090
 6204SOL    HW130245   3.845   1.833  13.979  0.0209 -1.6801 -0.7865
 6204SOL    HW230246   3.818   1.834  14.130 -1.6352 -0.6221 -0.6434
 6205SOL     OW30247   3.384   0.086  16.425 -0.2335  0.6042  0.2813
 6205SOL    HW130248   3.430   0.009  16.456 -0.9155  0.4079  0.8073
 6205SOL    HW230249   3.309   0.046  16.380 -1.0196  3.1845 -0.7456
 6206SOL     OW30250   0.006   3.393   3.184  0.5157 -0.2564  0.0278
 6206SOL    HW130251   0.024   3.431   3.098 -0.7144  1.2505  0.4279
 6206SOL    HW230252   4.681   3.322   3.160  0.1534 -0.3824  1.2587
 6207SOL     OW30253   2.143   1.289   5.913  0.3948 -0.0107  0.3889
 6207SOL    HW130254   2.144   1.289   6.008 -1.0379  2.5945  0.3860
 6207SOL    HW230255   2.225   1.241   5.899 -0.2439 -0.2952 -2.5401
 6208SOL     OW30256   3.363   0.142  11.792 -0.2022 -0.2573 -0.4348
 6208SOL    HW130257   3.311   0.206  11.744  0.1765  0.1423 -0.3168
 6208SOL    HW230258   3.421   0.096  11.732  1.3082  1.7521 -0.5179
 6209SOL     OW30259   1.824   3.368   2.311 -0.0714 -0.3598  0.8914
 6209SOL    HW130260   1.795   3.458   2.299  1.9518  0.0872 -0.7676
 6209SOL    HW230261   1.845   3.356   2.403 -0.2442 -1.1472  0.8284
 6210SOL     OW30262   0.765   4.310  11.196 -0.6099 -0.1022  0.9732
 6210SOL    HW130263   0.771   4.214  11.197  3.5946  0.1737 -0.8451
 6210SOL    HW230264   0.691   4.324  11.256 -1.0270 -1.1186  0.7054
 6211SOL     OW30265   3.536   1.748  11.013  0.3452  0.2218  0.0374
 6211SOL    HW130266   3.479   1.708  10.948  0.5801 -0.3155  0.1607
 6211SOL    HW230267   3.526   1.842  10.997 -1.0009  0.3606  1.6785
 6212SOL     OW30268   0.231   3.702   3.429 -0.2196 -0.0712  0.2983
 6212SOL    HW130269   0.279   3.777   3.463 -0.4049  0.9533 -1.6973
 6212SOL    HW230270   0.281   3.683   3.349  2.4982 -0.5479  2.1099
 6213SOL     OW30271   1.213   3.831  10.084  0.0708 -0.1661 -0.0249
 6213SOL    HW130272   1.156   3.755  10.071  0.8840 -0.2636 -3.0801
 6213SOL    HW230273   1.266   3.823  10.005 -1.4041 -1.7439 -0.8455
 6214SOL     OW30274   2.843   2.938   3.278 -0.3442 -0.0784 -0.3470
 6214SOL    HW130275   2.870   3.030   3.272  1.2899 -0.5790 -0.5592
 6214SOL    HW230276   2.800   2.937   3.364  0.7586  0.0631  0.2156
 6215SOL     OW30277   2.395   4.354   4.952  0.2495  0.1521  0.5491
 6215SOL    HW130278   2.437   4.331   5.035 -0.2952  0.9327  1.0399
 6215SOL    HW230279   2.438   4.437   4.932  2.3887 -1.3039 -1.0134
 6216SOL     OW30280   1.196   2.514   5.353  0.2749  0.0201 -0.2578
 6216SOL    HW130281   1.276   2.525   5.404  0.5979  2.7080 -1.3373
 6216SOL    HW230282   1.226   2.488   5.266 -0.5924 -1.3186 -0.1497
 6217SOL     OW30283   3.197   3.005   9.032 -0.4732 -0.0933 -0.5250
 6217SOL    HW130284   3.136   3.065   8.989  0.4707 -0.7454 -2.7681
 6217SOL    HW230285   3.257   3.074   9.061 -1.4144  0.8841 -0.8847
 6218SOL     OW30286   1.632   2.640   7.391 -0.3049 -0.0267  0.0029
 6218SOL    HW130287   1.542   2.607   7.393  0.0918 -1.1209 -0.1822
 6218SOL    HW230288   1.623   2.719   7.445 -0.9973  0.4357 -0.7912
 6219SOL     OW30289   2.089   0.432   9.097  0.0672  0.2259  1.0676
 6219SOL    HW130290   2.094   0.522   9.129 -0.7738  0.4280  0.6439
 6219SOL    HW230291   2.000   0.401   9.114  0.6785 -2.9012 -1.2462
 6220SOL     OW30292   4.418   3.184  10.616  0.0647 -0.0777 -0.0619
 6220SOL    HW130293   4.437   3.099  10.657 -1.8761 -0.0171  0.9831
 6220SOL    HW230294   4.494   3.188  10.558 -1.0489  1.3373 -1.4260
 6221SOL     OW30295   4.027   0.303   0.465  0.1514  0.0721  0.5417
 6221SOL    HW130296   4.098   0.333   0.408  0.1093  0.1836  0.5494
 6221SOL    HW230297   4.043   0.353   0.544  1.2085  1.9305 -0.8585
 6222SOL     OW30298   0.531   2.332   4.069 -0.1085  0.7806  0.2283
 6222SOL    HW130299   0.600   2.361   4.009 -1.4180  1.5590 -0.8957
 6222SOL    HW230300   0.488   2.417   4.061  0.5400  1.0413 -0.4538
 6223SOL     OW30301   2.110   0.806   2.883  0.3300 -0.1449 -0.2247
 6223SOL    HW130302   2.068   0.891   2.887  1.2456  0.2895  0.3387
 6223SOL    HW230303   2.033   0.749   2.878  0.6684 -0.8642  2.6032
 6224SOL     OW30304   0.842   2.081   5.566 -0.5193  0.7781 -0.4037
 6224SOL    HW130305   0.833   2.162   5.515  0.7472  0.2703 -1.4231
 6224SOL    HW230306   0.840   2.013   5.499  1.4450 -0.5077  0.8654
 6225SOL     OW30307   0.761   3.083   9.001  0.6934 -0.1036 -0.2070
 6225SOL    HW130308   0.769   3.026   9.077 -0.8837  1.1286  0.8772
 6225SOL    HW230309   0.843   3.129   8.987  0.0933  0.5837 -1.5010
 6226SOL     OW30310   1.392   0.532   8.729 -0.5989  0.1009  0.0342
 6226SOL    HW130311   1.356   0.500   8.812 -1.5774  0.5071 -0.2290
 6226SOL    HW230312   1.467   0.474   8.720  0.5975  1.6634 -0.1272
 6227SOL     OW30313   2.955   0.650   5.163  0.1508 -0.3344  0.3201
 6227SOL    HW130314   2.936   0.688   5.078  2.4202 -1.9250 -0.9162
 6227SOL    HW230315   2.951   0.555   5.151 -0.4162 -0.0087 -1.9318
 6228SOL     OW30316   2.811   2.918   7.484 -0.1077  0.3155 -0.2962
 6228SOL    HW130317   2.739   2.971   7.518  1.5688  1.5746  1.3101
 6228SOL    HW230318   2.767   2.860   7.422  0.2035  0.1051 -0.3221
 6229SOL     OW30319   0.121   2.358  12.363  0.0083 -0.0981  0.5033
 6229SOL    HW130320   0.100   2.438  12.314 -1.6369 -0.9896 -0.2699
 6229SOL    HW230321   0.127   2.289  12.297 -0.1797  0.4742 -0.1140
 6230SOL     OW30322   1.363   1.229   8.989  0.6492 -0.2352  0.0532
 6230SOL    HW130323   1.345   1.158   9.050  0.7032 -0.3653 -0.0810
 6230SOL    HW230324   1.300   1.208   8.919  0.7739 -0.7261  0.0855
 6231SOL     OW30325   3.383   2.425   6.054 -0.0918  0.2647 -0.0031
 6231SOL    HW130326   3.340   2.503   6.089 -0.6177 -0.0603  0.0674
 6231SOL    HW230327   3.416   2.380   6.132  0.6180 -0.8013 -0.9205
 6232SOL     OW30328   1.098   2.417  11.641 -0.0202  1.0970 -0.0543
 6232SOL    HW130329   1.136   2.486  11.695  2.3229 -0.0540 -0.2582
 6232SOL    HW230330   1.063   2.464  11.565  0.0117  0.9128 -0.1852
 6233SOL     OW30331   2.996   3.446  10.943  0.3772 -0.4490  0.2328
 6233SOL    HW130332   3.026   3.364  10.903 -3.5620 -1.7111 -0.1329
 6233SOL    HW230333   3.028   3.433  11.032  1.8063  0.3538 -0.1772
 6234SOL     OW30334   2.462   2.025   1.685 -0.2707  0.7459  0.2278
 6234SOL    HW130335   2.379   2.055   1.721 -0.9444  0.3013 -0.9650
 6234SOL    HW230336   2.439   2.001   1.595  3.3219 -1.4702 -0.1313
 6235SOL     OW30337   4.636   4.293   1.443  0.1964 -0.2508 -0.5182
 6235SOL    HW130338   4.688   4.231   1.495  0.8243 -0.7781 -1.7650
 6235SOL    HW230339   4.582   4.332   1.511 -1.0554  1.1559 -2.3295
 6236SOL     OW30340   3.041   2.266  15.511  0.2890 -0.4439 -0.7331
 6236SOL    HW130341   2.958   2.292  15.472 -1.1908 -0.4099  2.4466
 6236SOL    HW230342   3.077   2.347  15.548 -0.4396  0.4233 -1.9622
 6237SOL     OW30343   4.625   2.550  16.829  0.0354 -0.4431  0.4211
 6237SOL    HW130344   4.687   2.484  16.862 -1.2507 -1.7380  0.2320
 6237SOL    HW230345   4.557   2.545  16.896  1.5216 -1.7189  1.8411
 6238SOL     OW30346   1.435   0.756  10.293  0.0294  0.6053  0.3216
 6238SOL    HW130347   1.349   0.726  10.321  0.4652 -0.2414  0.7288
 6238SOL    HW230348   1.480   0.679  10.261 -1.7417 -0.7664  1.1217
 6239SOL     OW30349   2.474   4.265   9.419 -0.3669 -0.1846  0.5961
 6239SOL    HW130350   2.551   4.317   9.396 -0.6296 -0.9940 -2.0423
 6239SOL    HW230351   2.403   4.275   9.356  0.0694 -0.9183 -0.0087
 6240SOL     OW30352   3.048   1.490   9.084  0.0285  0.2498  0.0014
 6240SOL    HW130353   3.135   1.450   9.086  0.3455  0.9115 -0.4381
 6240SOL    HW230354   3.013   1.452   9.004 -0.6273 -0.1403  0.4754
 6241SOL     OW30355   1.283   3.289   9.711  0.2730 -0.3808  0.4827
 6241SOL    HW130356   1.339   3.242   9.649 -3.6459 -1.5376 -2.1664
 6241SOL    HW230357   1.325   3.258   9.792 -0.7943  0.2699  1.2738
 6242SOL     OW30358   0.303   4.093   2.572 -0.3683  0.4872 -0.4748
 6242SOL    HW130359   0.268   4.152   2.639  0.4357  1.0231 -0.5169
 6242SOL    HW230360   0.223   4.081   2.521 -0.0864  1.7175 -1.2049
 6243SOL     OW30361   3.582   2.318   1.819  0.3292 -0.4944  0.2847
 6243SOL    HW130362   3.673   2.340   1.841 -0.2273  2.8142 -0.6843
 6243SOL    HW230363   3.590   2.313   1.724  0.3300  1.7759  0.1698
 6244SOL     OW30364   1.562   2.075  10.980  0.0874  0.2158  0.2177
 6244SOL    HW130365   1.505   2.005  10.950  1.2648 -0.5244 -0.2835
 6244SOL    HW230366   1.642   2.063  10.929 -0.0617 -1.9950  0.5101
 6245SOL     OW30367   0.196   4.043  17.335  0.4338  0.4623  0.0683
 6245SOL    HW130368   0.174   3.963  17.287  1.5785 -0.1495  0.5493
 6245SOL    HW230369   0.262   4.006  17.394 -0.5695  1.4502  1.7886
 6246SOL     OW30370   1.785   0.759   9.221  0.2858 -0.2292  0.5122
 6246SOL    HW130371   1.784   0.697   9.294 -0.4846 -1.2772 -0.3911
 6246SOL    HW230372   1.714   0.719   9.170  3.0272 -2.5877 -1.4626
 6247SOL     OW30373   2.329   3.629   9.257  0.7523  0.0844 -1.1439
 6247SOL    HW130374   2.311   3.539   9.283 -0.1500  0.6274  0.0821
 6247SOL    HW230375   2.238   3.647   9.231  0.6350  1.1272  0.0180
 6248SOL     OW30376   0.963   2.756   4.670  0.2728  0.6144 -0.3880
 6248SOL    HW130377   1.039   2.699   4.682 -0.9218 -0.7766  0.5281
 6248SOL    HW230378   0.887   2.698   4.672  0.4388  0.3366 -2.1150
 6249SOL     OW30379   1.298   1.059   1.666  0.3378 -0.3457  0.0262
 6249SOL    HW130380   1.299   0.986   1.727 -2.6630 -0.0175  0.5016
 6249SOL    HW230381   1.365   1.032   1.603  0.2056 -0.9240  0.1336
 6250SOL     OW30382   4.699   1.824  13.300 -0.6493 -0.6059  0.4024
 6250SOL    HW130383   4.649   1.743  13.310  0.2172 -0.9609  1.8175
 6250SOL    HW230384   0.028   1.823  13.373 -1.5119  2.8304  1.1630
 6251SOL     OW30385   0.296   4.294   6.985  0.2196  0.0819 -0.1921
 6251SOL    HW130386   0.288   4.216   7.039  0.2419 -0.7113 -1.3322
 6251SOL    HW230387   0.206   4.318   6.966 -0.4024 -0.8350  1.6580
 6252SOL     OW30388   2.354   3.500   3.615  0.2637 -0.0242  0.2088
 6252SOL    HW130389   2.389   3.430   3.670  0.6226  0.7846  1.0082
 6252SOL    HW230390   2.409   3.577   3.629 -0.7899 -0.0471  4.4052
 6253SOL     OW30391   2.485   2.518   3.024  0.3925  0.5277  0.4422
 6253SOL    HW130392   2.435   2.556   2.951  1.1660 -1.2820 -1.0528
 6253SOL    HW230393   2.543   2.592   3.042 -1.4351  1.4853  2.4004
 6254SOL     OW30394   2.739   4.084  11.252 -0.1989 -0.4068  0.0208
 6254SOL    HW130395   2.649   4.083  11.285 -0.8244 -0.5774 -1.7041
 6254SOL    HW230396   2.800   4.110  11.321 -0.1655 -1.0844  0.2505
 6255SOL     OW30397   4.132   4.384  17.074  0.9401 -0.6157  0.0147
 6255SOL    HW130398   4.039   4.395  17.052  0.9785  0.6684  0.4582
 6255SOL    HW230399   4.154   4.318  17.008  2.0334  0.0119 -0.2479
 6256SOL     OW30400   3.202   2.558   7.893  0.0526  0.2242  0.2503
 6256SOL    HW130401   3.273   2.578   7.954  1.1292  0.0543 -0.9315
 6256SOL    HW230402   3.139   2.626   7.916 -0.8700 -0.5359 -0.0250
 6257SOL     OW30403   4.536   1.603   5.737  0.1562  0.0733 -0.5675
 6257SOL    HW130404   4.470   1.541   5.708 -0.4672  1.8733 -2.9450
 6257SOL    HW230405   4.591   1.620   5.661  2.0888 -1.9755  0.3840
 6258SOL     OW30406   0.427   0.991   8.987  0.0607 -0.2100 -0.5922
 6258SOL    HW130407   0.375   0.942   8.924 -0.2602  0.1552 -0.6071
 6258SOL    HW230408   0.445   1.066   8.931  3.0566  0.3424  1.0683
 6259SOL     OW30409   3.237   3.648   8.123 -0.0852 -0.1526  0.2490
 6259SOL    HW130410   3.151   3.675   8.155 -0.3687 -1.8475  0.9102
 6259SOL    HW230411   3.288   3.726   8.102 -0.3332 -0.2017 -0.5296
 6260SOL     OW30412   0.547   3.977   4.136 -0.6014 -0.3852  0.5131
 6260SOL    HW130413   0.613   3.912   4.157 -1.0944 -1.0672 -0.0527
 6260SOL    HW230414   0.483   3.979   4.208 -1.7618 -2.3624 -0.4447
 6261SOL     OW30415   0.714   3.193   0.913  0.0689 -0.8357  0.6647
 6261SOL    HW130416   0.630   3.238   0.907 -0.1880 -1.3061  0.6663
 6261SOL    HW230417   0.702   3.173   1.006 -0.2039 -0.5611  0.6891
 6262SOL     OW30418   3.235   2.538  16.490  0.1514 -0.6482 -0.1517
 6262SOL    HW130419   3.155   2.583  16.517  0.5812  1.1686 -1.9379
 6262SOL    HW230420   3.245   2.476  16.563  0.2952 -1.0094 -0.4765
 6263SOL     OW30421   2.939   3.021   4.311 -0.3717 -0.3119  0.0227
 6263SOL    HW130422   3.028   2.988   4.324  1.2866  3.4344 -2.0972
 6263SOL    HW230423   2.885   2.961   4.364  0.1070  0.2372  1.1397
 6264SOL     OW30424   1.663   3.019   8.886  0.2443 -0.3382  0.0439
 6264SOL    HW130425   1.634   2.949   8.827 -2.6009  0.2405  0.7630
 6264SOL    HW230426   1.695   2.973   8.964 -0.2553 -0.7953 -0.0148
 6265SOL     OW30427   0.048   3.279   7.750  0.4389  0.2107  0.7618
 6265SOL    HW130428   0.006   3.303   7.833  0.7281  1.4021  0.5650
 6265SOL    HW230429   4.723   3.218   7.706  2.6194 -1.2685 -0.1044
 6266SOL     OW30430   3.399   1.789  13.718 -0.5043  0.9616 -0.4188
 6266SOL    HW130431   3.435   1.865  13.764 -0.7774  0.2663  0.9724
 6266SOL    HW230432   3.429   1.812  13.630 -0.5318  0.2113 -0.6248
 6267SOL     OW30433   1.793   1.258   7.936 -0.2102 -0.3329 -0.3224
 6267SOL    HW130434   1.718   1.215   7.896  0.4123 -0.8290 -0.9563
 6267SOL    HW230435   1.799   1.204   8.014  1.1082  2.1790  1.3234
 6268SOL     OW30436   1.532   3.001   7.216  0.2613 -0.4171 -0.1236
 6268SOL    HW130437   1.505   2.966   7.131  1.2568  1.1046 -1.0540
 6268SOL    HW230438   1.487   3.085   7.208  0.3980 -0.2191  1.2873
 6269SOL     OW30439   3.313   3.280  11.086 -0.4393 -0.1264  0.1745
 6269SOL    HW130440   3.380   3.217  11.114  0.6693  1.9966  2.4108
 6269SOL    HW230441   3.354   3.367  11.085 -1.8401  0.5217 -0.5203
 6270SOL     OW30442   0.122   0.727   2.155  0.0672  0.3587  0.0673
 6270SOL    HW130443   0.216   0.719   2.140 -0.5345 -2.6895 -2.0382
 6270SOL    HW230444   0.095   0.641   2.125 -1.7684  1.2967 -0.9438
 6271SOL     OW30445   3.208   4.142   2.081  0.5037 -0.0270  0.4960
 6271SOL    HW130446   3.160   4.063   2.061  2.2601 -1.2029  0.8795
 6271SOL    HW230447   3.282   4.124   2.023 -0.6255 -0.1827 -0.8997
 6272SOL     OW30448   2.785   3.441   8.708  0.5318  0.1803  0.0495
 6272SOL    HW130449   2.825   3.526   8.726 -1.1310  1.0716 -0.4770
 6272SOL    HW230450   2.714   3.441   8.773  1.4196 -1.4734  1.0204
 6273SOL     OW30451   3.963   0.475   6.329  0.0234 -0.3940 -0.8708
 6273SOL    HW130452   3.883   0.518   6.359  1.7208  1.2032  1.4432
 6273SOL    HW230453   3.993   0.515   6.247  0.0855  0.1459 -0.5865
 6274SOL     OW30454   0.508   1.868  10.995 -0.4928  0.0667 -0.6668
 6274SOL    HW130455   0.557   1.950  10.994 -0.2142 -0.0589  1.0392
 6274SOL    HW230456   0.456   1.870  11.076  0.8178  0.1949  0.1826
 6275SOL     OW30457   0.234   3.039  14.324 -0.2611 -0.0931 -0.0728
 6275SOL    HW130458   0.193   2.953  14.330  1.3272 -0.8016  0.6209
 6275SOL    HW230459   0.267   3.024  14.235  1.0516 -1.3762  0.6279
 6276SOL     OW30460   4.321   0.762  11.611  0.6102  0.2933 -0.3850
 6276SOL    HW130461   4.292   0.671  11.619 -0.1506  0.4818 -0.9841
 6276SOL    HW230462   4.245   0.793  11.563 -0.7665  0.0474  1.6357
 6277SOL     OW30463   1.081   1.109   8.486  0.0423  0.2758 -0.2515
 6277SOL    HW130464   1.094   1.037   8.425  2.1111 -1.8220  2.6647
 6277SOL    HW230465   0.987   1.127   8.478 -0.0674 -0.8495 -1.4488
 6278SOL     OW30466   0.414   1.818  11.959 -0.2240  0.5218 -0.3929
 6278SOL    HW130467   0.481   1.826  11.891  0.5687  1.2131  0.4731
 6278SOL    HW230468   0.343   1.788  11.902 -0.7398  1.0748 -0.0532
 6279SOL     OW30469   3.380   1.405   2.296  0.2865  0.8536  0.6195
 6279SOL    HW130470   3.416   1.351   2.367  1.8024 -0.8162 -1.4131
 6279SOL    HW230471   3.297   1.358   2.292  0.6892  0.1314  0.7691
 6280SOL     OW30472   1.400   2.662   3.496  0.2706 -0.6856 -0.3519
 6280SOL    HW130473   1.403   2.726   3.425  0.9056 -0.1125  0.1967
 6280SOL    HW230474   1.443   2.593   3.445  1.0519 -3.0366  3.4585
 6281SOL     OW30475   1.200   1.159   6.056 -0.1159 -0.1495  0.3671
 6281SOL    HW130476   1.283   1.164   6.103 -1.7781 -2.7565  3.5317
 6281SOL    HW230477   1.205   1.069   6.025 -2.2655 -0.2602  0.3584
 6282SOL     OW30478   3.028   0.932  12.660 -0.2995  0.0368  0.1799
 6282SOL    HW130479   2.934   0.918  12.675 -0.8311  2.4119 -0.9138
 6282SOL    HW230480   3.013   1.027  12.667 -0.6631  0.1379 -2.1749
 6283SOL     OW30481   4.397   2.548  10.204 -0.5163  0.4619  0.3213
 6283SOL    HW130482   4.382   2.636  10.239  0.0542  1.0963 -1.0663
 6283SOL    HW230483   4.426   2.580  10.119  0.8092 -0.4036  0.4489
 6284SOL     OW30484   0.332   1.842   3.981  0.3565  0.5020 -0.3278
 6284SOL    HW130485   0.393   1.799   3.920  1.7276 -0.7093  1.9139
 6284SOL    HW230486   0.397   1.905   4.013 -0.3288  0.8978  0.2635
 6285SOL     OW30487   2.861   0.547   3.870  0.5192  0.3768  0.0455
 6285SOL    HW130488   2.849   0.641   3.884  0.4219  0.2952  0.5073
 6285SOL    HW230489   2.866   0.539   3.775  1.6202  1.1382  0.0381
 6286SOL     OW30490   0.733   0.148   8.317 -0.5846  0.6281  0.3669
 6286SOL    HW130491   0.645   0.116   8.339  0.3159 -0.8454  1.8010
 6286SOL    HW230492   0.701   0.228   8.276  0.5810  0.2570 -1.2562
 6287SOL     OW30493   1.116   3.724  11.498 -0.1653  0.2006  0.2691
 6287SOL    HW130494   1.031   3.733  11.455 -0.5326 -1.1290  0.7285
 6287SOL    HW230495   1.178   3.745  11.428  1.0272  1.2581  1.6458
 6288SOL     OW30496   3.040   1.393   7.847  0.7209 -0.0602 -0.1575
 6288SOL    HW130497   3.033   1.444   7.766  0.1411 -1.0059 -0.6980
 6288SOL    HW230498   2.951   1.401   7.880  0.3477  0.7567 -1.3298
 6289SOL     OW30499   4.058   0.359   3.394  0.0441 -0.1630 -0.2755
 6289SOL    HW130500   4.053   0.335   3.302  1.8439  1.7012 -0.8571
 6289SOL    HW230501   4.145   0.399   3.386  1.5704 -3.1680  1.2320
 6290SOL     OW30502   1.831   0.980   0.449  0.3430  0.6040  0.2195
 6290SOL    HW130503   1.771   1.055   0.445  0.9433  1.0902  0.3709
 6290SOL    HW230504   1.836   0.960   0.355 -0.7386  1.3811 -0.0041
 6291SOL     OW30505   0.793   3.329   2.096 -0.2901 -0.3250 -0.4766
 6291SOL    HW130506   0.752   3.278   2.026 -0.4744  0.8406 -1.2083
 6291SOL    HW230507   0.887   3.312   2.086 -0.2351 -0.6002  0.4988
 6292SOL     OW30508   1.956   3.699   7.682  0.8122  0.5215 -0.2070
 6292SOL    HW130509   1.919   3.614   7.707 -2.0700  2.2260  1.2668
 6292SOL    HW230510   2.002   3.724   7.762  0.7557  3.0420 -0.9701
 6293SOL     OW30511   3.747   0.177  11.741  0.2284 -0.0491  0.4381
 6293SOL    HW130512   3.780   0.132  11.818 -1.2629 -2.0518 -0.0700
 6293SOL    HW230513   3.667   0.130  11.715 -0.4669  0.4141  1.7493
 6294SOL     OW30514   3.319   1.464   0.112  0.5954 -0.0219  0.2815
 6294SOL    HW130515   3.378   1.462   0.187  1.5335 -2.1038 -0.5320
 6294SOL    HW230516   3.381   1.484   0.042 -3.0797  0.6528 -2.8090
 6295SOL     OW30517   3.317   1.927   7.021 -0.4191  0.6770  0.2111
 6295SOL    HW130518   3.364   1.975   6.953 -0.6549 -1.0014 -1.1164
 6295SOL    HW230519   3.234   1.897   6.984  1.0605 -2.2014 -0.7525
 6296SOL     OW30520   2.599   3.346   2.786  0.6217 -0.1331 -0.0758
 6296SOL    HW130521   2.652   3.343   2.866  0.5088  0.8281  0.0238
 6296SOL    HW230522   2.635   3.272   2.736  0.9721 -0.7621  1.1111
 6297SOL     OW30523   0.155   4.499  17.291 -0.6914 -0.2095  0.2424
 6297SOL    HW130524   0.145   4.516  17.384 -1.2274 -1.2234  0.3742
 6297SOL    HW230525   0.201   4.578  17.261  2.7078 -0.8184  3.8965
 6298SOL     OW30526   0.099   1.462   0.006  0.2350  0.9707  0.3886
 6298SOL    HW130527   0.027   1.407   0.036  0.3641 -0.2463 -1.4917
 6298SOL    HW230528   0.171   1.408   0.038 -0.4464 -0.2201 -0.0974
 6299SOL     OW30529   3.011   0.521   4.102  0.1238  0.0689 -0.5147
 6299SOL    HW130530   3.093   0.478   4.079 -1.0248 -1.6267 -1.4411
 6299SOL    HW230531   2.970   0.522   4.015 -1.2863 -2.1730  0.1419
 6300SOL     OW30532   1.410   1.983   5.321  0.6787  0.1589  0.3081
 6300SOL    HW130533   1.444   2.072   5.328  1.6927 -0.3040  1.0858
 6300SOL    HW230534   1.350   1.998   5.248 -1.4178 -0.4829  1.8874
 6301SOL     OW30535   0.617   1.995  14.361  0.1290 -0.2263 -0.5966
 6301SOL    HW130536   0.564   2.060  14.316  0.2997  0.9663  0.9481
 6301SOL    HW230537   0.562   1.917  14.367 -0.7536  0.4905  0.4420
 6302SOL     OW30538   1.956   0.347  10.590  0.1033  0.4603 -0.0262
 6302SOL    HW130539   2.031   0.287  10.599 -1.1659 -1.2953 -1.0962
 6302SOL    HW230540   1.898   0.311  10.656 -0.6104 -1.1684 -1.5389
 6303SOL     OW30541   0.600   0.352  13.398  0.2710 -0.4115 -0.0024
 6303SOL    HW130542   0.569   0.384  13.483  0.7694 -4.2651  1.6581
 6303SOL    HW230543   0.586   0.257  13.397  1.5871 -0.5914 -1.5530
 6304SOL     OW30544   1.646   1.599   8.511 -0.0780 -0.2762  0.4064
 6304SOL    HW130545   1.553   1.619   8.524 -0.0071  1.2522 -1.4725
 6304SOL    HW230546   1.673   1.579   8.600  1.2196  0.3762  0.1563
 6305SOL     OW30547   2.832   0.271   8.141  0.3834 -0.2114  0.0283
 6305SOL    HW130548   2.842   0.261   8.235 -1.5766 -1.6170  0.0878
 6305SOL    HW230549   2.920   0.240   8.120 -0.0714 -0.7118 -1.1531
 6306SOL     OW30550   1.229   1.047   9.177 -0.2854  0.6835  0.6113
 6306SOL    HW130551   1.187   1.127   9.209 -3.0895 -0.4454 -0.2745
 6306SOL    HW230552   1.163   1.019   9.114  0.1136  2.3947 -0.5868
 6307SOL     OW30553   4.379   0.624   6.588  0.0205 -0.0367  0.5528
 6307SOL    HW130554   4.296   0.577   6.572  0.0219 -1.0173  3.2638
 6307SOL    HW230555   4.430   0.575   6.653  0.2288  0.5982  0.8647
 6308SOL     OW30556   0.160   1.675   1.033 -0.2290  0.0676  0.0612
 6308SOL    HW130557   0.146   1.615   1.106  0.8168  1.8560  1.7260
 6308SOL    HW230558   0.122   1.622   0.962 -1.1000  0.1467  0.4703
 6309SOL     OW30559   0.983   3.699  16.123  0.1302 -0.1270 -0.6167
 6309SOL    HW130560   0.924   3.628  16.144 -0.8400  0.9515  0.3270
 6309SOL    HW230561   1.072   3.666  16.141 -0.2310  0.5930  2.6276
 6310SOL     OW30562   0.973   2.814   2.562 -0.8508  0.2316 -0.1414
 6310SOL    HW130563   1.007   2.782   2.645 -0.8560 -1.5993 -0.8364
 6310SOL    HW230564   1.040   2.866   2.518  1.2441 -2.1750  0.2037
 6311SOL     OW30565   0.899   0.461   3.151 -0.1994  0.3090 -0.1189
 6311SOL    HW130566   0.897   0.367   3.134 -0.8894  0.4470 -0.8099
 6311SOL    HW230567   0.874   0.496   3.065  1.0898  1.0958 -0.1698
 6312SOL     OW30568   0.386   3.702   4.885  0.3850  0.0842 -0.3133
 6312SOL    HW130569   0.460   3.670   4.937 -0.3751 -0.6530  0.3072
 6312SOL    HW230570   0.406   3.676   4.795  0.4438  0.4184 -0.3971
 6313SOL     OW30571   0.381   2.508  17.405  0.0584 -0.9161 -0.5373
 6313SOL    HW130572   0.313   2.460  17.358  0.0337 -0.8906 -0.5278
 6313SOL    HW230573   0.395   2.573  17.337  2.4670  0.9437  1.7179
 6314SOL     OW30574   2.142   2.433   0.846 -0.2721  0.0283  0.1227
 6314SOL    HW130575   2.235   2.412   0.852  0.6229  3.5399 -1.2444
 6314SOL    HW230576   2.104   2.366   0.902  2.2550 -0.9530  0.6193
 6315SOL     OW30577   1.021   1.823   5.121 -0.3408 -0.1931  0.3822
 6315SOL    HW130578   1.005   1.898   5.065  3.2129 -0.9234 -1.5829
 6315SOL    HW230579   1.103   1.838   5.167 -0.8202 -1.3646  1.6382
 6316SOL     OW30580   1.134   2.014  13.251  0.5222  0.5775 -0.2262
 6316SOL    HW130581   1.226   2.019  13.277  0.4774  1.8557 -0.3034
 6316SOL    HW230582   1.154   2.034  13.160  0.4173 -0.4162 -0.4745
 6317SOL     OW30583   0.635   2.333  12.745  0.1286 -0.5885  0.1492
 6317SOL    HW130584   0.700   2.263  12.755 -0.3328 -0.9380  0.7166
 6317SOL    HW230585   0.662   2.361  12.658 -1.4124 -1.6566 -0.6892
 6318SOL     OW30586   2.354   2.519   2.359 -0.5756  0.2351  0.3831
 6318SOL    HW130587   2.447   2.523   2.337 -0.5539  3.0012  0.9033
 6318SOL    HW230588   2.334   2.610   2.382  2.9752  1.0409  0.3198
 6319SOL     OW30589   1.580   4.707   8.156  0.3232  0.2565 -0.0986
 6319SOL    HW130590   1.597   4.694   8.063  3.0237 -0.4209  0.4687
 6319SOL    HW230591   1.640   0.045   8.176  0.3688 -0.2384  1.5663
 6320SOL     OW30592   3.109   3.013  13.120  0.3650  0.9541 -0.3570
 6320SOL    HW130593   3.111   3.083  13.055 -2.0871 -1.6873 -3.3005
 6320SOL    HW230594   3.014   3.004  13.126  0.4255  0.9074  0.5960
 6321SOL     OW30595   1.854   3.897   2.891  0.3156 -0.1492  0.0046
 6321SOL    HW130596   1.830   3.955   2.963  3.1153  0.1119  0.7209
 6321SOL    HW230597   1.904   3.961   2.840 -0.1986  0.9441  0.8734
 6322SOL     OW30598   2.800   1.878   3.542  0.2619 -0.6824  0.0337
 6322SOL    HW130599   2.789   1.961   3.588  0.7273 -0.7544  0.2720
 6322SOL    HW230600   2.736   1.899   3.474  0.0587  1.4492  0.8850
 6323SOL     OW30601   0.273   2.668  14.232 -0.1012  0.2196 -0.1875
 6323SOL    HW130602   0.192   2.712  14.257  1.3627  2.6188  0.3774
 6323SOL    HW230603   0.245   2.586  14.193  0.9734 -0.2950  0.1268
 6324SOL     OW30604   0.379   2.733  11.207  0.7238 -0.3004 -0.1760
 6324SOL    HW130605   0.402   2.641  11.215  0.8335 -0.3571 -1.1445
 6324SOL    HW230606   0.325   2.747  11.285 -1.3447  0.8019 -1.8043
 6325SOL     OW30607   2.144   4.553   4.404  0.1492  0.1161 -0.5225
 6325SOL    HW130608   2.237   4.545   4.382  0.3098  3.2210 -0.9895
 6325SOL    HW230609   2.140   4.483   4.468  0.6023  0.8396  0.2922
 6326SOL     OW30610   1.209   0.080   4.020 -0.1962 -0.7788  0.3157
 6326SOL    HW130611   1.155   0.046   3.948 -0.0300  1.9424 -1.1038
 6326SOL    HW230612   1.295   0.053   3.988 -1.1766 -1.8006 -1.4974
 6327SOL     OW30613   0.802   4.713   6.144  0.0835 -0.0078  0.0033
 6327SOL    HW130614   0.834   0.065   6.119  1.2299 -0.8392 -1.3933
 6327SOL    HW230615   0.844   4.706   6.230  1.1594  0.0424 -0.5113
 6328SOL     OW30616   0.443   0.955  10.739  0.3894  0.0741 -0.2797
 6328SOL    HW130617   0.362   0.915  10.770  1.0532  1.1137  2.6941
 6328SOL    HW230618   0.425   1.049  10.739 -3.6303 -0.6716 -3.5969
 6329SOL     OW30619   4.710   0.757  12.705 -0.2539 -0.1517  1.0262
 6329SOL    HW130620   4.633   0.803  12.738  0.1179 -0.0371  1.7367
 6329SOL    HW230621   4.673   0.673  12.680  2.0892  0.1015 -3.2428
 6330SOL     OW30622   1.104   1.721   3.935  0.0290 -0.1077  0.2912
 6330SOL    HW130623   1.191   1.687   3.959 -0.2424 -0.7483  0.3652
 6330SOL    HW230624   1.094   1.788   4.004  1.5150  0.6674 -0.2405
 6331SOL     OW30625   2.137   3.973   3.385  0.4805 -0.6336  0.1108
 6331SOL    HW130626   2.183   3.891   3.364  0.2539 -0.7317 -0.0017
 6331SOL    HW230627   2.163   4.031   3.313  1.2009 -2.3403 -1.0181
 6332SOL     OW30628   2.796   1.066   3.801  0.0331 -0.0863  0.0160
 6332SOL    HW130629   2.729   1.128   3.829 -0.3090 -0.0991 -0.7601
 6332SOL    HW230630   2.778   1.055   3.707 -0.8921 -0.1020  0.1975
 6333SOL     OW30631   3.830   1.549   0.112 -0.2849 -0.0071  0.4838
 6333SOL    HW130632   3.806   1.496   0.188  0.6099 -1.8744 -0.5074
 6333SOL    HW230633   3.875   1.488   0.053  1.9795  1.5835  0.5667
 6334SOL     OW30634   3.994   2.125   7.906  0.0422 -0.1387 -0.4750
 6334SOL    HW130635   3.922   2.068   7.878  0.4212 -0.1026 -1.4814
 6334SOL    HW230636   3.970   2.214   7.881 -2.9977 -0.8805 -0.1906
 6335SOL     OW30637   3.948   3.699   7.040 -0.6807 -0.3200  0.2195
 6335SOL    HW130638   3.963   3.621   7.095 -0.0938  0.3282  0.9746
 6335SOL    HW230639   4.023   3.749   7.070  1.1627 -3.1550  0.3811
 6336SOL     OW30640   2.520   3.505   0.256 -0.7186 -0.3101  0.0537
 6336SOL    HW130641   2.501   3.441   0.188 -0.7726 -0.5114  0.2592
 6336SOL    HW230642   2.516   3.581   0.198 -0.1398 -0.4462 -0.1611
 6337SOL     OW30643   3.268   2.144   7.845 -0.0056 -0.3806  0.6604
 6337SOL    HW130644   3.224   2.229   7.841  0.6035 -0.1364 -0.7130
 6337SOL    HW230645   3.323   2.145   7.767 -0.9792  0.0515 -0.0219
 6338SOL     OW30646   4.382   2.644   4.646 -0.2893 -0.1094  0.1708
 6338SOL    HW130647   4.346   2.556   4.659  0.1242 -0.4447 -0.9619
 6338SOL    HW230648   4.416   2.649   4.735  2.1648 -0.8626 -0.7216
 6339SOL     OW30649   1.826   4.574   8.603  0.1391  0.7039 -0.1565
 6339SOL    HW130650   1.770   4.648   8.580 -2.2063 -1.0322 -0.1430
 6339SOL    HW230651   1.821   4.527   8.519  0.3600 -0.2053  0.3410
 6340SOL     OW30652   3.422   0.473  16.074 -0.4946 -0.0792  0.4679
 6340SOL    HW130653   3.417   0.416  16.151  2.7765  0.6550  1.1848
 6340SOL    HW230654   3.342   0.522  16.096 -0.4574 -0.0360  0.5067
 6341SOL     OW30655   0.262   1.119   4.469 -0.4467 -0.1348 -0.2121
 6341SOL    HW130656   0.253   1.197   4.414 -0.2613  0.0516  0.0238
 6341SOL    HW230657   0.299   1.167   4.543 -2.1347  0.0739  0.4739
 6342SOL     OW30658   3.218   3.644   4.572 -0.0884  0.5412  0.3427
 6342SOL    HW130659   3.197   3.737   4.568 -0.7868  0.2736 -2.3448
 6342SOL    HW230660   3.260   3.641   4.658  1.4714 -0.3222 -0.4564
 6343SOL     OW30661   0.601   3.386   5.357  0.2260 -0.6125 -0.2250
 6343SOL    HW130662   0.635   3.400   5.269 -1.0689 -0.1936 -0.6693
 6343SOL    HW230663   0.625   3.295   5.377  0.8876 -0.4546 -0.3326
 6344SOL     OW30664   0.287   2.994  14.060 -0.1478 -0.1741  0.3364
 6344SOL    HW130665   0.305   3.029  13.973  1.3319  0.8538  1.0641
 6344SOL    HW230666   0.204   2.949  14.042  0.6745 -0.9010 -1.6292
 6345SOL     OW30667   2.616   0.313  14.738 -0.2559 -0.0694  0.3131
 6345SOL    HW130668   2.590   0.401  14.762 -0.5695  0.8442 -3.3806
 6345SOL    HW230669   2.711   0.317  14.749 -0.4024  2.0340  0.7530
 6346SOL     OW30670   1.985   3.498   6.862  0.1322  0.5843  0.4456
 6346SOL    HW130671   2.013   3.578   6.907 -0.1433  0.0844  1.5203
 6346SOL    HW230672   1.919   3.529   6.800 -1.0880 -2.3061  0.2647
 6347SOL     OW30673   4.585   1.497   4.634 -0.4019 -0.2137 -0.3425
 6347SOL    HW130674   4.537   1.494   4.552  0.6371  0.2771 -0.9680
 6347SOL    HW230675   4.655   1.437   4.607 -0.7930 -0.5415 -0.6129
 6348SOL     OW30676   0.446   3.621  16.885 -0.1363 -0.3471  0.3739
 6348SOL    HW130677   0.409   3.639  16.798 -3.4393 -2.0965  1.4141
 6348SOL    HW230678   0.520   3.567  16.854  0.5972  2.1453 -2.2440
 6349SOL     OW30679   2.073   2.588   8.380 -0.3048  0.0719  0.3819
 6349SOL    HW130680   2.083   2.519   8.446  1.1455 -0.3351 -0.2461
 6349SOL    HW230681   2.050   2.531   8.306  0.0986 -1.8847  1.7480
 6350SOL     OW30682   2.342   4.501   8.053 -0.3886  0.4147 -0.0991
 6350SOL    HW130683   2.325   4.444   8.128  0.6428  0.8031  0.4261
 6350SOL    HW230684   2.437   4.498   8.049 -0.4742 -1.0468 -0.7924
 6351SOL     OW30685   4.407   2.369  14.163  0.6259  0.4755 -0.3322
 6351SOL    HW130686   4.468   2.356  14.091  1.1255  0.2139  0.1415
 6351SOL    HW230687   4.350   2.429  14.115  0.2374 -0.1707 -0.6907
 6352SOL     OW30688   0.198   1.887   5.037  0.5111 -0.2345 -0.0895
 6352SOL    HW130689   0.163   1.833   5.108 -2.2486  0.3610 -0.9751
 6352SOL    HW230690   0.233   1.965   5.081  0.4669  0.2501 -0.9235
 6353SOL     OW30691   0.516   0.776   6.566 -0.3805  0.5872 -0.1663
 6353SOL    HW130692   0.425   0.794   6.546 -1.0088 -0.0451  2.1046
 6353SOL    HW230693   0.542   0.845   6.627  0.3814  0.4756 -0.3544
 6354SOL     OW30694   0.024   2.851   7.577 -0.2467  0.2892  0.0090
 6354SOL    HW130695   0.080   2.797   7.522 -1.0747 -0.5786  0.0137
 6354SOL    HW230696   0.043   2.814   7.663  1.4144  1.1038 -0.0051
 6355SOL     OW30697   1.764   0.662   8.570 -0.4750  0.5979  0.9251
 6355SOL    HW130698   1.811   0.610   8.636 -0.0009  1.2804  1.1256
 6355SOL    HW230699   1.742   0.739   8.622  1.9380  0.9738  1.4253
 6356SOL     OW30700   3.897   1.869   4.660  0.1361 -0.0302 -0.0301
 6356SOL    HW130701   3.955   1.865   4.584  1.4662  0.0378  0.9848
 6356SOL    HW230702   3.854   1.783   4.665  0.3830 -0.1568 -0.0840
 6357SOL     OW30703   4.707   4.322   8.055  0.8270  0.1641  0.2654
 6357SOL    HW130704   4.661   4.238   8.066  0.2597  0.1344 -2.3620
 6357SOL    HW230705   0.033   4.292   7.987  1.4982  0.2522  0.8188
 6358SOL     OW30706   1.527   0.269   5.200  0.1345 -0.0186 -0.4795
 6358SOL    HW130707   1.557   0.325   5.272  0.6622 -1.4684  0.4332
 6358SOL    HW230708   1.432   0.278   5.204  0.1187 -0.2724 -0.2647
 6359SOL     OW30709   2.846   4.166   3.917  0.3076 -0.2187  0.0969
 6359SOL    HW130710   2.902   4.109   3.970  1.9485  0.6297 -0.7272
 6359SOL    HW230711   2.773   4.189   3.974  0.4421 -0.8244  0.5174
 6360SOL     OW30712   3.165   2.667   6.562 -0.0768  0.6447  0.6283
 6360SOL    HW130713   3.132   2.669   6.652 -1.0317  0.0349  0.2881
 6360SOL    HW230714   3.258   2.685   6.577  0.5982 -2.6712  0.3898
 6361SOL     OW30715   2.312   1.733   7.648  0.1865  0.1462 -0.3596
 6361SOL    HW130716   2.372   1.806   7.665  3.2457 -2.2103 -1.0985
 6361SOL    HW230717   2.249   1.762   7.714 -1.8953 -2.5691 -1.1791
 6362SOL     OW30718   1.042   2.835  15.083 -0.6734 -0.1283 -0.5675
 6362SOL    HW130719   0.968   2.790  15.043 -0.4063 -1.8550  0.8575
 6362SOL    HW230720   1.058   2.904  15.020 -2.3984 -1.9389 -2.9842
 6363SOL     OW30721   0.377   2.521   8.881 -0.1989 -0.3018 -0.6006
 6363SOL    HW130722   0.336   2.443   8.917 -0.1985 -1.3627 -2.8978
 6363SOL    HW230723   0.471   2.506   8.870  0.2415 -0.3276  3.3638
 6364SOL     OW30724   1.537   0.142   4.544 -0.1270 -0.9061 -0.0147
 6364SOL    HW130725   1.560   0.157   4.452 -0.5927 -0.8477 -0.1216
 6364SOL    HW230726   1.617   0.104   4.580  0.0461 -1.8071 -1.3290
 6365SOL     OW30727   0.282   4.061   7.148  0.0109  0.0369  0.4787
 6365SOL    HW130728   0.233   4.080   7.228 -0.1610  1.9465 -0.0962
 6365SOL    HW230729   0.307   3.972   7.174  0.7898  0.2649  0.5006
 6366SOL     OW30730   4.624   2.339  11.389 -0.1232  0.5190  0.2940
 6366SOL    HW130731   4.712   2.302  11.377 -0.2388  0.7297 -1.2474
 6366SOL    HW230732   4.613   2.311  11.480 -0.2980 -2.5104 -0.6605
 6367SOL     OW30733   0.901   0.422  10.425 -0.6990 -0.0399 -0.1618
 6367SOL    HW130734   0.877   0.514  10.415  1.4552  0.7475  1.8831
 6367SOL    HW230735   0.931   0.399  10.337  2.1290  2.2974  0.2053
 6368SOL     OW30736   4.205   3.649   6.302  0.8352 -0.3708  0.2905
 6368SOL    HW130737   4.178   3.658   6.210  3.3450 -0.7184 -0.4930
 6368SOL    HW230738   4.225   3.736   6.338  1.3495  0.1576 -1.2493
 6369SOL     OW30739   2.886   1.243   9.280  0.1845 -0.5478 -0.1787
 6369SOL    HW130740   2.834   1.201   9.349 -1.0069  4.0524  1.7288
 6369SOL    HW230741   2.857   1.334   9.276  3.5187  0.5514  0.3334
 6370SOL     OW30742   4.689   1.239   5.726 -0.1187 -0.1415 -0.2255
 6370SOL    HW130743   4.701   1.144   5.723 -0.6996 -0.1394 -2.3398
 6370SOL    HW230744   4.643   1.257   5.807  1.7375 -0.6467  0.9569
 6371SOL     OW30745   3.321   1.287  15.952 -0.6115  0.0671  0.7154
 6371SOL    HW130746   3.349   1.360  16.007 -1.5447  0.0695  1.1823
 6371SOL    HW230747   3.275   1.239  16.021  0.3427 -2.1936 -0.2010
 6372SOL     OW30748   1.056   1.725   7.754  0.4873 -0.1510 -0.1405
 6372SOL    HW130749   0.970   1.746   7.719  0.5010 -1.8175 -1.1444
 6372SOL    HW230750   1.074   1.813   7.788  0.4299  0.5774 -2.0343
 6373SOL     OW30751   4.125   4.058  16.064  0.3083  0.1298  0.0009
 6373SOL    HW130752   4.040   4.016  16.046  0.8806 -0.9671 -0.1407
 6373SOL    HW230753   4.176   4.027  15.990 -1.3158  1.4772 -1.7075
 6374SOL     OW30754   1.281   4.586   4.573 -0.3477  0.2872 -0.6427
 6374SOL    HW130755   1.294   4.633   4.492 -0.7179 -0.9544 -1.4294
 6374SOL    HW230756   1.372   4.562   4.593 -0.5558 -0.4639 -0.5707
 6375SOL     OW30757   0.492   0.682   3.932  0.1295 -0.0979  0.1593
 6375SOL    HW130758   0.478   0.596   3.893 -2.1316  0.5447 -0.4757
 6375SOL    HW230759   0.501   0.739   3.856  0.0312  1.0731  1.0191
 6376SOL     OW30760   3.899   2.551   6.420  0.2225 -0.0139 -0.2826
 6376SOL    HW130761   3.863   2.474   6.464  0.6221  0.0162  0.0993
 6376SOL    HW230762   3.947   2.602   6.486  0.6999 -1.6391  0.6407
 6377SOL     OW30763   1.016   1.945   8.287  0.3491  0.7351 -0.5507
 6377SOL    HW130764   1.045   1.857   8.265  3.1297  0.7513  2.9811
 6377SOL    HW230765   1.073   1.960   8.362 -0.9913 -2.0616  1.0359
 6378SOL     OW30766   0.439   3.576   3.934  0.3622 -0.2603 -0.0012
 6378SOL    HW130767   0.355   3.559   3.891  0.3910  2.4972 -1.1521
 6378SOL    HW230768   0.436   3.672   3.937 -1.7401 -0.2825 -1.1173
 6379SOL     OW30769   0.143   2.650   2.580 -0.1532  0.1862 -0.0977
 6379SOL    HW130770   0.217   2.708   2.591  0.4040 -1.0066  2.4045
 6379SOL    HW230771   0.171   2.564   2.614 -0.3654  0.0477 -0.2703
 6380SOL     OW30772   3.134   1.706   8.014 -0.0296  0.1174  0.2807
 6380SOL    HW130773   3.082   1.733   7.939 -2.4754  0.8969  2.2629
 6380SOL    HW230774   3.181   1.788   8.031  1.1711 -0.4943 -0.0551
 6381SOL     OW30775   3.476   3.341   4.738 -0.2352  0.2961  0.3177
 6381SOL    HW130776   3.463   3.366   4.646 -0.8440 -0.5440  0.1732
 6381SOL    HW230777   3.460   3.247   4.739  1.0985  0.0703  0.3772
 6382SOL     OW30778   1.584   3.147   9.396 -0.6405  0.1506 -0.3959
 6382SOL    HW130779   1.624   3.188   9.319  2.0325 -0.8551  0.4291
 6382SOL    HW230780   1.618   3.207   9.463 -1.1025  0.8796 -0.8114
 6383SOL     OW30781   1.457   2.975  12.152 -0.1989 -0.2942 -0.5948
 6383SOL    HW130782   1.363   2.963  12.157 -0.0484 -1.2296 -0.0483
 6383SOL    HW230783   1.498   2.908  12.206 -0.5840 -0.5703 -0.6499
 6384SOL     OW30784   3.040   2.760   8.532 -0.1480  0.2337  0.2260
 6384SOL    HW130785   2.945   2.749   8.540  0.2226 -2.5603  0.7868
 6384SOL    HW230786   3.065   2.709   8.610  1.4566  0.2557 -0.2818
 6385SOL     OW30787   0.343   0.027   3.503 -0.9278 -0.1189  0.0045
 6385SOL    HW130788   0.275   4.694   3.505 -0.9138 -0.1020  1.3940
 6385SOL    HW230789   0.425   4.713   3.518 -0.6445  0.7244  1.1625
 6386SOL     OW30790   3.399   4.651   6.120 -0.1164 -0.2510 -0.0256
 6386SOL    HW130791   3.430   4.561   6.131 -1.5680 -0.6724  0.6099
 6386SOL    HW230792   3.430   4.691   6.202 -1.4794  0.5728  0.0780
 6387SOL     OW30793   1.699   1.475   3.496  0.8218 -0.3416  0.4175
 6387SOL    HW130794   1.790   1.452   3.477  1.1314  0.7950  0.5228
 6387SOL    HW230795   1.695   1.479   3.591  0.9967  0.8836  0.3705
 6388SOL     OW30796   1.812   1.923   9.472  0.0484  0.3617 -0.1797
 6388SOL    HW130797   1.855   1.843   9.440 -1.0062 -0.9474  1.6473
 6388SOL    HW230798   1.856   1.934   9.556 -2.1292 -0.2295  1.0474
 6389SOL     OW30799   0.446   1.485   2.833  0.6728  0.0399  0.5488
 6389SOL    HW130800   0.352   1.483   2.853  1.3839 -1.3253  3.8378
 6389SOL    HW230801   0.460   1.579   2.819 -0.4952  0.0713 -0.3686
 6390SOL     OW30802   2.159   2.467   2.712  0.3946  0.9992  0.0925
 6390SOL    HW130803   2.167   2.411   2.635  2.9521  2.8147 -0.9755
 6390SOL    HW230804   2.121   2.409   2.777 -1.3840  0.7161 -1.1887
 6391SOL     OW30805   0.952   0.075   6.360 -0.0488  0.3190 -0.1790
 6391SOL    HW130806   0.987   0.144   6.303  0.0832  1.2103  0.9849
 6391SOL    HW230807   0.934   0.122   6.442  1.7714 -0.6531  0.7801
 6392SOL     OW30808   2.798   1.710   9.468 -0.1439  0.2236  0.5288
 6392SOL    HW130809   2.849   1.705   9.387 -1.4945  1.7071 -0.4025
 6392SOL    HW230810   2.777   1.803   9.477  3.5628  1.2960 -1.9653
 6393SOL     OW30811   3.546   3.705   4.568  0.4703 -0.1425 -0.1162
 6393SOL    HW130812   3.574   3.658   4.489 -1.3485 -0.6125 -0.4832
 6393SOL    HW230813   3.598   3.659   4.635  0.4298  1.3341  0.9149
 6394SOL     OW30814   3.580   0.448   6.275  1.1105 -0.0734  0.0656
 6394SOL    HW130815   3.627   0.445   6.191  0.8915 -1.6073  0.0031
 6394SOL    HW230816   3.500   0.400   6.255  0.0200  0.5132  3.1222
 6395SOL     OW30817   0.172   4.250  11.312  0.1705 -0.1086  0.3993
 6395SOL    HW130818   0.176   4.217  11.402 -1.3800 -2.0891 -0.2660
 6395SOL    HW230819   0.262   4.265  11.284  1.2790  1.4598  4.6653
 6396SOL     OW30820   4.185   4.209  16.864 -0.0083  0.0088  0.5101
 6396SOL    HW130821   4.236   4.254  16.796  1.5911 -0.2155  1.5466
 6396SOL    HW230822   4.092   4.218  16.844  0.3932  0.7933 -1.0726
 6397SOL     OW30823   1.453   0.031   4.864 -0.1039 -0.4761 -0.1216
 6397SOL    HW130824   1.374   0.066   4.905 -1.1147  1.0803 -3.3641
 6397SOL    HW230825   1.444   0.056   4.772 -0.3514 -0.4713 -0.0957
 6398SOL     OW30826   0.368   3.089   2.018  0.1112  0.2692  0.0501
 6398SOL    HW130827   0.280   3.104   1.984 -0.7503  0.0338  2.2515
 6398SOL    HW230828   0.412   3.124   1.940 -0.6873 -0.2842 -0.6461
 6399SOL     OW30829   3.080   2.900   2.935  0.0527  0.1708  0.6313
 6399SOL    HW130830   2.987   2.914   2.954 -0.1925 -0.2561 -0.2545
 6399SOL    HW230831   3.090   2.944   2.850 -0.2584 -1.4824 -0.2754
 6400SOL     OW30832   4.418   1.664   4.829 -0.3372  0.3827  0.0293
 6400SOL    HW130833   4.335   1.626   4.799  0.0062 -0.7078  0.4643
 6400SOL    HW230834   4.477   1.620   4.768  0.0682  0.0375  0.6586
 6401SOL     OW30835   2.213   2.830   9.542 -0.2661 -0.0925 -0.4676
 6401SOL    HW130836   2.286   2.795   9.491 -1.1979 -1.9390 -0.5220
 6401SOL    HW230837   2.168   2.900   9.494 -1.2224 -0.6592 -0.4021
 6402SOL     OW30838   4.253   3.696  15.475  0.2769  0.0684  0.0796
 6402SOL    HW130839   4.192   3.624  15.461 -0.2995  0.3663  1.0854
 6402SOL    HW230840   4.307   3.702  15.396  0.5217 -1.5986  0.1338
 6403SOL     OW30841   3.576   0.577  15.164  0.0192 -0.2704 -0.0122
 6403SOL    HW130842   3.539   0.583  15.252 -0.8523 -0.7155 -0.3507
 6403SOL    HW230843   3.663   0.546  15.186  1.1822  1.3926 -2.2567
 6404SOL     OW30844   1.555   2.394   6.915 -0.1503 -0.0844  0.0926
 6404SOL    HW130845   1.549   2.487   6.938 -0.8333 -0.0402 -0.2607
 6404SOL    HW230846   1.566   2.403   6.821 -0.4503 -2.1814 -0.1284
 6405SOL     OW30847   0.740   0.210  10.513 -0.6510 -0.1625 -0.1606
 6405SOL    HW130848   0.811   0.274  10.514 -2.1727  1.5081  1.4217
 6405SOL    HW230849   0.738   0.194  10.419  0.3894 -0.0042 -0.2052
 6406SOL     OW30850   4.662   2.343  11.661 -1.0191 -0.5371 -0.3131
 6406SOL    HW130851   4.590   2.301  11.709  1.1396 -1.7850  1.7966
 6406SOL    HW230852   4.653   2.435  11.684  3.4331 -0.1800 -0.1563
 6407SOL     OW30853   1.556   1.735   7.613 -0.0650 -0.0173  0.2826
 6407SOL    HW130854   1.485   1.799   7.606  0.5181  0.4013 -1.7247
 6407SOL    HW230855   1.613   1.768   7.682 -0.9659  1.7952  0.1735
 6408SOL     OW30856   2.251   2.314   6.781 -0.0671 -0.1876 -0.1027
 6408SOL    HW130857   2.210   2.254   6.843 -3.0178  4.0616  2.0577
 6408SOL    HW230858   2.168   2.351   6.751 -0.4464 -0.4288  0.6650
 6409SOL     OW30859   1.843   3.368   7.740  0.3125 -0.1869  0.2160
 6409SOL    HW130860   1.773   3.309   7.711  0.3825  0.6375 -1.5613
 6409SOL    HW230861   1.805   3.398   7.823  1.7138  1.5810  0.2099
 6410SOL     OW30862   2.657   0.036   9.203 -0.4885  0.0370 -0.9140
 6410SOL    HW130863   2.719   0.078   9.261 -0.0575 -0.8495 -0.7330
 6410SOL    HW230864   2.692   0.056   9.116 -0.3977 -0.0642 -0.9010
 6411SOL     OW30865   3.878   3.903   7.996  0.3015 -0.1569  0.1309
 6411SOL    HW130866   3.909   3.917   8.085  0.5280 -1.0753  0.1914
 6411SOL    HW230867   3.938   3.835   7.965  2.1643  1.3766  0.3565
 6412SOL     OW30868   0.017   1.858   6.370  0.1896 -0.5072 -0.3713
 6412SOL    HW130869   0.074   1.914   6.318 -1.0559  0.2940 -0.8941
 6412SOL    HW230870   4.676   1.850   6.310  1.2109  3.5089 -2.2320
 6413SOL     OW30871   0.664   3.734   1.146 -0.4781  0.3371 -0.0037
 6413SOL    HW130872   0.574   3.749   1.176 -0.2686  0.5233  0.5427
 6413SOL    HW230873   0.687   3.646   1.178 -3.1705 -0.3218  0.1027
 6414SOL     OW30874   0.569   4.327   7.960 -0.1690  0.6880  0.1721
 6414SOL    HW130875   0.634   4.395   7.978 -0.3902  0.2871  2.4885
 6414SOL    HW230876   0.493   4.384   7.966 -0.4383  0.3309  0.2090
 6415SOL     OW30877   4.597   3.767  16.700  0.0041 -0.2941  0.4785
 6415SOL    HW130878   4.534   3.827  16.661  0.5109 -1.5883 -2.3194
 6415SOL    HW230879   4.668   3.829  16.714  0.6838 -0.2751 -3.0553
 6416SOL     OW30880   2.328   0.105   7.427 -0.1250 -0.0612  0.2431
 6416SOL    HW130881   2.406   0.059   7.397  0.5482  1.8716 -0.9187
 6416SOL    HW230882   2.293   0.035   7.482  2.4884  1.2560  3.5819
 6417SOL     OW30883   1.435   3.288   3.019 -0.2976  0.2423  0.5109
 6417SOL    HW130884   1.500   3.289   2.948 -1.7958 -2.0643 -0.9040
 6417SOL    HW230885   1.366   3.339   2.977 -0.0053  0.0562 -0.1971
 6418SOL     OW30886   0.429   0.410   4.146  0.1858  0.7006 -0.0687
 6418SOL    HW130887   0.487   0.477   4.181 -1.4768  1.0252  2.0369
 6418SOL    HW230888   0.411   0.448   4.060 -0.3667  0.0234 -0.2550
 6419SOL     OW30889   0.104   3.502  15.855  0.0819 -0.1654 -0.0292
 6419SOL    HW130890   0.096   3.425  15.911  0.4487 -0.0412  0.1998
 6419SOL    HW230891   0.189   3.543  15.876 -0.2142  0.2555  0.3570
 6420SOL     OW30892   2.621   1.120  16.079 -0.4678  0.4973 -0.1188
 6420SOL    HW130893   2.586   1.163  16.001 -0.7358  0.6075  0.0648
 6420SOL    HW230894   2.713   1.144  16.071  0.0621 -1.9713 -1.3487
 6421SOL     OW30895   1.219   2.756   8.422 -0.1257 -0.5443 -0.5276
 6421SOL    HW130896   1.131   2.725   8.403 -0.3088  0.1002 -0.7522
 6421SOL    HW230897   1.222   2.727   8.513 -0.2727  0.9056 -0.0565
 6422SOL     OW30898   4.159   1.530   6.144 -0.4251  0.3987 -0.1291
 6422SOL    HW130899   4.082   1.505   6.093 -0.6725 -2.2773  1.5383
 6422SOL    HW230900   4.145   1.483   6.227  0.5959  0.7996  0.2713
 6423SOL     OW30901   0.156   2.239  12.903 -0.0820 -0.0861 -0.2951
 6423SOL    HW130902   0.238   2.288  12.911  0.9075 -1.7243 -0.5237
 6423SOL    HW230903   0.083   2.288  12.942  0.8871 -1.4737  3.2269
 6424SOL     OW30904   0.494   1.347   5.895 -0.2389 -0.5772  0.0813
 6424SOL    HW130905   0.504   1.442   5.901 -2.5511 -0.2539 -1.1609
 6424SOL    HW230906   0.434   1.347   5.821 -0.4262 -0.9162  0.2338
 6425SOL     OW30907   2.668   2.470   3.310  0.7576 -0.2665  0.0609
 6425SOL    HW130908   2.720   2.498   3.385 -0.0801 -1.5756  1.1390
 6425SOL    HW230909   2.701   2.526   3.240 -1.7036  1.2312  0.0782
 6426SOL     OW30910   3.082   4.323   8.216 -0.1331 -0.2554  0.2974
 6426SOL    HW130911   3.079   4.252   8.152 -2.0712  0.3020 -0.2374
 6426SOL    HW230912   3.164   4.366   8.191 -0.3779  0.1502  0.1907
 6427SOL     OW30913   4.075   2.678  14.983  0.0347 -0.2878 -0.5214
 6427SOL    HW130914   4.030   2.652  15.063 -0.5803  0.4720 -0.6146
 6427SOL    HW230915   4.121   2.596  14.968 -1.2352 -1.0632 -0.2254
 6428SOL     OW30916   1.121   3.648   4.810 -0.5838 -0.5102 -0.2436
 6428SOL    HW130917   1.074   3.615   4.887  1.4683  0.6267  1.5192
 6428SOL    HW230918   1.145   3.735   4.840  1.9419 -1.4711  0.6144
 6429SOL     OW30919   4.557   4.507   4.803  0.2057 -0.7750  0.1802
 6429SOL    HW130920   4.572   4.527   4.895  1.6765 -1.1475  0.0112
 6429SOL    HW230921   4.472   4.463   4.795 -1.6453  2.9487 -1.0196
 6430SOL     OW30922   0.903   4.419   2.431 -0.1097 -0.0338  0.3705
 6430SOL    HW130923   0.909   4.509   2.464 -0.8936 -0.2159  0.9894
 6430SOL    HW230924   0.909   4.373   2.515  0.8409 -1.5945 -0.5577
 6431SOL     OW30925   2.043   3.106   6.250  0.1343  0.2719 -0.4450
 6431SOL    HW130926   2.032   3.014   6.273 -0.9790  0.8664  1.4177
 6431SOL    HW230927   2.059   3.137   6.339 -0.0237 -0.5096 -0.1413
 6432SOL     OW30928   0.269   4.040   6.172 -0.0077  0.2617 -0.0015
 6432SOL    HW130929   0.214   3.991   6.233  0.5658 -1.8153 -1.1619
 6432SOL    HW230930   0.342   4.069   6.227  0.7729  1.5202 -1.6797
 6433SOL     OW30931   1.549   0.199   6.287 -0.3931  0.0484 -1.2037
 6433SOL    HW130932   1.585   0.226   6.371 -0.1929 -1.5623 -0.7767
 6433SOL    HW230933   1.460   0.222   6.314 -1.3313  0.0447 -4.2347
 6434SOL     OW30934   3.161   2.465   0.602 -0.5035  0.3991  0.2461
 6434SOL    HW130935   3.249   2.502   0.587  0.6363 -2.5841 -0.2987
 6434SOL    HW230936   3.119   2.529   0.659  1.7467  2.6064 -0.5379
 6435SOL     OW30937   2.750   4.318   7.636 -0.1688 -0.1417  0.0186
 6435SOL    HW130938   2.718   4.256   7.702  0.2988  0.5508  0.9077
 6435SOL    HW230939   2.669   4.367   7.628  1.0104  1.8462  0.2342
 6436SOL     OW30940   2.982   1.242   2.839 -0.1670 -0.4169  0.6081
 6436SOL    HW130941   3.025   1.232   2.924 -1.6452 -2.6669  1.0569
 6436SOL    HW230942   2.959   1.334   2.852  1.0562  0.3439 -2.5280
 6437SOL     OW30943   4.375   3.878   1.933 -0.3477 -0.1276  0.0735
 6437SOL    HW130944   4.450   3.818   1.931 -0.4783 -0.2567 -0.9932
 6437SOL    HW230945   4.375   3.879   2.029 -0.5528  0.6935  0.0651
 6438SOL     OW30946   1.092   4.202   7.111 -0.6421 -0.3393 -0.0144
 6438SOL    HW130947   1.135   4.257   7.177  0.6352 -0.7445 -0.5077
 6438SOL    HW230948   1.114   4.237   7.024 -1.8281  0.0801 -0.1379
 6439SOL     OW30949   1.545   4.135  15.923 -0.0161  0.4718 -0.2060
 6439SOL    HW130950   1.582   4.077  15.989  0.0855  1.7615  0.8631
 6439SOL    HW230951   1.607   4.120  15.852  0.5018  2.0124 -0.0774
 6440SOL     OW30952   2.065   3.603   9.694  0.3911  0.2071  0.1083
 6440SOL    HW130953   2.016   3.678   9.662 -1.0442 -0.0268  1.7119
 6440SOL    HW230954   2.149   3.641   9.720 -0.0103  1.9083 -1.1698
 6441SOL     OW30955   4.473   0.532  15.858 -0.5233 -0.1023  0.2354
 6441SOL    HW130956   4.530   0.594  15.811  1.3154 -1.7078  0.3533
 6441SOL    HW230957   4.419   0.589  15.913  0.8732  1.4201  0.0391
 6442SOL     OW30958   0.231   1.066  13.311  0.2213  0.1693 -0.1349
 6442SOL    HW130959   0.224   1.113  13.228 -1.4244 -1.5040 -0.9419
 6442SOL    HW230960   0.242   1.139  13.372 -0.5376 -0.1487  0.3836
 6443SOL     OW30961   4.601   3.769   6.094  0.5593 -0.0082 -0.0424
 6443SOL    HW130962   4.615   3.815   6.011 -1.3841 -1.8068 -1.3409
 6443SOL    HW230963   4.513   3.741   6.070  1.3060 -1.6373 -0.9013
 6444SOL     OW30964   4.444   0.837  13.016 -0.1337  0.2475 -0.1304
 6444SOL    HW130965   4.471   0.827  13.108  1.6607 -0.8685 -0.7772
 6444SOL    HW230966   4.380   0.766  13.014 -0.4284  0.5716 -1.6947
 6445SOL     OW30967   0.307   3.558  17.662 -0.4386  0.7246 -0.2679
 6445SOL    HW130968   0.295   3.653  17.672 -0.1736  0.9963 -2.3725
 6445SOL    HW230969   0.233   3.522  17.613  0.9575 -0.3132 -1.5821
 6446SOL     OW30970   3.112   1.322  16.746  0.1090  0.3938 -0.3089
 6446SOL    HW130971   3.146   1.291  16.830 -0.8449 -1.2756 -0.5245
 6446SOL    HW230972   3.022   1.288  16.753  1.0468 -1.9253  0.5907
 6447SOL     OW30973   0.933   0.709  17.125  0.1031 -0.5695 -0.7963
 6447SOL    HW130974   0.978   0.790  17.099 -0.5429 -0.7888 -2.5858
 6447SOL    HW230975   0.975   0.690  17.208  1.3978  1.3440 -1.0064
 6448SOL     OW30976   3.723   0.410   6.038  0.3062  0.0165 -0.3438
 6448SOL    HW130977   3.769   0.327   6.026  0.1882 -0.0059 -0.6494
 6448SOL    HW230978   3.756   0.451   5.958 -2.3082 -0.5505 -1.7356
 6449SOL     OW30979   2.723   0.082   8.899 -0.5672 -0.5966 -0.0566
 6449SOL    HW130980   2.706   0.053   8.810 -2.5663 -2.5646  0.9539
 6449SOL    HW230981   2.800   0.033   8.927 -0.0518  0.4284  0.3228
 6450SOL     OW30982   0.368   3.157  16.413  0.4014 -0.4436  0.8103
 6450SOL    HW130983   0.351   3.167  16.319  0.1053  4.2811  1.3471
 6450SOL    HW230984   0.292   3.205  16.446  1.8727  2.2036  0.3341
 6451SOL     OW30985   1.133   4.604   9.586  0.6604 -0.9203  0.3943
 6451SOL    HW130986   1.092   4.609   9.672 -1.3687  0.3562 -0.6350
 6451SOL    HW230987   1.108   4.686   9.542  1.7908 -1.0142 -0.4304
 6452SOL     OW30988   2.269   1.877  10.722 -0.0911 -0.4527  0.6902
 6452SOL    HW130989   2.313   1.955  10.753  1.8989 -1.1554 -0.3685
 6452SOL    HW230990   2.336   1.836  10.667 -1.0345 -0.7256 -0.2419
 6453SOL     OW30991   4.690   3.893   5.249 -0.2204 -0.2799 -0.1123
 6453SOL    HW130992   4.640   3.974   5.243 -0.5141 -0.4856 -0.4030
 6453SOL    HW230993   0.042   3.925   5.278  2.2108 -4.8537 -2.2207
 6454SOL     OW30994   3.568   1.649   0.869  0.2868  0.4614 -0.0491
 6454SOL    HW130995   3.610   1.612   0.791  1.3835 -0.0072  0.7593
 6454SOL    HW230996   3.564   1.739   0.836 -0.7399  1.2147  2.1105
 6455SOL     OW30997   4.138   0.242   6.473 -0.3677 -0.4833 -0.9132
 6455SOL    HW130998   4.159   0.292   6.394 -0.6410 -0.5567 -1.0366
 6455SOL    HW230999   4.078   0.175   6.440  1.7109 -3.6037  1.6162
 6456SOL     OW31000   0.639   2.455  10.652  0.3665  0.0614  0.1243
 6456SOL    HW131001   0.656   2.415  10.568  0.7224 -0.6723  0.5474
 6456SOL    HW231002   0.730   2.459  10.684 -0.4505  2.1923  2.2397
 6457SOL     OW31003   1.994   1.017  17.728  0.2419 -0.1676  0.0154
 6457SOL    HW131004   2.041   1.091  17.690 -0.0775  0.4734  0.8840
 6457SOL    HW231005   2.002   0.953  17.657 -0.0826  0.2663 -0.4165
 6458SOL     OW31006   0.957   3.191  16.206 -0.0637  0.0897 -0.1651
 6458SOL    HW131007   1.014   3.122  16.172  2.1519  0.9176  1.8596
 6458SOL    HW231008   0.987   3.208  16.295 -1.0941 -1.0037  0.3978
 6459SOL     OW31009   3.959   1.120   8.191 -0.2232  0.3131 -0.2059
 6459SOL    HW131010   3.899   1.195   8.188  0.1669  0.6471  0.3882
 6459SOL    HW231011   4.025   1.151   8.253 -2.3781  1.8968  1.3184
 6460SOL     OW31012   4.292   3.569   7.443  0.2086  0.1798  0.0106
 6460SOL    HW131013   4.335   3.486   7.422 -0.3155  0.4494 -2.1528
 6460SOL    HW231014   4.372   3.619   7.459  1.0614 -2.0681  2.8597
 6461SOL     OW31015   1.407   1.954   2.585  0.0964 -0.1798 -0.3705
 6461SOL    HW131016   1.415   2.045   2.555  2.5260 -0.5375 -0.8404
 6461SOL    HW231017   1.460   1.966   2.663 -0.3615 -0.6768  0.0146
 6462SOL     OW31018   0.875   1.961   6.833  0.3899  0.1997 -0.3557
 6462SOL    HW131019   0.947   1.925   6.885  0.4936  0.1182 -0.5520
 6462SOL    HW231020   0.887   1.926   6.744  0.0208  0.1797 -0.3960
 6463SOL     OW31021   3.618   1.887   5.826  0.7652  0.6141  0.1284
 6463SOL    HW131022   3.578   1.853   5.746 -0.3715  3.3515 -0.4399
 6463SOL    HW231023   3.658   1.806   5.858 -1.6801 -1.0342 -0.9922
 6464SOL     OW31024   4.159   4.048   6.118 -0.2166  0.1189  0.2999
 6464SOL    HW131025   4.189   4.044   6.027  1.6213  1.2134  0.8674
 6464SOL    HW231026   4.066   4.029   6.108 -0.1438 -1.3069  2.4925
 6465SOL     OW31027   1.424   2.202   8.542 -0.5521  0.4941  0.5169
 6465SOL    HW131028   1.435   2.297   8.541 -0.1690  0.4531  0.7605
 6465SOL    HW231029   1.506   2.167   8.578 -1.9821 -3.3311  0.0179
 6466SOL     OW31030   1.300   2.905   9.129 -0.1558 -0.0421 -0.6887
 6466SOL    HW131031   1.365   2.876   9.065  1.1529 -0.4095  0.7915
 6466SOL    HW231032   1.210   2.878   9.110 -0.6236  1.2284 -0.2518
 6467SOL     OW31033   0.748   0.202   0.866  0.5358  0.0781 -0.2460
 6467SOL    HW131034   0.712   0.113   0.863  2.8228 -0.7849 -1.7732
 6467SOL    HW231035   0.812   0.196   0.795  1.4961 -0.6019  0.6784
 6468SOL     OW31036   2.970   4.337   6.114 -0.3301  0.2682 -0.1463
 6468SOL    HW131037   3.011   4.422   6.130  0.1441  0.3400 -1.7954
 6468SOL    HW231038   3.014   4.301   6.037  1.0260  0.0997  0.7133
 6469SOL     OW31039   2.228   1.945   5.772  0.4991 -0.0532  0.4049
 6469SOL    HW131040   2.314   1.931   5.731  0.6651  0.4776  0.5688
 6469SOL    HW231041   2.242   2.037   5.794  0.7943  0.6206 -2.5454
 6470SOL     OW31042   1.623   3.417   4.221 -0.5422  0.0922 -0.1412
 6470SOL    HW131043   1.584   3.417   4.134  1.1429 -2.2625 -0.9198
 6470SOL    HW231044   1.694   3.355   4.202  1.5386  1.6996  2.3557
 6471SOL     OW31045   0.935   0.608   2.905  0.1010  0.2046  0.0846
 6471SOL    HW131046   0.921   0.703   2.913 -0.3029 -0.1571  3.7160
 6471SOL    HW231047   1.021   0.613   2.948 -0.3248 -0.8889  1.0499
 6472SOL     OW31048   4.336   1.800  11.993  0.6480 -0.0127 -0.2359
 6472SOL    HW131049   4.243   1.823  11.997  0.4921 -0.5707 -0.6925
 6472SOL    HW231050   4.346   1.728  12.055 -0.8267 -0.7081 -0.8176
 6473SOL     OW31051   1.205   3.291   3.714  0.3857 -0.1318  0.3059
 6473SOL    HW131052   1.133   3.354   3.715 -0.1331 -0.7811  3.4315
 6473SOL    HW231053   1.209   3.267   3.807  1.5991 -0.8882  0.0588
 6474SOL     OW31054   0.119   2.482  15.293  0.2803 -0.5498 -0.0058
 6474SOL    HW131055   0.160   2.536  15.226  0.2241  1.0110  1.2158
 6474SOL    HW231056   0.109   2.551  15.359  0.5689 -0.3560 -0.1670
 6475SOL     OW31057   1.364   0.064  14.946  0.4975 -0.0465  0.5103
 6475SOL    HW131058   1.430   0.047  14.879 -1.5180 -0.2797 -1.4484
 6475SOL    HW231059   1.418   0.118  15.003 -0.9115  0.9854  0.8696
 6476SOL     OW31060   4.448   4.627   4.525 -0.2430 -0.9165  0.4899
 6476SOL    HW131061   4.409   4.688   4.587  0.4752 -0.0968  0.1297
 6476SOL    HW231062   4.381   4.611   4.459  0.5238  2.6451 -1.1122
 6477SOL     OW31063   3.591   2.066  11.451 -0.4459  0.1710 -0.3792
 6477SOL    HW131064   3.579   2.018  11.533 -0.2499 -0.6376 -0.8322
 6477SOL    HW231065   3.569   2.155  11.480 -0.7375  0.0262 -0.1568
 6478SOL     OW31066   3.505   2.348   1.230 -0.2226 -0.1798  0.2349
 6478SOL    HW131067   3.527   2.440   1.246 -1.7024  0.4927 -1.5638
 6478SOL    HW231068   3.581   2.308   1.272 -0.7667 -0.3012  1.1022
 6479SOL     OW31069   4.092   0.760   3.027  0.3021  0.1577  0.5491
 6479SOL    HW131070   4.180   0.730   3.001  0.5533  3.0270 -1.9253
 6479SOL    HW231071   4.033   0.684   3.029 -0.8806  1.0061 -2.0013
 6480SOL     OW31072   4.208   4.394  14.195 -0.1289  0.1378  0.2192
 6480SOL    HW131073   4.138   4.402  14.131  0.4476  1.0568 -0.2840
 6480SOL    HW231074   4.283   4.425  14.144  0.9740 -0.2214  1.6173
 6481SOL     OW31075   3.243   0.260  11.551  0.2766 -0.5398 -0.1912
 6481SOL    HW131076   3.194   0.210  11.485 -0.2831 -0.5291  0.2105
 6481SOL    HW231077   3.221   0.353  11.541  1.0048 -0.4170 -0.6231
 6482SOL     OW31078   3.899   2.313   8.823 -0.1631 -0.3578 -0.3157
 6482SOL    HW131079   3.834   2.383   8.814  2.0570  1.6328 -0.8871
 6482SOL    HW231080   3.833   2.248   8.846  0.7128 -0.9902  0.4238
 6483SOL     OW31081   4.693   2.230   8.050  0.5931 -0.3092 -0.1184
 6483SOL    HW131082   4.696   2.283   8.129 -1.5695 -1.1870  0.5639
 6483SOL    HW231083   4.598   2.226   8.043  0.6008 -1.5905  0.4586
 6484SOL     OW31084   2.186   0.952   3.907  0.1034 -0.6910  0.1203
 6484SOL    HW131085   2.103   0.937   3.952 -0.0324 -0.1442  0.0603
 6484SOL    HW231086   2.189   0.883   3.840 -0.5707 -0.0172 -0.6104
 6485SOL     OW31087   1.724   0.578   2.685  0.1318 -0.2443 -0.1343
 6485SOL    HW131088   1.716   0.549   2.594  0.8599  0.7985 -0.5202
 6485SOL    HW231089   1.774   0.658   2.674 -0.3887 -0.0347 -0.9803
 6486SOL     OW31090   4.659   2.581   4.526  0.3017 -0.4771 -0.1415
 6486SOL    HW131091   4.713   2.554   4.600  1.5069 -1.1662 -1.2762
 6486SOL    HW231092   4.573   2.558   4.562 -0.5554  0.8842 -1.2826
 6487SOL     OW31093   0.347   2.006   5.667  0.5836  0.3056 -0.3055
 6487SOL    HW131094   0.308   2.082   5.711 -0.5606  0.6539 -1.9309
 6487SOL    HW231095   0.384   2.033   5.583  0.4405  2.2923  0.2518
 6488SOL     OW31096   4.124   1.506   0.305 -0.2337  0.1089 -0.1513
 6488SOL    HW131097   4.216   1.520   0.284 -1.0684  0.9611 -3.2540
 6488SOL    HW231098   4.102   1.598   0.290  2.6671  0.8004 -0.1613
 6489SOL     OW31099   4.440   1.872   5.289  0.0564 -0.1399 -0.0392
 6489SOL    HW131100   4.380   1.875   5.215 -0.0453  1.1986  0.0989
 6489SOL    HW231101   4.376   1.905   5.352 -0.2504  0.0024 -0.4302
 6490SOL     OW31102   0.955   3.491   5.933 -0.7753  0.3156 -0.3729
 6490SOL    HW131103   0.867   3.473   5.901 -0.0367 -0.5912 -1.9338
 6490SOL    HW231104   0.937   3.527   6.020 -1.1284 -1.3384  0.2350
 6491SOL     OW31105   1.842   2.064  16.415 -0.0170 -0.0736  0.4075
 6491SOL    HW131106   1.879   2.062  16.503 -0.1513  1.2559  0.4934
 6491SOL    HW231107   1.750   2.090  16.422 -0.3313 -0.8086 -1.1803
 6492SOL     OW31108   0.756   0.857  16.262  0.4365 -0.3418  0.2656
 6492SOL    HW131109   0.760   0.912  16.184 -0.1935 -0.0317  0.4475
 6492SOL    HW231110   0.766   0.922  16.331 -0.2481 -0.7988  0.7920
 6493SOL     OW31111   4.545   3.188   3.999  0.2836 -0.0498  0.9685
 6493SOL    HW131112   4.565   3.096   3.980  1.0471  0.4794 -0.8028
 6493SOL    HW231113   4.630   3.231   3.986  0.6292 -0.6684  1.1856
 6494SOL     OW31114   0.715   2.417   8.206 -0.0227 -0.3800  0.3990
 6494SOL    HW131115   0.668   2.468   8.273  0.7603 -1.0357  1.4408
 6494SOL    HW231116   0.658   2.342   8.187  0.9419 -0.7001 -1.2276
 6495SOL     OW31117   0.521   2.772   5.881 -0.2188  0.1025 -0.0828
 6495SOL    HW131118   0.526   2.746   5.789  3.3579  5.0958 -1.3018
 6495SOL    HW231119   0.601   2.824   5.891 -0.8497  0.9083  0.6868
 6496SOL     OW31120   3.075   2.487   5.014  0.4082  0.1674  0.0441
 6496SOL    HW131121   3.063   2.453   5.102  3.7875  0.9675  0.8027
 6496SOL    HW231122   3.063   2.402   4.972 -1.0717  0.6880 -0.5844
 6497SOL     OW31123   1.597   2.232  16.513 -0.1304  0.2374 -0.5447
 6497SOL    HW131124   1.604   2.288  16.436 -0.3698  0.7635 -0.1908
 6497SOL    HW231125   1.657   2.266  16.580 -0.1544 -0.3301 -0.2409
 6498SOL     OW31126   3.864   3.289   0.197  0.0594 -0.2115  0.0821
 6498SOL    HW131127   3.864   3.275   0.102 -1.4466 -0.0372  0.0615
 6498SOL    HW231128   3.846   3.383   0.196 -2.2123 -0.6465 -0.9448
 6499SOL     OW31129   4.233   3.830   2.187  0.6387 -0.3806  0.2418
 6499SOL    HW131130   4.221   3.736   2.204 -2.6587  0.1639  0.8672
 6499SOL    HW231131   4.143   3.859   2.197  0.5644 -0.4218 -0.3104
 6500SOL     OW31132   3.004   0.239   8.921 -0.8222 -0.2933  0.4118
 6500SOL    HW131133   3.060   0.243   8.843 -1.6135 -2.0948 -0.2480
 6500SOL    HW231134   2.926   0.292   8.900 -0.9000  0.2377  2.0691
 6501SOL     OW31135   3.506   3.599   1.789 -0.2408  0.1762  0.3977
 6501SOL    HW131136   3.561   3.568   1.861 -2.2109  0.0166  1.8314
 6501SOL    HW231137   3.526   3.534   1.721  3.1424 -1.2508  2.7449
 6502SOL     OW31138   1.808   4.330   4.447 -0.4629 -0.4151  0.4422
 6502SOL    HW131139   1.863   4.252   4.451 -1.1112 -0.9328 -0.5515
 6502SOL    HW231140   1.826   4.351   4.355  0.2055  1.7690  1.0739
 6503SOL     OW31141   3.579   0.511  11.624 -0.5946 -0.4686  0.6232
 6503SOL    HW131142   3.585   0.425  11.584 -1.0758  0.5371 -1.6361
 6503SOL    HW231143   3.646   0.507  11.692  0.6915  1.4293 -0.5196
 6504SOL     OW31144   4.291   0.089   1.542  0.6309  0.1541  0.4497
 6504SOL    HW131145   4.320   0.162   1.597 -0.7468  0.1966  1.1153
 6504SOL    HW231146   4.358   0.098   1.474  0.4087  0.9458  0.3308
 6505SOL     OW31147   3.297   3.277   1.051 -0.2059 -0.0750  0.1029
 6505SOL    HW131148   3.359   3.309   1.116 -0.6119 -1.1766  1.0294
 6505SOL    HW231149   3.341   3.206   1.004  0.6595 -0.3483  1.3376
 6506SOL     OW31150   1.400   1.805   7.024 -0.0545 -0.7000 -0.0586
 6506SOL    HW131151   1.383   1.763   6.939  0.7621  1.8839 -1.5047
 6506SOL    HW231152   1.466   1.743   7.056  0.6427 -0.9542 -1.9459
 6507SOL     OW31153   2.545   0.778   2.670 -0.2842  0.0881 -0.5152
 6507SOL    HW131154   2.452   0.799   2.661 -0.0436  1.3891  0.0541
 6507SOL    HW231155   2.538   0.704   2.731  3.1205 -0.5026 -0.8221
 6508SOL     OW31156   4.552   3.067  17.555 -0.1081  0.2312  0.5716
 6508SOL    HW131157   4.500   3.083  17.477 -0.1081 -0.6269  0.3934
 6508SOL    HW231158   4.644   3.053  17.532  0.6801  1.1252  3.1344
 6509SOL     OW31159   0.781   0.106   4.339  0.5703  0.2343  0.6713
 6509SOL    HW131160   0.819   0.177   4.391  0.1089  2.3045 -1.7823
 6509SOL    HW231161   0.692   0.138   4.324  1.0238  0.5778 -1.3804
 6510SOL     OW31162   3.229   3.839   1.557 -0.1943  0.7294 -0.2087
 6510SOL    HW131163   3.324   3.834   1.559 -0.0688  1.8666 -2.7696
 6510SOL    HW231164   3.210   3.749   1.585 -0.7411  0.2814 -1.9626
 6511SOL     OW31165   4.225   0.567  11.197 -0.3399 -0.0433  0.7132
 6511SOL    HW131166   4.318   0.554  11.216 -0.7235 -2.1848  1.1220
 6511SOL    HW231167   4.239   0.657  11.167 -0.5059 -0.3505 -0.2908
 6512SOL     OW31168   4.557   0.274  13.238  0.1692  0.4917  0.4810
 6512SOL    HW131169   4.502   0.287  13.161  0.0271  2.2961  0.8986
 6512SOL    HW231170   4.551   0.178  13.243 -1.1424  0.6153  1.1459
 6513SOL     OW31171   0.915   2.244   5.359  0.2080 -0.2354  0.1611
 6513SOL    HW131172   1.000   2.200   5.364  0.9276  1.2590  1.2194
 6513SOL    HW231173   0.947   2.326   5.322 -0.0218 -0.0585  0.3488
 6514SOL     OW31174   3.551   2.080   9.906 -0.0805  0.3495 -0.4783
 6514SOL    HW131175   3.527   2.106   9.817  0.5737  2.7516  0.0481
 6514SOL    HW231176   3.609   2.153   9.925  1.0883 -0.7531  0.2343
 6515SOL     OW31177   3.447   1.744   8.030 -0.4827  0.1152 -0.8467
 6515SOL    HW131178   3.424   1.719   7.941 -1.4814  0.4114 -0.6682
 6515SOL    HW231179   3.419   1.835   8.024  1.2965  0.6863 -0.5642
 6516SOL     OW31180   4.075   4.702   1.442 -0.3904  0.5477  0.1255
 6516SOL    HW131181   4.121   4.628   1.482 -1.2769  1.2483  2.4133
 6516SOL    HW231182   4.129   0.040   1.473  1.6038 -0.4252 -1.0358
 6517SOL     OW31183   4.698   1.752  15.480 -0.0205  0.8288  0.0429
 6517SOL    HW131184   4.650   1.669  15.478  0.6809  0.3703  2.1280
 6517SOL    HW231185   4.644   1.808  15.425 -1.6274 -0.6489  0.1230
 6518SOL     OW31186   0.388   2.607  15.018 -0.4348  0.2719 -0.3841
 6518SOL    HW131187   0.443   2.551  15.074  1.0730  2.0767 -0.0476
 6518SOL    HW231188   0.435   2.593  14.936 -1.9679 -1.3654 -0.9680
 6519SOL     OW31189   3.163   1.049  13.545  0.0107 -0.1132 -0.3049
 6519SOL    HW131190   3.130   1.138  13.544 -0.6409 -0.3154  3.1902
 6519SOL    HW231191   3.085   0.993  13.542 -0.1812  0.2525 -2.4997
 6520SOL     OW31192   1.097   2.790   5.017  0.4789 -0.3809  0.0233
 6520SOL    HW131193   1.192   2.778   5.017  0.5935  0.4801  1.0144
 6520SOL    HW231194   1.095   2.885   5.028  0.2465 -0.8482  4.0533
 6521SOL     OW31195   1.854   2.944   7.228  0.0763  0.7454  0.5339
 6521SOL    HW131196   1.779   3.003   7.233 -0.6895 -0.3654  1.7849
 6521SOL    HW231197   1.906   2.997   7.167  0.5628  1.6843  1.7704
 6522SOL     OW31198   3.663   0.141   2.211 -0.3170  0.2257 -0.3902
 6522SOL    HW131199   3.713   0.064   2.238  1.7507  1.9138  0.5389
 6522SOL    HW231200   3.594   0.091   2.167  1.0174 -0.8006 -1.3432
 6523SOL     OW31201   2.239   0.381   6.157 -0.0960  0.7787 -0.0818
 6523SOL    HW131202   2.186   0.449   6.200  1.9348  2.0468  0.4222
 6523SOL    HW231203   2.275   0.415   6.075  0.1591 -2.3659 -1.2643
 6524SOL     OW31204   0.530   1.556   4.056  0.0525  0.4710  0.2761
 6524SOL    HW131205   0.563   1.568   3.967  1.1581 -0.3725  0.5652
 6524SOL    HW231206   0.438   1.535   4.042  0.9422 -3.3709  0.2455
 6525SOL     OW31207   3.798   2.810   3.096 -0.1065 -0.0575 -0.3912
 6525SOL    HW131208   3.771   2.794   3.006 -0.0431 -0.1040 -0.4018
 6525SOL    HW231209   3.722   2.781   3.147 -2.1624  2.7900 -1.8129
 6526SOL     OW31210   2.984   4.407  11.682 -0.2611 -0.0031 -0.2478
 6526SOL    HW131211   2.949   4.477  11.738  1.3732  1.1377 -0.6810
 6526SOL    HW231212   3.077   4.403  11.705 -0.2814 -2.9213 -0.5722
 6527SOL     OW31213   3.774   0.053   3.923  0.0596 -0.1208 -0.2356
 6527SOL    HW131214   3.791   0.142   3.892 -1.8320 -0.1730 -1.4218
 6527SOL    HW231215   3.680   0.050   3.906  0.2346  0.3704 -1.3256
 6528SOL     OW31216   0.871   0.941   9.587 -0.1973  0.4082 -0.1748
 6528SOL    HW131217   0.939   0.912   9.526  0.4893 -2.0643  1.7299
 6528SOL    HW231218   0.822   0.859   9.593  0.2442  0.0883 -1.0404
 6529SOL     OW31219   3.453   4.626  15.187 -0.2163 -0.1117  0.0085
 6529SOL    HW131220   3.398   4.555  15.221  0.5585 -0.4602  0.5630
 6529SOL    HW231221   3.394   4.696  15.159  0.6028  0.1436 -1.0664
 6530SOL     OW31222   1.763   2.870   2.860 -0.2108  0.2836 -0.2996
 6530SOL    HW131223   1.684   2.907   2.901  0.3128  0.1059  0.8509
 6530SOL    HW231224   1.826   2.887   2.929  1.3142  0.4288 -1.7250
 6531SOL     OW31225   4.525   2.062  12.733 -0.0746  0.2290  0.6521
 6531SOL    HW131226   4.444   2.113  12.722  1.1918  1.8531 -1.1858
 6531SOL    HW231227   4.486   1.982  12.770 -1.5397 -0.1573 -1.6949
 6532SOL     OW31228   4.466   1.572   2.177  0.4047  0.1597  0.0233
 6532SOL    HW131229   4.505   1.659   2.172 -1.7894  1.1336  0.0491
 6532SOL    HW231230   4.388   1.591   2.124 -1.2898 -2.0340  1.7355
 6533SOL     OW31231   4.205   3.251   1.812 -0.3921 -0.5718  0.0043
 6533SOL    HW131232   4.208   3.324   1.874  1.4905 -0.2452 -0.4781
 6533SOL    HW231233   4.123   3.265   1.765 -1.3239  1.6812  2.3017
 6534SOL     OW31234   2.579   1.582   4.986 -0.1916  0.6392 -0.2528
 6534SOL    HW131235   2.599   1.590   4.893 -1.2142 -0.5954 -0.5928
 6534SOL    HW231236   2.650   1.523   5.012  1.5156  2.2351 -1.3294
 6535SOL     OW31237   1.763   2.495   4.486  0.0267 -0.0264  0.2793
 6535SOL    HW131238   1.712   2.416   4.469  3.0215 -2.1665  1.3822
 6535SOL    HW231239   1.804   2.481   4.571 -1.8276 -0.4919  1.0909
 6536SOL     OW31240   2.540   3.687   1.124  0.4711 -0.2349 -0.3279
 6536SOL    HW131241   2.458   3.678   1.172  0.9975 -0.9813  0.4285
 6536SOL    HW231242   2.577   3.599   1.133 -1.9527 -1.2821 -0.4495
 6537SOL     OW31243   0.297   0.861   4.374  0.0314 -0.1180 -0.1584
 6537SOL    HW131244   0.325   0.871   4.283 -0.6462  3.0928  0.0032
 6537SOL    HW231245   0.267   0.951   4.388 -0.5178 -0.3523  0.1775
 6538SOL     OW31246   1.474   0.381  12.807 -0.0697  0.2888  0.7449
 6538SOL    HW131247   1.393   0.339  12.837 -0.5510 -0.3116 -1.4388
 6538SOL    HW231248   1.516   0.396  12.892 -1.4611 -1.3281  1.7191
 6539SOL     OW31249   0.966   1.469   6.465  0.7766 -0.3295 -0.6211
 6539SOL    HW131250   0.934   1.521   6.391  1.8787  1.0930 -0.0841
 6539SOL    HW231251   0.915   1.389   6.453 -0.8157  0.5585  0.2783
 6540SOL     OW31252   2.927   3.184   3.326 -0.2736  0.1581 -0.4908
 6540SOL    HW131253   2.960   3.225   3.246 -0.7808  1.2482 -0.1443
 6540SOL    HW231254   2.861   3.245   3.358 -1.4313 -0.8245 -1.0144
 6541SOL     OW31255   4.331   3.391   3.030  0.3135 -0.1283  0.4202
 6541SOL    HW131256   4.377   3.474   3.040  1.7043 -0.5027 -2.8484
 6541SOL    HW231257   4.249   3.421   2.991  0.6003 -1.6064 -1.3601
 6542SOL     OW31258   3.031   0.829   8.615  0.1134  0.0940  0.3062
 6542SOL    HW131259   2.953   0.825   8.670  0.1281  1.7867  0.4640
 6542SOL    HW231260   3.108   0.840   8.671 -0.7636 -0.6885  1.6427
 6543SOL     OW31261   1.247   4.301   3.387  0.5940  0.4373  0.1920
 6543SOL    HW131262   1.184   4.249   3.336 -0.6745  0.5039  1.6826
 6543SOL    HW231263   1.265   4.239   3.458 -1.9737 -0.6072 -0.0487
 6544SOL     OW31264   0.673   4.238   7.465  0.1556 -0.6974  0.2084
 6544SOL    HW131265   0.734   4.298   7.422 -0.0587 -1.0263 -0.5479
 6544SOL    HW231266   0.714   4.190   7.537 -0.5856 -2.6660 -0.6903
 6545SOL     OW31267   2.013   0.423   6.816 -0.0735  0.5004 -0.1315
 6545SOL    HW131268   2.021   0.407   6.911 -3.1334 -1.9569 -0.2856
 6545SOL    HW231269   2.089   0.478   6.801 -0.7341  1.7702  1.1420
 6546SOL     OW31270   0.962   1.164   1.818  0.2372  0.1228 -0.6664
 6546SOL    HW131271   0.868   1.174   1.831  0.3125 -0.5407  0.4136
 6546SOL    HW231272   0.963   1.098   1.749  0.4534  0.6632 -1.1828
 6547SOL     OW31273   2.806   1.081   3.543  0.4094  0.6344  0.0623
 6547SOL    HW131274   2.809   1.135   3.464  0.6074  0.0564 -0.3217
 6547SOL    HW231275   2.865   1.009   3.524  0.8146  1.4415 -1.6949
 6548SOL     OW31276   2.959   1.996   5.218 -0.5167 -0.1767 -0.0054
 6548SOL    HW131277   2.981   2.079   5.261  2.0875  0.2185 -2.1436
 6548SOL    HW231278   3.007   1.929   5.266  1.8199  0.5577 -1.3382
 6549SOL     OW31279   3.846   3.867   0.342 -0.1921  0.1573  0.2276
 6549SOL    HW131280   3.927   3.877   0.292 -0.1625  1.3771  0.5084
 6549SOL    HW231281   3.870   3.837   0.430 -1.8970 -1.1623  0.2355
 6550SOL     OW31282   0.953   1.332   4.644  0.1101 -0.1601  0.4224
 6550SOL    HW131283   1.033   1.383   4.643  0.4373 -0.6555  1.2392
 6550SOL    HW231284   0.921   1.349   4.732 -2.3157  0.7349 -0.6243
 6551SOL     OW31285   4.381   0.465   4.921 -0.0144  0.1292  0.2948
 6551SOL    HW131286   4.448   0.527   4.892  1.9749 -1.1488  2.1871
 6551SOL    HW231287   4.376   0.401   4.849  1.4697  0.1745  0.1519
 6552SOL     OW31288   4.525   3.537  11.286  0.4514 -0.5065 -0.0048
 6552SOL    HW131289   4.469   3.464  11.260  0.2811 -0.1143 -0.7258
 6552SOL    HW231290   4.603   3.499  11.327  0.2590  0.0856  0.9329
 6553SOL     OW31291   3.233   1.529   1.839 -0.2223  0.0953 -0.3957
 6553SOL    HW131292   3.269   1.588   1.905 -0.3204  0.1336 -0.3766
 6553SOL    HW231293   3.301   1.461   1.840 -0.7241 -0.4056  0.4897
 6554SOL     OW31294   2.971   3.602   6.094 -0.6949  0.2132 -0.1213
 6554SOL    HW131295   2.944   3.548   6.169 -2.0429 -0.9420 -1.4474
 6554SOL    HW231296   2.941   3.691   6.113 -0.1453  0.0911  1.3844
 6555SOL     OW31297   4.083   3.542   8.293 -0.4142 -0.1578 -0.1756
 6555SOL    HW131298   4.049   3.491   8.219 -1.7020  0.3449  0.0681
 6555SOL    HW231299   4.005   3.552   8.348  0.3513 -0.0192  0.8880
 6556SOL     OW31300   0.798   3.606   1.677 -0.5913  0.1205  0.6142
 6556SOL    HW131301   0.791   3.602   1.772  2.0492  0.0751  0.8115
 6556SOL    HW231302   0.852   3.682   1.653 -1.4372  0.3839 -0.4436
 6557SOL     OW31303   1.149   1.775   7.452 -0.2398  0.1271  0.4124
 6557SOL    HW131304   1.133   1.703   7.391 -1.5983  1.0399 -0.3188
 6557SOL    HW231305   1.161   1.722   7.531 -3.0599 -0.8601  0.1862
 6558SOL     OW31306   0.273   2.884   3.330  0.1289 -0.5672  0.1026
 6558SOL    HW131307   0.255   2.934   3.409  1.0222  0.8897 -0.6192
 6558SOL    HW231308   0.186   2.852   3.304  0.2199 -0.6944 -0.0475
 6559SOL     OW31309   1.865   1.497   9.243 -0.0503  0.1464  0.0897
 6559SOL    HW131310   1.852   1.541   9.159  0.2847  1.5327  0.7662
 6559SOL    HW231311   1.783   1.448   9.253  1.7273 -2.3215  2.2117
 6560SOL     OW31312   2.031   4.440  15.555  0.1862 -0.7343  0.0507
 6560SOL    HW131313   1.988   4.521  15.531  0.7014 -0.1413  1.1045
 6560SOL    HW231314   1.973   4.380  15.508  1.6421  0.9635 -3.8380
 6561SOL     OW31315   2.350   3.877   5.827  0.0147  0.6717  0.1306
 6561SOL    HW131316   2.306   3.828   5.758  0.3258  0.2690  0.2201
 6561SOL    HW231317   2.434   3.832   5.815 -0.8198 -0.6646 -0.6975
 6562SOL     OW31318   0.630   1.445   3.090  0.6939  0.0055 -0.2230
 6562SOL    HW131319   0.697   1.504   3.125 -1.7367  3.1336 -0.7475
 6562SOL    HW231320   0.576   1.499   3.032  0.0162 -1.6297 -1.0807
 6563SOL     OW31321   1.519   1.266   7.458 -0.0867  0.4856  0.1744
 6563SOL    HW131322   1.475   1.192   7.416 -0.6621  2.0105 -1.8910
 6563SOL    HW231323   1.470   1.273   7.541 -2.2427 -1.0572 -0.9557
 6564SOL     OW31324   2.391   2.369   1.645  0.3030 -0.4480  0.6103
 6564SOL    HW131325   2.338   2.292   1.625  1.1632 -0.4758 -1.4708
 6564SOL    HW231326   2.376   2.388   1.738  1.2265  0.1920  0.6292
 6565SOL     OW31327   2.931   1.559  15.206 -0.1128 -0.5317 -0.0762
 6565SOL    HW131328   3.012   1.609  15.208  0.5755 -1.5966 -1.0930
 6565SOL    HW231329   2.963   1.474  15.174 -0.1727 -0.2837 -0.7892
 6566SOL     OW31330   4.049   1.159   1.438  0.3296  0.0373  0.0529
 6566SOL    HW131331   4.056   1.143   1.532 -1.5623 -1.0140  0.0027
 6566SOL    HW231332   4.022   1.072   1.409  0.4230 -0.6617  2.1010
 6567SOL     OW31333   1.179   3.924   2.271  0.1517 -0.3995 -0.1346
 6567SOL    HW131334   1.196   3.974   2.192 -3.7738  1.2568  0.0781
 6567SOL    HW231335   1.093   3.958   2.295  0.9551  1.3447  0.2530
 6568SOL     OW31336   1.115   1.367  16.717  0.0862 -0.5493 -0.0121
 6568SOL    HW131337   1.199   1.407  16.738 -0.4813  0.7196 -0.1763
 6568SOL    HW231338   1.060   1.443  16.736  0.8063 -0.8173  3.0992
 6569SOL     OW31339   0.636   4.022   2.334 -0.1082 -0.0279  0.0260
 6569SOL    HW131340   0.627   4.048   2.243  2.4925 -0.2089 -0.2764
 6569SOL    HW231341   0.601   4.099   2.380  0.2815  0.6834 -0.8832
 6570SOL     OW31342   0.514   2.050   7.510  0.0202  0.2736  0.8450
 6570SOL    HW131343   0.568   2.080   7.584  1.2094 -1.4008  0.6520
 6570SOL    HW231344   0.462   2.127   7.489  0.6512  0.3125 -0.5547
 6571SOL     OW31345   1.856   4.044   3.318 -0.0330  0.0292 -0.2979
 6571SOL    HW131346   1.935   4.003   3.354  0.4930  0.3848 -1.0402
 6571SOL    HW231347   1.806   3.969   3.286  1.5222  0.0109 -2.7249
 6572SOL     OW31348   2.581   1.151   1.800 -0.1106 -0.5033  0.0327
 6572SOL    HW131349   2.549   1.124   1.887 -0.8749 -0.6045 -0.2807
 6572SOL    HW231350   2.640   1.222   1.826 -0.3318 -0.1590 -0.4122
 6573SOL     OW31351   2.546   0.490  11.190 -0.0986  0.1925  0.1197
 6573SOL    HW131352   2.634   0.481  11.226 -0.0232 -0.6483 -0.2634
 6573SOL    HW231353   2.557   0.556  11.122 -0.0008  0.4364  0.3725
 6574SOL     OW31354   4.123   3.922   7.172 -0.2058 -0.2649  0.0598
 6574SOL    HW131355   4.175   3.898   7.249 -1.4006 -2.1863  0.2816
 6574SOL    HW231356   4.189   3.955   7.111  1.6619 -1.3299  1.4826
 6575SOL     OW31357   0.528   4.431   8.614 -0.3680 -0.1274 -0.0308
 6575SOL    HW131358   0.493   4.343   8.631 -0.5005  0.0033  0.3845
 6575SOL    HW231359   0.445   4.477   8.601  0.0978  1.0490  1.1812
 6576SOL     OW31360   2.080   2.178   2.040 -0.1592  0.0616 -0.5552
 6576SOL    HW131361   2.020   2.105   2.052  1.6068 -1.2840  0.1542
 6576SOL    HW231362   2.033   2.222   1.970 -1.9084  0.2889  0.7797
 6577SOL     OW31363   2.954   3.697   9.123  0.0548 -0.1623 -0.1469
 6577SOL    HW131364   2.921   3.780   9.088  2.2668  0.7627 -0.0112
 6577SOL    HW231365   3.038   3.727   9.156  1.8317 -1.7873 -3.1555
 6578SOL     OW31366   1.458   4.174   7.620 -0.3514 -0.1723 -0.5968
 6578SOL    HW131367   1.369   4.198   7.647  0.4947 -0.3884  2.3876
 6578SOL    HW231368   1.454   4.081   7.599 -0.4400  0.0648 -1.6300
 6579SOL     OW31369   2.903   2.098   2.370 -0.1687 -0.2773  0.0785
 6579SOL    HW131370   2.914   2.078   2.277  1.1384  1.4396 -0.1421
 6579SOL    HW231371   2.809   2.084   2.382 -0.1541 -1.3525 -1.0256
 6580SOL     OW31372   0.967   4.059  11.939  0.4731 -0.2367 -0.0557
 6580SOL    HW131373   0.947   4.131  11.880 -1.4604  1.4714  2.6583
 6580SOL    HW231374   1.027   4.100  12.002 -0.7387 -1.7483  2.0654
 6581SOL     OW31375   3.227   4.074   2.684 -0.3094 -0.1100  0.0399
 6581SOL    HW131376   3.269   4.077   2.598  4.1361 -0.0058  2.2080
 6581SOL    HW231377   3.148   4.028   2.656 -0.3540  2.1632 -3.5946
 6582SOL     OW31378   1.827   0.651   9.928  0.1314 -0.0348  0.2757
 6582SOL    HW131379   1.867   0.573   9.888 -1.3827 -0.0332 -1.2937
 6582SOL    HW231380   1.776   0.615  10.000  0.9834  0.3097  1.0392
 6583SOL     OW31381   1.879   3.192   9.107  0.0465 -0.0097 -0.4144
 6583SOL    HW131382   1.830   3.110   9.110  1.2198 -0.7948 -2.7785
 6583SOL    HW231383   1.966   3.152   9.115 -0.8143 -1.9363 -0.6952
 6584SOL     OW31384   4.016   2.546   4.921 -0.1366 -0.6323 -0.8144
 6584SOL    HW131385   3.994   2.453   4.927 -0.2764 -0.4717  1.2550
 6584SOL    HW231386   4.016   2.571   4.829  1.3822  2.5086  0.0546
 6585SOL     OW31387   1.743   3.264   6.113 -0.2743  0.4022 -0.2340
 6585SOL    HW131388   1.708   3.189   6.161  0.0481  0.1872 -0.3369
 6585SOL    HW231389   1.665   3.315   6.135 -1.4148 -0.9758 -1.1615
 6586SOL     OW31390   4.361   0.928   5.545  0.5779  0.5912  0.6840
 6586SOL    HW131391   4.386   0.873   5.471 -0.2125  1.4404 -0.2054
 6586SOL    HW231392   4.271   0.893   5.550 -0.1234  1.9699 -2.3702
 6587SOL     OW31393   0.182   0.377   0.010  0.4251  0.1153 -0.0205
 6587SOL    HW131394   0.156   0.291   0.042 -0.2953  0.4814  0.3721
 6587SOL    HW231395   0.164   0.366  17.651  0.8137 -1.9436  0.1575
 6588SOL     OW31396   4.483   4.691   1.310 -0.7332 -0.1861 -0.3581
 6588SOL    HW131397   4.537   4.616   1.288  0.1647  0.0279  1.0755
 6588SOL    HW231398   4.499   4.693   1.404  0.7580  1.3760 -0.6544
 6589SOL     OW31399   3.015   4.358   9.318  0.2567 -0.9443  0.6781
 6589SOL    HW131400   3.082   4.427   9.312 -0.2520 -0.5479 -0.3024
 6589SOL    HW231401   2.941   4.382   9.263  0.1871  0.6996  1.4924
 6590SOL     OW31402   2.203   2.233   9.933 -0.5886 -0.5732 -0.2591
 6590SOL    HW131403   2.187   2.323   9.963 -0.1885 -0.5562 -0.0947
 6590SOL    HW231404   2.115   2.196   9.938 -0.9555  0.0218 -2.1946
 6591SOL     OW31405   2.145   2.146  16.568 -0.0534  0.1389 -0.3016
 6591SOL    HW131406   2.166   2.219  16.626  0.1850 -0.8461  0.8554
 6591SOL    HW231407   2.114   2.072  16.620 -1.0474 -0.9034 -2.3579
 6592SOL     OW31408   2.311   2.966   5.030 -0.0770 -0.0582  0.0984
 6592SOL    HW131409   2.393   3.017   5.036 -0.1356  0.1550 -0.8981
 6592SOL    HW231410   2.320   2.930   4.942  1.3663  2.0097 -0.6044
 6593SOL     OW31411   2.177   1.688   2.275 -0.5831  0.3452 -0.4320
 6593SOL    HW131412   2.098   1.737   2.251  0.2871  1.0121 -1.9227
 6593SOL    HW231413   2.229   1.760   2.310  0.9804 -0.8902 -0.2531
 6594SOL     OW31414   3.010   2.660   3.588 -0.2005 -0.0220 -0.0822
 6594SOL    HW131415   3.031   2.753   3.586  0.7491 -0.1654  2.3303
 6594SOL    HW231416   3.098   2.624   3.595  0.0845  1.1314  2.0890
 6595SOL     OW31417   1.383   3.538  13.656  0.1807 -0.2822 -0.0025
 6595SOL    HW131418   1.442   3.481  13.606  1.7298  0.7185  0.6734
 6595SOL    HW231419   1.349   3.476  13.721  0.4985 -1.5893 -1.0863
 6596SOL     OW31420   2.053   2.332   8.272 -0.3663 -0.1633  0.0810
 6596SOL    HW131421   2.089   2.244   8.258 -1.1978 -0.6117  0.7786
 6596SOL    HW231422   1.988   2.308   8.338  1.1449  0.7022  1.8969
 6597SOL     OW31423   0.498   1.138   3.391 -0.1810  0.2602  0.2009
 6597SOL    HW131424   0.592   1.122   3.400 -0.1903 -0.2065 -0.4807
 6597SOL    HW231425   0.477   1.130   3.484 -1.6218  1.7649 -0.0093
 6598SOL     OW31426   0.183   0.708   6.289 -0.3999 -0.4066  0.4512
 6598SOL    HW131427   0.223   0.621   6.300  0.2099 -0.2441 -0.4331
 6598SOL    HW231428   0.119   0.690   6.220  0.2511  0.8698 -0.4725
 6599SOL     OW31429   1.947   4.310   9.243 -0.1554  0.2135  0.2285
 6599SOL    HW131430   1.896   4.269   9.174  1.1294 -0.1904 -0.4827
 6599SOL    HW231431   1.912   4.399   9.241  1.4900  0.8653 -0.0557
 6600SOL     OW31432   2.746   4.712  12.801 -0.0073  0.5222  0.0710
 6600SOL    HW131433   2.703   0.064  12.796  0.3114  0.4619 -4.4083
 6600SOL    HW231434   2.748   4.698  12.895  0.5698 -0.4301 -0.0784
 6601SOL     OW31435   1.281   0.094   0.501 -0.5101  0.3415  0.3311
 6601SOL    HW131436   1.274   0.153   0.577  0.0826  1.9454 -0.8649
 6601SOL    HW231437   1.321   0.020   0.548 -0.0488  0.8094  0.6760
 6602SOL     OW31438   4.626   1.639  11.947  0.5073  0.0145  0.6196
 6602SOL    HW131439   4.564   1.638  12.020  1.1722 -0.4491  1.1667
 6602SOL    HW231440   4.626   1.546  11.927  0.6997 -0.3911  2.5531
 6603SOL     OW31441   1.002   0.442  16.408 -0.1242 -0.1721  0.5493
 6603SOL    HW131442   0.934   0.475  16.467 -0.1438  0.5270  0.1399
 6603SOL    HW231443   0.952   0.416  16.331 -0.5849 -0.5045  0.9627
 6604SOL     OW31444   3.005   3.390   5.643 -0.1925  0.2485 -0.5990
 6604SOL    HW131445   3.034   3.345   5.564 -2.5118 -0.4972 -1.0309
 6604SOL    HW231446   2.961   3.465   5.605  0.4472  0.7744 -0.2940
 6605SOL     OW31447   3.962   2.062   4.282  0.2235  0.0665 -0.4870
 6605SOL    HW131448   3.888   2.002   4.292 -0.4847  0.5100 -3.1011
 6605SOL    HW231449   3.950   2.080   4.189 -2.1106  2.0254  0.2030
 6606SOL     OW31450   3.444   2.717   6.962  0.2141  0.1695  0.3366
 6606SOL    HW131451   3.524   2.768   6.975 -0.1991  1.4331 -1.9386
 6606SOL    HW231452   3.482   2.634   6.935 -1.8543 -0.4257 -0.7436
 6607SOL     OW31453   1.905   1.284  11.617  0.1833  0.2005 -0.3732
 6607SOL    HW131454   1.839   1.248  11.557 -0.2387 -0.4651  0.4842
 6607SOL    HW231455   1.982   1.271  11.562 -1.3870 -0.7098 -2.3513
 6608SOL     OW31456   3.851   0.270   7.900 -0.0760  0.3091 -0.1609
 6608SOL    HW131457   3.807   0.216   7.966  0.0332  1.7266  1.0661
 6608SOL    HW231458   3.927   0.217   7.877 -0.9216 -0.8055 -0.3971
 6609SOL     OW31459   4.428   3.997   2.199  0.3590 -0.2859 -0.0071
 6609SOL    HW131460   4.340   3.959   2.201  0.4883 -0.6181 -0.8185
 6609SOL    HW231461   4.439   4.045   2.282  0.0516 -0.1556 -0.0426
 6610SOL     OW31462   4.670   2.054   5.706  0.1195 -0.3762  0.0394
 6610SOL    HW131463   4.682   2.148   5.717 -0.8251 -0.3297  0.7145
 6610SOL    HW231464   4.685   2.058   5.612  0.6599  2.1347  0.2384
 6611SOL     OW31465   2.324   2.009   6.877  0.3625 -0.2261 -0.0312
 6611SOL    HW131466   2.366   1.960   6.805 -0.3825 -1.2810  0.2597
 6611SOL    HW231467   2.401   2.030   6.930 -0.0018  1.3411 -0.1092
 6612SOL     OW31468   0.949   1.073   4.585 -0.2196  0.4008  0.2935
 6612SOL    HW131469   0.933   1.166   4.603  0.2204  0.6744 -0.7493
 6612SOL    HW231470   1.015   1.057   4.653 -1.4430 -0.4066  1.2928
 6613SOL     OW31471   3.237   3.026   5.161 -0.5933 -0.2205 -0.3329
 6613SOL    HW131472   3.285   2.945   5.144  1.4064  1.2279 -1.6382
 6613SOL    HW231473   3.151   3.011   5.122 -0.5607  1.6341 -1.1141
 6614SOL     OW31474   4.011   1.949   9.195  0.3201  0.3019  0.1605
 6614SOL    HW131475   3.996   1.855   9.208 -1.8629  0.5380 -0.6775
 6614SOL    HW231476   4.076   1.970   9.263  1.6143 -0.3439 -0.8734
 6615SOL     OW31477   4.101   4.589   4.821  0.1392  0.2954 -0.4095
 6615SOL    HW131478   4.037   4.636   4.874 -1.5664 -2.7513  0.2316
 6615SOL    HW231479   4.178   4.644   4.835  2.0347 -1.4486 -3.9825
 6616SOL     OW31480   1.693   1.224   0.474 -0.3400 -0.2940  0.1766
 6616SOL    HW131481   1.649   1.307   0.460 -0.9588 -0.8409 -1.2240
 6616SOL    HW231482   1.655   1.194   0.556  0.1321 -0.4411  0.3420
 6617SOL     OW31483   2.468   4.061   1.542  0.3568 -0.8886  0.0567
 6617SOL    HW131484   2.396   4.044   1.481  0.2479 -3.5741  0.9401
 6617SOL    HW231485   2.429   4.034   1.625 -0.3303 -1.3299 -0.4207
 6618SOL     OW31486   1.482   2.014   6.801 -0.1025 -0.2599  0.3179
 6618SOL    HW131487   1.576   2.003   6.807  0.2549  0.8128 -2.9392
 6618SOL    HW231488   1.467   2.091   6.855  1.3634  0.8338 -0.8430
 6619SOL     OW31489   3.760   4.186   1.656  0.8173 -0.3837 -0.2574
 6619SOL    HW131490   3.678   4.192   1.704  1.0708 -1.4963  0.3218
 6619SOL    HW231491   3.792   4.277   1.652 -1.7082  0.4589 -1.1263
 6620SOL     OW31492   1.856   1.495   2.637  0.0728  0.1649  0.3127
 6620SOL    HW131493   1.811   1.539   2.565  0.3416  0.4550  0.3209
 6620SOL    HW231494   1.861   1.400   2.624 -0.5552  0.3464 -1.2648
 6621SOL     OW31495   3.833   3.579   5.880 -0.4855 -0.3006  0.6953
 6621SOL    HW131496   3.795   3.636   5.947  0.2552 -1.4808  2.1167
 6621SOL    HW231497   3.756   3.538   5.840  1.3473 -2.9924 -0.1135
 6622SOL     OW31498   0.012   2.605   6.496  0.2192  0.1610 -0.1958
 6622SOL    HW131499   0.080   2.660   6.535  1.0853 -1.6529  0.8695
 6622SOL    HW231500   0.040   2.618   6.405 -1.1154  0.1985 -0.5968
 6623SOL     OW31501   3.789   0.231  10.486  0.5894 -0.1094 -0.5311
 6623SOL    HW131502   3.696   0.228  10.512  0.6368  1.4897 -0.1629
 6623SOL    HW231503   3.809   0.141  10.461 -1.1940 -0.4877 -0.6260
 6624SOL     OW31504   2.990   4.145  11.617  0.9858 -0.5377 -0.4541
 6624SOL    HW131505   2.978   4.236  11.644 -1.6980 -1.9324  3.0763
 6624SOL    HW231506   2.979   4.153  11.522 -0.6967  0.1341 -0.1937
 6625SOL     OW31507   0.781   1.139   5.024 -0.2237 -0.0943 -0.1393
 6625SOL    HW131508   0.846   1.086   4.980  1.2841 -0.1061  2.1170
 6625SOL    HW231509   0.824   1.220   4.996 -1.5280  0.8441  0.5561
 6626SOL     OW31510   1.198   3.372   2.416  0.2757 -0.2864  0.4524
 6626SOL    HW131511   1.273   3.370   2.356  0.7512 -0.3843  1.0518
 6626SOL    HW231512   1.156   3.288   2.398 -0.1851 -0.4096  2.1082
 6627SOL     OW31513   0.066   4.197   0.751  0.1950 -0.0880 -0.3387
 6627SOL    HW131514   0.018   4.276   0.726  1.0762  0.9485  1.2623
 6627SOL    HW231515   0.146   4.237   0.787  0.8601  0.4978 -2.4204
 6628SOL     OW31516   1.600   3.737   8.467 -0.3881 -0.2250 -0.2475
 6628SOL    HW131517   1.538   3.668   8.491 -1.2498  1.2035  1.6481
 6628SOL    HW231518   1.672   3.715   8.526 -0.4327 -2.5850 -1.0646
 6629SOL     OW31519   1.330   0.555   5.105  0.1899  0.1639 -0.0103
 6629SOL    HW131520   1.246   0.597   5.125 -0.8589 -2.1549  0.4359
 6629SOL    HW231521   1.331   0.477   5.162  2.1540 -0.0176 -0.2684
 6630SOL     OW31522   0.160   1.256   7.157 -0.1997 -0.1073 -0.4676
 6630SOL    HW131523   0.089   1.192   7.157  1.1110 -1.5762 -1.3573
 6630SOL    HW231524   0.110   1.318   7.210  2.6191  1.6471  0.1400
 6631SOL     OW31525   0.915   1.234   8.941  0.0391 -0.0844 -0.1321
 6631SOL    HW131526   0.836   1.205   8.896  0.6460 -0.9065 -0.6671
 6631SOL    HW231527   0.907   1.328   8.955 -1.1655 -0.8010  3.9921
 6632SOL     OW31528   3.443   1.349   1.879 -0.2426 -0.2115  0.2962
 6632SOL    HW131529   3.444   1.259   1.847  0.2394  0.2219 -0.9007
 6632SOL    HW231530   3.478   1.353   1.968  0.0977  1.8567  0.0601
 6633SOL     OW31531   2.985   0.940   0.960  0.1458  0.2864  0.6367
 6633SOL    HW131532   3.001   0.870   0.896  0.9106 -0.1635  1.3283
 6633SOL    HW231533   2.961   1.008   0.898  0.4049 -0.2475 -0.0560
 6634SOL     OW31534   3.927   1.814   2.442  0.4296 -0.2777  0.4300
 6634SOL    HW131535   3.930   1.720   2.459 -1.9256 -0.7636 -1.6654
 6634SOL    HW231536   3.853   1.851   2.491 -1.4136 -0.8998 -1.8631
 6635SOL     OW31537   2.873   3.260   4.496  0.2167  0.0496  0.5040
 6635SOL    HW131538   2.958   3.273   4.537  1.2611 -1.1231 -1.3059
 6635SOL    HW231539   2.893   3.206   4.420 -1.6606 -0.4241  0.3243
 6636SOL     OW31540   3.267   1.185   8.354 -0.3348 -0.1628  0.1712
 6636SOL    HW131541   3.309   1.134   8.423 -2.2939 -1.7417  0.1901
 6636SOL    HW231542   3.179   1.192   8.390  0.3044  1.8194  1.3156
 6637SOL     OW31543   3.208   1.222   7.568  0.3895  0.1956  0.2477
 6637SOL    HW131544   3.116   1.247   7.572 -0.4215 -2.4178 -2.0832
 6637SOL    HW231545   3.221   1.219   7.473 -1.7568 -1.8864  0.0225
 6638SOL     OW31546   3.893   4.462   7.958  0.0741  0.0947 -0.2385
 6638SOL    HW131547   3.798   4.452   7.951  0.3411 -3.0012  0.7097
 6638SOL    HW231548   3.902   4.544   7.909  0.4410  0.7981  1.0045
 6639SOL     OW31549   0.521   4.269  14.579  0.1830 -0.5808 -0.3713
 6639SOL    HW131550   0.442   4.303  14.538 -1.3645 -1.7836  1.5672
 6639SOL    HW231551   0.499   4.183  14.616  0.1370 -0.0103  0.9320
 6640SOL     OW31552   3.184   3.435   6.610 -0.3804 -0.4678  0.1094
 6640SOL    HW131553   3.236   3.395   6.680 -0.8205  2.0611  1.8793
 6640SOL    HW231554   3.213   3.526   6.604 -1.6930 -0.0107  0.7438
 6641SOL     OW31555   3.429   2.638   3.936 -0.2177  0.0643 -0.2960
 6641SOL    HW131556   3.452   2.685   3.856  0.0554  1.5758  0.6749
 6641SOL    HW231557   3.490   2.670   4.003 -1.5060 -0.8967  1.3296
 6642SOL     OW31558   3.209   1.761   1.467  0.6952  0.2198 -0.9641
 6642SOL    HW131559   3.288   1.709   1.486 -1.8332 -3.5341 -0.6755
 6642SOL    HW231560   3.151   1.735   1.538 -0.8279  0.4385 -2.1380
 6643SOL     OW31561   1.682   2.966   5.747  0.7676 -0.1342 -0.4565
 6643SOL    HW131562   1.716   2.960   5.836  0.1323 -0.0678 -0.2110
 6643SOL    HW231563   1.752   3.009   5.698  0.0206 -1.3657 -2.6026
 6644SOL     OW31564   2.535   3.271   0.422  0.0105 -0.6767  0.2314
 6644SOL    HW131565   2.523   3.362   0.396  0.5153 -0.8347 -0.5666
 6644SOL    HW231566   2.627   3.263   0.447  0.3956  0.9143 -0.6768
 6645SOL     OW31567   1.954   2.853   4.064  0.3090 -0.2467  0.2112
 6645SOL    HW131568   1.900   2.872   4.140 -1.3188 -0.8937 -0.7823
 6645SOL    HW231569   1.899   2.876   3.989  1.0260  0.0831 -0.2093
 6646SOL     OW31570   3.758   0.296   3.751 -0.3249  0.1214  0.5408
 6646SOL    HW131571   3.771   0.285   3.657 -1.2479  0.1472  0.4095
 6646SOL    HW231572   3.834   0.345   3.783 -0.7215 -1.7834  4.3299
 6647SOL     OW31573   2.682   2.695   9.990 -0.0098 -0.0791 -0.4218
 6647SOL    HW131574   2.687   2.761  10.059 -2.0798 -1.3250  0.9202
 6647SOL    HW231575   2.736   2.623  10.022 -0.7488 -0.4292  0.0382
 6648SOL     OW31576   4.129   4.378   9.620 -0.0270 -0.2339 -0.5204
 6648SOL    HW131577   4.095   4.435   9.688 -1.8873 -0.3957 -1.2897
 6648SOL    HW231578   4.198   4.330   9.665 -1.1187  0.5372  1.9352
 6649SOL     OW31579   0.306   3.379   3.109 -0.2561  0.0098 -0.2052
 6649SOL    HW131580   0.275   3.339   3.027  1.8006 -0.5546 -0.7038
 6649SOL    HW231581   0.232   3.365   3.168 -1.3016  1.8113 -1.0771
 6650SOL     OW31582   4.073   1.585   3.913  0.2089 -0.3110 -0.4465
 6650SOL    HW131583   4.100   1.674   3.939 -1.0179  0.3167 -1.3238
 6650SOL    HW231584   4.140   1.526   3.948 -0.0833  1.0349  2.3970
 6651SOL     OW31585   1.498   3.475   8.514  0.3011 -0.1893  0.1556
 6651SOL    HW131586   1.537   3.401   8.561  2.3503  0.4142 -0.5957
 6651SOL    HW231587   1.477   3.428   8.433  0.0625 -0.7517  0.5393
 6652SOL     OW31588   2.043   0.762   7.220  0.0649  0.4237  0.0270
 6652SOL    HW131589   1.963   0.776   7.272  1.6788 -1.5043  2.9890
 6652SOL    HW231590   2.100   0.712   7.279 -1.3572  0.3678  1.3818
 6653SOL     OW31591   1.555   0.839   5.488  0.0652 -0.0262  0.0767
 6653SOL    HW131592   1.584   0.837   5.397  1.2301 -0.5629  0.4585
 6653SOL    HW231593   1.609   0.769   5.525 -1.4313 -0.3749  1.5824
 6654SOL     OW31594   4.090   1.384   6.390 -0.1573  0.4915 -0.8315
 6654SOL    HW131595   4.022   1.332   6.433 -0.3173 -0.1108 -1.8032
 6654SOL    HW231596   4.152   1.312   6.377  1.9817  2.6397 -2.3286
 6655SOL     OW31597   4.725   3.884   7.341  0.2131 -0.0071  0.3093
 6655SOL    HW131598   4.696   3.945   7.409  1.0257  0.0368  0.6192
 6655SOL    HW231599   0.084   3.901   7.361  0.9321 -1.4202 -1.8810
 6656SOL     OW31600   2.794   2.152   9.843 -0.3049  0.3149  0.0962
 6656SOL    HW131601   2.848   2.160   9.764 -0.3280  1.5726  0.2098
 6656SOL    HW231602   2.739   2.228   9.824 -1.5521 -0.5555  0.2473
 6657SOL     OW31603   2.162   2.384  14.579  0.3383 -0.2350  0.6147
 6657SOL    HW131604   2.074   2.386  14.541  1.3036 -0.0039 -1.6135
 6657SOL    HW231605   2.183   2.471  14.544 -0.8953  0.1941  0.9669
 6658SOL     OW31606   0.915   2.210   3.654 -0.1819  0.1452  0.2295
 6658SOL    HW131607   0.885   2.296   3.622 -2.2661 -0.5160  0.4225
 6658SOL    HW231608   0.984   2.185   3.592 -1.0778  0.9394 -1.0716
 6659SOL     OW31609   2.270   2.790   1.540  0.2060  0.5304 -0.1863
 6659SOL    HW131610   2.304   2.711   1.498  0.2862  0.1688  0.5602
 6659SOL    HW231611   2.209   2.746   1.599  0.1498 -2.0795 -2.1939
 6660SOL     OW31612   0.695   1.143   8.825  0.1887  0.0933  0.5757
 6660SOL    HW131613   0.717   1.084   8.752 -1.9889  0.1537 -0.1424
 6660SOL    HW231614   0.614   1.192   8.808  0.8898  0.4227 -1.9592
 6661SOL     OW31615   3.601   3.124   4.255  0.2106  0.2084  0.5588
 6661SOL    HW131616   3.661   3.193   4.228  0.5314 -1.4205 -2.9524
 6661SOL    HW231617   3.665   3.071   4.301  0.0564  0.2518  0.8235
 6662SOL     OW31618   2.301   3.486   8.931 -0.3807  0.2651  0.2181
 6662SOL    HW131619   2.255   3.435   8.864  1.1918 -1.7680  0.7110
 6662SOL    HW231620   2.274   3.577   8.916 -0.0850  0.5072  1.1567
 6663SOL     OW31621   0.922   1.674  10.334 -0.4726  0.1826  0.2595
 6663SOL    HW131622   0.908   1.592  10.380 -3.1658  1.6469  2.0092
 6663SOL    HW231623   0.835   1.688  10.298  0.3887  2.9165 -0.8214
 6664SOL     OW31624   3.783   0.456  11.809 -0.0636 -0.3496 -0.6320
 6664SOL    HW131625   3.811   0.491  11.894 -2.0045  2.1723 -1.0274
 6664SOL    HW231626   3.765   0.363  11.825  2.0144 -0.6020  0.2651
 6665SOL     OW31627   2.710   3.787   1.428 -0.0122  0.1744  0.2522
 6665SOL    HW131628   2.619   3.816   1.433 -0.2164 -0.7286  1.6917
 6665SOL    HW231629   2.756   3.853   1.377 -0.4243 -0.7755 -1.3529
 6666SOL     OW31630   1.646   2.469   9.193  0.2674  0.0108 -0.0081
 6666SOL    HW131631   1.693   2.528   9.133  2.0684 -1.7721 -0.3321
 6666SOL    HW231632   1.724   2.443   9.242 -0.0023 -1.5773 -0.4396
 6667SOL     OW31633   0.208   3.303   8.635  0.1773 -0.1556 -0.2826
 6667SOL    HW131634   0.267   3.269   8.703 -0.6354 -0.4297  0.2861
 6667SOL    HW231635   0.159   3.370   8.684 -0.6169 -0.4033 -0.7548
 6668SOL     OW31636   3.886   4.133  12.350  0.1056 -0.2349  0.2045
 6668SOL    HW131637   3.898   4.091  12.435  2.4836 -1.1050 -0.5670
 6668SOL    HW231638   3.977   4.112  12.328 -1.1003 -3.1675 -1.9800
 6669SOL     OW31639   4.528   1.195  14.322 -0.4605  0.0416 -0.5535
 6669SOL    HW131640   4.587   1.214  14.395 -1.5027  0.0965  0.2741
 6669SOL    HW231641   4.499   1.284  14.307 -0.2516  0.5716  2.2360
 6670SOL     OW31642   2.146   4.078   7.623 -0.0163 -0.0635 -0.1619
 6670SOL    HW131643   2.153   3.999   7.569 -1.0094  0.2341 -0.7210
 6670SOL    HW231644   2.052   4.077   7.638  0.1437 -0.1411  0.8490
 6671SOL     OW31645   0.066   1.628  12.167 -0.0407  0.3351 -0.2081
 6671SOL    HW131646   0.063   1.708  12.219  0.2935 -0.8618  1.6359
 6671SOL    HW231647   0.023   1.659  12.087  1.7989  0.3452 -1.1864
 6672SOL     OW31648   4.420   1.473  14.712  0.2094 -0.1440  0.1984
 6672SOL    HW131649   4.358   1.426  14.656  1.3754 -1.9969  0.4804
 6672SOL    HW231650   4.491   1.474  14.648 -0.7445 -1.9619 -0.9004
 6673SOL     OW31651   2.119   2.495   3.290  0.1977  0.6366  0.4459
 6673SOL    HW131652   2.199   2.523   3.334 -0.4176 -1.3592  2.8838
 6673SOL    HW231653   2.169   2.465   3.214 -1.1470 -1.0192  0.2025
 6674SOL     OW31654   4.280   1.156   7.868  0.1558  0.1530  0.6379
 6674SOL    HW131655   4.269   1.251   7.862 -1.9968 -0.0964  0.4283
 6674SOL    HW231656   4.277   1.133   7.775  0.9714 -0.4918  0.7674
 6675SOL     OW31657   0.304   2.204   3.417  0.0557 -0.1487  0.4480
 6675SOL    HW131658   0.331   2.179   3.329 -1.0576  1.7554 -0.4344
 6675SOL    HW231659   0.210   2.189   3.403 -0.0927  2.2571 -1.1870
 6676SOL     OW31660   4.200   1.565  15.186 -0.2634  0.3139  0.1321
 6676SOL    HW131661   4.192   1.473  15.209 -0.4926  0.3653  0.2586
 6676SOL    HW231662   4.201   1.547  15.092  1.9098  1.1606 -0.0260
 6677SOL     OW31663   0.795   3.646  15.850  0.0019  0.0344 -0.4104
 6677SOL    HW131664   0.826   3.651  15.940 -1.0169  1.6052 -0.1511
 6677SOL    HW231665   0.828   3.562  15.818  1.5703  0.1531  0.9040
 6678SOL     OW31666   1.794   1.906   9.078  0.3315  0.2196 -0.0231
 6678SOL    HW131667   1.716   1.896   9.134  0.2975 -0.7820 -0.2517
 6678SOL    HW231668   1.823   1.817   9.057  1.2522  0.3728  0.5933
 6679SOL     OW31669   2.451   4.574   1.098  0.7329 -0.0739  1.1126
 6679SOL    HW131670   2.430   4.620   1.179 -0.5728  4.0610 -1.5640
 6679SOL    HW231671   2.546   4.583   1.110  0.9904 -1.3709  0.1081
 6680SOL     OW31672   0.705   3.012   7.142  0.0015 -0.1298  0.4337
 6680SOL    HW131673   0.638   2.998   7.209 -0.2484 -0.6233  0.0857
 6680SOL    HW231674   0.695   3.107   7.129 -0.6850 -0.3618 -0.7931
 6681SOL     OW31675   0.726   4.627  10.290 -0.5123  0.4583  0.0242
 6681SOL    HW131676   0.674   4.688  10.239 -3.2311 -2.0762 -0.2255
 6681SOL    HW231677   0.774   4.685  10.350  0.4437 -0.9299  0.6136
 6682SOL     OW31678   2.357   4.578  17.343 -0.0555 -0.5377 -0.2925
 6682SOL    HW131679   2.342   4.615  17.256  1.5546 -0.6941 -0.6421
 6682SOL    HW231680   2.271   4.566  17.383  1.5340 -0.3294  3.1750
 6683SOL     OW31681   4.144   2.194   7.084  0.0484  0.2245  0.4068
 6683SOL    HW131682   4.218   2.249   7.111 -1.2906  2.9255 -1.4161
 6683SOL    HW231683   4.169   2.158   6.999 -1.5109  1.2064 -0.4690
 6684SOL     OW31684   0.320   2.816   2.327  0.6478 -0.5461  0.6992
 6684SOL    HW131685   0.383   2.875   2.286  1.4488 -1.6299  0.3716
 6684SOL    HW231686   0.366   2.774   2.400 -0.6153 -0.1381  1.7387
 6685SOL     OW31687   3.264   3.072   6.568  0.1336 -0.3038  0.1692
 6685SOL    HW131688   3.257   3.037   6.656  0.5186  1.1597  0.7737
 6685SOL    HW231689   3.173   3.094   6.549  0.2852  0.5291  0.4161
 6686SOL     OW31690   2.162   1.443  13.887 -0.2803 -0.0778 -0.0160
 6686SOL    HW131691   2.073   1.442  13.923 -0.0870  2.7856  0.5294
 6686SOL    HW231692   2.217   1.388  13.943 -0.2022  2.9589  2.8654
 6687SOL     OW31693   1.549   2.630   5.882 -0.6113  0.1319 -0.4238
 6687SOL    HW131694   1.490   2.642   5.807  0.2791 -0.5502 -1.2393
 6687SOL    HW231695   1.613   2.567   5.848 -1.0730 -0.2210 -0.6331
 6688SOL     OW31696   3.375   1.264  13.428  0.0208  0.4068  0.0389
 6688SOL    HW131697   3.373   1.266  13.524  2.0089 -0.4164  0.1006
 6688SOL    HW231698   3.305   1.199  13.420 -0.6180  1.1557 -0.4100
 6689SOL     OW31699   1.950   3.013  12.848 -0.2592  0.2698  0.6339
 6689SOL    HW131700   1.952   2.923  12.815  0.1841 -0.4776  2.6892
 6689SOL    HW231701   1.869   3.045  12.808  0.3703  0.1286 -0.7523
 6690SOL     OW31702   0.285   4.687  12.169  0.4766  0.3351 -0.4006
 6690SOL    HW131703   0.357   4.629  12.193 -0.8281  0.6148  4.0633
 6690SOL    HW231704   0.220   4.621  12.147  1.3131 -0.6404  0.0481
 6691SOL     OW31705   3.730   2.469   5.863  0.6618 -0.2185 -0.3214
 6691SOL    HW131706   3.730   2.394   5.923  0.6252 -0.6610 -0.8728
 6691SOL    HW231707   3.638   2.469   5.835  0.0713 -1.3325  1.6105
 6692SOL     OW31708   4.113   2.756   0.982  0.3709 -0.2088 -0.4318
 6692SOL    HW131709   4.025   2.743   0.948 -0.3144 -1.1382  1.6903
 6692SOL    HW231710   4.176   2.689   0.954  0.9082  0.3279 -0.5044
 6693SOL     OW31711   2.771   3.739   3.247 -0.3278 -0.0386  0.0686
 6693SOL    HW131712   2.836   3.704   3.186  0.4155 -1.1617  1.5055
 6693SOL    HW231713   2.809   3.826   3.257  1.1673 -1.0818  3.3755
 6694SOL     OW31714   4.389   4.444  14.005 -0.0382 -0.0030  0.6759
 6694SOL    HW131715   4.418   4.356  13.983  0.3322  0.3669 -0.3410
 6694SOL    HW231716   4.461   4.477  14.058  0.2886 -1.2452  0.9928
 6695SOL     OW31717   3.695   1.420   1.571 -0.1294  0.2161  0.0902
 6695SOL    HW131718   3.757   1.483   1.534 -1.5690  1.0447 -0.9207
 6695SOL    HW231719   3.668   1.461   1.653  0.0701  2.2774 -0.8916
 6696SOL     OW31720   2.529   0.121   4.547 -0.1137  0.0747  0.0869
 6696SOL    HW131721   2.510   0.186   4.479  3.1221 -0.3615 -1.2204
 6696SOL    HW231722   2.615   0.099   4.511  0.4601  1.6718  0.4599
 6697SOL     OW31723   2.840   2.637  16.072  0.0014 -0.1094  0.4459
 6697SOL    HW131724   2.802   2.710  16.122  1.0215 -0.4438  1.7202
 6697SOL    HW231725   2.920   2.668  16.029 -0.0452  0.0694  0.4864
 6698SOL     OW31726   4.601   1.712   1.836  0.3219  0.6561 -0.7018
 6698SOL    HW131727   4.583   1.761   1.916  2.0776  0.0952  0.0418
 6698SOL    HW231728   4.509   1.691   1.819  1.3915 -1.5889 -3.7187
 6699SOL     OW31729   2.439   1.982  16.441 -0.6405  0.3471  0.8207
 6699SOL    HW131730   2.524   2.000  16.401 -1.2904  0.2238 -0.6001
 6699SOL    HW231731   2.393   1.956  16.361 -0.8678 -0.2498  1.1484
 6700SOL     OW31732   0.477   1.741   7.558 -0.0690  1.0429  0.6387
 6700SOL    HW131733   0.428   1.756   7.477 -0.4295  3.0062  1.2005
 6700SOL    HW231734   0.505   1.832   7.568 -1.2735  1.4698  0.1704
 6701SOL     OW31735   0.910   1.886   9.225 -0.2754 -0.1164  0.3857
 6701SOL    HW131736   0.904   1.820   9.294  0.0975 -1.8125 -1.2200
 6701SOL    HW231737   0.863   1.962   9.260 -3.4558 -1.8483 -0.2059
 6702SOL     OW31738   2.190   0.488   3.978  0.4305 -0.6006 -0.4454
 6702SOL    HW131739   2.165   0.435   4.053  2.0245  1.0402  1.2495
 6702SOL    HW231740   2.285   0.485   3.992  0.2158 -0.3646  1.0416
 6703SOL     OW31741   2.532   1.387   8.140 -1.3464 -0.0935  0.6827
 6703SOL    HW131742   2.611   1.383   8.193 -1.6581  0.1626  1.1691
 6703SOL    HW231743   2.521   1.294   8.121  0.1251 -0.4169  1.4890
 6704SOL     OW31744   0.814   1.886   2.548 -0.5071 -0.4233 -0.2342
 6704SOL    HW131745   0.888   1.947   2.550 -0.6686 -0.2411  0.1967
 6704SOL    HW231746   0.859   1.814   2.593 -2.8376 -1.3333  0.6749
 6705SOL     OW31747   2.760   3.553   3.682 -0.1691  0.2490 -0.1817
 6705SOL    HW131748   2.688   3.612   3.706  1.3876  1.5853  1.2091
 6705SOL    HW231749   2.733   3.534   3.593  1.9178  0.6063 -0.8897
 6706SOL     OW31750   3.438   2.144   6.248 -0.1305  0.8748  0.0957
 6706SOL    HW131751   3.445   2.103   6.162 -1.8003  1.6353 -0.3772
 6706SOL    HW231752   3.347   2.170   6.237 -0.6079 -1.3337 -1.0302
 6707SOL     OW31753   3.958   2.997   2.880  0.2064  0.2298  0.0708
 6707SOL    HW131754   3.882   3.017   2.934  1.0557 -1.4361  1.9207
 6707SOL    HW231755   4.017   2.986   2.954  2.0524 -1.4542 -1.6425
 6708SOL     OW31756   0.161   3.633  14.600 -0.6181  0.2029  1.0621
 6708SOL    HW131757   0.066   3.623  14.594 -0.4402 -1.4416  1.1132
 6708SOL    HW231758   0.197   3.567  14.541  0.8781 -0.5968  2.8617
 6709SOL     OW31759   4.537   2.943   3.711 -0.2168 -0.3645  0.0401
 6709SOL    HW131760   4.452   2.941   3.754 -0.6694  1.4549 -0.7728
 6709SOL    HW231761   4.515   3.009   3.645  0.0977 -0.1401  0.1603
 6710SOL     OW31762   4.179   4.723  11.892 -0.8680  0.3752 -0.2366
 6710SOL    HW131763   4.242   0.050  11.853 -1.2780  1.7900  1.3179
 6710SOL    HW231764   4.217   4.639  11.865  0.1369  1.0139 -0.8227
 6711SOL     OW31765   2.050   0.019   2.894  0.2533  0.7551  0.1839
 6711SOL    HW131766   2.038   4.673   2.843  2.1363 -0.4268  1.5756
 6711SOL    HW231767   2.139   4.728   2.920  1.0074  1.6904 -1.5557
 6712SOL     OW31768   0.626   2.930   3.304 -1.2041  0.0005  0.1192
 6712SOL    HW131769   0.632   3.003   3.366  0.6920 -0.0335 -0.0453
 6712SOL    HW231770   0.566   2.966   3.239  0.1820  2.2915  0.1149
 6713SOL     OW31771   1.202   3.044  16.134  0.9035  0.0054  0.2269
 6713SOL    HW131772   1.192   3.033  16.039 -3.2329  0.1062  0.6513
 6713SOL    HW231773   1.262   2.973  16.153  0.8100  0.6745  3.0962
 6714SOL     OW31774   0.987   2.430   7.673 -0.6238 -0.1411 -0.9153
 6714SOL    HW131775   1.020   2.369   7.607  0.8137  0.6989 -0.9668
 6714SOL    HW231776   1.034   2.510   7.651 -1.0999  0.4352  0.1727
 6715SOL     OW31777   4.582   4.588  14.191 -0.5324 -0.0806  0.0539
 6715SOL    HW131778   4.616   4.669  14.153 -1.5068 -0.6861 -2.1642
 6715SOL    HW231779   4.540   4.626  14.268  0.4192  0.0571  0.4980
 6716SOL     OW31780   2.893   2.008   2.100  0.3099 -0.1609  0.1116
 6716SOL    HW131781   2.939   2.054   2.030 -1.5110  0.7904 -0.4605
 6716SOL    HW231782   2.807   1.986   2.063  0.3401 -1.5024  0.8301
 6717SOL     OW31783   0.161   1.636   5.866 -0.2631 -0.3432 -0.1073
 6717SOL    HW131784   0.175   1.565   5.803 -3.5011 -0.0401 -1.1396
 6717SOL    HW231785   0.179   1.710   5.808 -1.4726  1.6340  2.0347
 6718SOL     OW31786   2.837   1.662  12.371 -0.0041 -0.2828  0.3131
 6718SOL    HW131787   2.754   1.679  12.416 -0.9415  1.8015 -2.1938
 6718SOL    HW231788   2.839   1.733  12.306 -0.2124 -1.0498 -0.5218
 6719SOL     OW31789   2.474   1.298   4.373 -0.2983 -0.2352  0.6137
 6719SOL    HW131790   2.440   1.286   4.284 -0.3638 -0.6367  0.6948
 6719SOL    HW231791   2.524   1.377   4.352 -2.2590  0.4511 -1.5478
 6720SOL     OW31792   1.212   0.805  17.066 -0.1018 -0.2068 -0.2021
 6720SOL    HW131793   1.160   0.882  17.089 -0.7333 -1.4826  2.6648
 6720SOL    HW231794   1.237   0.770  17.152  0.9034 -1.2275 -0.9134
 6721SOL     OW31795   0.116   4.262   6.280  0.3248  0.0468  0.2498
 6721SOL    HW131796   0.164   4.195   6.232 -1.5823 -0.3846 -1.0888
 6721SOL    HW231797   0.169   4.304   6.347  0.6479  0.1743 -0.0862
 6722SOL     OW31798   4.284   4.364   0.181  0.4453 -0.6596 -0.5088
 6722SOL    HW131799   4.258   4.369   0.089 -0.5307  1.7012 -0.0841
 6722SOL    HW231800   4.330   4.280   0.171 -1.2811 -1.6730  0.0167
 6723SOL     OW31801   4.660   0.491  15.193 -0.8537  0.2567 -0.1016
 6723SOL    HW131802   4.646   0.574  15.238 -2.0867 -0.2821  0.5115
 6723SOL    HW231803   4.580   0.444  15.218 -0.4360 -0.9133 -0.9451
 6724SOL     OW31804   3.563   3.964   0.028  0.0062 -0.5099 -0.3744
 6724SOL    HW131805   3.631   3.912   0.071 -0.3754  0.8479  1.8809
 6724SOL    HW231806   3.494   3.984   0.092  0.1534  3.3129 -1.4420
 6725SOL     OW31807   0.146   4.590   7.472  0.1212  0.1378  0.5547
 6725SOL    HW131808   0.170   4.518   7.414 -2.3577  1.2607 -1.8570
 6725SOL    HW231809   0.235   4.603   7.503  1.0766 -3.0752 -0.8531
 6726SOL     OW31810   1.571   3.766   3.010  0.0744  0.2649  0.0803
 6726SOL    HW131811   1.490   3.734   3.050  0.3708  0.0757  0.5336
 6726SOL    HW231812   1.602   3.678   2.989  0.5434  0.7783 -1.3072
 6727SOL     OW31813   4.714   3.962   0.153  0.0214 -0.7514  0.0339
 6727SOL    HW131814   0.053   3.982   0.211 -0.9353  2.8077  0.0575
 6727SOL    HW231815   4.707   3.869   0.170 -1.8239 -0.5138  0.5527
 6728SOL     OW31816   4.300   1.229   1.362 -0.2510 -0.0812  0.3289
 6728SOL    HW131817   4.212   1.227   1.400 -0.0958  0.4746  0.7126
 6728SOL    HW231818   4.354   1.188   1.431  2.2288 -1.4681 -2.4040
 6729SOL     OW31819   3.006   0.608   6.283  0.4281 -0.3791 -0.2271
 6729SOL    HW131820   2.960   0.621   6.200 -0.3040 -1.0577  0.0755
 6729SOL    HW231821   3.086   0.654   6.256  1.0601 -0.3502  1.7016
 6730SOL     OW31822   1.074   2.417  10.067 -0.3080  0.2452 -0.0043
 6730SOL    HW131823   1.001   2.449  10.120 -1.5007  0.4012 -1.7288
 6730SOL    HW231824   1.042   2.434   9.978 -1.6503 -1.1109  0.2001
 6731SOL     OW31825   0.080   0.428  13.782  0.2731  0.1322  0.2344
 6731SOL    HW131826   0.166   0.444  13.744 -0.1386  1.8941  0.0628
 6731SOL    HW231827   0.023   0.500  13.758 -0.3291  0.0421  1.3999
 6732SOL     OW31828   3.297   2.365  13.453 -0.6365  0.1798 -0.4578
 6732SOL    HW131829   3.229   2.349  13.519 -1.5315 -0.0872 -1.4588
 6732SOL    HW231830   3.284   2.293  13.392  0.4527  0.6594 -1.2460
 6733SOL     OW31831   2.162   2.096  16.162  0.2721  0.7215  0.8405
 6733SOL    HW131832   2.124   2.170  16.208  1.3578  1.2639  0.8652
 6733SOL    HW231833   2.237   2.148  16.133  0.5986  0.4537  1.2028
 6734SOL     OW31834   0.706   2.871   9.684 -0.2348 -0.4541 -0.8090
 6734SOL    HW131835   0.652   2.803   9.724 -1.2632 -0.3473 -1.9978
 6734SOL    HW231836   0.697   2.942   9.748  1.6271 -0.9885  0.0283
 6735SOL     OW31837   2.719   1.902   8.399 -0.2170 -0.7204  0.1715
 6735SOL    HW131838   2.759   1.987   8.414 -0.8097 -0.6499  1.3907
 6735SOL    HW231839   2.649   1.936   8.343  0.5872  0.3347 -0.1777
 6736SOL     OW31840   1.853   3.436  16.434  0.2324  0.5693  1.0866
 6736SOL    HW131841   1.886   3.525  16.419 -0.9955  1.2615  2.4814
 6736SOL    HW231842   1.922   3.391  16.385 -1.3825 -0.7380  0.0127
 6737SOL     OW31843   2.951   1.672   8.851  0.8774  0.0968 -0.2781
 6737SOL    HW131844   2.877   1.622   8.886 -0.6894  1.7979 -1.1515
 6737SOL    HW231845   2.978   1.730   8.922  1.6845 -0.3385 -0.2319
 6738SOL     OW31846   0.410   4.387   0.301  0.6140 -0.1106  0.5122
 6738SOL    HW131847   0.430   4.299   0.269  1.6462  0.5020 -0.5250
 6738SOL    HW231848   0.499   4.413   0.324  0.6446 -0.0296  0.3087
 6739SOL     OW31849   0.826   3.287   3.003 -0.7907  0.0678 -0.0401
 6739SOL    HW131850   0.784   3.243   2.928 -1.3544 -0.5837  0.6549
 6739SOL    HW231851   0.749   3.285   3.059  0.3486 -2.4038  1.4208
 6740SOL     OW31852   1.436   0.222   3.594  0.1241 -0.1821  0.2831
 6740SOL    HW131853   1.511   0.169   3.620 -2.0201 -1.6638  3.4808
 6740SOL    HW231854   1.464   0.251   3.507  2.5163  0.0147  1.1151
 6741SOL     OW31855   0.744   3.073  17.323 -0.0227  0.6295 -0.1081
 6741SOL    HW131856   0.671   3.110  17.373 -1.0586  0.3976 -1.4494
 6741SOL    HW231857   0.702   3.068  17.237 -0.6296 -0.6918  0.2752
 6742SOL     OW31858   2.389   0.338  17.303  0.0465  0.3041  0.1268
 6742SOL    HW131859   2.461   0.274  17.297 -0.6853 -0.5368  0.2775
 6742SOL    HW231860   2.367   0.332  17.396 -0.0169 -0.4084  0.0671
 6743SOL     OW31861   4.228   4.414  15.191 -0.1418 -0.2304  0.2205
 6743SOL    HW131862   4.312   4.424  15.147 -0.2176  0.4064  0.2144
 6743SOL    HW231863   4.253   4.369  15.272  0.2740 -1.0825 -0.3825
 6744SOL     OW31864   2.218   3.113   3.269 -0.9415  0.4941 -0.6478
 6744SOL    HW131865   2.124   3.100   3.256 -1.5880  2.1048  2.3689
 6744SOL    HW231866   2.207   3.076   3.357  0.4036  0.2402 -0.5835
 6745SOL     OW31867   0.235   4.215   0.129  0.0756  0.7991 -0.4151
 6745SOL    HW131868   0.312   4.157   0.129  0.4471  1.2861 -1.9949
 6745SOL    HW231869   0.260   4.285   0.069  1.1603  1.5447  0.9002
 6746SOL     OW31870   3.172   2.510  15.606  0.1023  0.6028 -0.6201
 6746SOL    HW131871   3.164   2.511  15.510 -0.8713 -2.3740 -0.5758
 6746SOL    HW231872   3.250   2.561  15.626 -0.2408  0.7211  0.3824
 6747SOL     OW31873   0.106   3.244   5.840  0.4001 -0.1411  0.2354
 6747SOL    HW131874   0.096   3.295   5.759 -1.2019 -2.0969 -0.7911
 6747SOL    HW231875   0.089   3.310   5.908 -0.8990 -0.3933  0.1446
 6748SOL     OW31876   3.505   1.007   1.216  0.7476 -0.2264  0.0581
 6748SOL    HW131877   3.450   1.048   1.149  0.7126 -1.0872 -0.4472
 6748SOL    HW231878   3.563   1.079   1.242  1.6724 -0.7396 -0.5477
 6749SOL     OW31879   1.959   2.005   7.052  0.1319 -0.2369 -0.0290
 6749SOL    HW131880   1.913   1.969   7.128 -1.5668 -1.4228 -1.6288
 6749SOL    HW231881   2.046   2.020   7.087 -0.5999 -1.0108  2.1397
 6750SOL     OW31882   3.865   0.684  15.464 -0.2598  0.6155 -0.5444
 6750SOL    HW131883   3.841   0.642  15.382 -0.9213  0.1624 -0.1253
 6750SOL    HW231884   3.785   0.683  15.517 -0.4947  0.4810 -0.9006
 6751SOL     OW31885   1.031   2.056   4.975 -0.1116  0.2875  0.3611
 6751SOL    HW131886   1.007   2.016   4.891 -3.2201  0.3104  1.2250
 6751SOL    HW231887   1.040   2.150   4.962 -1.2560  0.3127 -0.3029
 6752SOL     OW31888   2.891   1.507   2.630  0.7135 -0.5892  0.5203
 6752SOL    HW131889   2.850   1.453   2.563 -0.2900 -0.6167  1.1524
 6752SOL    HW231890   2.984   1.506   2.607  0.8879 -0.2646  1.1835
 6753SOL     OW31891   1.456   2.670  16.245 -0.2440 -0.1255 -0.6233
 6753SOL    HW131892   1.453   2.744  16.184  0.3434 -1.5887 -2.4024
 6753SOL    HW231893   1.363   2.653  16.260 -0.6234  1.5606 -1.0607
 6754SOL     OW31894   2.472   0.589  14.231  0.7694  0.5167  0.8289
 6754SOL    HW131895   2.489   0.496  14.218 -0.0151  0.6641 -1.2645
 6754SOL    HW231896   2.428   0.585  14.316  0.0070  1.7269  0.4994
 6755SOL     OW31897   2.443   0.455   3.466 -0.2351 -0.0303  0.4302
 6755SOL    HW131898   2.505   0.513   3.421 -0.2252 -1.6005 -1.5504
 6755SOL    HW231899   2.493   0.375   3.450 -0.7882 -0.3515  0.2991
 6756SOL     OW31900   1.596   2.874   8.167 -0.5717 -0.5086 -0.1538
 6756SOL    HW131901   1.573   2.785   8.192  0.6191 -0.6773  0.3307
 6756SOL    HW231902   1.663   2.850   8.103 -1.0898  1.8065 -1.5604
 6757SOL     OW31903   0.300   3.413   2.778  0.6232  0.0245  0.0519
 6757SOL    HW131904   0.315   3.368   2.695  2.0100  0.9599 -0.1990
 6757SOL    HW231905   0.354   3.487   2.752 -0.0502  0.4767 -0.0639
 6758SOL     OW31906   1.397   2.381   2.298  0.6165  0.0133  0.2628
 6758SOL    HW131907   1.408   2.295   2.340  2.1552  0.6431  1.1605
 6758SOL    HW231908   1.483   2.393   2.257  0.6777 -0.7551  0.1602
 6759SOL     OW31909   0.864   2.520   5.959 -0.5945  0.0842 -0.1371
 6759SOL    HW131910   0.770   2.503   5.956 -0.6656  0.3166  0.9046
 6759SOL    HW231911   0.870   2.609   5.924 -1.7004  0.9469  1.8572
 6760SOL     OW31912   4.028   2.372  17.077  0.0283 -0.4335 -0.3545
 6760SOL    HW131913   3.996   2.461  17.091  1.1732 -0.0193 -0.3798
 6760SOL    HW231914   4.074   2.381  16.994 -0.9278  0.7655 -0.7613
 6761SOL     OW31915   1.334   2.019   6.241  0.7193  0.1151 -0.6312
 6761SOL    HW131916   1.264   2.027   6.176 -0.8693  0.6061  1.1606
 6761SOL    HW231917   1.384   2.100   6.224  0.8281 -0.2016 -1.8492
 6762SOL     OW31918   1.086   0.377  10.191 -0.7071  0.4831 -0.2918
 6762SOL    HW131919   1.068   0.345  10.102  0.6941 -0.9381 -0.0699
 6762SOL    HW231920   1.133   0.303  10.231 -0.7949  1.0071  0.7757
 6763SOL     OW31921   4.433   3.317  10.934 -0.0480  0.4530  0.4033
 6763SOL    HW131922   4.432   3.224  10.912  0.4513  1.1989 -2.7850
 6763SOL    HW231923   4.528   3.330  10.936  0.0136  0.1327 -0.5125
 6764SOL     OW31924   3.967   2.690   6.874 -0.4575 -0.0554  0.5973
 6764SOL    HW131925   4.014   2.610   6.898 -0.3510  0.0852  0.8623
 6764SOL    HW231926   3.956   2.732   6.960 -3.4763  2.5861 -1.0736
 6765SOL     OW31927   4.438   2.821  15.691  0.0185  0.7931  0.1404
 6765SOL    HW131928   4.480   2.735  15.686  0.2372  0.9074 -0.0174
 6765SOL    HW231929   4.443   2.832  15.786  0.5467 -1.6435  0.3981
 6766SOL     OW31930   2.872   0.143   9.336 -0.8215  0.2967 -0.3711
 6766SOL    HW131931   2.910   0.199   9.269 -0.5273 -0.2205 -0.6326
 6766SOL    HW231932   2.856   0.203   9.409 -0.8845  1.3231 -1.2230
 6767SOL     OW31933   1.196   3.239   4.071 -0.0906  0.6355 -0.0154
 6767SOL    HW131934   1.170   3.295   4.144  1.9927 -0.7092  1.7464
 6767SOL    HW231935   1.277   3.196   4.097  0.7517  0.1742 -3.3789
 6768SOL     OW31936   1.376   3.093   2.584  0.4842  0.2490 -0.7022
 6768SOL    HW131937   1.428   3.170   2.606  0.1463 -0.0194  1.0725
 6768SOL    HW231938   1.331   3.111   2.501 -0.9407  0.0446  0.0166
 6769SOL     OW31939   0.553   2.596   6.176  0.5765 -0.1120 -0.7841
 6769SOL    HW131940   0.458   2.591   6.181  0.5636  1.0765  0.2179
 6769SOL    HW231941   0.577   2.505   6.190 -0.5341 -0.2371  0.3694
 6770SOL     OW31942   4.226   2.242   3.545  0.2071 -0.1261  0.3914
 6770SOL    HW131943   4.248   2.333   3.527 -0.0757  0.1568  1.4953
 6770SOL    HW231944   4.287   2.206   3.609  2.6492 -0.6317 -2.2344
 6771SOL     OW31945   0.466   3.720   4.595 -0.1844  1.0778 -0.0437
 6771SOL    HW131946   0.499   3.647   4.542 -3.5065 -0.2358 -0.3278
 6771SOL    HW231947   0.543   3.770   4.621  0.9237 -0.0799 -1.0913
 6772SOL     OW31948   4.292   2.565   0.946  0.8841 -0.2625  0.2280
 6772SOL    HW131949   4.288   2.471   0.927 -0.1509  0.2106 -1.8606
 6772SOL    HW231950   4.385   2.582   0.936  1.0991  0.0542  2.5720
 6773SOL     OW31951   1.201   1.061  14.031  0.8569 -0.0798  0.6722
 6773SOL    HW131952   1.144   1.082  13.958  0.0407  0.5143  1.4751
 6773SOL    HW231953   1.136   1.062  14.102  2.4540 -1.4235  2.1603
 6774SOL     OW31954   4.725   1.314   5.462 -0.2124 -0.0482  0.4625
 6774SOL    HW131955   4.644   1.348   5.424  0.2626  0.7778  0.2025
 6774SOL    HW231956   4.698   1.288   5.550  0.1679  2.6111  1.3539
 6775SOL     OW31957   4.262   0.190   3.912 -0.7491  0.2853 -0.1639
 6775SOL    HW131958   4.213   0.108   3.901 -0.3443 -0.2162  1.8613
 6775SOL    HW231959   4.242   0.204   4.004  0.7705  1.5754 -0.0335
 6776SOL     OW31960   1.922   1.329  16.289 -0.3040  0.1493  0.1898
 6776SOL    HW131961   1.925   1.250  16.235  0.9741 -0.1727  0.7209
 6776SOL    HW231962   1.975   1.388  16.236  0.2415  1.1550  1.8572
 6777SOL     OW31963   0.355   1.882   1.211  0.0498 -0.0757  0.1851
 6777SOL    HW131964   0.320   1.795   1.234  0.0248  0.1315  0.9155
 6777SOL    HW231965   0.272   1.928   1.194 -0.9611 -1.9056  0.1068
 6778SOL     OW31966   3.537   4.095   6.996  0.9948  0.1211 -0.4627
 6778SOL    HW131967   3.509   4.185   7.012  0.7204  0.0544 -0.5710
 6778SOL    HW231968   3.575   4.102   6.908 -0.5449  2.0154 -0.9767
 6779SOL     OW31969   0.311   4.518   5.455 -0.3444  0.0845  0.0452
 6779SOL    HW131970   0.398   4.558   5.452 -0.9579  1.2805 -1.7265
 6779SOL    HW231971   0.310   4.469   5.373  2.6374 -2.7913  1.6857
 6780SOL     OW31972   1.303   1.272   3.164  0.7131 -0.4758 -0.5698
 6780SOL    HW131973   1.270   1.194   3.210  1.4903 -0.0694  0.6832
 6780SOL    HW231974   1.388   1.237   3.136  0.5663 -0.6023 -0.8610
 6781SOL     OW31975   1.936   3.352  14.032  0.6449 -0.3457  0.3721
 6781SOL    HW131976   1.894   3.334  13.948  0.3206  0.9633  0.2618
 6781SOL    HW231977   1.968   3.438  14.008  0.0971 -0.4207 -0.6351
 6782SOL     OW31978   4.014   0.455  11.378  0.1183 -0.5618 -0.1065
 6782SOL    HW131979   4.059   0.423  11.457 -1.6371 -2.6176  0.0498
 6782SOL    HW231980   4.091   0.462  11.321 -0.2992  0.8964 -0.4810
 6783SOL     OW31981   2.065   3.408   0.602 -0.4753 -0.2100  0.1346
 6783SOL    HW131982   2.065   3.501   0.579  0.0917 -0.5372 -1.1887
 6783SOL    HW231983   2.148   3.371   0.572 -1.3702 -1.0184 -1.3184
 6784SOL     OW31984   1.912   0.336   2.027  0.3795 -0.0630  0.0930
 6784SOL    HW131985   1.951   0.384   1.954  0.1354 -1.7569 -1.1415
 6784SOL    HW231986   1.990   0.330   2.082  1.8927 -2.4670 -2.3009
 6785SOL     OW31987   2.027   2.980   4.758  0.1702 -0.0318 -0.2552
 6785SOL    HW131988   1.976   3.040   4.703 -1.0908  0.0530  1.0087
 6785SOL    HW231989   2.085   2.948   4.689 -0.0718  0.8679 -0.8742
 6786SOL     OW31990   1.478   4.317   1.483 -0.7158  0.3399 -0.4117
 6786SOL    HW131991   1.557   4.321   1.537 -1.3449 -0.1634  0.5376
 6786SOL    HW231992   1.491   4.239   1.428  3.7059  0.2634  0.7877
 6787SOL     OW31993   4.351   4.688   3.114 -0.3293 -0.7768 -0.0921
 6787SOL    HW131994   4.304   0.002   3.045 -2.5067 -2.7376  0.0363
 6787SOL    HW231995   4.309   4.704   3.199  0.7108  1.9975 -0.0915
 6788SOL     OW31996   0.293   4.402   4.261  0.2685 -0.5127  0.0833
 6788SOL    HW131997   0.353   4.356   4.203 -2.3415 -0.5317 -2.6062
 6788SOL    HW231998   0.211   4.403   4.213 -0.7930  0.0744  1.9013
 6789SOL     OW31999   4.140   3.513   5.574 -0.2967 -0.0311  0.1168
 6789SOL    HW132000   4.111   3.431   5.615  2.1382 -0.6056  0.6740
 6789SOL    HW232001   4.114   3.580   5.636 -1.1589  0.0793 -0.3604
 6790SOL     OW32002   4.144   3.794  11.902 -0.3840 -0.5718 -0.6575
 6790SOL    HW132003   4.212   3.813  11.966  1.0449  1.5382 -2.7905
 6790SOL    HW232004   4.067   3.830  11.946  1.0153  1.3288  0.2556
 6791SOL     OW32005   1.081   2.671   6.076  0.0099  0.1509  0.0000
 6791SOL    HW132006   1.124   2.735   6.018 -1.1205  2.1330  1.3232
 6791SOL    HW232007   1.047   2.732   6.142 -1.1865  0.2550 -0.7109
 6792SOL     OW32008   2.615   1.892   8.767 -0.0510  0.8140 -0.0798
 6792SOL    HW132009   2.600   1.985   8.754 -2.1781  0.4190 -0.4813
 6792SOL    HW232010   2.709   1.893   8.786  0.4097  1.0367 -2.4494
 6793SOL     OW32011   0.595   4.337   7.122  1.2607  0.1591  0.3020
 6793SOL    HW132012   0.589   4.421   7.167  0.2201 -0.7796  1.9183
 6793SOL    HW232013   0.509   4.330   7.081  1.1143 -0.7791  0.7633
 6794SOL     OW32014   1.919   1.734   2.144 -0.4825  0.4568  0.3188
 6794SOL    HW132015   1.887   1.672   2.210  0.2044  0.2018  0.4033
 6794SOL    HW232016   1.955   1.679   2.074  1.4258  1.6350  0.3941
 6795SOL     OW32017   3.436   1.499   9.698  0.1243  0.5406 -0.4027
 6795SOL    HW132018   3.384   1.423   9.673 -0.8425  0.6275  1.3222
 6795SOL    HW232019   3.444   1.490   9.793 -1.0065 -0.0832 -0.3740
 6796SOL     OW32020   1.313   2.133   4.693 -0.5348 -0.0641  0.4899
 6796SOL    HW132021   1.368   2.064   4.656 -0.4214  0.1670  0.2209
 6796SOL    HW232022   1.371   2.162   4.764  4.9800 -0.4908 -3.8279
 6797SOL     OW32023   0.047   3.567   6.214  0.1513  0.8001 -0.0690
 6797SOL    HW132024   0.068   3.533   6.127  1.0019 -0.4874  0.6303
 6797SOL    HW232025   4.712   3.627   6.189 -0.2491  1.0297  1.5868
 6798SOL     OW32026   3.448   0.909  12.809  0.0729 -0.1728 -0.1365
 6798SOL    HW132027   3.494   0.877  12.731 -2.3499 -0.5523 -1.3978
 6798SOL    HW232028   3.476   0.847  12.876 -0.6534 -2.1205 -1.6191
 6799SOL     OW32029   4.199   2.327   2.313  0.1029 -0.0760  0.4245
 6799SOL    HW132030   4.223   2.394   2.249  1.6767 -1.9069 -0.9270
 6799SOL    HW232031   4.241   2.251   2.272  0.1806 -0.1929  0.7192
 6800SOL     OW32032   2.984   1.781   2.271  0.0322 -0.2246 -0.1903
 6800SOL    HW132033   3.057   1.813   2.324  1.6115 -2.8029 -0.8531
 6800SOL    HW232034   2.971   1.858   2.215  0.3089 -0.9362 -1.2297
 6801SOL     OW32035   3.495   2.930  15.383 -0.1367 -0.0965  0.5609
 6801SOL    HW132036   3.584   2.927  15.417  0.7392  0.8267 -1.6154
 6801SOL    HW232037   3.514   2.967  15.296 -0.5445 -1.0783  0.0514
 6802SOL     OW32038   4.266   1.456   8.263  0.0468 -0.0933 -0.2314
 6802SOL    HW132039   4.175   1.431   8.279 -0.5274  2.6822  0.8129
 6802SOL    HW232040   4.314   1.373   8.266 -0.4752 -0.3994 -0.3655
 6803SOL     OW32041   2.071   0.107   5.068 -0.0602  0.3796 -0.0228
 6803SOL    HW132042   2.146   0.109   5.009  2.0077 -2.9695  2.4749
 6803SOL    HW232043   2.073   0.016   5.097  2.1777  0.5616  0.3874
 6804SOL     OW32044   4.412   4.557   9.480  0.5974  0.0570 -0.6780
 6804SOL    HW132045   4.462   4.618   9.535 -1.6264  0.4501  0.8860
 6804SOL    HW232046   4.342   4.535   9.541  0.0988 -0.3202 -1.3773
 6805SOL     OW32047   1.954   1.300   8.410 -0.4666 -0.5602 -0.0405
 6805SOL    HW132048   1.938   1.352   8.489 -1.7265  1.2435 -1.4744
 6805SOL    HW232049   2.031   1.247   8.433 -1.0374 -0.3808  2.2533
 6806SOL     OW32050   3.632   2.516   8.556  0.4126  0.0423 -0.0659
 6806SOL    HW132051   3.724   2.540   8.570 -0.3216  1.7854  1.8726
 6806SOL    HW232052   3.629   2.442   8.617 -0.7120  1.7585  1.9681
 6807SOL     OW32053   2.229   3.181  16.986 -0.0397  0.1891  0.4796
 6807SOL    HW132054   2.150   3.180  16.932 -1.0464  2.6349  1.8974
 6807SOL    HW232055   2.192   3.171  17.074  0.4911  2.2637  0.9383
 6808SOL     OW32056   2.114   1.761   4.525 -0.2840  0.1129  0.0400
 6808SOL    HW132057   2.136   1.700   4.595 -3.2625  1.5263  2.1951
 6808SOL    HW232058   2.055   1.712   4.468  3.5643 -2.2057 -1.9341
 6809SOL     OW32059   2.978   4.468  13.182 -0.4116 -0.1517  0.9079
 6809SOL    HW132060   3.063   4.442  13.217 -0.2926  0.8270  1.3501
 6809SOL    HW232061   2.929   4.467  13.265 -0.3686 -2.8134  0.8873
 6810SOL     OW32062   1.640   0.926   4.889  0.1363  0.2840 -0.0651
 6810SOL    HW132063   1.597   0.868   4.953  1.2463 -0.6522 -0.1754
 6810SOL    HW232064   1.566   0.980   4.861 -0.9694 -1.4945 -0.6339
 6811SOL     OW32065   4.023   2.867   6.305  0.7432 -0.0167  0.3144
 6811SOL    HW132066   4.056   2.851   6.216 -0.4317  0.7962 -0.2725
 6811SOL    HW232067   4.102   2.877   6.358  1.6843 -2.1308 -0.6798
 6812SOL     OW32068   4.662   2.398  14.281 -0.2494 -0.3992  0.1638
 6812SOL    HW132069   4.589   2.342  14.255 -0.9638  1.1233 -1.0757
 6812SOL    HW232070   4.622   2.476  14.318  1.1366  0.3922 -0.0126
 6813SOL     OW32071   0.397   1.866  11.282 -0.3259  0.3799 -0.7281
 6813SOL    HW132072   0.406   1.961  11.282 -2.3794  0.5525  1.1792
 6813SOL    HW232073   0.355   1.859  11.367  2.5599  0.8317  0.7166
 6814SOL     OW32074   4.716   2.163   7.148  0.2606 -0.4388 -0.2221
 6814SOL    HW132075   4.691   2.245   7.107 -0.5390  0.2632  1.6966
 6814SOL    HW232076   4.667   2.102   7.093 -0.7845 -1.2833  1.6589
 6815SOL     OW32077   4.264   4.202  11.865 -0.1991  0.9091 -0.3052
 6815SOL    HW132078   4.172   4.181  11.849 -0.1810  0.4179  0.2798
 6815SOL    HW232079   4.282   4.283  11.817 -1.9070  2.2150  1.2631
 6816SOL     OW32080   1.054   4.136   7.516  0.4627  0.5295 -0.0280
 6816SOL    HW132081   0.974   4.095   7.548  0.4881 -0.6814 -1.5416
 6816SOL    HW232082   1.097   4.150   7.600  0.2905  0.1551  0.1195
 6817SOL     OW32083   3.221   0.374  11.980 -0.5470 -0.0165 -0.2175
 6817SOL    HW132084   3.300   0.427  11.973 -0.6681  0.3294  0.9875
 6817SOL    HW232085   3.182   0.352  11.896 -2.1139  0.5785  0.3646
 6818SOL     OW32086   3.946   0.314  16.677  0.4817 -0.5834 -0.3529
 6818SOL    HW132087   3.952   0.325  16.582 -0.7672 -0.1406 -0.3787
 6818SOL    HW232088   3.927   0.403  16.705 -1.0353 -0.6993 -1.0135
 6819SOL     OW32089   2.273   2.462   1.858  0.1643  0.0310 -0.1522
 6819SOL    HW132090   2.293   2.556   1.859  2.7005 -0.5064 -1.5507
 6819SOL    HW232091   2.182   2.465   1.830  0.5856  1.9708 -1.2966
 6820SOL     OW32092   2.874   4.274  11.090 -0.7154  0.6763  0.3463
 6820SOL    HW132093   2.795   4.295  11.140 -0.8631 -0.0387  0.4120
 6820SOL    HW232094   2.883   4.360  11.048  0.5814 -0.5246 -1.8508
 6821SOL     OW32095   3.824   1.078   6.951 -0.5401 -0.1314  0.3315
 6821SOL    HW132096   3.793   1.007   7.007 -0.7189  0.7464  1.3685
 6821SOL    HW232097   3.916   1.059   6.933 -0.2628  0.5909  0.9967
 6822SOL     OW32098   0.359   4.411   1.636  0.0809 -0.2756  0.5058
 6822SOL    HW132099   0.396   4.473   1.699 -1.6892 -0.9606  2.2422
 6822SOL    HW232100   0.427   4.355   1.601  0.7980  2.1847 -2.0412
 6823SOL     OW32101   1.794   1.616   7.528  0.4712 -1.0794 -0.3998
 6823SOL    HW132102   1.704   1.636   7.556  1.4022 -0.4401  2.1248
 6823SOL    HW232103   1.841   1.688   7.570  1.5447 -2.9361  1.5283
 6824SOL     OW32104   2.659   1.307   3.971  0.1032 -0.0328 -0.3097
 6824SOL    HW132105   2.699   1.390   3.996 -0.7887  0.6439 -1.1480
 6824SOL    HW232106   2.647   1.328   3.879 -1.5764 -0.3386 -0.1627
 6825SOL     OW32107   3.799   0.823  11.758 -0.0130  0.1306  0.8129
 6825SOL    HW132108   3.842   0.900  11.721  3.8477 -3.0676 -1.3602
 6825SOL    HW232109   3.821   0.755  11.695 -0.1218 -0.8262  1.8136
 6826SOL     OW32110   0.866   3.445   8.106 -0.4063 -0.4595  0.3772
 6826SOL    HW132111   0.839   3.354   8.111  1.0151 -0.7975  1.8790
 6826SOL    HW232112   0.786   3.486   8.074 -0.2984  0.9752  1.9066
 6827SOL     OW32113   0.644   1.824   2.299 -0.3363  0.1318 -0.1420
 6827SOL    HW132114   0.645   1.780   2.215 -0.5760 -0.7595  0.3209
 6827SOL    HW232115   0.728   1.870   2.297  0.0642 -0.5535  0.7743
 6828SOL     OW32116   1.276   0.202   4.603 -0.1709  0.2307  0.4862
 6828SOL    HW132117   1.369   0.192   4.622 -0.0290 -1.2303 -1.0023
 6828SOL    HW232118   1.262   0.138   4.533  1.0998  1.3616 -0.7953
 6829SOL     OW32119   4.175   3.314   2.135  0.6645 -0.2462  0.1022
 6829SOL    HW132120   4.180   3.262   2.215  0.3395 -0.8222 -0.2505
 6829SOL    HW232121   4.079   3.317   2.131  0.7138 -0.8083 -1.4907
 6830SOL     OW32122   1.437   1.936   3.529 -0.2922  0.1102 -0.3157
 6830SOL    HW132123   1.457   1.860   3.475 -1.9128 -0.7360  0.2657
 6830SOL    HW232124   1.342   1.945   3.517 -0.3172  0.3644  0.0512
 6831SOL     OW32125   0.129   3.322   8.046 -0.0007 -0.1915 -0.5675
 6831SOL    HW132126   0.041   3.313   8.083  0.3739 -0.5303  0.2460
 6831SOL    HW232127   0.168   3.338   8.132  1.3751 -0.4453 -1.1427
 6832SOL     OW32128   0.994   2.851  13.730  0.2073  0.0582 -0.7021
 6832SOL    HW132129   0.989   2.931  13.678  1.9604  0.4093 -0.3330
 6832SOL    HW232130   0.913   2.856  13.780  0.1150  2.0240 -1.0751
 6833SOL     OW32131   2.559   4.002   9.165 -0.2990  0.3230 -0.3068
 6833SOL    HW132132   2.597   4.085   9.138  0.3318 -0.6639 -2.4382
 6833SOL    HW232133   2.487   3.997   9.102 -1.0633  0.4759  0.5544
 6834SOL     OW32134   1.011   0.625   4.862 -0.5480  0.1968 -0.6703
 6834SOL    HW132135   1.062   0.619   4.943  0.2579  2.0921 -1.0366
 6834SOL    HW232136   0.930   0.660   4.899  0.9744  3.1052 -0.0480
 6835SOL     OW32137   1.133   2.186   1.056 -0.3519 -0.3654 -0.0020
 6835SOL    HW132138   1.201   2.153   0.996 -1.4061 -1.1025 -0.7894
 6835SOL    HW232139   1.058   2.180   0.997 -2.1755  0.4855  2.2380
 6836SOL     OW32140   2.590   4.178  17.567 -0.0789  0.0608  0.1693
 6836SOL    HW132141   2.586   4.240  17.641  1.0626  1.6719 -1.1107
 6836SOL    HW232142   2.577   4.238  17.493  0.1337 -1.2984 -0.9660
 6837SOL     OW32143   2.003   3.524   8.679 -0.5258 -0.5950  0.0878
 6837SOL    HW132144   2.083   3.575   8.694 -1.7551  0.9392  1.4651
 6837SOL    HW232145   1.999   3.477   8.762 -0.0399 -1.6929 -0.5074
 6838SOL     OW32146   2.090   1.890   9.838  0.6902  0.5161 -0.0645
 6838SOL    HW132147   2.073   1.889   9.744 -0.3349  1.2513  0.1201
 6838SOL    HW232148   2.062   1.979   9.859 -0.5593  0.5982 -2.1161
 6839SOL     OW32149   4.682   0.782   4.471 -0.1609  0.3255  0.0553
 6839SOL    HW132150   4.598   0.740   4.457  0.7423 -1.3115 -0.3561
 6839SOL    HW232151   0.010   0.718   4.437 -1.1108 -1.1801  1.1854
 6840SOL     OW32152   0.714   4.160   3.674 -0.3313  0.6024  0.0318
 6840SOL    HW132153   0.716   4.123   3.762  1.4351 -2.1675 -1.1920
 6840SOL    HW232154   0.773   4.233   3.689  0.1526 -0.2003  1.9718
 6841SOL     OW32155   0.106   4.041  16.029 -0.2901  0.2959  0.4306
 6841SOL    HW132156   0.085   3.950  16.007  0.7238  0.0107  0.6177
 6841SOL    HW232157   0.179   4.051  15.967 -1.6806  2.0291 -0.9328
 6842SOL     OW32158   0.648   1.797  15.066  0.1207 -0.3226  0.3532
 6842SOL    HW132159   0.621   1.735  14.998  1.5131  2.0716 -2.3475
 6842SOL    HW232160   0.686   1.868  15.015 -0.0368 -0.8275 -0.4609
 6843SOL     OW32161   2.666   2.317   7.753 -0.1968 -0.3180  0.3743
 6843SOL    HW132162   2.587   2.358   7.788 -0.4258  0.4524 -1.0676
 6843SOL    HW232163   2.728   2.350   7.819 -0.2860  1.5901 -0.5084
 6844SOL     OW32164   3.136   3.580  11.353 -0.4042  0.0073  0.3721
 6844SOL    HW132165   3.052   3.564  11.310 -0.7096 -1.6025  1.5505
 6844SOL    HW232166   3.195   3.521  11.306 -1.2735 -2.3895  2.2981
 6845SOL     OW32167   2.574   0.675   6.514 -0.0623  0.0961  0.5090
 6845SOL    HW132168   2.538   0.598   6.470 -2.0707  0.8169  0.9006
 6845SOL    HW232169   2.592   0.649   6.604  1.5077 -0.4701  0.0458
 6846SOL     OW32170   1.685   0.375   1.021 -0.3736  0.2315 -0.0864
 6846SOL    HW132171   1.590   0.360   1.018 -0.2939 -0.3936  0.3937
 6846SOL    HW232172   1.720   0.290   1.049  1.5600  1.4961  1.3419
 6847SOL     OW32173   0.428   0.421   1.705  0.3034  0.8599 -0.6252
 6847SOL    HW132174   0.495   0.354   1.692 -0.5066 -0.0118 -0.2911
 6847SOL    HW232175   0.374   0.408   1.627 -1.7426 -1.0665  1.1222
 6848SOL     OW32176   1.610   1.262  14.646 -0.0533 -0.1752  0.2051
 6848SOL    HW132177   1.571   1.220  14.569  2.0211  1.7995 -1.8970
 6848SOL    HW232178   1.596   1.200  14.718 -2.6439  1.8614  1.4703
 6849SOL     OW32179   2.374   0.152   2.983  0.1392 -0.7223 -0.0319
 6849SOL    HW132180   2.344   0.080   3.037  0.3963 -1.3120 -0.6743
 6849SOL    HW232181   2.362   0.218   3.051  1.6223 -0.7001  0.2100
 6850SOL     OW32182   1.412   4.620   2.083  0.1357  0.0536  0.5480
 6850SOL    HW132183   1.395   4.630   1.989 -0.0989 -3.7883  0.1826
 6850SOL    HW232184   1.331   4.581   2.116  0.4261  0.4145  1.6636
 6851SOL     OW32185   1.906   2.162   4.303 -0.2050  0.7377 -0.3833
 6851SOL    HW132186   1.937   2.167   4.212  0.2220  0.2505 -0.2683
 6851SOL    HW232187   1.839   2.230   4.307 -0.3214  0.6685 -1.1648
 6852SOL     OW32188   0.639   1.015   4.037 -0.0159 -0.5021 -0.3475
 6852SOL    HW132189   0.699   1.066   4.092 -1.0642  0.9848 -0.6040
 6852SOL    HW232190   0.553   1.028   4.076  0.7899  1.7097  0.6923
 6853SOL     OW32191   1.048   4.160   8.028 -0.1436  0.0302 -0.0135
 6853SOL    HW132192   0.968   4.126   8.070 -1.1378 -0.7329 -2.5187
 6853SOL    HW232193   1.015   4.223   7.964  0.5761  0.3763 -0.0451
 6854SOL     OW32194   1.561   2.478  13.573  0.6305  0.0611 -0.7961
 6854SOL    HW132195   1.472   2.442  13.578  1.0043 -0.6335  0.7351
 6854SOL    HW232196   1.618   2.403  13.584  3.1969  2.2127  0.6651
 6855SOL     OW32197   4.127   4.690   3.643 -0.2894 -0.0567 -0.1729
 6855SOL    HW132198   4.034   4.677   3.658 -0.6206  2.2735 -0.2212
 6855SOL    HW232199   4.153   4.711   3.733 -0.5512 -0.3387 -0.0328
 6856SOL     OW32200   0.220   4.549   4.529  0.6607 -0.2825  0.0614
 6856SOL    HW132201   0.129   4.558   4.558  0.7151 -2.8187  1.0349
 6856SOL    HW232202   0.212   4.463   4.488  0.9853 -0.8264  1.1167
 6857SOL     OW32203   1.463   1.625   3.767 -1.0186 -0.3103  0.5978
 6857SOL    HW132204   1.535   1.564   3.784 -1.4495 -0.6320  1.2766
 6857SOL    HW232205   1.430   1.587   3.685 -0.2410  2.4586 -0.9989
 6858SOL     OW32206   3.240   1.026   6.629  0.0625  0.0151  0.0085
 6858SOL    HW132207   3.201   0.959   6.574 -0.3858 -0.4066  0.8324
 6858SOL    HW232208   3.326   1.006   6.668  0.1141  1.1782  0.4981
 6859SOL     OW32209   3.542   0.435   3.878 -0.3198 -0.0049 -0.1817
 6859SOL    HW132210   3.473   0.410   3.817 -0.5208 -0.0269  0.0565
 6859SOL    HW232211   3.613   0.390   3.833  0.0940  0.4311  0.0303
 6860SOL     OW32212   3.738   2.017   8.523 -0.3457 -0.2089 -0.2835
 6860SOL    HW132213   3.672   1.948   8.535 -0.6624  0.5694  2.3384
 6860SOL    HW232214   3.807   1.981   8.578  1.4329 -0.5557 -2.7346
 6861SOL     OW32215   0.628   3.817   5.326  0.1080  0.3787 -0.1255
 6861SOL    HW132216   0.650   3.751   5.260  0.9384  0.6899 -0.1739
 6861SOL    HW232217   0.676   3.783   5.402 -0.7108  0.2002  0.3054
 6862SOL     OW32218   1.287   4.115   3.564  0.1096  0.6359  0.8665
 6862SOL    HW132219   1.198   4.080   3.576  0.0712  0.0511 -1.1756
 6862SOL    HW232220   1.326   4.128   3.651 -1.5658  0.3452  1.6652
 6863SOL     OW32221   2.192   4.414   8.538 -0.6051  0.4722  0.2847
 6863SOL    HW132222   2.238   4.334   8.563 -2.1674 -0.7830 -0.8642
 6863SOL    HW232223   2.133   4.434   8.610 -0.7106  1.3818 -0.0515
 6864SOL     OW32224   4.038   4.101   3.249  0.0099  0.1488  0.2726
 6864SOL    HW132225   4.089   4.020   3.259 -2.4160 -1.4977 -0.7038
 6864SOL    HW232226   4.009   4.113   3.339  1.4516 -1.8016  0.9962
 6865SOL     OW32227   1.227   3.455   6.872 -0.7181 -0.2021  0.1012
 6865SOL    HW132228   1.162   3.526   6.878 -0.0486  0.2369  2.0435
 6865SOL    HW232229   1.256   3.463   6.962  2.1825  1.8581 -1.0260
 6866SOL     OW32230   2.664   4.665  11.287 -0.2269  1.0529  0.4304
 6866SOL    HW132231   2.743   4.644  11.337  0.6144  1.8896 -0.5352
 6866SOL    HW232232   2.669   4.596  11.221 -0.7410  2.7116 -1.3367
 6867SOL     OW32233   2.934   3.576   5.460  0.6703  0.4710  0.2000
 6867SOL    HW132234   2.985   3.608   5.386  2.2085 -0.3003  0.9278
 6867SOL    HW232235   2.858   3.632   5.446  0.8575  0.8560  0.7206
 6868SOL     OW32236   0.757   2.215  14.447 -0.2306  0.1554  0.3887
 6868SOL    HW132237   0.734   2.123  14.439  1.6342 -0.2941  0.0944
 6868SOL    HW232238   0.748   2.238  14.354  2.1349  1.1976  0.4010
 6869SOL     OW32239   1.226   3.691   4.336 -0.3948  0.2434 -0.0847
 6869SOL    HW132240   1.283   3.638   4.391  1.1270  0.9257 -1.0189
 6869SOL    HW232241   1.207   3.764   4.395 -0.5896 -1.0692  1.4627
 6870SOL     OW32242   0.471   2.480   6.729  0.0725 -0.1003  0.2829
 6870SOL    HW132243   0.409   2.486   6.656  0.9615 -0.8824 -0.5337
 6870SOL    HW232244   0.476   2.384   6.735  2.7137  0.0100 -0.1147
 6871SOL     OW32245   4.112   1.179   0.152 -0.3113  0.6843  0.4730
 6871SOL    HW132246   4.114   1.273   0.136 -0.5797  0.6382  0.1708
 6871SOL    HW232247   4.202   1.163   0.179 -0.0692  0.9305 -0.1929
 6872SOL     OW32248   2.505   4.039  10.524 -0.6239  0.0917 -0.1836
 6872SOL    HW132249   2.594   4.010  10.504 -0.7667  0.3681 -1.1891
 6872SOL    HW232250   2.463   3.969  10.475 -0.8082 -0.9625  1.4872
 6873SOL     OW32251   2.574   3.721   9.151  0.3189 -1.0228 -0.1380
 6873SOL    HW132252   2.573   3.816   9.142 -0.6269 -0.8713  1.6348
 6873SOL    HW232253   2.488   3.700   9.186  0.1410  0.1003  0.1013
 6874SOL     OW32254   0.217   3.039  13.229  0.1242  0.8975 -0.1466
 6874SOL    HW132255   0.271   2.990  13.168 -2.6678  0.3254 -2.1517
 6874SOL    HW232256   0.234   3.132  13.213  2.8135  0.5323  0.5797
 6875SOL     OW32257   4.493   0.718   2.241  0.3424 -0.0248 -0.0181
 6875SOL    HW132258   4.569   0.720   2.184  0.9396  0.2241  0.7839
 6875SOL    HW232259   4.542   0.735   2.322 -0.4421  3.7782 -0.3249
 6876SOL     OW32260   0.485   0.757   3.323  0.8593 -0.1401  0.0681
 6876SOL    HW132261   0.551   0.825   3.311 -1.4765  2.1384  0.3675
 6876SOL    HW232262   0.436   0.766   3.241 -2.9498 -1.6331  2.1938
 6877SOL     OW32263   0.635   3.015  11.904 -0.8889 -0.3805  0.7600
 6877SOL    HW132264   0.664   3.102  11.876  1.4470 -0.9937  1.2748
 6877SOL    HW232265   0.673   3.005  11.991 -1.3708 -0.1695  0.9950
 6878SOL     OW32266   4.542   4.449  17.680 -0.2241 -0.4604  0.0009
 6878SOL    HW132267   4.526   4.472  17.588  1.6006  3.8959  0.7854
 6878SOL    HW232268   4.465   4.400  17.709  0.8293 -1.5229  0.9773
 6879SOL     OW32269   0.309   0.256   3.078 -0.2978 -0.3762  0.4649
 6879SOL    HW132270   0.332   0.263   3.171  0.7019  2.3734  0.0169
 6879SOL    HW232271   0.377   0.315   3.045 -1.3715  0.8761  0.4694
 6880SOL     OW32272   3.781   3.890   2.930  0.4935 -0.4837  0.3672
 6880SOL    HW132273   3.756   3.982   2.920  1.4641 -0.1168  1.2940
 6880SOL    HW232274   3.870   3.891   2.895 -0.8948  2.7768 -3.1175
 6881SOL     OW32275   2.990   0.370   9.184 -0.1491 -0.2390  0.9799
 6881SOL    HW132276   3.018   0.315   9.111  0.3494  0.1384  0.8848
 6881SOL    HW232277   3.014   0.455   9.148 -0.8013 -0.6443 -0.4086
 6882SOL     OW32278   2.373   0.085   6.937  0.7767 -0.7736 -0.2829
 6882SOL    HW132279   2.349   0.161   6.884  2.0197  0.8014  1.4124
 6882SOL    HW232280   2.329   0.012   6.893  1.7409 -2.0136  0.7917
 6883SOL     OW32281   0.924   1.689  15.550 -0.2313 -0.3135  0.9171
 6883SOL    HW132282   0.874   1.729  15.480 -0.5695 -1.6234  0.4020
 6883SOL    HW232283   0.996   1.655  15.498 -2.2002 -1.2087 -1.1983
 6884SOL     OW32284   1.142   1.232   1.314 -0.1142  0.2621 -0.5057
 6884SOL    HW132285   1.208   1.301   1.313  1.2743 -1.0587 -0.9768
 6884SOL    HW232286   1.168   1.192   1.231 -2.2505 -1.4289 -0.3552
 6885SOL     OW32287   4.560   0.378   4.561 -0.5699 -0.0283  0.1395
 6885SOL    HW132288   4.594   0.371   4.471 -2.0663  1.2794 -0.5169
 6885SOL    HW232289   4.637   0.416   4.603 -1.0351 -0.1634  1.1136
 6886SOL     OW32290   4.081   4.560   2.085 -0.1045 -0.6419 -0.2575
 6886SOL    HW132291   4.098   4.637   2.139  1.0327 -1.4594  0.5348
 6886SOL    HW232292   4.010   4.597   2.032 -0.7186 -1.8552 -0.2985
 6887SOL     OW32293   3.539   3.008  11.852  0.0461 -0.7982  0.1080
 6887SOL    HW132294   3.616   3.065  11.854 -0.6106  0.0891  0.0216
 6887SOL    HW232295   3.506   3.021  11.941 -2.3273 -1.6656 -0.6544
 6888SOL     OW32296   0.261   1.815   5.386 -0.2415 -0.3853 -0.5327
 6888SOL    HW132297   0.194   1.832   5.453 -0.5429 -0.8373 -0.7155
 6888SOL    HW232298   0.336   1.853   5.431 -1.3990  0.0599  1.0260
 6889SOL     OW32299   2.251   2.323   4.327  0.2396  0.0022  0.3184
 6889SOL    HW132300   2.273   2.256   4.263 -0.5454 -0.0672  0.1243
 6889SOL    HW232301   2.257   2.405   4.277  0.5553  0.0345  0.4087
 6890SOL     OW32302   2.234   1.345  11.762 -0.0420 -1.0814 -0.4481
 6890SOL    HW132303   2.203   1.299  11.841 -2.3541  0.5349 -0.4026
 6890SOL    HW232304   2.293   1.281  11.723  0.4207 -1.5468  1.0046
 6891SOL     OW32305   3.316   1.462   8.052  0.0264 -0.3532  0.5328
 6891SOL    HW132306   3.308   1.423   7.965  0.3873 -1.2723  0.9198
 6891SOL    HW232307   3.293   1.553   8.031  1.0059  0.1808  1.7401
 6892SOL     OW32308   0.976   3.007   5.725 -0.3293  0.2173  0.2494
 6892SOL    HW132309   1.004   3.081   5.779  0.7586  0.3236 -0.4539
 6892SOL    HW232310   0.890   3.030   5.689  1.2925 -1.1732 -4.4946
 6893SOL     OW32311   4.206   1.941   7.599 -0.1579  0.0008  0.9236
 6893SOL    HW132312   4.222   1.891   7.519  2.7605 -0.4454  1.8007
 6893SOL    HW232313   4.114   1.962   7.587  0.4331  0.8732 -2.0726
 6894SOL     OW32314   3.756   2.128  14.016  0.4013  0.7356 -0.5095
 6894SOL    HW132315   3.793   2.145  14.102 -0.4064  0.5109 -0.1236
 6894SOL    HW232316   3.797   2.201  13.969  1.3802 -0.1279 -1.0016
 6895SOL     OW32317   1.472   3.474   3.977  0.3868 -0.0955  0.4628
 6895SOL    HW132318   1.382   3.505   3.975  1.2858  2.4122 -1.5453
 6895SOL    HW232319   1.514   3.559   3.963 -1.5206  0.7515 -0.1162
 6896SOL     OW32320   1.624   4.045   5.253 -0.0399  0.1469  0.3402
 6896SOL    HW132321   1.605   3.959   5.289 -0.8168  0.3744  0.4731
 6896SOL    HW232322   1.688   4.038   5.182  0.7494 -0.5916  1.1230
 6897SOL     OW32323   2.554   0.176   5.991 -0.1099  0.9032 -0.5312
 6897SOL    HW132324   2.559   0.247   6.055  2.1049  0.0099  0.3006
 6897SOL    HW232325   2.603   0.112   6.043 -1.5864 -0.0655 -0.3390
 6898SOL     OW32326   1.612   0.930   4.526 -0.6661  0.7129 -0.5173
 6898SOL    HW132327   1.690   0.951   4.577 -1.3211 -1.6116  1.4812
 6898SOL    HW232328   1.544   0.961   4.586 -0.0700  2.4752 -0.7661
 6899SOL     OW32329   0.957   4.161   0.350 -0.8674 -0.2357  0.3126
 6899SOL    HW132330   0.887   4.105   0.383  0.8845 -2.6248 -0.0599
 6899SOL    HW232331   1.000   4.191   0.429 -1.4506 -1.4049  1.0696
 6900SOL     OW32332   4.107   4.142  13.067  0.4334 -0.0943 -0.5050
 6900SOL    HW132333   4.070   4.085  13.134 -0.2260  2.5684  1.4308
 6900SOL    HW232334   4.175   4.087  13.030 -2.8519 -3.8829 -0.8952
 6901SOL     OW32335   0.335   3.003   0.296 -0.8631  0.0063 -0.3292
 6901SOL    HW132336   0.361   2.914   0.319 -2.5521 -0.6054 -0.7311
 6901SOL    HW232337   0.339   2.992   0.201 -0.1082  2.9216 -0.6134
 6902SOL     OW32338   1.912   0.766  13.958  0.1073  0.4078  0.2855
 6902SOL    HW132339   1.822   0.736  13.968  0.8304 -1.0789  2.4178
 6902SOL    HW232340   1.928   0.742  13.867 -1.2316  2.1305 -0.3870
 6903SOL     OW32341   0.247   3.827   4.427 -0.0618 -0.2196 -0.1775
 6903SOL    HW132342   0.332   3.871   4.425 -0.6422  0.9303  0.3573
 6903SOL    HW232343   0.210   3.867   4.506  0.8466 -0.7047  0.4929
 6904SOL     OW32344   0.253   0.333  17.243 -0.2481 -1.0345 -0.0421
 6904SOL    HW132345   0.199   0.282  17.183  0.1564  0.5473 -1.7434
 6904SOL    HW232346   0.338   0.289  17.232 -0.4176 -1.5549  0.6776
 6905SOL     OW32347   4.567   2.407   6.562  0.4055 -0.1743 -0.0241
 6905SOL    HW132348   4.643   2.465   6.555 -0.6117  0.8170 -3.0990
 6905SOL    HW232349   4.595   2.332   6.509  2.7411 -0.6837  1.9051
 6906SOL     OW32350   0.207   4.021   3.567  0.5357 -0.0394 -0.7360
 6906SOL    HW132351   0.147   3.949   3.552  0.6897 -0.4304  0.5664
 6906SOL    HW232352   0.179   4.049   3.654 -0.0697 -3.5709  0.1965
 6907SOL     OW32353   4.444   0.628   0.029 -0.5534  0.1096 -0.2865
 6907SOL    HW132354   4.428   0.581  17.682 -0.8922 -0.1857 -0.0504
 6907SOL    HW232355   4.516   0.574   0.063  0.0173  0.3556 -1.0844
 6908SOL     OW32356   2.324   3.603   8.571 -0.2225  0.2666  0.6021
 6908SOL    HW132357   2.295   3.584   8.482 -0.4651  1.3584  0.4456
 6908SOL    HW232358   2.419   3.590   8.571  0.0570  2.1825 -0.2104
 6909SOL     OW32359   3.761   2.193  11.761  0.0971 -0.2194 -0.0226
 6909SOL    HW132360   3.850   2.159  11.751  0.4834  0.6370  0.4715
 6909SOL    HW232361   3.702   2.118  11.759 -0.0478 -0.1541  2.0905
 6910SOL     OW32362   0.192   0.727  15.824 -0.1845 -0.2367 -0.5301
 6910SOL    HW132363   0.190   0.729  15.728  0.3820  0.9109 -0.5266
 6910SOL    HW232364   0.159   0.638  15.836  2.4701 -1.3612 -1.5323
 6911SOL     OW32365   3.797   1.714  12.230  0.6547 -0.3324  0.0665
 6911SOL    HW132366   3.722   1.709  12.290  0.9473 -1.2796  0.3588
 6911SOL    HW232367   3.869   1.739  12.288  0.5568  0.0279  0.0345
 6912SOL     OW32368   2.335   2.192   5.910  0.8154  0.7582 -0.1470
 6912SOL    HW132369   2.254   2.234   5.882 -0.1700 -0.5385  0.7035
 6912SOL    HW232370   2.400   2.220   5.846 -1.6338  1.7538 -2.2011
 6913SOL     OW32371   1.011   0.567   9.009 -0.0747 -0.1098  0.3174
 6913SOL    HW132372   0.972   0.504   8.948 -0.4322  1.1692 -0.7695
 6913SOL    HW232373   0.981   0.647   8.965 -1.4589 -0.9058 -0.1833
 6914SOL     OW32374   0.314   2.737   7.977  0.0708 -0.7352  0.1854
 6914SOL    HW132375   0.343   2.683   8.050 -0.1077  0.3536  1.0524
 6914SOL    HW232376   0.287   2.817   8.022 -2.1746 -1.0573 -0.5664
 6915SOL     OW32377   2.574   1.533   9.596  0.0387 -0.1998 -0.1798
 6915SOL    HW132378   2.495   1.567   9.638  0.2502  1.7283 -1.3600
 6915SOL    HW232379   2.645   1.548   9.658 -0.9826 -2.7598  1.6491
 6916SOL     OW32380   0.998   0.375   0.244  0.4576 -0.2904  0.1488
 6916SOL    HW132381   0.935   0.305   0.257  1.3044 -0.4268  3.6337
 6916SOL    HW232382   0.957   0.462   0.244 -0.4723 -0.7306 -0.6548
 6917SOL     OW32383   0.374   2.662   9.595  0.2431  0.9130 -0.3731
 6917SOL    HW132384   0.348   2.581   9.552 -0.1220  1.2185 -0.7291
 6917SOL    HW232385   0.318   2.651   9.672 -0.6454 -0.6828 -1.2540
 6918SOL     OW32386   0.175   4.222   1.888  0.7204 -0.2065  0.2478
 6918SOL    HW132387   0.188   4.289   1.954  0.1403 -0.2714  0.4232
 6918SOL    HW232388   0.106   4.164   1.920 -0.0369  0.1533 -0.7649
 6919SOL     OW32389   0.636   3.451   1.250 -0.3263  1.1398 -0.2480
 6919SOL    HW132390   0.684   3.456   1.333 -1.2324 -2.1833  0.4915
 6919SOL    HW232391   0.674   3.375   1.206 -1.1493 -0.2099  1.3692
 6920SOL     OW32392   4.139   3.018   1.009 -0.1763 -0.0703  0.2652
 6920SOL    HW132393   4.121   2.928   0.984  0.6124  0.0727 -0.8443
 6920SOL    HW232394   4.215   3.040   0.955 -0.0266 -2.4647 -0.4840
 6921SOL     OW32395   0.681   4.090   7.865 -0.2684  0.4218 -0.2144
 6921SOL    HW132396   0.701   4.048   7.949 -0.6917  0.5583 -0.0460
 6921SOL    HW232397   0.623   4.159   7.896 -2.7289 -1.7935  0.0753
 6922SOL     OW32398   1.211   3.378   7.715  0.4700 -0.1592  0.0740
 6922SOL    HW132399   1.232   3.434   7.640  0.1409  1.3801  1.1354
 6922SOL    HW232400   1.287   3.376   7.773  0.3165  0.9269  0.3112
 6923SOL     OW32401   1.153   4.478   5.416  0.4560  0.3909 -0.4091
 6923SOL    HW132402   1.138   4.444   5.505  1.9406  1.6096  0.3094
 6923SOL    HW232403   1.226   4.539   5.422  0.5642  0.3418 -1.2061
 6924SOL     OW32404   3.789   4.302   1.318 -0.2310 -0.2342  0.1030
 6924SOL    HW132405   3.865   4.300   1.377  0.2787  1.4996 -0.4944
 6924SOL    HW232406   3.719   4.270   1.375 -1.3227  1.9119 -0.0294
 6925SOL     OW32407   1.910   0.226  12.681  0.0887 -0.2123  0.2679
 6925SOL    HW132408   1.856   0.166  12.733  0.0040  1.6569  2.3408
 6925SOL    HW232409   1.984   0.250  12.736  0.7135 -1.9465  0.1940
 6926SOL     OW32410   0.262   1.997   7.144  0.0095  0.1008 -0.3123
 6926SOL    HW132411   0.214   2.074   7.113  0.8201  0.5148 -0.5298
 6926SOL    HW232412   0.188   1.938   7.158 -1.2137  1.7782  0.3709
 6927SOL     OW32413   4.009   0.103   0.295  0.3825 -0.4484  0.2508
 6927SOL    HW132414   3.925   0.139   0.266  0.0594 -0.3459  1.3077
 6927SOL    HW232415   4.034   0.162   0.366  0.0898 -1.1433  0.9388
 6928SOL     OW32416   1.705   3.845   7.689  0.2376 -0.0280 -0.4948
 6928SOL    HW132417   1.791   3.804   7.681  1.0482  1.3764  0.9787
 6928SOL    HW232418   1.697   3.841   7.784 -0.9372 -0.2995 -0.6070
 6929SOL     OW32419   4.539   2.482  10.518 -0.8313 -0.3109  0.3491
 6929SOL    HW132420   4.565   2.532  10.596 -1.6594  0.8597 -0.1187
 6929SOL    HW232421   4.588   2.523  10.447 -0.9225 -1.9145 -0.6331
 6930SOL     OW32422   3.141   1.215   2.314  0.4365  0.3441 -0.3020
 6930SOL    HW132423   3.154   1.153   2.243 -0.5388  0.1121 -0.2791
 6930SOL    HW232424   3.049   1.233   2.296  0.1065 -1.0088  0.0366
 6931SOL     OW32425   4.282   2.702  11.225  0.0507 -0.4626  0.1636
 6931SOL    HW132426   4.369   2.670  11.247  0.6718  0.0748 -1.4320
 6931SOL    HW232427   4.233   2.620  11.215 -0.1329 -0.2919 -0.3892
 6932SOL     OW32428   1.116   1.736   8.141  0.2015 -0.4078 -0.0445
 6932SOL    HW132429   1.094   1.644   8.133 -1.7390  0.0173  0.4495
 6932SOL    HW232430   1.204   1.739   8.105 -0.8825  1.9796 -2.5080
 6933SOL     OW32431   0.818   0.867   8.091  0.0799  0.3224  0.0562
 6933SOL    HW132432   0.730   0.870   8.127  0.7756 -1.6212  1.8814
 6933SOL    HW232433   0.837   0.959   8.113  1.7433 -0.6185  2.5958
 6934SOL     OW32434   2.896   4.416   0.514 -0.1416 -0.6522 -0.1975
 6934SOL    HW132435   2.811   4.384   0.487 -0.4382  0.0515 -0.1188
 6934SOL    HW232436   2.897   4.454   0.603 -0.5191  3.0147 -1.7499
 6935SOL     OW32437   2.125   3.370   2.042 -0.7097 -0.4666 -0.1680
 6935SOL    HW132438   2.161   3.432   2.105 -1.5418  0.2363 -0.3902
 6935SOL    HW232439   2.109   3.300   2.106  2.2227 -0.7825  0.2210
 6936SOL     OW32440   2.725   1.588   8.984 -0.2171 -0.1655 -0.1479
 6936SOL    HW132441   2.660   1.523   8.959 -1.2556  0.7726  0.1634
 6936SOL    HW232442   2.733   1.562   9.076  0.6861  1.2238  0.1677
 6937SOL     OW32443   2.334   0.690   0.641 -0.3378 -0.3779 -0.5513
 6937SOL    HW132444   2.335   0.610   0.589 -1.4386  0.0991 -1.3096
 6937SOL    HW232445   2.271   0.743   0.592 -1.0988 -0.0854  0.7204
 6938SOL     OW32446   4.547   0.087   6.739 -0.4849 -0.0802  0.2322
 6938SOL    HW132447   4.598   0.032   6.680 -0.7526  0.6736 -0.6986
 6938SOL    HW232448   4.467   0.098   6.687 -0.5357  1.5021  0.6455
 6939SOL     OW32449   2.590   1.037   6.661 -0.2831 -0.1955  0.1140
 6939SOL    HW132450   2.543   1.069   6.584 -0.7747 -0.7178  0.1922
 6939SOL    HW232451   2.673   1.018   6.619 -0.4127  1.8643 -1.0903
 6940SOL     OW32452   0.431   2.874   6.408  0.5219 -0.0620 -0.4682
 6940SOL    HW132453   0.424   2.811   6.480 -0.0053 -1.8125 -2.0576
 6940SOL    HW232454   0.340   2.901   6.405  1.1145  1.9490 -0.5118
 6941SOL     OW32455   4.254   4.340   1.331 -0.1801 -0.3332  0.2484
 6941SOL    HW132456   4.181   4.379   1.283 -0.4969 -0.0081  0.9985
 6941SOL    HW232457   4.308   4.329   1.252 -0.5986 -0.3351 -0.0358
 6942SOL     OW32458   1.576   2.222   4.119 -0.5175  0.7895 -0.5167
 6942SOL    HW132459   1.596   2.151   4.058 -2.0013 -0.0767  0.0021
 6942SOL    HW232460   1.488   2.198   4.150 -0.6760 -0.3391 -1.8657
 6943SOL     OW32461   1.459   0.386   4.929  1.4938 -0.1227 -0.5308
 6943SOL    HW132462   1.506   0.335   4.994  2.4772  1.4181 -0.0400
 6943SOL    HW232463   1.397   0.435   4.983 -2.4158 -3.7188 -1.7457
 6944SOL     OW32464   3.587   0.688   2.769 -0.3644 -0.0554 -0.0604
 6944SOL    HW132465   3.619   0.711   2.681 -2.2297 -1.2131 -1.0307
 6944SOL    HW232466   3.582   0.593   2.763 -0.6186 -0.1615  1.8136
 6945SOL     OW32467   0.833   2.828   3.140 -0.1791  0.6786 -0.1120
 6945SOL    HW132468   0.763   2.874   3.187  0.7895  0.8653  1.1448
 6945SOL    HW232469   0.780   2.773   3.082  0.9079 -1.4423  0.9061
 6946SOL     OW32470   0.747   2.099   9.348  0.2993 -0.4822 -0.2424
 6946SOL    HW132471   0.752   2.077   9.441  0.3296 -0.0878 -0.1511
 6946SOL    HW232472   0.651   2.098   9.339  0.3309  2.2450 -0.6975
 6947SOL     OW32473   1.996   0.975   0.681 -0.6096  0.1684 -0.1077
 6947SOL    HW132474   1.959   1.027   0.609 -2.9895 -1.3112  0.0534
 6947SOL    HW232475   2.048   0.916   0.626 -1.6035  2.2298 -3.2331
 6948SOL     OW32476   3.648   3.839  10.245 -0.3043  0.0371 -0.0091
 6948SOL    HW132477   3.554   3.839  10.264  0.1717  1.0646  2.4513
 6948SOL    HW232478   3.681   3.833  10.335 -2.4906 -1.2269  0.7221
 6949SOL     OW32479   0.518   3.882   7.376 -0.0612 -0.4114 -0.2560
 6949SOL    HW132480   0.548   3.795   7.402  0.4853 -0.2900 -0.4770
 6949SOL    HW232481   0.442   3.865   7.320 -2.0279 -0.9508  2.5615
 6950SOL     OW32482   1.253   3.546   6.241  0.0147 -0.2141 -0.5606
 6950SOL    HW132483   1.279   3.572   6.329  0.5751 -0.4335 -0.6644
 6950SOL    HW232484   1.261   3.636   6.208 -0.1387 -1.2680 -3.5240
 6951SOL     OW32485   1.245   0.317  12.265 -0.3193  0.5491  0.1852
 6951SOL    HW132486   1.213   0.351  12.181 -0.3507  0.1887  0.0482
 6951SOL    HW232487   1.187   0.243  12.281  0.0281  0.0478 -0.8624
 6952SOL     OW32488   4.229   0.985  10.674 -0.3633 -0.1446 -0.1328
 6952SOL    HW132489   4.197   1.074  10.687 -0.4416 -0.4774  1.8389
 6952SOL    HW232490   4.154   0.935  10.706 -0.2161 -1.1160 -1.2840
 6953SOL     OW32491   1.121   1.513   6.681  0.0254  0.1564 -0.2737
 6953SOL    HW132492   1.066   1.521   6.603 -1.0813  0.1474  0.5097
 6953SOL    HW232493   1.129   1.419   6.691 -3.1015 -0.3075 -2.0276
 6954SOL     OW32494   1.608   1.382   2.283  0.1858 -0.0806  0.0997
 6954SOL    HW132495   1.540   1.330   2.242  0.8213 -1.8209  1.2911
 6954SOL    HW232496   1.579   1.472   2.269 -2.7986 -1.0880 -0.1012
 6955SOL     OW32497   2.977   2.256  15.094 -0.3308 -0.0471  0.1716
 6955SOL    HW132498   3.070   2.251  15.117 -0.7944  0.4929  2.0825
 6955SOL    HW232499   2.941   2.205  15.166 -0.1769 -1.2360 -0.5885
 6956SOL     OW32500   4.163   2.912  13.828  0.0078 -0.0966 -0.0335
 6956SOL    HW132501   4.236   2.927  13.887 -0.6781 -0.4358  0.9093
 6956SOL    HW232502   4.152   2.816  13.830 -0.7616 -0.0692 -2.9803
 6957SOL     OW32503   1.559   3.454   0.663  0.4362 -0.7286  0.3758
 6957SOL    HW132504   1.497   3.385   0.688  1.4824 -1.4905  0.8567
 6957SOL    HW232505   1.555   3.518   0.734  0.6085  0.4662 -0.6840
 6958SOL     OW32506   0.638   1.557   8.805 -0.0058 -0.3828  0.0079
 6958SOL    HW132507   0.594   1.525   8.727 -2.3523 -0.4826  1.3797
 6958SOL    HW232508   0.613   1.501   8.879 -2.1546  0.6019  0.0311
 6959SOL     OW32509   0.003   3.426  17.075 -0.3177  0.1936  0.6360
 6959SOL    HW132510   4.676   3.492  17.106 -1.5220 -0.4279 -0.3989
 6959SOL    HW232511   0.086   3.473  17.077 -1.0234  1.4968 -1.2738
 6960SOL     OW32512   3.156   3.470  12.251 -0.0118  0.1109  0.6225
 6960SOL    HW132513   3.229   3.414  12.277 -1.2474 -2.4230 -1.3059
 6960SOL    HW232514   3.173   3.477  12.157  0.8326  1.9971  0.9294
 6961SOL     OW32515   1.729   4.355   6.218  0.2592  0.2490  0.3051
 6961SOL    HW132516   1.662   4.335   6.152 -0.2958  2.8146  0.0968
 6961SOL    HW232517   1.761   4.266   6.228  0.5806  0.5375  1.7758
 6962SOL     OW32518   0.663   2.172   2.643  0.7480  0.3557  0.4311
 6962SOL    HW132519   0.643   2.089   2.600 -1.8116  0.2393  1.8042
 6962SOL    HW232520   0.577   2.207   2.668  0.8864  0.7546  0.3344
 6963SOL     OW32521   0.441   3.835   0.422  0.3320 -0.2102  0.2480
 6963SOL    HW132522   0.396   3.906   0.467 -0.7414 -1.2392  0.8047
 6963SOL    HW232523   0.530   3.866   0.410  0.2172 -0.1806 -0.5304
 6964SOL     OW32524   0.001   3.590   3.563  0.1317 -0.1892 -0.4495
 6964SOL    HW132525   0.078   3.604   3.507  1.1978 -1.4164  0.7254
 6964SOL    HW232526   4.675   3.535   3.513  0.2236 -0.8103  0.1289
 6965SOL     OW32527   0.434   2.491   9.870 -0.2717  0.2552 -0.2031
 6965SOL    HW132528   0.434   2.402   9.904  0.6481  0.6643  0.8784
 6965SOL    HW232529   0.341   2.509   9.864 -0.3890 -0.8880 -1.6438
 6966SOL     OW32530   0.830   1.226   3.221  0.2676  0.0400  0.3046
 6966SOL    HW132531   0.745   1.271   3.216  0.3034  0.5501  4.0202
 6966SOL    HW232532   0.887   1.289   3.177  1.3327  0.2548  1.9700
 6967SOL     OW32533   2.774   4.222   8.476 -0.0699 -0.0657  0.7115
 6967SOL    HW132534   2.744   4.300   8.430 -0.6329  0.5431  2.1176
 6967SOL    HW232535   2.795   4.165   8.402 -0.0538  1.9360 -0.8216
 6968SOL     OW32536   3.391   3.504  10.809  0.7915  0.6477  0.5094
 6968SOL    HW132537   3.333   3.485  10.735 -1.5988  1.3776  2.1872
 6968SOL    HW232538   3.451   3.432  10.790  1.3897  1.0719  0.8119
 6969SOL     OW32539   2.102   3.659  15.826 -0.4599  0.3897 -0.5723
 6969SOL    HW132540   2.094   3.615  15.742 -1.8140  0.7474 -0.6194
 6969SOL    HW232541   2.143   3.593  15.882 -0.7122 -0.8341 -1.8204
 6970SOL     OW32542   4.701   3.505   1.406  0.1729  0.6361  0.4747
 6970SOL    HW132543   0.047   3.556   1.393 -0.0333  0.3839 -1.6669
 6970SOL    HW232544   4.660   3.539   1.327  0.3755  1.5261  0.7511
 6971SOL     OW32545   4.470   0.134  13.521 -0.5601 -0.0562  1.0783
 6971SOL    HW132546   4.470   0.194  13.447  1.1807 -3.0417 -1.2908
 6971SOL    HW232547   4.516   0.192  13.581  3.2341  0.6119 -2.4961
 6972SOL     OW32548   0.812   4.425  13.991 -0.0267  0.5517  0.2191
 6972SOL    HW132549   0.720   4.442  13.967  0.1256 -0.3929 -1.0553
 6972SOL    HW232550   0.811   4.392  14.081  0.9047 -1.3535 -0.4593
 6973SOL     OW32551   3.480   0.739   2.024 -0.2265  0.0825 -0.3412
 6973SOL    HW132552   3.424   0.805   1.982 -0.5600  0.2315  0.3420
 6973SOL    HW232553   3.570   0.756   1.996  0.0261  2.5363  1.9244
 6974SOL     OW32554   2.982   1.246   3.314  0.0760  0.5680  0.0658
 6974SOL    HW132555   3.059   1.253   3.369  1.8090 -0.5090 -2.2240
 6974SOL    HW232556   2.957   1.337   3.294  2.8414  0.7571 -2.4829
 6975SOL     OW32557   3.702   0.511   3.329  0.1607  0.7002  0.0945
 6975SOL    HW132558   3.654   0.477   3.253 -0.7794 -0.8648  1.4132
 6975SOL    HW232559   3.740   0.432   3.365  0.4917  0.2514 -1.2370
 6976SOL     OW32560   1.211   3.862   4.570  0.1411  0.0783  0.5565
 6976SOL    HW132561   1.219   3.804   4.646 -0.5977  0.2852  0.7974
 6976SOL    HW232562   1.221   3.951   4.603  3.0251 -0.4204  1.0684
 6977SOL     OW32563   4.138   2.425  14.054  0.1885 -0.0903  0.3092
 6977SOL    HW132564   4.101   2.467  14.131 -1.5799 -0.9501 -0.0738
 6977SOL    HW232565   4.066   2.369  14.027 -0.0502  0.1631  0.4235
 6978SOL     OW32566   0.505   0.331   0.190 -0.0160 -0.1380 -0.5317
 6978SOL    HW132567   0.437   0.272   0.224 -0.5415  1.5910  1.3998
 6978SOL    HW232568   0.450   0.396   0.146 -0.2044  0.6716  0.9046
 6979SOL     OW32569   3.653   2.460  15.298 -0.0721 -0.0220  0.2506
 6979SOL    HW132570   3.589   2.531  15.307  0.9658  0.6228  2.5323
 6979SOL    HW232571   3.729   2.506  15.262  0.5010 -1.2120 -0.0644
 6980SOL     OW32572   3.249   1.713   0.516 -0.1911  0.3377 -0.2766
 6980SOL    HW132573   3.312   1.671   0.458 -1.2701 -0.9026 -0.5513
 6980SOL    HW232574   3.262   1.803   0.487  0.2763  0.0788 -0.8481
 6981SOL     OW32575   3.767   3.127  14.163  0.2287  0.3237 -0.2412
 6981SOL    HW132576   3.724   3.119  14.249  0.0489  1.6070 -0.2095
 6981SOL    HW232577   3.842   3.068  14.165 -0.6106 -0.7198  1.0918
 6982SOL     OW32578   2.004   1.694   3.466 -0.5922  0.2072  0.0640
 6982SOL    HW132579   2.099   1.698   3.456 -0.9273  2.3792 -2.1987
 6982SOL    HW232580   1.990   1.600   3.457  0.7637  0.1157 -1.0956
 6983SOL     OW32581   3.651   3.428   6.897  0.0640 -0.3939  0.3150
 6983SOL    HW132582   3.571   3.429   6.949  1.0842  0.3920  1.8644
 6983SOL    HW232583   3.678   3.342   6.929  0.5275 -0.0399  0.8752
 6984SOL     OW32584   3.433   1.779   3.640 -0.5440 -0.6139  0.1006
 6984SOL    HW132585   3.402   1.864   3.608 -1.0372 -0.2541  1.5491
 6984SOL    HW232586   3.437   1.788   3.735  1.7312  0.5963 -0.0970
 6985SOL     OW32587   0.353   3.432   4.839 -0.3887 -0.1916 -0.2541
 6985SOL    HW132588   0.293   3.506   4.853 -0.7046 -0.2359 -1.3657
 6985SOL    HW232589   0.332   3.379   4.916 -2.1037  1.0047  0.0999
 6986SOL     OW32590   4.664   4.008   4.034 -0.1052 -0.1046  0.4274
 6986SOL    HW132591   4.606   3.983   3.962 -0.3219  1.3901  0.0782
 6986SOL    HW232592   4.647   3.935   4.094 -3.2812  1.1102  1.0163
 6987SOL     OW32593   0.803   0.403  11.408 -0.5579  0.0712  0.5325
 6987SOL    HW132594   0.888   0.446  11.419  0.5142 -2.0311  0.3871
 6987SOL    HW232595   0.784   0.372  11.496 -0.6388 -0.7820  0.2109
 6988SOL     OW32596   3.794   2.611   4.067 -0.4358  0.0378  0.3125
 6988SOL    HW132597   3.716   2.629   4.120 -0.0707 -1.9885  1.5253
 6988SOL    HW232598   3.864   2.632   4.129  1.4902  2.3844 -2.6612
 6989SOL     OW32599   3.870   4.317   5.668  0.0827 -0.3020 -0.7946
 6989SOL    HW132600   3.803   4.385   5.660 -0.4677 -0.9181 -1.4224
 6989SOL    HW232601   3.813   4.245   5.696 -0.3957  1.7069  3.3019
 6990SOL     OW32602   0.922   2.467   2.147 -0.3689 -0.1845  0.4731
 6990SOL    HW132603   0.981   2.526   2.100 -0.8117 -1.6221 -1.8584
 6990SOL    HW232604   0.926   2.501   2.236 -0.7282 -2.0048  1.1834
 6991SOL     OW32605   0.022   3.186   9.251 -0.4299 -0.4095  0.0823
 6991SOL    HW132606   0.098   3.182   9.308 -0.8781  1.4920  0.8332
 6991SOL    HW232607   0.055   3.174   9.162 -0.4557 -0.2413  0.0486
 6992SOL     OW32608   4.510   0.385   1.964  0.1434  0.2784 -0.1335
 6992SOL    HW132609   4.490   0.388   2.058 -0.0155  0.5613 -0.1787
 6992SOL    HW232610   4.446   0.445   1.925 -0.3358 -1.6254 -2.2715
 6993SOL     OW32611   4.444   4.733   7.069  0.5166 -0.3577  0.0480
 6993SOL    HW132612   4.429   4.713   7.162  0.3568  1.4744  0.4174
 6993SOL    HW232613   4.488   0.084   7.067 -0.3696  0.1516  1.6618
 6994SOL     OW32614   2.167   4.337   4.572 -0.3290  0.7152  0.7096
 6994SOL    HW132615   2.223   4.285   4.630  1.1910  0.2706 -1.1392
 6994SOL    HW232616   2.127   4.267   4.520  0.1840  2.3058 -1.8274
 6995SOL     OW32617   0.833   2.302   9.081  0.9624  0.2072  0.4665
 6995SOL    HW132618   0.839   2.247   9.158  1.5735  3.1433  2.5292
 6995SOL    HW232619   0.898   2.372   9.089  1.6211 -0.3897  0.2362
 6996SOL     OW32620   4.052   2.874  16.451  0.9936  0.2480 -0.0938
 6996SOL    HW132621   4.115   2.803  16.460 -1.5176 -2.1583 -1.5925
 6996SOL    HW232622   3.984   2.832  16.399  0.2303  1.3181  0.0312
 6997SOL     OW32623   3.947   2.103   2.479 -0.6140 -0.3815  0.1617
 6997SOL    HW132624   3.979   2.026   2.527  0.7470  0.3485  0.3996
 6997SOL    HW232625   3.886   2.138   2.544  0.5156  2.1839 -0.2085
 6998SOL     OW32626   2.445   2.098   5.101 -0.2680  0.2269 -0.1061
 6998SOL    HW132627   2.410   2.011   5.085 -0.8864  0.4715 -0.0863
 6998SOL    HW232628   2.505   2.071   5.170  1.7044  1.1579 -1.4525
 6999SOL     OW32629   3.484   0.383   8.658 -0.0309 -0.8126  0.1540
 6999SOL    HW132630   3.557   0.400   8.598 -1.3519 -1.5129 -1.6194
 6999SOL    HW232631   3.419   0.438   8.614 -0.1218 -0.2492  0.9763
 7000SOL     OW32632   3.813   1.001  14.078 -0.3685 -0.2948 -0.1895
 7000SOL    HW132633   3.876   0.958  14.136 -1.2905 -0.9277  0.3495
 7000SOL    HW232634   3.804   1.090  14.112 -1.3921  0.5465 -2.7057
 7001SOL     OW32635   3.952   2.029   5.303  0.4175 -0.6849 -0.5043
 7001SOL    HW132636   3.916   2.111   5.336  1.7533  0.0370 -0.8049
 7001SOL    HW232637   3.903   2.018   5.222 -0.0310  0.6565 -0.4221
 7002SOL     OW32638   2.142   1.663   8.951  0.3479 -0.0708 -0.6697
 7002SOL    HW132639   2.145   1.576   8.911  0.2189  0.1468 -1.1477
 7002SOL    HW232640   2.232   1.681   8.978 -0.2702 -1.1366  2.1383
 7003SOL     OW32641   2.601   0.887   1.273  0.2560 -0.0590 -0.0238
 7003SOL    HW132642   2.593   0.832   1.195 -1.0137  0.7108 -0.4385
 7003SOL    HW232643   2.534   0.953   1.257  0.0252 -0.0680  0.9158
 7004SOL     OW32644   3.140   4.035   0.370 -0.4799 -0.2125 -0.2649
 7004SOL    HW132645   3.105   3.976   0.437 -1.3798  1.7112  0.9435
 7004SOL    HW232646   3.226   3.992   0.366 -0.7232 -0.6618 -0.5404
 7005SOL     OW32647   0.818   3.930   3.456 -0.2144  0.1754  0.3047
 7005SOL    HW132648   0.771   3.978   3.525 -0.5819  2.1928 -1.3447
 7005SOL    HW232649   0.765   3.965   3.384 -0.4925 -2.5416 -0.8023
 7006SOL     OW32650   0.354   2.251  14.805  0.1414  0.0661  0.7060
 7006SOL    HW132651   0.399   2.192  14.744 -1.8824  0.0683 -0.7800
 7006SOL    HW232652   0.405   2.243  14.886  1.3135  1.9881  0.1606
 7007SOL     OW32653   2.545   2.033   7.091  0.3443 -0.5654 -0.0493
 7007SOL    HW132654   2.497   2.073   7.163 -0.2771 -0.1375 -0.7015
 7007SOL    HW232655   2.555   1.943   7.124 -1.0176 -1.2919 -1.5803
 7008SOL     OW32656   0.957   3.261   8.578 -0.2468  1.0903 -0.4043
 7008SOL    HW132657   0.986   3.235   8.491  0.3835 -1.8605  0.7109
 7008SOL    HW232658   0.883   3.201   8.585  2.0145 -1.6135  0.1380
 7009SOL     OW32659   3.264   0.568   8.504 -0.5416  0.3965  0.7143
 7009SOL    HW132660   3.315   0.643   8.536 -0.7660  0.3396  1.1972
 7009SOL    HW232661   3.202   0.562   8.576 -0.1859  2.3554  1.1863
 7010SOL     OW32662   1.827   1.793   8.076  0.4864 -0.5923  0.1455
 7010SOL    HW132663   1.754   1.794   8.137  0.7409 -2.2923  0.4776
 7010SOL    HW232664   1.833   1.699   8.058 -0.0791 -0.5626 -0.1999
 7011SOL     OW32665   1.782   3.813   2.150 -0.1839  0.2875 -0.5021
 7011SOL    HW132666   1.758   3.783   2.238  2.8475  0.5993  0.4123
 7011SOL    HW232667   1.872   3.785   2.163  0.0543  1.3740  0.1834
 7012SOL     OW32668   1.548   1.646   4.845  0.2652  0.2505  0.0261
 7012SOL    HW132669   1.536   1.693   4.763  0.2563  3.0938  1.6607
 7012SOL    HW232670   1.582   1.710   4.907  0.3668  1.2478 -1.0779
 7013SOL     OW32671   2.897   1.641   3.024 -0.0016 -0.4622 -0.2698
 7013SOL    HW132672   2.848   1.567   2.988  0.5206 -0.2008 -1.5070
 7013SOL    HW232673   2.964   1.624   2.959  1.9775  2.1897  1.0988
 7014SOL     OW32674   2.601   2.814  16.513 -0.4267 -0.2983  0.3429
 7014SOL    HW132675   2.618   2.908  16.503 -1.3808 -0.4502 -2.7989
 7014SOL    HW232676   2.647   2.792  16.594 -1.4276  0.7602  1.2016
 7015SOL     OW32677   1.730   0.423   8.891 -0.3990  0.2696 -0.0463
 7015SOL    HW132678   1.822   0.433   8.867 -0.7622 -0.4976 -1.7377
 7015SOL    HW232679   1.675   0.411   8.814  0.5227  1.6298 -0.9168
 7016SOL     OW32680   2.990   2.686   9.096  0.1616  0.2122  0.5904
 7016SOL    HW132681   3.006   2.602   9.053  1.4602 -0.5432  2.5755
 7016SOL    HW232682   2.917   2.724   9.047 -0.4080 -1.1979  0.3551
 7017SOL     OW32683   2.646   1.768   1.122  0.6975  0.3093  0.0526
 7017SOL    HW132684   2.588   1.692   1.130  1.5689 -0.4716 -0.9656
 7017SOL    HW232685   2.702   1.767   1.199  1.5854  0.2723 -0.5876
 7018SOL     OW32686   2.181   1.566   1.179 -0.2732 -0.3653  0.0790
 7018SOL    HW132687   2.144   1.484   1.144  0.5842 -0.5808 -0.3307
 7018SOL    HW232688   2.271   1.534   1.175 -0.4335 -0.7750 -0.3701
 7019SOL     OW32689   4.698   0.683   2.450  0.5976  0.5914  0.6080
 7019SOL    HW132690   4.633   0.625   2.490  0.9983 -1.3107 -1.4987
 7019SOL    HW232691   0.035   0.619   2.451  1.0495  1.0859 -1.9905
 7020SOL     OW32692   0.095   0.491   5.830 -0.4408 -0.6095 -0.6671
 7020SOL    HW132693   0.185   0.479   5.861  0.4615  0.2194 -2.9534
 7020SOL    HW232694   0.102   0.538   5.747 -0.8047  1.5364  0.4944
 7021SOL     OW32695   4.622   2.418   7.027 -0.0806  0.6011  0.4910
 7021SOL    HW132696   4.601   2.493   6.971 -0.0046  0.5792  0.4339
 7021SOL    HW232697   4.708   2.450   7.053  1.3952 -0.6714 -2.8945
 7022SOL     OW32698   0.217   0.867   7.911  0.1683  0.4391  0.5978
 7022SOL    HW132699   0.137   0.860   7.963  0.7696 -2.2457  1.1501
 7022SOL    HW232700   0.179   0.902   7.831  0.3178  0.8611  0.7069
 7023SOL     OW32701   0.916   0.885   7.835  0.1803 -0.4193 -0.1371
 7023SOL    HW132702   0.941   0.977   7.848  0.3587 -0.6691  1.3260
 7023SOL    HW232703   0.866   0.869   7.916 -0.2137 -0.3459 -0.3647
 7024SOL     OW32704   2.050   2.497   6.741  0.0250 -0.3772  0.0441
 7024SOL    HW132705   2.032   2.525   6.831  0.5064  1.9485 -0.5653
 7024SOL    HW232706   2.106   2.568   6.710 -0.5850 -0.8570 -2.1859
 7025SOL     OW32707   3.554   1.284   7.665 -0.1384  0.0110 -0.1062
 7025SOL    HW132708   3.532   1.322   7.580  1.1542  1.4104  0.1890
 7025SOL    HW232709   3.473   1.305   7.713 -0.1977 -0.6947  0.1027
 7026SOL     OW32710   4.336   1.720  13.180  0.2028  0.0030 -0.4001
 7026SOL    HW132711   4.397   1.695  13.249 -0.5535  0.6245  0.5039
 7026SOL    HW232712   4.363   1.811  13.169 -0.7003  0.3544  0.2179
 7027SOL     OW32713   2.502   1.917  16.734  0.2356  0.8937  0.4872
 7027SOL    HW132714   2.592   1.941  16.753  0.2539  1.4093 -0.2563
 7027SOL    HW232715   2.494   1.934  16.640  1.5989  1.3007  0.4505
 7028SOL     OW32716   2.110   0.992   7.027 -0.0851  0.0406 -0.0483
 7028SOL    HW132717   2.069   0.953   7.104  0.3359 -1.3853 -0.5519
 7028SOL    HW232718   2.200   1.019   7.043 -0.6819  1.8171  0.3552
 7029SOL     OW32719   2.336   0.505   9.824 -0.0685 -0.5632  0.3930
 7029SOL    HW132720   2.409   0.469   9.874 -1.8980 -2.1523  1.9053
 7029SOL    HW232721   2.272   0.513   9.894  0.8080  0.4343  1.0886
 7030SOL     OW32722   2.983   1.107   4.474  0.2077 -0.3341  0.2150
 7030SOL    HW132723   2.948   1.148   4.394 -0.0795  1.1405  1.1045
 7030SOL    HW232724   2.966   1.015   4.455  3.1306 -0.7887 -0.2586
 7031SOL     OW32725   0.306   2.209  10.653 -0.0896  0.5092 -0.1154
 7031SOL    HW132726   0.242   2.261  10.604 -0.2003  0.3149 -0.1736
 7031SOL    HW232727   0.330   2.151  10.581  0.3408 -0.9220  1.1877
 7032SOL     OW32728   2.870   4.237   3.145 -0.3058  0.0140  0.0424
 7032SOL    HW132729   2.827   4.207   3.065  1.4263 -1.1374 -0.4567
 7032SOL    HW232730   2.801   4.291   3.183  1.0434  0.2764  2.1405
 7033SOL     OW32731   1.690   2.602   5.553  0.5639  0.3538  0.2581
 7033SOL    HW132732   1.714   2.561   5.636  0.0417 -2.5311 -1.0139
 7033SOL    HW232733   1.777   2.607   5.513 -0.2063 -0.3869 -1.5209
 7034SOL     OW32734   1.408   0.100   8.717 -0.0517 -0.4379  0.2702
 7034SOL    HW132735   1.351   0.139   8.651  0.7827  2.7308  1.4220
 7034SOL    HW232736   1.352   0.082   8.792 -1.3884  1.2373 -0.3232
 7035SOL     OW32737   2.237   4.551  15.209  0.1326 -0.0719  0.2742
 7035SOL    HW132738   2.205   4.533  15.121 -1.1872 -0.4360  0.8310
 7035SOL    HW232739   2.331   4.560  15.194  0.5253 -4.1599  0.0470
 7036SOL     OW32740   1.841   0.946   6.772  0.1845 -0.0517 -0.0666
 7036SOL    HW132741   1.807   0.955   6.861  3.7241  0.5747  1.2082
 7036SOL    HW232742   1.934   0.936   6.795 -0.4867  1.4079  3.3100
 7037SOL     OW32743   3.992   1.403   8.298  0.1647  0.3741  0.2279
 7037SOL    HW132744   3.948   1.474   8.251 -0.9529 -0.2569  0.3138
 7037SOL    HW232745   3.923   1.367   8.354 -0.1760  0.0013 -0.4314
 7038SOL     OW32746   0.105   0.113   6.058  0.5342 -0.4424 -0.2325
 7038SOL    HW132747   0.200   0.118   6.053  0.5159  0.3186  0.2493
 7038SOL    HW232748   0.077   0.162   5.980  1.4686  1.9009  0.9199
 7039SOL     OW32749   1.306   1.781   6.098 -0.2045  0.5532  0.3245
 7039SOL    HW132750   1.361   1.738   6.032  3.0560  1.1459  2.6673
 7039SOL    HW232751   1.358   1.857   6.123  0.0029  0.6274 -0.3297
 7040SOL     OW32752   4.252   3.810   3.115  0.2763 -0.0896 -0.3433
 7040SOL    HW132753   4.213   3.799   3.202 -1.0749 -0.1818 -0.9626
 7040SOL    HW232754   4.302   3.891   3.125 -0.3282  0.3079 -0.5383
 7041SOL     OW32755   1.362   4.101   4.628  0.6197 -0.3403 -0.1685
 7041SOL    HW132756   1.380   4.160   4.702  0.5372  0.3909 -0.7231
 7041SOL    HW232757   1.417   4.026   4.648 -0.1974 -0.2512  2.4877
 7042SOL     OW32758   4.278   1.487  11.163  0.3947  0.4835 -0.7917
 7042SOL    HW132759   4.243   1.506  11.250  1.1220  1.6500 -0.7526
 7042SOL    HW232760   4.313   1.575  11.146  0.0371  1.3834  3.1279
 7043SOL     OW32761   3.815   1.772  17.001  0.6376 -0.0516  0.2527
 7043SOL    HW132762   3.834   1.738  16.913  2.9891 -0.6125  0.9896
 7043SOL    HW232763   3.749   1.838  16.978  0.6693  0.2696  1.0756
 7044SOL     OW32764   2.138   3.493   8.276  0.5470 -0.4637  0.1511
 7044SOL    HW132765   2.108   3.478   8.187  0.9390  1.2124 -0.2503
 7044SOL    HW232766   2.123   3.407   8.316  0.8802 -0.5930 -0.0028
 7045SOL     OW32767   0.226   0.670  11.264 -0.3027  0.1510  0.2048
 7045SOL    HW132768   0.264   0.618  11.193 -0.5135  0.3658 -0.0698
 7045SOL    HW232769   0.308   0.677  11.313 -0.8191  1.0791  0.9347
 7046SOL     OW32770   3.174   2.196   4.256  0.4080 -0.1109 -0.1923
 7046SOL    HW132771   3.254   2.200   4.204  2.0993 -0.5975  2.3913
 7046SOL    HW232772   3.109   2.208   4.186 -1.1832  2.0888  1.6636
 7047SOL     OW32773   2.157   2.955   3.525  0.3016  0.3596  0.0978
 7047SOL    HW132774   2.112   2.994   3.600  2.9343  0.3895  1.6733
 7047SOL    HW232775   2.098   2.881   3.509  1.1954 -0.7188  1.7524
 7048SOL     OW32776   2.007   3.069   1.869  0.1845  0.4153 -0.7714
 7048SOL    HW132777   1.976   3.015   1.796  3.3890 -2.2503 -0.1438
 7048SOL    HW232778   1.922   3.104   1.896  0.7425  0.7304  0.5324
 7049SOL     OW32779   0.033   0.796  13.721  0.5511 -0.4451 -0.3095
 7049SOL    HW132780   0.009   0.889  13.714 -0.6207 -0.8770 -1.9484
 7049SOL    HW232781   0.030   0.774  13.628  0.5264  2.4736 -1.0053
 7050SOL     OW32782   3.970   1.880   1.250 -0.3291  0.1048  0.6808
 7050SOL    HW132783   4.037   1.905   1.313  0.8284  0.9703 -0.9076
 7050SOL    HW232784   4.014   1.803   1.213 -2.7838 -0.8446 -0.2609
 7051SOL     OW32785   2.270   1.307   8.018  0.0641 -0.8141  0.5697
 7051SOL    HW132786   2.179   1.300   8.046 -0.0990 -1.1135 -0.0254
 7051SOL    HW232787   2.318   1.256   8.083  0.2454 -0.4577  0.7121
 7052SOL     OW32788   1.398   0.906   2.810 -0.3779 -0.0287  0.6505
 7052SOL    HW132789   1.485   0.917   2.773 -0.4322  0.4618  0.6696
 7052SOL    HW232790   1.411   0.811   2.815 -1.3446 -0.2036 -0.1016
 7053SOL     OW32791   1.798   1.885  11.132 -0.1996  0.4269  0.0067
 7053SOL    HW132792   1.849   1.827  11.188 -0.1992  0.5036  0.0863
 7053SOL    HW232793   1.708   1.873  11.161  0.0785 -0.0211  0.6709
 7054SOL     OW32794   4.528   1.019   6.654 -0.3601 -0.0174  0.8106
 7054SOL    HW132795   4.460   1.083   6.673 -0.7269  0.1336 -1.0050
 7054SOL    HW232796   4.478   0.958   6.600 -0.4573 -0.5682  1.5320
 7055SOL     OW32797   2.415   0.780   9.979  0.3506  0.0304 -0.0668
 7055SOL    HW132798   2.348   0.847   9.992  0.3293 -0.8743  4.6846
 7055SOL    HW232799   2.452   0.759  10.065  0.3700  2.2426  0.4810
 7056SOL     OW32800   2.768   1.309  10.759  0.2413  0.4175  0.4810
 7056SOL    HW132801   2.776   1.394  10.715  1.0403 -0.8566 -1.8723
 7056SOL    HW232802   2.755   1.328  10.852  2.2758  1.2118  0.6069
 7057SOL     OW32803   1.993   4.094  11.663  0.1184 -0.2443 -0.2783
 7057SOL    HW132804   1.953   4.169  11.620 -0.9399 -0.7355 -0.1658
 7057SOL    HW232805   2.066   4.135  11.709  0.4927  1.2382 -2.2289
 7058SOL     OW32806   1.651   1.244  11.781 -0.5456 -0.3128 -0.0778
 7058SOL    HW132807   1.576   1.303  11.776 -1.4876 -1.5408 -0.4726
 7058SOL    HW232808   1.685   1.247  11.692 -1.1346  3.1423 -0.1801
 7059SOL     OW32809   2.487   1.132   1.002  0.6888  0.0402 -0.4486
 7059SOL    HW132810   2.493   1.170   0.914 -0.0841  0.6692 -0.2211
 7059SOL    HW232811   2.572   1.138   1.044  0.6951 -0.9910 -0.3032
 7060SOL     OW32812   2.856   0.725  12.479 -0.3020  0.0533  0.0043
 7060SOL    HW132813   2.937   0.680  12.504  0.7324  1.4443 -0.8174
 7060SOL    HW232814   2.845   0.696  12.389  0.9530 -1.9849  0.5074
 7061SOL     OW32815   3.784   1.866   2.674 -0.0039  0.4566  0.4131
 7061SOL    HW132816   3.756   1.780   2.707  1.3466 -0.3103 -0.4457
 7061SOL    HW232817   3.869   1.885   2.714  1.0322 -1.5314 -0.8204
 7062SOL     OW32818   2.687   1.496   3.480 -0.2051 -0.1212  0.1620
 7062SOL    HW132819   2.754   1.496   3.412 -1.3865 -2.2781 -0.9821
 7062SOL    HW232820   2.615   1.542   3.437 -0.3166  0.5278  1.0316
 7063SOL     OW32821   4.220   2.464   4.039 -0.2678  0.0394 -0.0964
 7063SOL    HW132822   4.277   2.529   3.998 -0.7329  0.9715  0.7268
 7063SOL    HW232823   4.178   2.521   4.104 -0.2467 -1.0957  0.9013
 7064SOL     OW32824   1.028   4.171   4.724 -0.2265  0.0183 -0.0922
 7064SOL    HW132825   0.998   4.163   4.633 -2.0790 -2.8444  0.7781
 7064SOL    HW232826   0.977   4.246   4.755  0.1776  0.0237  0.5720
 7065SOL     OW32827   4.642   0.380  12.844 -0.4435  0.4981  0.2369
 7065SOL    HW132828   0.002   0.395  12.854 -0.7815  1.6007  1.7503
 7065SOL    HW232829   4.624   0.439  12.771  1.3376  0.0137 -0.5844
 7066SOL     OW32830   1.472   3.429  15.782 -0.3940 -1.0048 -0.4324
 7066SOL    HW132831   1.466   3.352  15.726 -0.8653 -2.5454  1.7528
 7066SOL    HW232832   1.380   3.442  15.806  0.0658 -0.6770  1.1910
 7067SOL     OW32833   0.880   2.077   6.379 -0.2364 -0.5419 -0.6391
 7067SOL    HW132834   0.860   2.146   6.316  0.3410  0.6572  0.4862
 7067SOL    HW232835   0.825   2.005   6.349  0.0435 -0.6841 -0.7982
 7068SOL     OW32836   0.405   3.558  11.632  0.0082  0.0812 -1.0762
 7068SOL    HW132837   0.490   3.589  11.663 -0.6360 -0.8038  1.5193
 7068SOL    HW232838   0.354   3.622  11.681 -0.7218 -0.3225 -1.3097
 7069SOL     OW32839   4.496   1.631   7.676 -0.4130  0.3546 -0.2272
 7069SOL    HW132840   4.490   1.595   7.764 -1.1296 -0.7694 -0.7445
 7069SOL    HW232841   4.490   1.724   7.700  1.6775 -0.0503  1.8795
 7070SOL     OW32842   4.115   1.878   3.571  0.0400 -0.1787  0.1449
 7070SOL    HW132843   4.056   1.918   3.636  0.1078  0.2472 -0.0546
 7070SOL    HW232844   4.056   1.809   3.542 -0.2321 -0.9120  2.4404
 7071SOL     OW32845   4.730   3.741   0.916 -0.4789  0.3721  0.0883
 7071SOL    HW132846   4.728   3.646   0.917  1.1019  0.3599  1.5219
 7071SOL    HW232847   4.636   3.751   0.930 -0.1558 -0.1945  2.5649
 7072SOL     OW32848   1.768   2.469   6.600 -0.2248  0.2635  0.7370
 7072SOL    HW132849   1.710   2.395   6.615 -0.9685  0.6176 -0.3745
 7072SOL    HW232850   1.850   2.440   6.639  0.5647  3.7930  1.7183
 7073SOL     OW32851   4.643   0.994   4.307 -0.3720  0.2457  0.0748
 7073SOL    HW132852   4.641   1.062   4.375  0.7135  1.1101 -0.7559
 7073SOL    HW232853   4.648   0.915   4.361 -2.6251 -0.7915 -1.2522
 7074SOL     OW32854   3.094   0.072   5.020  0.1378  0.2247 -0.2946
 7074SOL    HW132855   3.116   0.047   5.109 -3.6906 -2.1900 -0.0408
 7074SOL    HW232856   2.998   0.081   5.017  0.3039  2.2175  0.4728
 7075SOL     OW32857   4.702   1.978   8.255 -0.2114  0.2191  0.6037
 7075SOL    HW132858   4.636   1.916   8.287  0.7967 -2.1163 -1.7447
 7075SOL    HW232859   4.651   1.999   8.177 -1.3480 -2.5968  0.5528
 7076SOL     OW32860   3.482   1.341   8.223 -0.0140  0.1115  0.3833
 7076SOL    HW132861   3.414   1.318   8.286  0.9334  0.6775  1.5939
 7076SOL    HW232862   3.429   1.393   8.162  2.2968  0.2562 -1.5047
 7077SOL     OW32863   4.102   1.809   8.921  0.2897  0.4086 -0.1449
 7077SOL    HW132864   4.161   1.775   8.988 -0.3891 -0.9747 -0.2393
 7077SOL    HW232865   4.096   1.904   8.933  4.1597  0.4696  1.1185
 7078SOL     OW32866   2.359   4.258  10.850 -0.1821  0.1033  0.5751
 7078SOL    HW132867   2.377   4.287  10.760  1.0221 -1.4876  0.3071
 7078SOL    HW232868   2.296   4.186  10.843  0.1678 -0.2215  0.7538
 7079SOL     OW32869   4.419   1.446   4.430 -0.0913 -0.4693 -1.2790
 7079SOL    HW132870   4.479   1.396   4.373  0.0661  1.1726 -2.5650
 7079SOL    HW232871   4.336   1.418   4.392 -0.5765 -1.6746  0.6863
 7080SOL     OW32872   2.330   1.495  14.941  0.3508  0.4905  0.3033
 7080SOL    HW132873   2.290   1.448  14.869  0.5172 -0.8569  1.1007
 7080SOL    HW232874   2.335   1.586  14.912 -0.3668  0.2349 -0.5931
 7081SOL     OW32875   0.289   1.862  11.552 -0.0272  0.4659  0.0980
 7081SOL    HW132876   0.208   1.820  11.583  0.6421  0.0643  1.2627
 7081SOL    HW232877   0.322   1.899  11.634  0.8077  1.1544 -0.5540
 7082SOL     OW32878   1.979   4.180   8.607  0.2640 -0.1996  0.0011
 7082SOL    HW132879   1.949   4.240   8.675  2.0472 -0.1629  0.7554
 7082SOL    HW232880   1.909   4.176   8.542  0.6713  0.4954 -0.4927
 7083SOL     OW32881   4.421   3.178   3.165  0.1324  0.1003 -0.2087
 7083SOL    HW132882   4.515   3.178   3.184  0.2038 -2.7777 -0.5074
 7083SOL    HW232883   4.402   3.263   3.125 -1.2109  0.8819  2.1512
 7084SOL     OW32884   2.322   1.106   7.467  0.5779 -0.0545  0.1703
 7084SOL    HW132885   2.277   1.117   7.383  2.2962 -4.4283 -1.3150
 7084SOL    HW232886   2.260   1.161   7.515  0.6880  0.4620 -0.2802
 7085SOL     OW32887   1.103   4.466  14.953  0.3993 -0.4945  0.0952
 7085SOL    HW132888   1.140   4.450  14.867  0.6553 -0.1700  0.1459
 7085SOL    HW232889   1.109   4.378  14.991 -1.2482 -0.6849 -0.0619
 7086SOL     OW32890   3.092   1.136   6.888  0.5009  0.2025 -0.2524
 7086SOL    HW132891   3.123   1.119   6.798 -0.0762 -0.7105 -0.2835
 7086SOL    HW232892   2.999   1.115   6.880 -0.2646  3.4704  0.2547
 7087SOL     OW32893   2.127   3.510  14.385 -0.5107 -0.2704 -0.4494
 7087SOL    HW132894   2.085   3.447  14.326 -1.9166 -1.1814  1.4941
 7087SOL    HW232895   2.118   3.460  14.466  0.9553 -0.0170 -0.1318
 7088SOL     OW32896   1.867   2.756  12.462 -0.0867 -0.6737 -0.7174
 7088SOL    HW132897   1.835   2.778  12.374  0.0678 -3.3974 -1.4520
 7088SOL    HW232898   1.850   2.662  12.465  1.7347 -0.8956  1.8409
 7089SOL     OW32899   0.438   3.267   7.447  0.0513  0.3334 -0.4180
 7089SOL    HW132900   0.373   3.224   7.502  0.8967 -0.7392 -0.2686
 7089SOL    HW232901   0.401   3.354   7.435  1.3151  1.4266  3.7635
 7090SOL     OW32902   4.309   2.291  10.304  0.1878  0.3131  0.1121
 7090SOL    HW132903   4.354   2.375  10.298 -2.1212  1.4901 -0.2443
 7090SOL    HW232904   4.242   2.301  10.237 -0.3677 -0.1502  0.5964
 7091SOL     OW32905   0.438   0.970   8.394 -0.3795 -0.3703  0.3064
 7091SOL    HW132906   0.343   0.957   8.405 -0.5104  1.0868  1.0136
 7091SOL    HW232907   0.470   0.880   8.391  0.4140 -0.0463 -0.9321
 7092SOL     OW32908   3.691   1.230   4.550  0.3663  0.1251  0.1161
 7092SOL    HW132909   3.761   1.285   4.584  1.2171  0.3931 -2.0406
 7092SOL    HW232910   3.730   1.149   4.581 -1.8924 -2.1710 -3.0295
 7093SOL     OW32911   4.224   1.429   7.841 -0.5458 -0.1097  0.2381
 7093SOL    HW132912   4.181   1.513   7.851  1.2552  0.5382  2.3498
 7093SOL    HW232913   4.161   1.390   7.780 -2.0952  0.8179  1.2707
 7094SOL     OW32914   0.358   4.293   4.007 -0.8398 -0.2188 -0.2318
 7094SOL    HW132915   0.278   4.341   3.987  0.3090  1.3215 -1.0660
 7094SOL    HW232916   0.430   4.336   3.961 -0.3937  0.8661  1.4566
 7095SOL     OW32917   4.033   3.652  15.125  0.1227 -0.0265 -0.2846
 7095SOL    HW132918   3.947   3.615  15.107  1.8223 -3.0861 -2.1459
 7095SOL    HW232919   4.018   3.695  15.209  0.7162  0.6615 -0.5286
 7096SOL     OW32920   3.776   2.809  11.896  0.7487  0.3606 -0.5967
 7096SOL    HW132921   3.802   2.901  11.897 -0.6656  0.7890 -2.0356
 7096SOL    HW232922   3.786   2.787  11.988 -0.9920  0.6133 -0.3362
 7097SOL     OW32923   1.418   2.829   4.868 -0.1060  1.2495 -0.5503
 7097SOL    HW132924   1.499   2.827   4.818  1.0183  0.9733  1.2933
 7097SOL    HW232925   1.416   2.748   4.918 -0.5104  0.8979 -1.1391
 7098SOL     OW32926   2.676   4.600   1.978  0.8174 -0.0940  0.7961
 7098SOL    HW132927   2.604   4.570   2.034 -1.5429 -0.1543 -2.2444
 7098SOL    HW232928   2.741   4.619   2.045 -0.7407  0.4485  2.1697
 7099SOL     OW32929   1.452   2.520  17.565  0.4993  0.0843 -0.2913
 7099SOL    HW132930   1.514   2.494  17.497  1.4081  2.0227 -0.2266
 7099SOL    HW232931   1.418   2.600  17.524 -1.5921 -0.3392  0.6078
 7100SOL     OW32932   2.645   2.141  11.922 -0.5265  0.0745  0.0586
 7100SOL    HW132933   2.549   2.132  11.921 -0.4859 -0.5696  1.2541
 7100SOL    HW232934   2.673   2.111  12.009 -0.0748  0.9626  0.2096
 7101SOL     OW32935   2.381   4.718   1.352 -0.5901 -0.0299  0.2898
 7101SOL    HW132936   2.300   0.011   1.395 -1.6594  0.2669 -1.9103
 7101SOL    HW232937   2.433   0.065   1.353 -0.7846  0.0759  2.3684
 7102SOL     OW32938   1.731   2.634  13.407 -0.2733  0.5975 -0.3059
 7102SOL    HW132939   1.679   2.604  13.481  1.7681  1.3129  1.4239
 7102SOL    HW232940   1.714   2.564  13.344 -0.5937  0.0189  0.4424
 7103SOL     OW32941   2.558   3.855   2.795 -0.3332 -0.0084  0.0037
 7103SOL    HW132942   2.532   3.769   2.761 -3.2055  0.4936  0.9141
 7103SOL    HW232943   2.641   3.843   2.841 -1.5560  0.2700  2.2873
 7104SOL     OW32944   2.351   2.992  13.888  0.5651  0.1222  0.2694
 7104SOL    HW132945   2.388   3.051  13.823 -0.9737  2.4475  1.5308
 7104SOL    HW232946   2.281   2.958  13.832  0.7952 -1.6349  1.0394
 7105SOL     OW32947   2.906   1.828   6.677  0.5912  0.2906 -0.2246
 7105SOL    HW132948   2.964   1.819   6.602 -1.1949  1.2066 -1.7188
 7105SOL    HW232949   2.851   1.904   6.657 -0.6963 -0.3541  0.9056
 7106SOL     OW32950   1.114   3.167   8.053 -0.4258  0.3877 -0.3765
 7106SOL    HW132951   1.118   3.135   7.963 -0.2404 -0.6671  0.0072
 7106SOL    HW232952   1.113   3.263   8.045 -0.0660  0.6083  2.3050
 7107SOL     OW32953   1.676   0.597   5.299  0.3351 -0.2816 -0.3119
 7107SOL    HW132954   1.724   0.514   5.303  0.9041  0.1009  0.7835
 7107SOL    HW232955   1.686   0.626   5.390  1.3701  0.1354 -0.5600
 7108SOL     OW32956   0.115   2.295   4.264  0.6148  0.1419 -0.9190
 7108SOL    HW132957   0.123   2.300   4.169  1.9801  0.0671 -0.8163
 7108SOL    HW232958   0.028   2.333   4.278  0.0663 -0.5888 -2.4270
 7109SOL     OW32959   3.447   2.818   3.320  0.3160 -0.5630 -0.6429
 7109SOL    HW132960   3.377   2.839   3.258  0.1500  0.3478 -0.1564
 7109SOL    HW232961   3.475   2.910   3.323 -1.2149 -0.0992 -0.4449
 7110SOL     OW32962   3.483   0.589   5.807 -0.3981  0.2254 -0.3266
 7110SOL    HW132963   3.435   0.670   5.790  0.6901  0.6731 -1.2571
 7110SOL    HW232964   3.567   0.633   5.818 -0.5033  0.0641  1.1710
 7111SOL     OW32965   0.902   2.265  16.935 -0.2925 -0.0567  0.0367
 7111SOL    HW132966   0.848   2.222  17.000 -2.1050 -1.0737 -2.1328
 7111SOL    HW232967   0.990   2.241  16.962  0.3028  0.4351 -1.4464
 7112SOL     OW32968   0.217   1.905   1.694  0.2143 -0.2181 -0.5518
 7112SOL    HW132969   0.155   1.853   1.643  0.3643  0.5469 -1.5120
 7112SOL    HW232970   0.279   1.846   1.737  0.6076  0.3789 -0.2908
 7113SOL     OW32971   3.378   0.853   1.682 -0.1087  0.4185 -0.1204
 7113SOL    HW132972   3.465   0.885   1.706  0.1346  0.5317 -1.1628
 7113SOL    HW232973   3.388   0.880   1.591  0.6454 -0.3547 -0.2654
 7114SOL     OW32974   3.222   1.321   4.398 -0.1159  0.1684 -0.4389
 7114SOL    HW132975   3.185   1.325   4.486 -1.5234 -0.7209 -0.9973
 7114SOL    HW232976   3.251   1.230   4.390 -1.1474 -0.2989  1.1063
 7115SOL     OW32977   3.668   3.425   3.400 -0.4818 -0.0069  0.0248
 7115SOL    HW132978   3.589   3.383   3.368 -0.7893  0.1083  0.6501
 7115SOL    HW232979   3.732   3.364   3.362 -1.1528 -0.1018 -0.9643
 7116SOL     OW32980   4.403   4.730  13.226 -0.6296 -0.2973 -0.4829
 7116SOL    HW132981   4.407   4.673  13.303  2.0945  2.9773  1.8140
 7116SOL    HW232982   4.458   4.680  13.166  0.2943  0.3731 -0.1872
 7117SOL     OW32983   1.413   2.573  10.647 -0.1290 -0.1264  0.3097
 7117SOL    HW132984   1.450   2.572  10.735 -0.8382  3.5510  0.6706
 7117SOL    HW232985   1.441   2.659  10.616 -2.1552  0.9968  1.6603
 7118SOL     OW32986   0.803   4.691   6.911  0.5680 -0.0309  0.0608
 7118SOL    HW132987   0.815   4.596   6.913  1.3565  0.0398 -1.0142
 7118SOL    HW232988   0.892   4.725   6.920 -0.1947  2.1932 -0.6559
 7119SOL     OW32989   1.443   3.895   9.251  0.0634  0.1101 -0.2899
 7119SOL    HW132990   1.350   3.919   9.255 -0.4607 -1.9397  0.1502
 7119SOL    HW232991   1.476   3.965   9.195 -0.2711  0.5035  0.0058
 7120SOL     OW32992   3.767   2.390  16.970 -0.4234 -0.2661  0.8284
 7120SOL    HW132993   3.829   2.458  16.998 -1.0245  2.0361 -3.4385
 7120SOL    HW232994   3.685   2.436  16.989  0.0008  0.0905  1.8025
 7121SOL     OW32995   4.285   3.246   5.349  0.2220 -0.2092 -0.1300
 7121SOL    HW132996   4.190   3.242   5.352  0.2471 -2.3668 -2.1231
 7121SOL    HW232997   4.305   3.271   5.439 -1.9079 -0.5285  0.4340
 7122SOL     OW32998   2.911   0.578   9.810  0.3459 -0.0365  0.6898
 7122SOL    HW132999   3.003   0.553   9.812  0.2387 -0.4817  0.1402
 7122SOL    HW233000   2.881   0.534   9.890 -0.7012  1.4746  1.1276
 7123SOL     OW33001   1.221   1.871   6.679  0.3150 -0.6726 -0.6574
 7123SOL    HW133002   1.159   1.806   6.713 -0.0216 -0.4596 -0.8676
 7123SOL    HW233003   1.159   1.943   6.665 -2.8799 -2.9295  1.9339
 7124SOL     OW33004   2.370   0.504   8.524  0.0079 -0.5256  0.6253
 7124SOL    HW133005   2.428   0.436   8.559 -0.0369 -0.7315  0.2969
 7124SOL    HW233006   2.417   0.515   8.441  0.9052  0.3183  1.2421
 7125SOL     OW33007   3.502   2.364   1.530 -0.3702 -0.6892  0.3071
 7125SOL    HW133008   3.489   2.445   1.480  2.5068 -1.6513 -2.0465
 7125SOL    HW233009   3.552   2.309   1.470  0.0942 -0.5121  0.5312
 7126SOL     OW33010   1.479   4.304   2.093  0.1098 -0.1651 -0.1928
 7126SOL    HW133011   1.524   4.260   2.021  0.3879  1.2272 -0.8740
 7126SOL    HW233012   1.474   4.385   2.041 -1.5242 -1.6680 -2.4031
 7127SOL     OW33013   4.600   1.598  14.069 -0.1011  0.6293  0.6668
 7127SOL    HW133014   4.536   1.582  13.999  0.7954 -1.2434  0.2625
 7127SOL    HW233015   4.633   1.685  14.045  2.1540 -0.2816  0.4468
 7128SOL     OW33016   3.475   1.023   5.628  0.1338  0.2586 -0.1772
 7128SOL    HW133017   3.392   1.046   5.585 -0.8559 -0.8467  1.1444
 7128SOL    HW233018   3.443   1.020   5.718  0.3135  1.7103 -0.0620
 7129SOL     OW33019   3.978   3.055   4.074  0.3368 -0.0244  0.7449
 7129SOL    HW133020   3.909   3.029   4.013  1.8361  0.2481 -1.0274
 7129SOL    HW233021   3.947   3.144   4.091  0.0365 -0.1956  1.0941
 7130SOL     OW33022   2.558   2.595   1.932  0.5403  0.3132 -0.0819
 7130SOL    HW133023   2.586   2.507   1.908  0.5431  0.2334  0.2134
 7130SOL    HW233024   2.647   2.625   1.951  0.6705  0.0066 -0.2054
 7131SOL     OW33025   3.975   1.922   3.160 -0.0151 -0.5190 -0.0711
 7131SOL    HW133026   3.880   1.926   3.150 -0.3806  0.4249  3.7562
 7131SOL    HW233027   3.993   1.967   3.243  0.2899 -0.9148  0.0802
 7132SOL     OW33028   1.859   3.131  15.912 -0.6387  0.2280  0.7033
 7132SOL    HW133029   1.783   3.094  15.957  0.5907  0.9133  3.3516
 7132SOL    HW233030   1.812   3.203  15.870 -0.5678  0.6801  1.3952
 7133SOL     OW33031   4.580   4.230  11.048 -0.4533 -0.0578 -0.4721
 7133SOL    HW133032   4.554   4.298  10.985  1.2297 -0.1440 -1.2618
 7133SOL    HW233033   4.496   4.184  11.055 -0.3163 -0.1949  0.2691
 7134SOL     OW33034   0.928   3.730   2.681  0.7121 -0.6194 -0.6852
 7134SOL    HW133035   0.851   3.719   2.626 -0.5700  0.3467  0.9127
 7134SOL    HW233036   0.994   3.672   2.641  2.5122  1.9369 -1.3819
 7135SOL     OW33037   1.440   4.467   3.041 -0.8422 -0.3356 -0.3227
 7135SOL    HW133038   1.406   4.390   2.995 -0.9495 -0.7245  0.4079
 7135SOL    HW233039   1.443   4.440   3.133 -0.5067  1.4206  0.1765
 7136SOL     OW33040   2.453   1.445  15.690 -0.3476 -0.6778 -0.5187
 7136SOL    HW133041   2.462   1.481  15.602  0.8840  1.9349  0.6465
 7136SOL    HW233042   2.358   1.431  15.693 -0.4825  0.3445  0.2036
 7137SOL     OW33043   0.333   0.369   7.987  0.0302  0.3333 -0.0967
 7137SOL    HW133044   0.298   0.414   8.064  0.1448  0.4482 -0.1115
 7137SOL    HW233045   0.333   0.442   7.926  0.0844  0.4325  0.0215
 7138SOL     OW33046   4.680   1.814  10.612  0.1081 -0.0099 -0.1817
 7138SOL    HW133047   4.718   1.765  10.539  0.1418  1.2931 -1.0438
 7138SOL    HW233048   4.686   1.898  10.567  0.7442 -0.0502 -0.1706
 7139SOL     OW33049   1.221   3.514   0.114  0.1967  0.4750  0.1831
 7139SOL    HW133050   1.188   3.428   0.088 -1.0227  0.6340  1.1525
 7139SOL    HW233051   1.151   3.573   0.084  0.8554  1.8657  1.3924
 7140SOL     OW33052   2.468   3.659   7.736  0.1644 -0.1108 -0.8364
 7140SOL    HW133053   2.457   3.571   7.772 -0.3888  0.7528  1.0718
 7140SOL    HW233054   2.415   3.709   7.797 -0.7503 -2.3520  0.2014
 7141SOL     OW33055   3.003   4.572  10.722 -0.1600  0.1598  0.5268
 7141SOL    HW133056   2.964   4.552  10.807  1.4866 -0.7884  1.0464
 7141SOL    HW233057   2.966   4.652  10.684  2.1220  0.6204 -0.7547
 7142SOL     OW33058   3.363   3.082   4.786 -0.9011  0.0037 -0.1491
 7142SOL    HW133059   3.458   3.071   4.794 -0.8282 -0.4592 -1.8867
 7142SOL    HW233060   3.334   2.993   4.803 -1.2393  0.3088  0.9342
 7143SOL     OW33061   0.085   1.375   5.994 -0.0710  0.5801 -0.1143
 7143SOL    HW133062   0.132   1.453   5.964  1.2785 -0.4789 -0.7782
 7143SOL    HW233063   0.118   1.365   6.084  0.1125  0.0851 -0.2332
 7144SOL     OW33064   0.208   1.883   6.118 -0.4994  0.3019 -1.2110
 7144SOL    HW133065   0.291   1.912   6.080 -0.8253  1.6381 -0.9129
 7144SOL    HW233066   0.141   1.921   6.061 -0.4761  2.8325  0.4295
 7145SOL     OW33067   4.354   0.446  14.368 -0.2802  0.1579  0.1682
 7145SOL    HW133068   4.280   0.405  14.413 -0.1109  0.6936  0.9293
 7145SOL    HW233069   4.431   0.407  14.408 -0.2449  1.1693  1.0871
 7146SOL     OW33070   2.519   0.304   4.337  0.0124 -0.5230  0.8553
 7146SOL    HW133071   2.439   0.347   4.306  1.0464  0.6505 -0.1788
 7146SOL    HW233072   2.583   0.329   4.269  0.4042  2.7023  2.4292
 7147SOL     OW33073   1.004   1.345   6.088  0.4321  0.4931  0.5443
 7147SOL    HW133074   1.080   1.402   6.099  1.4448 -1.1607  2.1194
 7147SOL    HW233075   1.054   1.263   6.084  1.0914  0.9177 -0.1093
 7148SOL     OW33076   3.956   1.256   5.174 -0.0520 -0.0883 -0.2208
 7148SOL    HW133077   3.896   1.219   5.109 -1.0533 -0.1715  0.7519
 7148SOL    HW233078   3.901   1.324   5.213  0.1140  0.6334 -1.2388
 7149SOL     OW33079   1.821   1.534   7.911  0.0299 -0.1959 -0.3974
 7149SOL    HW133080   1.909   1.549   7.944  1.1004  0.0593 -3.3141
 7149SOL    HW233081   1.806   1.446   7.945  0.1937  1.0885  2.9712
 7150SOL     OW33082   2.676   3.340   4.123  0.2799 -0.0586 -0.2170
 7150SOL    HW133083   2.589   3.375   4.102 -1.3149 -2.3328  2.5481
 7150SOL    HW233084   2.725   3.357   4.043  0.9323 -2.2685 -0.2862
 7151SOL     OW33085   3.074   3.115   9.622 -0.1378  0.1966 -0.0650
 7151SOL    HW133086   3.008   3.130   9.555 -1.2040  1.0483  1.1677
 7151SOL    HW233087   3.027   3.060   9.685  0.2243 -1.3134 -1.1017
 7152SOL     OW33088   4.642   1.366   2.859  0.4057  0.6309  0.1543
 7152SOL    HW133089   4.591   1.435   2.899 -0.1111 -0.5061  1.4693
 7152SOL    HW233090   4.584   1.320   2.799  0.9109  0.0582  0.1003
 7153SOL     OW33091   4.151   0.161   8.094  0.7254 -0.1126  0.5402
 7153SOL    HW133092   4.139   0.252   8.121  2.4021  0.7056 -1.4267
 7153SOL    HW233093   4.224   0.138   8.151 -0.1810 -1.5561  1.1025
 7154SOL     OW33094   2.040   3.170   3.952 -0.1972  0.1728 -0.0503
 7154SOL    HW133095   2.100   3.103   3.984  0.0258 -0.8421 -2.5249
 7154SOL    HW233096   2.073   3.249   3.994 -0.0465 -0.5796  1.2336
 7155SOL     OW33097   3.690   1.287   3.854 -0.3091  0.5156  0.3375
 7155SOL    HW133098   3.623   1.255   3.915 -0.1924  0.4423  0.4258
 7155SOL    HW233099   3.734   1.355   3.904  1.4465 -1.4940  1.4891
 7156SOL     OW33100   2.036   3.922  14.485  0.1152 -0.5725  0.7718
 7156SOL    HW133101   2.067   3.871  14.410  0.1558  0.6899 -0.0784
 7156SOL    HW233102   2.110   3.948  14.540  1.6304 -0.7824 -1.1410
 7157SOL     OW33103   4.224   2.471  14.906 -0.0769  0.5024 -0.4041
 7157SOL    HW133104   4.308   2.516  14.912  0.9353 -1.2752 -1.3301
 7157SOL    HW233105   4.196   2.487  14.816 -0.9047 -0.1398 -0.2528
 7158SOL     OW33106   4.302   1.957   5.534 -0.3127  0.0034 -0.6431
 7158SOL    HW133107   4.335   1.941   5.623 -2.5722  1.3621  0.4401
 7158SOL    HW233108   4.215   1.918   5.533 -0.3549  0.0634  0.1757
 7159SOL     OW33109   1.750   3.208   8.247 -0.1768  0.2828  0.2728
 7159SOL    HW133110   1.805   3.249   8.314  0.4718  1.2687 -0.8554
 7159SOL    HW233111   1.774   3.118   8.269  0.2980  0.2877 -0.2112
 7160SOL     OW33112   3.800   1.004  13.452 -0.2971  0.3944  0.4850
 7160SOL    HW133113   3.804   1.099  13.440  1.2526  0.0733 -1.4691
 7160SOL    HW233114   3.781   0.989  13.545 -0.0340  0.8426  0.6115
 7161SOL     OW33115   0.093   0.171  12.567  0.3409 -0.0601 -0.5622
 7161SOL    HW133116   0.079   0.262  12.594  0.4254 -0.1452 -0.2438
 7161SOL    HW233117   0.149   0.175  12.489  0.7613  1.0644 -0.1925
 7162SOL     OW33118   3.473   4.594   9.175  0.3177 -0.0367  0.2956
 7162SOL    HW133119   3.486   4.548   9.092  0.2095 -0.0086  0.2625
 7162SOL    HW233120   3.517   4.535   9.237 -1.8016  0.9971  2.8296
 7163SOL     OW33121   3.884   0.771   7.821 -0.6560  0.0323  0.1615
 7163SOL    HW133122   3.817   0.749   7.757 -1.1337 -1.0648  1.0481
 7163SOL    HW233123   3.910   0.687   7.860 -1.1800 -0.1853  0.0402
 7164SOL     OW33124   0.504   4.712  13.188 -0.4668 -0.1949 -0.5141
 7164SOL    HW133125   0.498   0.052  13.127 -0.8964  0.4612  0.3251
 7164SOL    HW233126   0.515   0.026  13.270 -1.9668 -1.4309  0.3859
 7165SOL     OW33127   2.392   0.150   5.204 -0.0753 -0.4696 -0.0541
 7165SOL    HW133128   2.468   0.108   5.245  0.2582 -0.7223 -0.9372
 7165SOL    HW233129   2.321   0.135   5.266  1.5318 -1.1686  1.6301
 7166SOL     OW33130   1.899   1.150   6.079 -0.6294 -0.0016  0.1793
 7166SOL    HW133131   1.956   1.109   6.015  1.5409  2.3547  0.5673
 7166SOL    HW233132   1.832   1.083   6.093 -3.1079  2.3499 -0.2841
 7167SOL     OW33133   1.674   1.868  10.481 -0.3539  0.7350  0.1411
 7167SOL    HW133134   1.613   1.929  10.523 -1.0795 -0.6749  1.1396
 7167SOL    HW233135   1.617   1.842  10.408  1.0502  0.6845 -0.9409
 7168SOL     OW33136   1.632   4.303  13.101 -0.3913 -0.1704 -0.0915
 7168SOL    HW133137   1.553   4.299  13.155 -0.3100  0.9153  0.1048
 7168SOL    HW233138   1.607   4.238  13.035  0.7637 -0.8919  0.1817
 7169SOL     OW33139   0.585   1.205   8.368 -0.9058 -0.2199  0.3062
 7169SOL    HW133140   0.577   1.249   8.283 -2.6194  0.2212  0.6984
 7169SOL    HW233141   0.526   1.131   8.354  1.5121 -2.5997  2.6955
 7170SOL     OW33142   1.967   0.004  14.934  0.2900  0.3592 -0.7864
 7170SOL    HW133143   1.966   4.643  14.945 -0.3157  0.4579 -0.0096
 7170SOL    HW233144   2.061   0.024  14.931  0.7249 -1.4944  0.1377
 7171SOL     OW33145   3.202   3.909  13.135 -0.1874 -0.2089  0.4743
 7171SOL    HW133146   3.249   3.863  13.065 -1.4477 -0.6802 -0.0600
 7171SOL    HW233147   3.169   3.985  13.087 -0.2225  0.6990  1.9206
 7172SOL     OW33148   0.895   1.384   4.920 -0.6703  0.1201 -0.4109
 7172SOL    HW133149   0.952   1.453   4.954 -1.2973  1.4898 -2.1824
 7172SOL    HW233150   0.809   1.409   4.953  0.0268  3.1870 -0.9259
 7173SOL     OW33151   3.926   2.968   2.613  0.1739  0.0729 -0.1418
 7173SOL    HW133152   3.958   2.879   2.600 -0.2279 -0.2002  0.7221
 7173SOL    HW233153   3.932   2.986   2.707 -2.6913 -1.1637  0.2734
 7174SOL     OW33154   2.467   0.142  14.932  0.0594 -0.5687  0.3393
 7174SOL    HW133155   2.525   0.070  14.957  1.9615  1.1928  0.9070
 7174SOL    HW233156   2.528   0.207  14.898 -0.4173 -1.3311 -1.9735
 7175SOL     OW33157   1.332   2.342   7.663  0.1319 -0.2720 -0.0775
 7175SOL    HW133158   1.327   2.265   7.606 -0.5307 -1.8498  2.1251
 7175SOL    HW233159   1.267   2.398   7.620 -0.9445 -0.3013  1.5412
 7176SOL     OW33160   2.975   2.902   1.979  0.5484  0.1636 -0.0334
 7176SOL    HW133161   2.928   2.983   1.962  0.8452 -0.1432 -2.3919
 7176SOL    HW233162   3.018   2.918   2.063 -0.1609 -1.1510  0.5904
 7177SOL     OW33163   2.595   4.017   8.561  0.1574  0.0603 -0.4770
 7177SOL    HW133164   2.659   4.088   8.551 -0.6774  0.9300  0.3037
 7177SOL    HW233165   2.614   3.966   8.482  0.6189 -1.6883  0.7659
 7178SOL     OW33166   1.860   2.886   6.858 -0.2450  0.4720 -0.2143
 7178SOL    HW133167   1.846   2.929   6.774 -0.3364 -1.3822 -1.1598
 7178SOL    HW233168   1.792   2.913   6.920 -0.9637 -1.7594 -0.0369
 7179SOL     OW33169   0.118   1.484   9.549  0.1976 -0.4790  0.0053
 7179SOL    HW133170   0.126   1.545   9.623  0.4542 -0.0738 -0.3591
 7179SOL    HW233171   0.184   1.421   9.580 -1.5260 -1.2657  2.0707
 7180SOL     OW33172   2.524   1.561   8.460 -0.2349 -0.2478 -0.2332
 7180SOL    HW133173   2.488   1.475   8.434 -2.0504  0.1541  0.9767
 7180SOL    HW233174   2.617   1.538   8.452 -0.2821 -0.0871 -1.3321
 7181SOL     OW33175   4.438   1.853   6.501  0.1447  0.1886  0.2651
 7181SOL    HW133176   4.484   1.872   6.419 -0.2435  0.8040  0.1874
 7181SOL    HW233177   4.362   1.911   6.486 -1.0615 -1.4007  0.1907
 7182SOL     OW33178   3.130   1.875   6.494  0.3810  0.1870  0.1839
 7182SOL    HW133179   3.140   1.804   6.430  1.4985  0.6610 -0.1895
 7182SOL    HW233180   3.179   1.944   6.449  1.5104 -0.9261 -0.3079
 7183SOL     OW33181   2.247   4.195   3.819  0.3054 -0.2198 -0.0289
 7183SOL    HW133182   2.338   4.168   3.816  0.0961 -0.7923 -1.3382
 7183SOL    HW233183   2.212   4.163   3.735  0.4006  0.0090 -0.1563
 7184SOL     OW33184   1.807   4.010  16.980 -0.2132  0.3474  0.2096
 7184SOL    HW133185   1.728   3.979  16.937 -0.3870  1.8307 -0.5580
 7184SOL    HW233186   1.814   3.945  17.050  0.3565  0.2514  0.0605
 7185SOL     OW33187   0.034   1.797   7.977  0.0051 -0.4952 -0.2851
 7185SOL    HW133188   4.688   1.827   8.021  1.0577  2.6323 -0.4778
 7185SOL    HW233189   0.034   1.865   7.909  1.8306 -0.6737 -0.4637
 7186SOL     OW33190   2.923   3.577  10.390 -0.1670 -0.2196 -0.0954
 7186SOL    HW133191   2.974   3.559  10.311 -0.0472  0.8519 -0.2641
 7186SOL    HW233192   2.956   3.663  10.416  2.2586 -0.6472 -1.7855
 7187SOL     OW33193   1.814   3.363   5.304 -0.2843 -0.1755  0.3440
 7187SOL    HW133194   1.724   3.352   5.334 -0.5409  1.0059  0.0281
 7187SOL    HW233195   1.856   3.280   5.324 -0.6085 -0.7379 -1.2822
 7188SOL     OW33196   0.436   0.166   7.395 -0.1543  0.2973 -0.7693
 7188SOL    HW133197   0.507   0.158   7.459 -0.5280 -3.5031 -0.8302
 7188SOL    HW233198   0.473   0.219   7.324 -0.9099 -0.1712 -1.4984
 7189SOL     OW33199   4.712   0.965   2.123 -0.2273  0.4235 -0.1292
 7189SOL    HW133200   4.729   0.965   2.217 -1.5545 -0.2806  0.1224
 7189SOL    HW233201   4.727   0.871   2.113 -0.8250  0.1395  1.5461
 7190SOL     OW33202   0.855   0.592   2.656 -0.1730  0.4046 -0.8814
 7190SOL    HW133203   0.907   0.589   2.736  0.1376  0.9427 -1.0635
 7190SOL    HW233204   0.919   0.561   2.591  3.3029  1.4449  2.0758
 7191SOL     OW33205   2.830   0.625  12.231 -0.1209 -0.5284 -0.4080
 7191SOL    HW133206   2.860   0.538  12.259 -1.8644 -1.0929 -0.3210
 7191SOL    HW233207   2.903   0.651  12.175  0.1358  0.2101  0.2665
 7192SOL     OW33208   0.529   2.394  11.515  0.0522 -0.3907  0.4377
 7192SOL    HW133209   0.462   2.438  11.463  0.9359 -0.2776 -0.6091
 7192SOL    HW233210   0.606   2.449  11.501  0.0063 -0.7092 -1.1132
 7193SOL     OW33211   0.920   2.119   0.924  0.2655  0.0633  1.0375
 7193SOL    HW133212   0.872   2.056   0.977  0.0492  0.6145  1.4929
 7193SOL    HW233213   0.859   2.124   0.851  0.7906  1.2843  0.6647
 7194SOL     OW33214   3.679   3.180   5.706  0.3118 -0.1621  0.4636
 7194SOL    HW133215   3.594   3.136   5.699 -0.1900  0.5703  1.9182
 7194SOL    HW233216   3.731   3.137   5.638 -1.4011  0.3543 -1.1763
 7195SOL     OW33217   0.424   1.313   2.205  0.3607 -0.3492  0.0456
 7195SOL    HW133218   0.385   1.234   2.167  0.0345  0.3143 -0.9896
 7195SOL    HW233219   0.367   1.322   2.282  0.1330  1.6822 -0.3714
 7196SOL     OW33220   2.242   2.977   8.506  0.4053  0.4686 -0.2360
 7196SOL    HW133221   2.295   2.965   8.584  2.9130  0.6739 -1.9171
 7196SOL    HW233222   2.155   2.943   8.528  0.5618 -0.3466 -0.8588
 7197SOL     OW33223   1.476   0.206  16.538  0.1788 -0.6048 -0.2491
 7197SOL    HW133224   1.419   0.142  16.582  0.1607 -0.2313  0.2731
 7197SOL    HW233225   1.502   0.159  16.459 -0.7861 -0.6596 -0.5337
 7198SOL     OW33226   0.755   4.282   6.147  0.2907 -0.4978  0.2577
 7198SOL    HW133227   0.734   4.260   6.238  0.5825 -1.0726  0.1882
 7198SOL    HW233228   0.850   4.290   6.141  0.3382 -1.4123 -0.1923
 7199SOL     OW33229   3.598   1.608   3.441  0.7691  0.0802  0.1250
 7199SOL    HW133230   3.600   1.536   3.503 -2.5945 -1.8683 -2.0159
 7199SOL    HW233231   3.535   1.664   3.486  0.5414  0.8914 -1.2140
 7200SOL     OW33232   2.976   3.255   3.032  0.0703 -0.2388 -0.4395
 7200SOL    HW133233   3.022   3.323   2.983 -1.5562  1.5086  0.4525
 7200SOL    HW233234   2.891   3.298   3.022  1.0788  1.9504  0.3804
 7201SOL     OW33235   4.303   3.193   6.983  1.0588  0.5079 -0.0338
 7201SOL    HW133236   4.308   3.128   6.913  0.0079  0.8348 -0.4127
 7201SOL    HW233237   4.308   3.269   6.925 -0.4688  0.5792 -0.0591
 7202SOL     OW33238   3.828   0.323  16.044 -0.3127  0.5549  0.7217
 7202SOL    HW133239   3.822   0.232  16.016  1.0395  0.3569  1.0700
 7202SOL    HW233240   3.924   0.326  16.039 -0.1608 -2.2146  2.0230
 7203SOL     OW33241   3.774   4.348   2.137 -0.2652  0.0527 -0.2811
 7203SOL    HW133242   3.719   4.276   2.106 -1.4076  1.2603 -1.0066
 7203SOL    HW233243   3.865   4.334   2.110 -0.4531 -1.2706 -0.2623
 7204SOL     OW33244   2.096   3.181  16.049 -0.2023 -0.4235 -0.5692
 7204SOL    HW133245   2.019   3.160  15.996 -0.8770  0.5444  0.0325
 7204SOL    HW233246   2.143   3.098  16.039  2.1642  1.0348 -1.5676
 7205SOL     OW33247   2.327   1.319   3.317 -0.0889 -0.2821 -0.1028
 7205SOL    HW133248   2.253   1.371   3.285  0.8418  0.3138 -1.2557
 7205SOL    HW233249   2.364   1.280   3.238  1.0452  1.0302 -0.2223
 7206SOL     OW33250   3.695   4.222   7.675  0.0766  0.4868 -0.1679
 7206SOL    HW133251   3.698   4.171   7.756 -0.5908  2.0283  0.8366
 7206SOL    HW233252   3.627   4.172   7.628 -0.5889  0.0698  1.2385
 7207SOL     OW33253   3.054   1.949   1.307  0.1343  0.0346 -0.0038
 7207SOL    HW133254   3.120   1.887   1.277 -1.4635 -0.9512 -1.5040
 7207SOL    HW233255   3.103   1.992   1.377  0.1297  1.8946 -1.1303
 7208SOL     OW33256   2.933   4.068   8.280 -0.0563  0.1314  0.2910
 7208SOL    HW133257   2.959   4.159   8.266  2.5591 -0.4502  1.2922
 7208SOL    HW233258   2.890   4.046   8.197 -0.1722  0.9171  0.1414
 7209SOL     OW33259   0.631   3.073   5.296  0.4019 -0.2539  0.1809
 7209SOL    HW133260   0.686   2.995   5.301  2.0440  0.9346  0.5476
 7209SOL    HW233261   0.618   3.091   5.203 -1.6089  1.1541  0.7364
 7210SOL     OW33262   4.223   2.205  11.954 -0.2521 -0.0606 -0.3463
 7210SOL    HW133263   4.164   2.152  12.008  1.5928 -0.0535  1.6554
 7210SOL    HW233264   4.162   2.267  11.913  1.9587  1.7240 -0.9165
 7211SOL     OW33265   3.277   3.697  17.664  0.2520 -0.1609 -0.1574
 7211SOL    HW133266   3.193   3.653  17.649  1.2722 -1.9714 -0.5574
 7211SOL    HW233267   3.254   3.785  17.692 -1.4471 -1.5489  2.8028
 7212SOL     OW33268   1.491   4.179  12.397 -0.1667  0.8941  0.1841
 7212SOL    HW133269   1.543   4.251  12.361 -1.3286  1.3859 -0.5329
 7212SOL    HW233270   1.481   4.137  12.312 -4.5862  2.6147 -0.1881
 7213SOL     OW33271   2.555   1.328   7.525  0.2438 -0.0686 -0.1739
 7213SOL    HW133272   2.629   1.308   7.467  0.0883  0.4984 -0.5639
 7213SOL    HW233273   2.560   1.246   7.575 -0.5755 -2.3564 -3.8842
 7214SOL     OW33274   3.231   2.918   2.410  0.0425 -0.4776 -0.2063
 7214SOL    HW133275   3.324   2.895   2.403 -0.1247 -1.2705  0.1846
 7214SOL    HW233276   3.189   2.832   2.416 -0.9690 -0.0699 -1.4802
 7215SOL     OW33277   4.056   2.935   3.747 -0.7141 -0.0142  0.5880
 7215SOL    HW133278   4.079   2.885   3.669 -1.0531 -0.0431  0.5068
 7215SOL    HW233279   3.980   2.887   3.780  0.4176 -1.6090  0.8712
 7216SOL     OW33280   0.928   3.890  12.166  0.6952  0.5435  0.2161
 7216SOL    HW133281   0.835   3.880  12.145  0.5275  0.7543  0.8340
 7216SOL    HW233282   0.965   3.941  12.093 -2.8099  1.6804 -0.7774
 7217SOL     OW33283   4.550   1.212   3.617 -0.3974 -0.2388 -0.3209
 7217SOL    HW133284   4.495   1.147   3.660  1.9840 -2.1406 -0.1370
 7217SOL    HW233285   4.538   1.183   3.527 -0.6063  1.8501 -0.9594
 7218SOL     OW33286   4.384   2.771   7.798  0.0912  0.2499 -0.2399
 7218SOL    HW133287   4.325   2.729   7.735 -1.7682 -0.3037  1.8526
 7218SOL    HW233288   4.354   2.733   7.881 -1.6471 -0.7625 -1.3215
 7219SOL     OW33289   4.147   3.898   2.705  0.3741  0.1422  0.4225
 7219SOL    HW133290   4.227   3.853   2.732  2.3718  2.2729 -1.9547
 7219SOL    HW233291   4.126   3.934   2.790  0.6362  1.3358 -0.0256
 7220SOL     OW33292   1.143   1.012   3.085 -0.0981  0.1330  0.2076
 7220SOL    HW133293   1.180   0.924   3.078 -1.3465 -0.3434 -0.4281
 7220SOL    HW233294   1.139   1.030   2.991  2.2480 -1.6322 -0.2265
 7221SOL     OW33295   3.463   2.768   6.381  0.2977 -0.0961 -0.3663
 7221SOL    HW133296   3.458   2.781   6.475 -1.8809 -0.6362 -0.4199
 7221SOL    HW233297   3.559   2.768   6.379  0.2949  0.3241 -0.5991
 7222SOL     OW33298   2.983   4.581   2.902  0.2807 -0.2046  0.0903
 7222SOL    HW133299   2.890   4.583   2.926  0.8130 -0.4560  2.1919
 7222SOL    HW233300   2.973   4.527   2.824 -0.1307 -0.9046  0.6256
 7223SOL     OW33301   3.068   0.458   4.841 -0.2826 -0.4106 -0.1040
 7223SOL    HW133302   2.999   0.394   4.824 -0.5561  0.1520 -1.1098
 7223SOL    HW233303   3.012   0.522   4.884  0.9244  0.7481 -0.2511
 7224SOL     OW33304   4.000   3.392   5.793 -0.0471  0.0066 -0.3724
 7224SOL    HW133305   3.983   3.332   5.865 -2.2203  1.8843  0.6615
 7224SOL    HW233306   3.943   3.460   5.827 -2.3715 -2.5943  0.8343
 7225SOL     OW33307   4.534   0.431  13.636 -0.7402  0.5823  0.1165
 7225SOL    HW133308   4.515   0.452  13.727 -0.7174 -0.0607  0.2701
 7225SOL    HW233309   4.456   0.460  13.589 -0.7646 -0.2773 -0.3655
 7226SOL     OW33310   3.205   1.007   1.852 -0.5922 -0.1258  0.0353
 7226SOL    HW133311   3.213   1.069   1.780 -1.1294  1.7152  1.5504
 7226SOL    HW233312   3.280   0.948   1.839 -1.3320 -1.3065  1.1485
 7227SOL     OW33313   2.034   4.091   8.051 -0.4585 -0.3587 -0.2018
 7227SOL    HW133314   1.942   4.117   8.044 -0.3399 -0.3086 -1.7794
 7227SOL    HW233315   2.037   4.068   8.143 -1.5968  0.7337  0.1052
 7228SOL     OW33316   1.741   4.102   8.819 -0.1858  0.0439 -0.2110
 7228SOL    HW133317   1.799   4.028   8.801  1.2786  1.2389 -0.4254
 7228SOL    HW233318   1.664   4.086   8.765  0.3905 -0.6332 -0.8290
 7229SOL     OW33319   3.537   0.932   6.932  0.5114 -0.1660 -0.6657
 7229SOL    HW133320   3.565   0.870   7.000  1.7945  2.1645  0.9233
 7229SOL    HW233321   3.503   1.003   6.986  0.0955  0.5884 -1.9130
 7230SOL     OW33322   0.687   0.585   5.556 -0.4182 -0.2005 -0.0384
 7230SOL    HW133323   0.779   0.600   5.534  0.0375 -3.0053 -0.0557
 7230SOL    HW233324   0.681   0.491   5.570 -2.1461 -0.4051 -2.1611
 7231SOL     OW33325   2.328   3.900   2.956 -0.3010 -0.3802  0.0967
 7231SOL    HW133326   2.302   3.810   2.976  0.9280 -1.1871 -1.8579
 7231SOL    HW233327   2.393   3.880   2.888 -0.5614 -0.2761 -0.1796
 7232SOL     OW33328   3.233   3.395   7.947 -0.6483  0.2195  0.1164
 7232SOL    HW133329   3.148   3.364   7.978 -0.3798  0.2569  0.8723
 7232SOL    HW233330   3.238   3.475   7.999 -1.2516  1.9478 -2.4759
 7233SOL     OW33331   1.798   4.000   1.380  0.2853  0.0345  0.4807
 7233SOL    HW133332   1.773   3.936   1.446 -0.7055 -2.1967 -2.0128
 7233SOL    HW233333   1.715   4.047   1.367  1.6291  1.9820 -1.1542
 7234SOL     OW33334   4.380   1.641   2.794 -0.0306 -0.0297  0.2906
 7234SOL    HW133335   4.401   1.590   2.871 -2.0035 -0.0107  0.8454
 7234SOL    HW233336   4.322   1.585   2.743  0.9233  0.3150 -1.1871
 7235SOL     OW33337   1.919   1.153  11.373  0.6715  0.4534 -0.4151
 7235SOL    HW133338   1.924   1.232  11.320 -0.3296 -1.3186 -3.1550
 7235SOL    HW233339   2.012   1.140  11.390  1.0478  0.8470 -2.2178
 7236SOL     OW33340   0.400   3.276  12.977 -0.1501 -0.1293 -0.1001
 7236SOL    HW133341   0.462   3.285  12.905 -2.9819 -0.1846 -2.5675
 7236SOL    HW233342   0.353   3.194  12.959 -0.5022  0.4633 -1.8286
 7237SOL     OW33343   0.514   4.491   9.783  0.5098  0.3794 -0.0723
 7237SOL    HW133344   0.609   4.505   9.780  0.6668 -0.8029 -0.8576
 7237SOL    HW233345   0.469   4.561   9.735  0.2520 -0.2561 -0.7585
 7238SOL     OW33346   4.298   4.297  10.486 -0.0049  0.1705 -0.4143
 7238SOL    HW133347   4.319   4.266  10.398  1.0043  2.7277 -1.0936
 7238SOL    HW233348   4.312   4.392  10.486 -1.6852  0.4359  1.2457
 7239SOL     OW33349   2.150   0.963   7.998  0.7627  0.4731  0.0024
 7239SOL    HW133350   2.064   0.981   7.960  0.0293 -0.8958  1.0189
 7239SOL    HW233351   2.127   0.953   8.090 -0.0405  1.9395 -0.0306
 7240SOL     OW33352   2.841   1.389   6.926 -0.1899 -0.1271  0.3290
 7240SOL    HW133353   2.785   1.463   6.951  0.5620  0.3313  0.6605
 7240SOL    HW233354   2.881   1.433   6.851 -0.3458 -0.6905 -0.0811
 7241SOL     OW33355   0.301   2.449   6.506  0.5530 -0.5310 -0.4954
 7241SOL    HW133356   0.232   2.393   6.470 -0.0483 -1.1833  1.6308
 7241SOL    HW233357   0.311   2.507   6.431 -0.3616  0.9935  0.5555
 7242SOL     OW33358   4.570   3.856   6.389  0.0026  0.1348  0.0819
 7242SOL    HW133359   4.593   3.800   6.315  1.2505  0.7763 -0.0170
 7242SOL    HW233360   4.477   3.876   6.379 -0.0764  0.3275  1.2679
 7243SOL     OW33361   2.399   2.217   0.187 -0.8687  0.7778  1.3687
 7243SOL    HW133362   2.357   2.236   0.103 -0.8492 -0.2777  1.1237
 7243SOL    HW233363   2.477   2.272   0.175 -0.0384 -0.9919 -1.2762
 7244SOL     OW33364   4.111   2.919   3.086 -0.6118  0.3692  0.6347
 7244SOL    HW133365   4.050   2.857   3.126 -0.0884 -1.4492 -1.3899
 7244SOL    HW233366   4.131   2.980   3.157  1.9273  1.3544 -0.9284
 7245SOL     OW33367   1.821   2.044   1.313  0.5020 -0.6860 -0.2407
 7245SOL    HW133368   1.909   2.018   1.286  0.5959 -2.6120  1.9557
 7245SOL    HW233369   1.814   2.005   1.400 -1.4193  0.3852  0.0762
 7246SOL     OW33370   3.714   0.756   5.823 -0.4223  0.3705 -0.0831
 7246SOL    HW133371   3.730   0.845   5.792 -0.4769  0.0948 -0.9054
 7246SOL    HW233372   3.750   0.710   5.747  1.5946  0.9349  0.5257
 7247SOL     OW33373   4.006   2.085   6.664 -0.2217  0.1404 -0.1888
 7247SOL    HW133374   3.929   2.033   6.642 -0.2883 -0.3710  1.2697
 7247SOL    HW233375   4.027   2.121   6.577  0.1225 -0.5672 -0.4065
 7248SOL     OW33376   2.685   2.835   0.404  0.2640  0.2323 -0.4419
 7248SOL    HW133377   2.664   2.905   0.343  1.7907  1.5259  0.5160
 7248SOL    HW233378   2.604   2.838   0.456 -0.6200  0.7630 -1.8568
 7249SOL     OW33379   3.347   1.780  10.841  0.1764 -0.2973  0.5415
 7249SOL    HW133380   3.255   1.755  10.856 -0.2427  0.3301 -0.9269
 7249SOL    HW233381   3.347   1.867  10.880 -1.6640 -1.0663  2.2509
 7250SOL     OW33382   3.932   3.987   2.115  0.0665  0.8644  0.1732
 7250SOL    HW133383   3.972   3.984   2.028  0.3921 -0.7099  0.3796
 7250SOL    HW233384   3.975   4.062   2.155  0.6837 -0.1568  1.4058
 7251SOL     OW33385   1.337   2.898   0.692  0.0187  0.1129  0.4361
 7251SOL    HW133386   1.425   2.865   0.707 -0.0687 -0.8909 -1.2041
 7251SOL    HW233387   1.291   2.819   0.661 -1.0512 -0.6629  4.0449
 7252SOL     OW33388   1.699   3.118   3.707 -0.0752  0.3063 -0.1032
 7252SOL    HW133389   1.637   3.182   3.739 -0.4028  0.1826 -0.4875
 7252SOL    HW233390   1.679   3.113   3.613 -2.7673  1.0288  0.4504
 7253SOL     OW33391   4.011   4.263   2.053  0.0107 -0.1280  0.4359
 7253SOL    HW133392   4.079   4.196   2.041  0.8941  0.7868  0.3450
 7253SOL    HW233393   4.040   4.322   1.984  1.5496 -0.2694  0.9741
 7254SOL     OW33394   1.697   1.882   5.330  0.3571 -0.5519  0.0712
 7254SOL    HW133395   1.757   1.947   5.295 -2.0028  0.6023 -1.7877
 7254SOL    HW233396   1.610   1.910   5.302  0.3787 -1.0458 -0.4838
 7255SOL     OW33397   2.725   3.518   7.132 -0.3167  0.6524  0.2540
 7255SOL    HW133398   2.675   3.456   7.079 -2.5587  2.3295  0.3844
 7255SOL    HW233399   2.683   3.505   7.217  1.2007 -0.2361  0.8528
 7256SOL     OW33400   4.386   1.045   3.746 -0.0500  0.0123  0.3789
 7256SOL    HW133401   4.303   1.094   3.747  1.3684  2.4551 -0.5859
 7256SOL    HW233402   4.361   0.955   3.730  1.8607 -0.4772  0.1829
 7257SOL     OW33403   3.157   3.958   1.861  0.7583  0.3016  0.3598
 7257SOL    HW133404   3.106   3.941   1.782 -1.0652  1.0583  1.3667
 7257SOL    HW233405   3.219   3.886   1.861  0.3528 -0.0525  0.5112
 7258SOL     OW33406   0.843   1.860  14.470 -0.0979  0.4327 -0.0637
 7258SOL    HW133407   0.793   1.870  14.389  0.0389 -1.4932 -0.3781
 7258SOL    HW233408   0.775   1.899  14.525 -0.2097 -1.1298  0.8847
 7259SOL     OW33409   3.789   2.990  15.760 -0.1147  0.1799 -0.2621
 7259SOL    HW133410   3.741   3.068  15.733  1.2692  0.2590 -2.5622
 7259SOL    HW233411   3.875   3.014  15.726 -1.5255  3.9445 -1.1824
 7260SOL     OW33412   2.561   3.104   4.245 -0.2543  0.6020  0.0863
 7260SOL    HW133413   2.513   3.168   4.297 -2.5670  0.2220 -1.5577
 7260SOL    HW233414   2.619   3.163   4.197  1.7812 -1.2948  0.2065
 7261SOL     OW33415   3.636   1.997   2.479  0.1095 -0.1481  0.1503
 7261SOL    HW133416   3.645   1.933   2.549 -0.0728 -0.9920 -0.5906
 7261SOL    HW233417   3.626   2.078   2.529  4.2876  0.7106 -0.4294
 7262SOL     OW33418   1.101   0.371   4.741 -0.2125 -0.4115  0.2145
 7262SOL    HW133419   1.117   0.464   4.721  0.7363 -0.2032  1.9200
 7262SOL    HW233420   1.161   0.327   4.681 -0.2074  0.5190 -0.4698
 7263SOL     OW33421   3.682   2.779  10.830 -0.0822 -0.7282 -0.4987
 7263SOL    HW133422   3.620   2.734  10.888 -2.4127  1.0210 -1.6198
 7263SOL    HW233423   3.730   2.704  10.795 -0.1935 -0.5545 -1.0216
 7264SOL     OW33424   0.134   2.773  10.528  0.1542 -0.2853  0.0243
 7264SOL    HW133425   0.163   2.860  10.500 -0.9776  0.2496  0.5329
 7264SOL    HW233426   0.096   2.803  10.610  1.5190 -1.0302  0.9287
 7265SOL     OW33427   4.301   0.950   2.450 -0.0727  0.2923  0.1674
 7265SOL    HW133428   4.226   0.991   2.494 -0.0694  0.9738 -0.4663
 7265SOL    HW233429   4.373   0.952   2.513 -0.0433 -2.0363  0.2300
 7266SOL     OW33430   4.427   0.032   2.424  0.1217  0.4678  0.3006
 7266SOL    HW133431   4.432   4.671   2.424  1.0855  0.5106  3.4536
 7266SOL    HW233432   4.437   0.060   2.515  2.0683 -0.2626  0.3240
 7267SOL     OW33433   0.742   1.246   7.046  0.9345 -0.1425 -0.3025
 7267SOL    HW133434   0.681   1.195   6.993  0.6063  0.8088 -0.8352
 7267SOL    HW233435   0.776   1.304   6.977 -0.4222  0.7695 -0.1972
 7268SOL     OW33436   1.768   0.282  11.641  0.8799  0.3064  0.6194
 7268SOL    HW133437   1.679   0.259  11.667 -0.3845  4.0214 -0.4082
 7268SOL    HW233438   1.799   0.342  11.709  3.1957 -1.0325  0.7327
 7269SOL     OW33439   1.886   4.122   3.061 -0.4328 -0.8154 -0.0453
 7269SOL    HW133440   1.836   4.203   3.052  0.1681 -0.3352  0.9032
 7269SOL    HW233441   1.858   4.094   3.148 -3.2224 -0.9716 -1.0109
 7270SOL     OW33442   3.320   0.925   7.861 -0.4131  0.1222 -0.8435
 7270SOL    HW133443   3.402   0.879   7.842 -1.4355 -1.4426 -1.4349
 7270SOL    HW233444   3.350   0.987   7.927 -1.5650 -0.5471  0.2967
 7271SOL     OW33445   0.482   2.397   5.655  0.3084 -0.2155  0.0314
 7271SOL    HW133446   0.455   2.324   5.599 -1.4113  0.9951 -0.7241
 7271SOL    HW233447   0.521   2.448   5.584  1.5045 -2.2351 -0.7700
 7272SOL     OW33448   4.262   1.181   3.381  0.2747 -0.8306 -0.5009
 7272SOL    HW133449   4.329   1.232   3.335  0.3303  0.1717  0.6809
 7272SOL    HW233450   4.177   1.221   3.363  1.1103  2.3841  2.6501
 7273SOL     OW33451   3.525   2.184   4.836 -0.6665 -0.4004  0.4990
 7273SOL    HW133452   3.447   2.175   4.781 -0.0692  1.3855 -0.6522
 7273SOL    HW233453   3.565   2.267   4.808 -2.6568  0.0318 -1.0260
 7274SOL     OW33454   2.019   4.730   7.196 -0.1502  0.1034  0.3382
 7274SOL    HW133455   1.947   0.031   7.249  0.1995  0.6000  0.4791
 7274SOL    HW233456   2.080   0.069   7.196  1.0973 -0.9198  0.9495
 7275SOL     OW33457   3.906   1.049   4.054  0.1679 -0.0934 -0.5237
 7275SOL    HW133458   3.872   1.116   3.995  1.0092 -0.4838 -1.4626
 7275SOL    HW233459   3.997   1.025   4.036 -0.0335 -0.1805 -1.4353
 7276SOL     OW33460   4.026   2.762  15.416 -0.0613 -0.4045  0.3425
 7276SOL    HW133461   4.063   2.674  15.405 -0.7190 -0.7147  0.6804
 7276SOL    HW233462   4.091   2.814  15.369  1.7855 -3.0048  0.0022
 7277SOL     OW33463   4.676   2.550  13.642  0.2327  0.2528  0.5272
 7277SOL    HW133464   4.640   2.601  13.570  0.0436 -0.5241  0.0727
 7277SOL    HW233465   4.595   2.537  13.691  0.4486 -2.4946  0.1706
 7278SOL     OW33466   1.612   2.924  15.849 -0.1433 -0.4552 -0.3910
 7278SOL    HW133467   1.616   3.020  15.853  0.2331 -0.6536  3.7342
 7278SOL    HW233468   1.522   2.905  15.822 -0.4823  0.4303  0.1278
 7279SOL     OW33469   1.981   2.652   6.972 -0.1525 -0.2192 -0.0741
 7279SOL    HW133470   1.950   2.732   6.929 -2.1057 -1.4598 -1.0085
 7279SOL    HW233471   1.903   2.633   7.025  0.0901 -2.2295 -0.4307
 7280SOL     OW33472   1.834   4.711   0.326 -0.4984  0.1768 -0.4771
 7280SOL    HW133473   1.769   4.710   0.396 -0.1165  0.2641 -0.1277
 7280SOL    HW233474   1.843   4.617   0.305 -0.3231 -0.2914  1.7384
 7281SOL     OW33475   4.700   4.196   4.699 -0.0678  0.5695 -0.1397
 7281SOL    HW133476   0.024   4.134   4.744 -1.8673 -0.7360  0.3365
 7281SOL    HW233477   4.689   4.255   4.774  1.3145  1.8773 -0.9410
 7282SOL     OW33478   0.543   4.587   3.239  0.3284  1.1175 -0.1864
 7282SOL    HW133479   0.565   4.570   3.331 -3.1254  3.3128  1.0220
 7282SOL    HW233480   0.458   4.543   3.235  0.9026 -0.0397  0.3353
 7283SOL     OW33481   2.678   1.443   0.465 -0.2659 -0.5744 -0.3482
 7283SOL    HW133482   2.703   1.482   0.549  1.3785 -0.3276 -0.9577
 7283SOL    HW233483   2.669   1.351   0.488 -2.0088  0.5193  3.4133
 7284SOL     OW33484   1.815   1.136   6.597  0.1763 -0.1776 -0.5181
 7284SOL    HW133485   1.838   1.076   6.669 -2.0018  1.5599  1.6170
 7284SOL    HW233486   1.725   1.152   6.623  0.6143  1.0152  0.2751
 7285SOL     OW33487   1.162   3.918   4.889 -0.0865  0.7632  0.1125
 7285SOL    HW133488   1.158   3.997   4.834 -2.9551  0.6219  0.1479
 7285SOL    HW233489   1.110   3.942   4.966  2.6058  1.2900  1.7949
 7286SOL     OW33490   4.519   0.451  15.526  0.5463  0.7232 -0.0459
 7286SOL    HW133491   4.452   0.513  15.556  2.0449  2.3816 -0.1632
 7286SOL    HW233492   4.503   0.445  15.432 -1.5402 -1.1850  0.4377
 7287SOL     OW33493   3.053   3.743   5.284 -0.1013  0.0069  0.1228
 7287SOL    HW133494   3.026   3.826   5.322 -2.2908 -0.8078  0.3521
 7287SOL    HW233495   3.147   3.758   5.278  0.4246 -1.8389  3.6017
 7288SOL     OW33496   0.598   1.460   4.963  0.1886 -0.1267  0.1968
 7288SOL    HW133497   0.570   1.422   5.046  3.1765  0.4517  1.4790
 7288SOL    HW233498   0.528   1.431   4.905 -1.3036 -0.6638  2.2848
 7289SOL     OW33499   0.546   4.454  14.924 -0.8002  0.0017  0.6154
 7289SOL    HW133500   0.529   4.367  14.888 -1.6285  0.7523 -0.8040
 7289SOL    HW233501   0.641   4.446  14.911 -0.9021 -1.4920  0.7560
 7290SOL     OW33502   1.824   2.896   9.084 -0.6696 -0.1827 -0.0648
 7290SOL    HW133503   1.798   2.881   9.175  0.0044 -0.1147  0.1382
 7290SOL    HW233504   1.843   2.813   9.041  0.8742  1.3938 -2.4630
 7291SOL     OW33505   2.076   4.477  14.984 -0.1160 -0.6254 -0.5963
 7291SOL    HW133506   2.009   4.438  14.929 -0.2193 -1.0212 -0.1941
 7291SOL    HW233507   2.151   4.429  14.949  0.9540 -0.9147  2.0468
 7292SOL     OW33508   2.582   2.888  12.068  0.6706 -0.2172 -0.1726
 7292SOL    HW133509   2.612   2.932  12.148  0.5252 -0.7606  0.1786
 7292SOL    HW233510   2.660   2.908  12.015  0.6784 -1.4443 -0.6081
 7293SOL     OW33511   2.269   3.888   2.661  0.2234 -0.2781  0.1887
 7293SOL    HW133512   2.329   3.947   2.705 -1.0155  0.4002  0.9493
 7293SOL    HW233513   2.240   3.948   2.592  1.1882  0.0026  0.0319
 7294SOL     OW33514   0.953   0.132   0.690  0.2997 -0.1228  0.2905
 7294SOL    HW133515   1.033   0.079   0.689 -0.2275 -0.8981 -1.2446
 7294SOL    HW233516   0.966   0.173   0.604 -0.1489  0.7171  0.6241
 7295SOL     OW33517   1.429   2.843   7.425 -0.1107 -0.0433  0.1568
 7295SOL    HW133518   1.470   2.896   7.356  0.9635  0.8739  1.4887
 7295SOL    HW233519   1.350   2.814   7.380 -1.6073 -0.1570  2.8811
 7296SOL     OW33520   2.745   3.694   4.932 -0.0558  0.0556 -0.3674
 7296SOL    HW133521   2.833   3.731   4.924  1.2135 -2.6225  1.1550
 7296SOL    HW233522   2.699   3.750   4.871  0.0724  1.9775  1.3084
 7297SOL     OW33523   0.004   3.061  12.994  0.0496 -0.2930  0.2313
 7297SOL    HW133524   0.007   3.095  12.905 -0.3605 -2.0853 -0.4571
 7297SOL    HW233525   0.092   3.076  13.029 -0.1350 -0.2360  0.6669
 7298SOL     OW33526   4.334   3.273   7.983 -0.1454 -0.1548 -0.0751
 7298SOL    HW133527   4.324   3.233   7.897 -0.1775 -1.2106  0.4162
 7298SOL    HW233528   4.382   3.353   7.964  0.3407 -0.5704 -0.6122
 7299SOL     OW33529   1.867   1.571   4.392 -0.2516  0.2225 -0.6774
 7299SOL    HW133530   1.819   1.654   4.387  2.6296  1.9453  0.2627
 7299SOL    HW233531   1.938   1.575   4.328 -0.6660  0.9921 -1.0882
 7300SOL     OW33532   0.055   4.121  17.663  0.2888  0.0662 -0.0930
 7300SOL    HW133533   0.116   4.143  17.733 -1.3459  1.5386  0.8982
 7300SOL    HW233534   0.054   4.026  17.671 -0.7977 -0.0610 -1.6646
 7301SOL     OW33535   1.600   2.608   9.431  0.3081  0.3244  0.2663
 7301SOL    HW133536   1.622   2.583   9.341  0.5409  2.2755 -0.2035
 7301SOL    HW233537   1.518   2.658   9.430  0.8187  1.1492 -0.1085
 7302SOL     OW33538   2.454   0.629   3.694  0.0207  0.8820  0.2363
 7302SOL    HW133539   2.463   0.577   3.615 -2.5446  0.7431  0.0654
 7302SOL    HW233540   2.365   0.660   3.680  0.0876  0.6432 -0.6907
 7303SOL     OW33541   1.415   3.801   7.201  0.0409  0.6020 -0.0099
 7303SOL    HW133542   1.378   3.883   7.167  4.1865  2.0651 -0.9925
 7303SOL    HW233543   1.497   3.830   7.241 -0.2697  1.8390 -0.2757
 7304SOL     OW33544   2.662   0.025   2.263 -0.0706 -0.6229  0.0828
 7304SOL    HW133545   2.669   0.085   2.188 -1.7919  0.9053  1.1226
 7304SOL    HW233546   2.732   0.063   2.317  0.6383 -0.5763 -0.8664
 7305SOL     OW33547   4.535   3.379   0.746  0.1337  0.1230 -0.2021
 7305SOL    HW133548   4.603   3.324   0.708  0.6969 -1.6626  3.3508
 7305SOL    HW233549   4.479   3.409   0.675  1.1955  0.7645 -0.7619
 7306SOL     OW33550   0.847   4.144   5.297 -0.0111 -0.3325 -0.7712
 7306SOL    HW133551   0.802   4.143   5.382 -0.8730 -1.6618 -1.2329
 7306SOL    HW233552   0.908   4.217   5.307  1.0646 -1.6949  2.5856
 7307SOL     OW33553   2.174   3.297   6.921 -0.2031 -0.1545 -0.2421
 7307SOL    HW133554   2.173   3.338   7.007  1.7659  2.6342 -1.5598
 7307SOL    HW233555   2.093   3.319   6.875  0.0030  1.2510  0.0862
 7308SOL     OW33556   0.926   4.403   4.776  0.0013 -0.0979 -0.1460
 7308SOL    HW133557   0.842   4.409   4.730 -1.1240 -2.7446  1.5614
 7308SOL    HW233558   0.983   4.463   4.729  0.0356  0.1194  0.1732
 7309SOL     OW33559   1.685   4.622   3.862 -0.1007  0.3987 -0.9790
 7309SOL    HW133560   1.670   4.631   3.957  1.0004  0.3159 -0.8005
 7309SOL    HW233561   1.760   4.564   3.850  0.1573  0.3451  0.8404
 7310SOL     OW33562   2.362   2.810  16.346 -0.2552 -0.1797  0.0855
 7310SOL    HW133563   2.435   2.829  16.405 -0.9730  2.3253  0.1273
 7310SOL    HW233564   2.403   2.741  16.294 -0.7943 -1.3296  1.1709
 7311SOL     OW33565   1.221   4.011   7.355 -0.8964  0.3973 -0.2215
 7311SOL    HW133566   1.152   4.065   7.394  0.4157  1.0262  1.2071
 7311SOL    HW233567   1.235   3.949   7.426  0.3374 -2.0895 -2.6515
 7312SOL     OW33568   1.813   3.871  15.334  0.3839 -0.0582  0.5311
 7312SOL    HW133569   1.799   3.823  15.415 -0.7891 -0.9499 -0.2003
 7312SOL    HW233570   1.739   3.830  15.289 -0.2143  0.9241  0.6089
 7313SOL     OW33571   0.172   3.431  14.985 -0.5428  0.1258  0.0679
 7313SOL    HW133572   0.185   3.525  14.976 -0.1748  0.0659 -0.0296
 7313SOL    HW233573   0.212   3.407  14.902  0.8351  1.7315  0.2810
 7314SOL     OW33574   1.845   4.509  15.191 -0.3135  0.7278  0.4080
 7314SOL    HW133575   1.915   4.521  15.128 -1.1904 -0.6593 -0.8270
 7314SOL    HW233576   1.769   4.523  15.134  0.0002 -1.6216 -0.5723
 7315SOL     OW33577   3.364   1.524  12.364 -0.2507  0.1393  0.7672
 7315SOL    HW133578   3.293   1.540  12.303 -0.6134 -0.4131  1.0380
 7315SOL    HW233579   3.356   1.433  12.395 -1.1122  0.0611  0.3075
 7316SOL     OW33580   2.166   0.631  13.233 -0.1759 -0.9229  0.1918
 7316SOL    HW133581   2.177   0.617  13.327  2.0060  1.9635  0.3647
 7316SOL    HW233582   2.244   0.680  13.208  0.8366 -3.4466 -1.5701
 7317SOL     OW33583   2.098   3.196  12.741  0.4499  0.3489 -0.3574
 7317SOL    HW133584   2.053   3.118  12.772 -2.2355  1.7507 -0.7670
 7317SOL    HW233585   2.101   3.248  12.821  3.3654 -0.6720  0.2170
 7318SOL     OW33586   1.731   1.848   7.793 -0.2379 -0.0790 -0.4069
 7318SOL    HW133587   1.675   1.916   7.830 -1.4855 -1.1553 -0.3323
 7318SOL    HW233588   1.738   1.780   7.860  0.1573  0.7707  0.4152
 7319SOL     OW33589   1.658   3.262   2.878 -0.1860 -0.3823 -0.3659
 7319SOL    HW133590   1.742   3.235   2.916 -0.5920  1.3393  1.7189
 7319SOL    HW233591   1.688   3.279   2.788  1.9306 -0.3887  0.3321
 7320SOL     OW33592   1.560   2.522   1.903 -0.4246  0.0482 -0.0857
 7320SOL    HW133593   1.471   2.541   1.876 -0.1200 -0.1416 -1.2399
 7320SOL    HW233594   1.602   2.537   1.818 -2.1053 -2.7136 -1.4234
 7321SOL     OW33595   1.435   0.232   1.042 -0.4119  0.5446 -0.2123
 7321SOL    HW133596   1.368   0.183   0.995  0.6094 -0.3895 -0.6888
 7321SOL    HW233597   1.419   0.212   1.135 -1.7326  0.1564 -0.5245
 7322SOL     OW33598   2.181   3.022   5.258 -0.2928 -0.1798 -0.1124
 7322SOL    HW133599   2.195   2.940   5.304  0.0402  0.6862  1.3428
 7322SOL    HW233600   2.222   2.999   5.175  0.9040 -1.8934  0.9506
 7323SOL     OW33601   4.550   3.408   4.627 -0.1515 -0.4029  0.6093
 7323SOL    HW133602   4.563   3.353   4.705 -0.2473 -1.9014 -0.4443
 7323SOL    HW233603   4.574   3.341   4.563  1.6967 -0.8701  1.7529
 7324SOL     OW33604   2.135   2.641   8.040  0.0652  0.2710 -0.1352
 7324SOL    HW133605   2.062   2.579   8.049 -0.2766  0.4572 -1.6572
 7324SOL    HW233606   2.206   2.592   8.080  1.3658  1.4303 -1.0222
 7325SOL     OW33607   4.096   0.195  17.273  0.4169 -0.5483  0.2859
 7325SOL    HW133608   4.157   0.257  17.312 -0.5764  1.3748 -1.1903
 7325SOL    HW233609   4.157   0.122  17.266  0.9837 -0.2669  2.4396
 7326SOL     OW33610   0.982   2.872   7.369  0.2671  0.1519 -0.5990
 7326SOL    HW133611   0.959   2.964   7.356  2.8728  1.0918  1.2643
 7326SOL    HW233612   1.015   2.884   7.459  1.5908  1.2126 -1.2321
 7327SOL     OW33613   0.499   0.610   1.894  0.1090  0.2160  0.1430
 7327SOL    HW133614   0.520   0.700   1.869 -1.2821  0.5878  0.3356
 7327SOL    HW233615   0.490   0.575   1.806  0.3357  1.7679 -0.5050
 7328SOL     OW33616   0.473   3.978   9.690 -0.2642  0.0333 -0.1328
 7328SOL    HW133617   0.467   3.923   9.768 -0.9474 -1.1818 -1.0331
 7328SOL    HW233618   0.457   4.062   9.732  1.8633  0.3508 -0.0007
 7329SOL     OW33619   4.556   3.324  14.635 -0.4408  0.1169  0.1650
 7329SOL    HW133620   4.480   3.312  14.691  0.2903 -0.5142  1.0223
 7329SOL    HW233621   4.618   3.270  14.684  1.0761  1.2566 -0.5100
 7330SOL     OW33622   3.971   2.128  11.071 -0.2403 -0.7826 -1.0655
 7330SOL    HW133623   3.973   2.055  11.009  1.1222 -0.8862 -0.8847
 7330SOL    HW233624   3.906   2.092  11.131  0.5794  2.1604  1.5962
 7331SOL     OW33625   2.315   2.083  12.146  0.5805 -0.4137 -0.4385
 7331SOL    HW133626   2.325   2.073  12.051 -0.4866  0.4299 -0.6407
 7331SOL    HW233627   2.407   2.070  12.172  0.3373 -0.9946  0.1166
 7332SOL     OW33628   1.081   4.261   5.271 -0.0870  0.5392 -0.0275
 7332SOL    HW133629   1.119   4.340   5.311  1.8304  0.5306 -1.8398
 7332SOL    HW233630   1.097   4.285   5.180  0.6169 -2.1333 -0.5861
 7333SOL     OW33631   1.968   3.990   6.508 -0.3403 -0.4054 -0.8053
 7333SOL    HW133632   1.933   3.948   6.587 -1.6444  1.2167 -0.5174
 7333SOL    HW233633   1.900   4.054   6.485 -0.5792 -0.1471  0.5990
 7334SOL     OW33634   0.498   4.129   0.227 -0.5853 -0.1023 -0.6722
 7334SOL    HW133635   0.527   4.124   0.136  0.3423 -2.3499 -0.2647
 7334SOL    HW233636   0.542   4.053   0.265  0.7347  1.2866  0.5152
 7335SOL     OW33637   0.830   3.748   8.265 -0.3034  0.0833 -0.3135
 7335SOL    HW133638   0.861   3.786   8.347  1.4842 -1.2457 -0.3778
 7335SOL    HW233639   0.828   3.654   8.281  1.6577  0.6357  3.1903
 7336SOL     OW33640   1.151   3.505  13.474  0.0108  0.5488 -0.3486
 7336SOL    HW133641   1.170   3.416  13.446 -2.4721 -0.2195  0.3312
 7336SOL    HW233642   1.230   3.528  13.523  0.8487 -0.4465 -1.2442
 7337SOL     OW33643   3.464   3.681   2.132 -0.1687 -0.2101 -0.4797
 7337SOL    HW133644   3.480   3.743   2.203 -0.2124  0.1224 -0.7652
 7337SOL    HW233645   3.555   3.668   2.105  0.4371  1.6014  0.7089
 7338SOL     OW33646   2.902   0.992   2.363 -0.3196 -0.4869  0.2366
 7338SOL    HW133647   2.841   0.944   2.419  1.6296 -3.1898  0.0355
 7338SOL    HW233648   2.981   0.941   2.350  0.5422  1.1669 -1.1215
 7339SOL     OW33649   2.556   3.192   7.257  0.3206 -0.8142 -0.1022
 7339SOL    HW133650   2.615   3.156   7.191  0.1537  2.6554 -2.1686
 7339SOL    HW233651   2.510   3.239   7.188 -0.0307  0.7434  1.1881
 7340SOL     OW33652   1.821   1.816  16.280 -0.2342  0.5904 -0.1358
 7340SOL    HW133653   1.807   1.907  16.308  1.2916 -0.0820  2.8184
 7340SOL    HW233654   1.916   1.818  16.272 -0.2970  4.5124 -0.0398
 7341SOL     OW33655   2.334   2.402   6.323 -0.0848  0.8046 -0.3552
 7341SOL    HW133656   2.376   2.481   6.357 -1.4708  1.0576  0.7933
 7341SOL    HW233657   2.318   2.357   6.406 -0.7282  2.1994  0.2736
 7342SOL     OW33658   2.516   2.435   6.853 -0.0092  0.0458 -0.3708
 7342SOL    HW133659   2.558   2.387   6.924  0.0146  1.6047  0.6552
 7342SOL    HW233660   2.428   2.398   6.864  1.2252 -1.9125  2.7861
 7343SOL     OW33661   4.576   1.539   8.256  0.4492 -0.3081  0.2866
 7343SOL    HW133662   4.539   1.626   8.241  1.8501  0.4362  1.2136
 7343SOL    HW233663   4.538   1.490   8.183  0.2930  2.9381 -1.7962
 7344SOL     OW33664   3.682   2.866   7.554  0.0720 -0.4213 -0.0899
 7344SOL    HW133665   3.594   2.900   7.564 -0.7562 -3.2432  2.0082
 7344SOL    HW233666   3.735   2.922   7.611 -0.8371  1.0008 -0.6503
 7345SOL     OW33667   2.533   0.113   7.151  0.0943  0.2316 -0.2082
 7345SOL    HW133668   2.531   0.208   7.140  0.7392  0.0503 -1.8829
 7345SOL    HW233669   2.520   0.082   7.061  1.1923  0.5647 -0.4858
 7346SOL     OW33670   1.058   3.520   4.567 -0.4374  0.6611  0.4757
 7346SOL    HW133671   1.118   3.446   4.556  0.7706  1.7114 -0.1153
 7346SOL    HW233672   1.093   3.563   4.645  0.0721  2.4828 -0.7330
 7347SOL     OW33673   0.722   1.715   6.782 -0.7814  0.2183  0.3784
 7347SOL    HW133674   0.697   1.782   6.845 -0.1723  0.5721  0.2416
 7347SOL    HW233675   0.690   1.745   6.696  0.5464 -1.3817 -0.6694
 7348SOL     OW33676   2.305   2.420   8.132 -0.4553 -0.0036  0.1218
 7348SOL    HW133677   2.246   2.352   8.164 -0.7628  0.3368  0.2838
 7348SOL    HW233678   2.359   2.426   8.211  2.3871 -0.0691 -1.8382
 7349SOL     OW33679   0.369   0.603  12.550  0.4182 -0.2796 -0.6334
 7349SOL    HW133680   0.436   0.582  12.615 -0.1104  0.5714  0.1713
 7349SOL    HW233681   0.411   0.672  12.499  0.6367 -0.1627 -0.2882
 7350SOL     OW33682   1.563   4.562   6.707  0.0380  0.2612  0.1992
 7350SOL    HW133683   1.566   4.624   6.634 -1.0055 -0.9338 -0.8541
 7350SOL    HW233684   1.639   4.598   6.755 -1.2368  3.2464 -0.0089
 7351SOL     OW33685   3.440   3.935   3.361 -0.0198 -0.1079  0.5291
 7351SOL    HW133686   3.429   4.030   3.348 -0.5374 -0.1384  0.7550
 7351SOL    HW233687   3.514   3.945   3.421  1.6692 -2.6462 -1.1341
 7352SOL     OW33688   2.902   4.147   2.499  0.4802  0.0989  0.1103
 7352SOL    HW133689   2.960   4.072   2.504 -0.8803 -0.8744  1.2344
 7352SOL    HW233690   2.827   4.092   2.519  0.1308 -0.3461 -2.4407
 7353SOL     OW33691   0.391   0.189   6.090 -0.0634  0.0271  0.1686
 7353SOL    HW133692   0.451   0.242   6.142  0.8887 -0.3631 -0.5294
 7353SOL    HW233693   0.385   0.242   6.010 -1.7558 -0.4682 -0.0221
 7354SOL     OW33694   4.350   2.171   4.821 -0.2201  0.3538 -0.3482
 7354SOL    HW133695   4.286   2.131   4.880 -0.9495 -0.2902 -1.5969
 7354SOL    HW233696   4.363   2.091   4.770  0.7460  0.8632 -0.8997
 7355SOL     OW33697   2.615   0.410   8.096 -0.2912 -0.0921  0.7651
 7355SOL    HW133698   2.685   0.356   8.135  0.4370 -0.0882 -0.5304
 7355SOL    HW233699   2.631   0.415   8.002 -0.8434  1.2891  0.7488
 7356SOL     OW33700   0.435   2.092   8.679 -0.4946 -0.2249 -0.4189
 7356SOL    HW133701   0.491   2.030   8.632  0.2015 -0.2466  0.4376
 7356SOL    HW233702   0.511   2.142   8.709 -0.9146  0.9571 -1.3478
 7357SOL     OW33703   2.101   3.285  15.138  0.1090 -0.4548 -0.2302
 7357SOL    HW133704   2.060   3.334  15.210  0.5100 -0.0054 -0.3073
 7357SOL    HW233705   2.164   3.239  15.194 -2.0031 -2.2482  0.6923
 7358SOL     OW33706   0.385   2.757  16.204 -0.0800  0.9676  0.4040
 7358SOL    HW133707   0.406   2.812  16.129  2.2370  0.7864  0.9350
 7358SOL    HW233708   0.392   2.820  16.276  2.6428 -0.6192  1.5051
 7359SOL     OW33709   3.014   3.214   6.592  0.1102 -0.2672  0.2206
 7359SOL    HW133710   3.005   3.232   6.686 -0.9091  1.1662 -0.1453
 7359SOL    HW233711   3.060   3.295   6.569  1.5464 -0.9978  0.5513
 7360SOL     OW33712   1.043   2.141  15.519  0.5536 -0.0711 -0.1464
 7360SOL    HW133713   1.015   2.180  15.436 -0.8069 -1.9687 -0.5733
 7360SOL    HW233714   0.970   2.082  15.539 -1.1641  2.1422  0.1341
 7361SOL     OW33715   0.483   4.333   3.698  0.1801  0.6470  0.2462
 7361SOL    HW133716   0.521   4.273   3.634 -0.5499  0.9328 -0.4581
 7361SOL    HW233717   0.550   4.335   3.767 -0.9115  2.9254  1.2570
 7362SOL     OW33718   4.149   2.068   9.404  0.2979  0.3530  0.0417
 7362SOL    HW133719   4.139   2.163   9.400  0.2550  0.3270 -0.4297
 7362SOL    HW233720   4.163   2.045   9.496  1.3504  0.5231 -0.0744
 7363SOL     OW33721   0.234   1.987   9.709  0.4523  0.3235  0.1896
 7363SOL    HW133722   0.262   1.970   9.799  0.3705  0.1252  0.1784
 7363SOL    HW233723   0.189   2.070   9.722 -0.3674  0.0820 -1.1266
 7364SOL     OW33724   4.041   2.682   4.226 -0.4444 -0.5985 -0.2715
 7364SOL    HW133725   4.058   2.775   4.210 -1.5676 -0.0856  1.4992
 7364SOL    HW233726   4.098   2.654   4.298 -2.0259 -1.1939  0.7348
 7365SOL     OW33727   3.655   2.246   8.655  0.0384 -0.3566  0.8688
 7365SOL    HW133728   3.702   2.179   8.605  1.0442  0.1299  1.1475
 7365SOL    HW233729   3.652   2.202   8.740 -1.5371 -1.3240  0.3108
 7366SOL     OW33730   0.048   4.375  14.006 -0.1616 -0.1736  0.4085
 7366SOL    HW133731   0.099   4.334  13.936 -0.5747  0.6270 -0.3577
 7366SOL    HW233732   0.102   4.452  14.022  1.1933 -0.9612 -0.3156
 7367SOL     OW33733   3.263   2.320   4.469  0.5796  0.0909  0.4464
 7367SOL    HW133734   3.262   2.416   4.476 -0.1430  0.1772 -0.8830
 7367SOL    HW233735   3.215   2.303   4.388  0.3503  0.7293  0.4498
 7368SOL     OW33736   0.914   3.428  11.918  0.1447  0.1028 -0.0521
 7368SOL    HW133737   0.922   3.523  11.909 -4.5171  0.6937  2.5031
 7368SOL    HW233738   0.937   3.413  12.010 -1.5545 -0.2823  0.2991
 7369SOL     OW33739   4.056   3.484   3.406 -0.3342 -0.1710 -0.2915
 7369SOL    HW133740   4.007   3.556   3.446  1.2952 -0.5413  2.3640
 7369SOL    HW233741   4.018   3.470   3.319 -2.9982  0.5177  0.7555
 7370SOL     OW33742   0.161   0.496   5.157  0.6316 -0.2096  0.0906
 7370SOL    HW133743   0.211   0.542   5.090 -1.0770  3.3282  1.2677
 7370SOL    HW233744   0.229   0.466   5.218  0.8119 -1.5705 -0.7712
 7371SOL     OW33745   0.978   0.038   3.870 -0.1479  0.1705  0.6250
 7371SOL    HW133746   0.947   0.092   3.798  0.7763  1.3207  1.0961
 7371SOL    HW233747   0.923   0.053   3.946  0.1389 -0.3856  0.9454
 7372SOL     OW33748   1.304   1.586   3.191 -0.2062  0.1588 -0.0185
 7372SOL    HW133749   1.392   1.605   3.159 -0.3235 -0.0324 -0.4461
 7372SOL    HW233750   1.311   1.492   3.179  1.8408  0.2293  0.6031
 7373SOL     OW33751   2.929   2.444   3.109  0.0646 -0.2412 -0.2760
 7373SOL    HW133752   2.898   2.532   3.131 -3.7108 -1.9740  1.2227
 7373SOL    HW233753   2.878   2.434   3.029 -0.8855  0.3899  0.2490
 7374SOL     OW33754   2.263   4.513  15.639  0.1863 -0.4090 -0.0858
 7374SOL    HW133755   2.175   4.501  15.602 -0.0133 -0.4353  0.3930
 7374SOL    HW233756   2.276   4.422  15.666  1.6259 -0.3161 -0.4694
 7375SOL     OW33757   3.338   2.039  15.484  0.2941  0.5258 -0.1246
 7375SOL    HW133758   3.370   1.995  15.405 -1.4722  2.8550 -2.1269
 7375SOL    HW233759   3.405   2.108  15.492  0.0030  0.6642  1.0218
 7376SOL     OW33760   4.371   3.857   7.876 -0.4644  0.3550  0.4468
 7376SOL    HW133761   4.279   3.859   7.848 -0.1964 -2.6773 -0.6595
 7376SOL    HW233762   4.404   3.928   7.821  1.6849 -0.3816  0.7652
 7377SOL     OW33763   3.830   2.981  10.938 -0.2912 -0.0997  0.9921
 7377SOL    HW133764   3.810   3.002  10.847  2.0384  0.4216  0.6073
 7377SOL    HW233765   3.789   2.895  10.933  1.4016 -0.8506  0.1747
 7378SOL     OW33766   1.395   1.518   8.401  0.3751  0.1838 -0.0453
 7378SOL    HW133767   1.349   1.459   8.461 -0.6114  0.6155 -0.3886
 7378SOL    HW233768   1.361   1.605   8.422 -1.2740 -0.8623  1.5915
 7379SOL     OW33769   1.961   1.698   1.792  0.1682 -0.5512  0.0607
 7379SOL    HW133770   1.944   1.607   1.766  0.6230 -0.6634  0.1644
 7379SOL    HW233771   1.874   1.725   1.820  0.6290 -1.5090  2.3932
 7380SOL     OW33772   0.607   3.147   5.024 -0.3717  0.3436 -0.1257
 7380SOL    HW133773   0.662   3.169   4.949 -1.1056 -1.0307 -1.0767
 7380SOL    HW233774   0.555   3.070   5.000  0.9776  0.0630 -2.1259
 7381SOL     OW33775   0.754   4.249  10.905 -0.1047 -0.6696  0.0175
 7381SOL    HW133776   0.845   4.277  10.898 -0.6582  0.8017 -1.3097
 7381SOL    HW233777   0.749   4.222  10.997 -0.5388  0.1052  0.2247
 7382SOL     OW33778   3.616   0.163   4.406 -0.2035  0.2818  0.1242
 7382SOL    HW133779   3.660   0.082   4.433  0.5495  0.1842 -1.4267
 7382SOL    HW233780   3.683   0.231   4.414  0.8085 -0.8554  1.3634
 7383SOL     OW33781   2.596   3.632   3.050 -0.7981  0.5593 -0.0891
 7383SOL    HW133782   2.655   3.679   2.991 -0.9337  1.8605  0.8221
 7383SOL    HW233783   2.594   3.688   3.128  1.8768  1.0232 -0.3642
 7384SOL     OW33784   2.798   0.980   0.548  0.5936 -0.0855 -0.0071
 7384SOL    HW133785   2.720   0.926   0.559 -0.9875  2.0215 -0.8573
 7384SOL    HW233786   2.854   0.914   0.509 -1.7177 -1.5783 -0.7866
 7385SOL     OW33787   2.226   3.168   1.722  0.5045 -0.1235 -0.3442
 7385SOL    HW133788   2.180   3.252   1.727  0.5665 -0.1006 -0.1802
 7385SOL    HW233789   2.175   3.126   1.791 -0.1409  0.2576 -0.5908
 7386SOL     OW33790   2.664   0.668   9.428 -1.0060 -0.5342  0.4041
 7386SOL    HW133791   2.750   0.631   9.407  0.3805  3.0984 -0.4954
 7386SOL    HW233792   2.668   0.655   9.522 -1.1788  0.9866  0.6306
 7387SOL     OW33793   4.075   3.533   0.578 -0.2138 -0.2065 -0.2598
 7387SOL    HW133794   4.036   3.606   0.626  0.7887  0.1508  0.0115
 7387SOL    HW233795   4.062   3.557   0.486  0.2575 -1.1013 -0.5681
 7388SOL     OW33796   2.986   2.571   5.432 -0.8244 -0.2316  0.1691
 7388SOL    HW133797   3.031   2.585   5.515 -0.4219 -0.8508  0.0554
 7388SOL    HW233798   2.996   2.653   5.383 -0.8054 -0.2986  0.0625
 7389SOL     OW33799   3.829   3.210   3.377 -0.1384  0.2772 -0.1533
 7389SOL    HW133800   3.916   3.248   3.374 -0.1211  0.2674  0.2346
 7389SOL    HW233801   3.840   3.119   3.405  0.9860  1.0929  1.9871
 7390SOL     OW33802   1.059   1.246   6.723 -0.4879 -0.2280  0.1257
 7390SOL    HW133803   0.983   1.299   6.751 -0.1373  0.0091  0.6301
 7390SOL    HW233804   1.114   1.268   6.798 -1.9897  0.3138  1.0809
 7391SOL     OW33805   3.740   2.814  15.422 -0.0055 -0.7023 -0.4671
 7391SOL    HW133806   3.833   2.815  15.396 -0.0927  0.3494 -0.7181
 7391SOL    HW233807   3.732   2.735  15.475  1.4975  0.7794  1.9514
 7392SOL     OW33808   0.415   3.412  15.116  0.5923 -0.0432 -0.2200
 7392SOL    HW133809   0.388   3.457  15.196  0.8022  1.0408 -0.7560
 7392SOL    HW233810   0.330   3.388  15.078  0.7813  0.1428 -0.7590
 7393SOL     OW33811   0.666   0.085   5.012  0.5555 -0.1052  0.1768
 7393SOL    HW133812   0.631   0.086   4.923 -1.5171  0.2421  0.9898
 7393SOL    HW233813   0.736   0.150   5.002  0.6128 -0.2158 -0.1180
 7394SOL     OW33814   1.392   1.588   2.737 -0.8072  0.1695 -0.0051
 7394SOL    HW133815   1.385   1.494   2.725 -1.3239  0.0187  1.5023
 7394SOL    HW233816   1.474   1.591   2.786  0.5887  0.3666 -2.3272
 7395SOL     OW33817   0.504   4.243   0.569 -0.0382  0.9162 -0.3417
 7395SOL    HW133818   0.574   4.190   0.530 -0.7628  1.0736 -1.8436
 7395SOL    HW233819   0.501   4.334   0.538 -1.0057  1.2300  0.6684
 7396SOL     OW33820   2.625   1.859   2.018 -0.3835 -0.3248 -0.6109
 7396SOL    HW133821   2.535   1.892   2.022  0.0005  1.1057 -3.9001
 7396SOL    HW233822   2.629   1.848   1.923  1.7817 -2.1869 -0.2872
 7397SOL     OW33823   0.354   2.023   8.137 -0.5775 -0.0658 -0.5120
 7397SOL    HW133824   0.299   2.042   8.213 -1.6026 -2.1184 -0.7563
 7397SOL    HW233825   0.368   1.929   8.150  2.3443  0.1247 -2.1219
 7398SOL     OW33826   0.899   3.925  11.632  0.0425  0.1350  0.2740
 7398SOL    HW133827   0.930   3.835  11.648 -0.1743  0.2135  1.1753
 7398SOL    HW233828   0.979   3.976  11.645  0.1705 -0.6140  2.4467
 7399SOL     OW33829   0.213   2.024  15.358  0.1102 -0.9294 -0.2946
 7399SOL    HW133830   0.241   1.933  15.362  1.2190 -0.4691  2.3211
 7399SOL    HW233831   0.160   2.035  15.437 -0.3050  0.7426 -0.8068
 7400SOL     OW33832   1.620   3.774   8.843 -0.2315 -1.0041  0.2335
 7400SOL    HW133833   1.591   3.865   8.846 -0.1448 -0.8792 -2.6142
 7400SOL    HW233834   1.532   3.741   8.824  0.0628 -1.8033  0.2418
 7401SOL     OW33835   4.270   3.029   6.780 -0.2636  0.1899 -0.3046
 7401SOL    HW133836   4.174   3.023   6.774 -0.0862 -1.2209 -1.7787
 7401SOL    HW233837   4.292   2.959   6.718  0.7857 -0.6535  1.0179
 7402SOL     OW33838   3.904   3.609  10.218 -0.1453  0.5914 -0.0600
 7402SOL    HW133839   3.897   3.522  10.256 -3.4194  0.3721 -1.1269
 7402SOL    HW233840   3.988   3.649  10.241  0.0986  0.2884 -0.4372
 7403SOL     OW33841   2.211   2.459   8.799  0.1013  0.1035  0.0289
 7403SOL    HW133842   2.280   2.400   8.828 -0.9163 -2.0907 -2.0563
 7403SOL    HW233843   2.227   2.458   8.704 -1.4410 -2.4071 -0.2026
 7404SOL     OW33844   3.148   1.062   2.099 -0.0382  0.0020  0.2776
 7404SOL    HW133845   3.151   1.046   2.004  2.4526  0.5038  0.2714
 7404SOL    HW233846   3.234   1.028   2.124  0.0613 -0.3490 -0.5265
 7405SOL     OW33847   0.913   3.510  14.145  0.7224 -0.2057 -0.1291
 7405SOL    HW133848   0.966   3.589  14.133  0.0952  0.1517 -0.5352
 7405SOL    HW233849   0.969   3.464  14.208  0.4967 -1.7831 -1.0787
 7406SOL     OW33850   0.249   0.563   6.620 -0.3682  0.2026  0.0768
 7406SOL    HW133851   0.236   0.657   6.607  2.3743  0.6894  0.9093
 7406SOL    HW233852   0.267   0.538   6.529 -1.7039 -2.4540  0.5416
 7407SOL     OW33853   1.645   0.049   3.663 -0.1807 -0.3843  0.5556
 7407SOL    HW133854   1.678   0.008   3.743  2.4391  1.7886  0.5898
 7407SOL    HW233855   1.685   0.135   3.665  0.8524 -0.8831  1.2070
 7408SOL     OW33856   0.170   3.760   2.998  0.3532  0.0004  0.1400
 7408SOL    HW133857   0.222   3.732   3.074  1.9896  3.0113  0.1714
 7408SOL    HW233858   0.201   3.851   2.996 -0.4349  0.2144 -1.8016
 7409SOL     OW33859   1.193   3.572  14.184  0.7316 -0.0399 -0.1892
 7409SOL    HW133860   1.259   3.557  14.115  1.3000 -1.9627  0.7842
 7409SOL    HW233861   1.215   3.495  14.237  0.7428  2.8294  3.9709
 7410SOL     OW33862   4.729   3.293   8.886  0.6388  0.0063  0.2033
 7410SOL    HW133863   0.035   3.379   8.869  0.8188 -0.0541  0.3157
 7410SOL    HW233864   4.655   3.303   8.826  1.2569  1.2520 -0.3399
 7411SOL     OW33865   3.937   3.683   0.834  0.2827 -0.2051 -0.2403
 7411SOL    HW133866   3.858   3.670   0.780  0.8930 -3.2945 -0.3631
 7411SOL    HW233867   3.898   3.694   0.921 -0.8656  0.9963 -0.9052
 7412SOL     OW33868   1.530   1.771   4.278 -0.0767  0.0170  0.4212
 7412SOL    HW133869   1.494   1.685   4.298 -1.6150  0.5425 -0.0445
 7412SOL    HW233870   1.473   1.786   4.202  1.2179  3.5889  0.1620
 7413SOL     OW33871   3.498   1.089   8.134  0.3017  0.0362  0.1207
 7413SOL    HW133872   3.472   1.169   8.179  1.1252 -0.7347  1.9669
 7413SOL    HW233873   3.573   1.069   8.190 -0.9846  2.7143  2.7730
 7414SOL     OW33874   4.430   4.535   3.911 -0.0434 -0.0428 -0.0442
 7414SOL    HW133875   4.403   4.543   3.820 -1.7104 -1.6192  0.3022
 7414SOL    HW233876   4.350   4.540   3.963 -0.0900 -1.3627  0.0323
 7415SOL     OW33877   1.132   1.960   7.858  0.0149 -0.2472 -0.1526
 7415SOL    HW133878   1.183   1.982   7.936 -0.4923  1.4509 -0.3142
 7415SOL    HW233879   1.048   1.945   7.902  0.7997 -2.3360  0.6468
 7416SOL     OW33880   0.494   2.267   4.336 -0.8593  0.1568  0.2408
 7416SOL    HW133881   0.421   2.328   4.323 -0.4921  0.0131 -2.5005
 7416SOL    HW233882   0.541   2.280   4.254 -0.2919  0.1166  0.5596
 7417SOL     OW33883   0.119   3.421   5.600  0.1058 -0.4772 -0.1082
 7417SOL    HW133884   0.187   3.426   5.532 -0.5065  2.6749 -0.4802
 7417SOL    HW233885   0.076   3.507   5.602  1.5270  0.2582 -0.7797
 7418SOL     OW33886   1.990   4.533   3.879 -0.2488 -0.1704 -0.0165
 7418SOL    HW133887   2.056   4.473   3.913 -0.3087 -0.1787  0.0853
 7418SOL    HW233888   2.032   4.616   3.900 -0.5925 -0.2544  0.9961
 7419SOL     OW33889   4.670   2.967  10.023  0.4726 -1.1665 -0.0978
 7419SOL    HW133890   4.669   2.980  10.117  0.8469 -1.3369 -0.0702
 7419SOL    HW233891   0.008   3.026  10.000  0.7760 -0.9230  1.4862
 7420SOL     OW33892   1.148   1.091   1.083  0.2423  0.1534 -0.4618
 7420SOL    HW133893   1.172   1.082   0.991  1.5793 -1.1270  0.0036
 7420SOL    HW233894   1.122   1.000   1.097 -0.2116  0.5223  1.1297
 7421SOL     OW33895   2.396   2.727   4.061 -0.0026  0.4625 -0.0408
 7421SOL    HW133896   2.416   2.777   4.140  2.7449 -0.1462 -0.3717
 7421SOL    HW233897   2.347   2.796   4.015  0.1073  0.4060 -0.2428
 7422SOL     OW33898   2.039   0.110  11.076 -0.1182 -0.3749 -0.7135
 7422SOL    HW133899   2.117   0.063  11.104 -0.5413 -0.2177  0.7909
 7422SOL    HW233900   1.984   0.032  11.085 -0.3515  0.0791  1.9578
 7423SOL     OW33901   1.049   0.309   6.290  0.0755 -0.6293 -0.0198
 7423SOL    HW133902   1.096   0.347   6.364 -1.6892 -0.6800  1.1455
 7423SOL    HW233903   0.987   0.376   6.261  1.1461 -0.9680 -3.0638
 7424SOL     OW33904   4.725   3.473   0.945  0.4205  0.1437  0.3608
 7424SOL    HW133905   4.722   3.418   1.023  0.0792  0.0113  0.2570
 7424SOL    HW233906   4.647   3.437   0.903  0.8867 -0.3664 -0.0731
 7425SOL     OW33907   1.325   2.549   4.876  0.6572 -0.1084  0.5930
 7425SOL    HW133908   1.349   2.456   4.878  0.3357 -0.1940  0.4677
 7425SOL    HW233909   1.348   2.583   4.962  0.7138 -0.6803  0.8055
 7426SOL     OW33910   0.279   2.841   2.055 -0.2040  0.7567  0.4640
 7426SOL    HW133911   0.339   2.915   2.053  0.1661  0.4830  1.5284
 7426SOL    HW233912   0.280   2.808   2.145 -2.6981 -0.6491 -0.0152
 7427SOL     OW33913   3.602   1.087   5.221  0.4095 -0.6037 -0.0676
 7427SOL    HW133914   3.516   1.117   5.191  0.2223  1.0590  2.2030
 7427SOL    HW233915   3.661   1.117   5.152  0.7732 -2.6411 -0.6680
 7428SOL     OW33916   2.404   3.520   2.714  0.1763 -0.0386  0.5928
 7428SOL    HW133917   2.335   3.525   2.780 -0.0733 -2.4342  0.5190
 7428SOL    HW233918   2.455   3.449   2.754 -0.2450  0.8915  2.7887
 7429SOL     OW33919   3.726   3.644  17.679 -0.0175  0.1739 -0.3470
 7429SOL    HW133920   3.768   3.569  17.637  1.0799 -0.1223  1.2982
 7429SOL    HW233921   3.752   3.622   0.034 -1.7111  1.1641  0.3964
 7430SOL     OW33922   2.472   0.155   6.510 -0.4482  0.5736 -0.2864
 7430SOL    HW133923   2.566   0.142   6.526 -0.2123 -0.4950 -2.4581
 7430SOL    HW233924   2.455   0.130   6.419  0.0531  0.1830 -0.2733
 7431SOL     OW33925   1.776   3.671   1.599 -0.1065  0.3359 -0.2972
 7431SOL    HW133926   1.754   3.586   1.637 -0.8417  0.1752 -1.0802
 7431SOL    HW233927   1.870   3.679   1.617  0.3372  0.3216 -2.6127
 7432SOL     OW33928   1.706   4.567   4.159 -0.2245 -1.0478 -0.2835
 7432SOL    HW133929   1.738   4.625   4.228 -0.9938  2.3201 -2.7139
 7432SOL    HW233930   1.770   4.497   4.153 -1.2394 -2.1411  1.7356
 7433SOL     OW33931   1.718   4.247   7.702  0.8654  0.4874  0.5544
 7433SOL    HW133932   1.709   4.298   7.783  0.9384  1.7756 -0.2432
 7433SOL    HW233933   1.625   4.240   7.680  1.5601 -0.9320 -1.9535
 7434SOL     OW33934   0.940   4.400   7.364  0.1337  0.4114 -0.5115
 7434SOL    HW133935   1.017   4.448   7.331  0.0555  0.5793 -0.4485
 7434SOL    HW233936   0.987   4.322   7.392 -1.9090 -1.1269 -1.3983
 7435SOL     OW33937   2.176   4.283  17.045 -0.1507 -0.1663 -0.1229
 7435SOL    HW133938   2.147   4.255  16.959 -0.7890  0.6159 -0.1540
 7435SOL    HW233939   2.198   4.375  17.035 -0.6837  0.0747  0.9200
 7436SOL     OW33940   2.008   2.879   8.865  0.4727 -0.2334 -0.2420
 7436SOL    HW133941   2.026   2.925   8.946 -0.9999 -0.7259  0.3752
 7436SOL    HW233942   2.013   2.943   8.794 -2.4016 -1.3562 -1.4647
 7437SOL     OW33943   3.796   3.775   8.423  0.2959 -0.0387 -0.6371
 7437SOL    HW133944   3.823   3.685   8.438 -1.7141 -0.1003  2.7073
 7437SOL    HW233945   3.816   3.788   8.330 -1.2721 -0.0178 -0.9730
 7438SOL     OW33946   0.711   4.173   5.064 -0.7116 -0.2229  0.5808
 7438SOL    HW133947   0.731   4.161   5.157  0.3285  0.3375  0.4349
 7438SOL    HW233948   0.703   4.267   5.045 -1.3860 -0.3034  0.4806
 7439SOL     OW33949   0.376   3.858  11.942 -0.3621 -0.4298  0.1407
 7439SOL    HW133950   0.429   3.834  11.866  2.0872  1.6529  1.1698
 7439SOL    HW233951   0.388   3.779  11.995  3.2787  1.0537  1.5558
 7440SOL     OW33952   2.151   1.710   3.049 -0.2984  0.2711  0.1332
 7440SOL    HW133953   2.217   1.743   2.988  0.0592 -0.5631  0.0767
 7440SOL    HW233954   2.089   1.690   2.979  1.6022  2.2110 -2.0985
 7441SOL     OW33955   3.182   1.764  13.879  0.2849 -0.5608 -0.3502
 7441SOL    HW133956   3.260   1.753  13.825  0.5374  1.6384 -0.4508
 7441SOL    HW233957   3.132   1.687  13.854  2.3488 -1.3464 -2.0431
 7442SOL     OW33958   1.718   0.999  11.879 -0.2273  0.0003 -0.6618
 7442SOL    HW133959   1.799   1.050  11.868  0.1030 -0.6461 -1.2438
 7442SOL    HW233960   1.655   1.062  11.845 -0.9618  0.3211  1.2761
 7443SOL     OW33961   1.083   4.188  15.040  0.1986 -0.3291 -0.7068
 7443SOL    HW133962   0.999   4.163  15.001  0.6583 -1.1075 -1.2173
 7443SOL    HW233963   1.106   4.138  15.118 -0.4920 -1.3629 -1.1563
 7444SOL     OW33964   0.933   3.006   5.118  0.3220  0.2725 -0.0638
 7444SOL    HW133965   0.945   2.996   5.212 -0.7794 -3.2089 -0.2691
 7444SOL    HW233966   0.921   3.098   5.095 -3.3067  0.1072  1.1361
 7445SOL     OW33967   1.967   0.629   7.690 -0.3658 -0.3383 -0.2421
 7445SOL    HW133968   1.964   0.553   7.748  0.6498  1.1858  1.8276
 7445SOL    HW233969   2.046   0.676   7.717  0.1739  1.2272 -4.6093
 7446SOL     OW33970   4.297   3.626  15.728 -0.2102 -0.3223 -0.1106
 7446SOL    HW133971   4.392   3.609  15.730 -0.2408 -0.6304 -1.3303
 7446SOL    HW233972   4.269   3.652  15.640  1.6119  0.5513 -0.4362
 7447SOL     OW33973   3.101   4.706   5.274 -0.5713  0.6798 -1.1467
 7447SOL    HW133974   3.184   4.673   5.308  0.1026  2.0308 -1.4890
 7447SOL    HW233975   3.046   4.660   5.337  1.0767 -1.1269 -1.0274
 7448SOL     OW33976   2.808   1.285   8.207  0.1036 -0.2210  0.4609
 7448SOL    HW133977   2.837   1.236   8.130  0.2389  0.3765  0.1262
 7448SOL    HW233978   2.866   1.361   8.202  2.3422 -1.9560  0.4162
 7449SOL     OW33979   3.510   3.243   6.492 -0.1639  0.0696  0.6074
 7449SOL    HW133980   3.419   3.236   6.520 -0.7560  3.2974 -0.5375
 7449SOL    HW233981   3.542   3.174   6.550  0.0171  1.3945  2.0649
 7450SOL     OW33982   4.020   2.466   3.831 -0.3548 -0.1929 -0.3114
 7450SOL    HW133983   4.092   2.508   3.784  0.1820 -2.2616 -1.3254
 7450SOL    HW233984   4.065   2.458   3.915 -2.3488  2.0705  0.9757
 7451SOL     OW33985   2.293   0.315   5.603 -0.1923  0.0795  0.2310
 7451SOL    HW133986   2.388   0.307   5.592 -0.3098 -0.6564 -0.2207
 7451SOL    HW233987   2.284   0.277   5.690 -1.6706  2.8318  1.2690
 7452SOL     OW33988   0.176   2.513   5.013  0.2646 -0.0586 -0.4451
 7452SOL    HW133989   0.162   2.418   5.012 -1.2747  0.1850 -1.0439
 7452SOL    HW233990   0.098   2.542   5.060  0.2637  0.0444 -0.5098
 7453SOL     OW33991   0.512   2.633   7.834 -0.7902 -0.6235  0.4189
 7453SOL    HW133992   0.519   2.699   7.765 -0.7070 -2.5172 -1.4193
 7453SOL    HW233993   0.439   2.669   7.884 -0.1842 -0.1573  0.9654
 7454SOL     OW33994   1.601   2.550  17.129 -0.3642  0.4940 -0.2537
 7454SOL    HW133995   1.601   2.523  17.221  1.7096 -1.0433 -0.7102
 7454SOL    HW233996   1.508   2.553  17.105  0.0914  1.7107 -1.8379
 7455SOL     OW33997   1.782   1.822  14.249  0.2465 -0.1163  0.5562
 7455SOL    HW133998   1.855   1.784  14.199 -1.1643 -0.0537 -1.5835
 7455SOL    HW233999   1.721   1.845  14.178  0.3462 -1.9935 -0.1436
 7456SOL     OW34000   4.479   4.107   0.193 -0.1346 -0.8769 -0.0701
 7456SOL    HW134001   4.563   4.062   0.193 -0.8450 -2.2070  0.1941
 7456SOL    HW234002   4.465   4.129   0.100 -0.9385  1.9631  0.7172
 7457SOL     OW34003   1.984   1.175   7.738 -0.1770 -0.3625 -0.1726
 7457SOL    HW134004   2.035   1.243   7.694  0.6024 -1.9748 -1.7250
 7457SOL    HW234005   1.930   1.232   7.793  0.6652  1.9955 -1.7976
 7458SOL     OW34006   2.405   0.089   1.756  0.1210  0.0400  0.3975
 7458SOL    HW134007   2.403   0.006   1.709 -0.1220  1.0619 -1.3673
 7458SOL    HW234008   2.463   0.138   1.699 -0.5359  2.0161  1.4467
 7459SOL     OW34009   1.748   0.642   5.559 -0.1460 -0.0546 -0.2795
 7459SOL    HW134010   1.777   0.566   5.610 -2.8525 -0.4729  0.6459
 7459SOL    HW234011   1.799   0.715   5.594  0.6455 -0.4801 -0.5382
 7460SOL     OW34012   3.342   3.559  11.075  0.3261  0.3780  0.3060
 7460SOL    HW134013   3.360   3.551  10.981  0.9425 -3.6485  0.7563
 7460SOL    HW234014   3.265   3.615  11.077  0.3240  0.3667  0.6232
 7461SOL     OW34015   3.914   0.944   1.351  0.2708  0.5207 -0.1359
 7461SOL    HW134016   3.849   0.916   1.286  0.6042 -1.4699  0.3907
 7461SOL    HW234017   3.952   0.856   1.353 -2.8649 -0.7754  1.4541
 7462SOL     OW34018   0.537   4.677   6.074  0.2519 -0.1027 -0.3591
 7462SOL    HW134019   0.497   0.030   6.066  0.5237  0.0491 -0.0724
 7462SOL    HW234020   0.625   4.698   6.106  0.3050 -2.1897  0.8525
 7463SOL     OW34021   3.108   1.916   4.428  0.1980 -0.2649  0.3574
 7463SOL    HW134022   3.130   2.005   4.454 -0.8380  0.1675 -0.2749
 7463SOL    HW234023   3.106   1.873   4.514 -1.1912 -0.1042  0.4081
 7464SOL     OW34024   0.331   3.383   2.353  0.0649  0.0305  0.4981
 7464SOL    HW134025   0.346   3.440   2.277  3.0714 -0.1939  0.9526
 7464SOL    HW234026   0.259   3.333   2.313  1.9770 -1.6008 -0.9532
 7465SOL     OW34027   0.503   1.215   7.268  0.4098 -0.8718 -0.0197
 7465SOL    HW134028   0.423   1.175   7.233 -1.3941 -0.7336  3.9713
 7465SOL    HW234029   0.530   1.268   7.193  1.9424  1.6843  2.3368
 7466SOL     OW34030   3.744   2.333   0.957  0.7933  0.1210 -0.8672
 7466SOL    HW134031   3.777   2.278   1.027 -0.4156  0.4770 -0.0263
 7466SOL    HW234032   3.818   2.390   0.935  0.4548  0.4628 -1.1271
 7467SOL     OW34033   1.701   1.759   1.828 -0.1530  0.4353  0.3830
 7467SOL    HW134034   1.670   1.822   1.894 -1.0177 -2.4692  2.7823
 7467SOL    HW234035   1.618   1.734   1.787  0.2724  0.0996 -0.2629
 7468SOL     OW34036   3.805   4.446   7.570  0.3302  0.1351 -0.4342
 7468SOL    HW134037   3.759   4.374   7.613  0.9443  0.0304  0.0453
 7468SOL    HW234038   3.884   4.406   7.533  0.7604 -0.3005  0.9757
 7469SOL     OW34039   2.373   2.636   1.121  0.0383 -0.3578 -0.8058
 7469SOL    HW134040   2.345   2.711   1.173  0.6619 -0.2379 -0.6425
 7469SOL    HW234041   2.457   2.608   1.158 -0.1334  0.1599 -0.0318
 7470SOL     OW34042   2.768   4.618   7.047  0.1271 -0.2334  0.3842
 7470SOL    HW134043   2.722   4.603   7.130  0.0176 -1.3603  0.1186
 7470SOL    HW234044   2.766   4.714   7.043  0.2208 -0.3719 -2.9687
 7471SOL     OW34045   3.645   3.362   0.726  0.0781 -0.0752  0.3454
 7471SOL    HW134046   3.614   3.450   0.748  1.0276  0.4333 -0.3689
 7471SOL    HW234047   3.659   3.322   0.812  2.1449 -4.1977 -1.9149
 7472SOL     OW34048   2.451   3.961  11.712  0.1698 -0.4873  0.1907
 7472SOL    HW134049   2.546   3.972  11.712  0.3979 -2.5658  2.3091
 7472SOL    HW234050   2.426   4.028  11.775  1.8582 -0.6706  1.0734
 7473SOL     OW34051   0.865   2.259   6.176  0.2956 -0.3519  0.0261
 7473SOL    HW134052   0.887   2.283   6.086  0.8040 -0.4077  0.1353
 7473SOL    HW234053   0.778   2.296   6.190 -0.0297 -0.5732 -1.4155
 7474SOL     OW34054   4.132   3.569   2.643 -0.1974 -1.3132 -0.4322
 7474SOL    HW134055   4.204   3.506   2.646  0.7911 -0.1735  0.1994
 7474SOL    HW234056   4.138   3.616   2.727 -0.8819 -1.1889 -0.4549
 7475SOL     OW34057   2.027   3.658   9.204  0.3247  0.6593  0.3628
 7475SOL    HW134058   1.991   3.575   9.235  1.0819  0.0077 -0.5390
 7475SOL    HW234059   1.945   3.695   9.170  0.6791  1.2301  0.1264
 7476SOL     OW34060   2.163   3.426   7.174  0.5625 -0.3465 -0.0618
 7476SOL    HW134061   2.206   3.385   7.250 -1.2089  0.0746  1.1830
 7476SOL    HW234062   2.136   3.513   7.203  1.2194  0.2337 -1.2173
 7477SOL     OW34063   1.130   3.297   6.262  0.3269 -0.3754  0.1139
 7477SOL    HW134064   1.039   3.324   6.269  0.1613 -0.8214 -0.3106
 7477SOL    HW234065   1.170   3.379   6.235  0.9097 -1.4789 -2.4410
 7478SOL     OW34066   4.389   3.332  11.199 -0.6764 -0.0194  0.3750
 7478SOL    HW134067   4.384   3.341  11.104 -0.9526  1.7736  0.5541
 7478SOL    HW234068   4.352   3.245  11.210 -2.4211  0.5418 -1.0993
 7479SOL     OW34069   3.346   1.073  14.183  0.1781  0.6888  0.1379
 7479SOL    HW134070   3.280   1.016  14.222  0.1091  0.7869  0.1647
 7479SOL    HW234071   3.380   1.105  14.267  2.0836 -0.0945 -0.3194
 7480SOL     OW34072   0.445   4.283   1.050  0.2027  0.0268  0.1042
 7480SOL    HW134073   0.459   4.199   1.007  1.4268  0.1089  0.3602
 7480SOL    HW234074   0.352   4.289   1.073 -0.0931 -0.7073 -0.8793
 7481SOL     OW34075   0.624   2.171   1.977 -0.0888  0.1768 -0.3795
 7481SOL    HW134076   0.575   2.092   1.999  1.7355 -1.0912 -0.9446
 7481SOL    HW234077   0.685   2.178   2.050  1.6590  0.3487 -1.8852
 7482SOL     OW34078   3.469   3.441   5.470  0.1392 -0.6500 -0.1429
 7482SOL    HW134079   3.540   3.463   5.531 -1.7939  0.3619  1.7375
 7482SOL    HW234080   3.415   3.381   5.520  1.2282 -0.8201  0.8389
 7483SOL     OW34081   4.354   4.258   5.395 -0.1428 -0.1189 -0.0512
 7483SOL    HW134082   4.335   4.211   5.314 -1.0961  1.6375 -0.8300
 7483SOL    HW234083   4.268   4.280   5.430 -0.5464 -0.2407 -0.9791
 7484SOL     OW34084   0.448   2.661   8.228  0.3686  0.2204 -0.6046
 7484SOL    HW134085   0.530   2.676   8.276  0.9817 -1.7989 -1.0423
 7484SOL    HW234086   0.426   2.569   8.243 -1.2382  0.5533 -0.9210
 7485SOL     OW34087   3.152   3.724   2.842 -0.4865 -0.1806  0.1045
 7485SOL    HW134088   3.092   3.782   2.889  2.3775  2.9985 -0.1707
 7485SOL    HW234089   3.090   3.672   2.792  2.1151 -2.5649 -0.6856
 7486SOL     OW34090   2.335   1.546  10.387  0.1823  0.0072  0.0726
 7486SOL    HW134091   2.307   1.478  10.325  0.2988 -1.5350  1.7265
 7486SOL    HW234092   2.250   1.584  10.410 -0.9090 -1.2692 -1.7376
 7487SOL     OW34093   2.943   3.604   2.727  0.7282  0.3295  0.1566
 7487SOL    HW134094   2.883   3.629   2.656  0.3138 -0.9496  0.0514
 7487SOL    HW234095   2.937   3.508   2.728  1.8047  0.2666  0.6187
 7488SOL     OW34096   1.771   4.704   6.845 -0.2345  0.2188  0.1156
 7488SOL    HW134097   1.773   0.053   6.893 -0.4720  0.0725  0.3852
 7488SOL    HW234098   1.855   4.662   6.865 -0.1506  0.6181  0.5911
 7489SOL     OW34099   3.162   0.835   1.153 -0.4348 -0.0944  0.0420
 7489SOL    HW134100   3.093   0.869   1.095 -0.5059  0.5289  0.4885
 7489SOL    HW234101   3.221   0.785   1.097  0.0814  2.7686 -1.9536
 7490SOL     OW34102   4.343   2.414   9.362 -0.3643  0.2995 -0.3062
 7490SOL    HW134103   4.257   2.386   9.392 -1.3157  1.5014 -1.9208
 7490SOL    HW234104   4.318   2.452   9.278  0.4702  0.5924 -0.4234
 7491SOL     OW34105   2.978   2.541   5.784 -0.1554  0.1725 -0.6677
 7491SOL    HW134106   3.056   2.587   5.817  0.0080 -0.4651 -0.1515
 7491SOL    HW234107   3.010   2.451   5.775 -0.4184  0.0255 -0.1480
 7492SOL     OW34108   0.788   3.167  16.611 -0.0097 -0.2325 -0.0013
 7492SOL    HW134109   0.857   3.190  16.549 -1.4566  0.2917 -1.4048
 7492SOL    HW234110   0.825   3.105  16.675 -1.0800 -0.6687  0.1856
 7493SOL     OW34111   3.701   1.888   1.338  0.3662 -0.2540  0.4203
 7493SOL    HW134112   3.771   1.909   1.276  1.0258  2.0231  1.9397
 7493SOL    HW234113   3.746   1.846   1.412 -0.2924  1.6807  1.9314
 7494SOL     OW34114   0.713   3.654   3.267 -0.2562  0.4486 -0.7198
 7494SOL    HW134115   0.666   3.624   3.345  0.1895  2.1244  0.2012
 7494SOL    HW234116   0.803   3.646   3.298  0.5905 -0.5091 -3.4333
 7495SOL     OW34117   3.114   3.180   1.259 -0.1866 -0.3254 -0.4966
 7495SOL    HW134118   3.035   3.198   1.209 -0.6946 -0.4785  0.2527
 7495SOL    HW234119   3.158   3.180   1.174 -0.5592  0.4429 -0.6925
 7496SOL     OW34120   1.572   4.336   5.757 -0.0117  0.5405 -0.0272
 7496SOL    HW134121   1.590   4.416   5.806 -0.9752 -0.4930  2.0146
 7496SOL    HW234122   1.652   4.317   5.708 -0.3039 -0.5227 -0.0949
 7497SOL     OW34123   3.019   0.101   7.662 -0.3118  0.0309  0.3004
 7497SOL    HW134124   3.003   0.023   7.610  1.4745  0.1910 -0.4950
 7497SOL    HW234125   2.930   0.129   7.681 -0.2720  2.1952 -2.7386
 7498SOL     OW34126   2.520   0.323   9.097 -0.2084  0.5184 -0.4590
 7498SOL    HW134127   2.533   0.387   9.166  0.5431 -0.0550 -0.0637
 7498SOL    HW234128   2.490   0.251   9.152 -1.2672  0.2233 -1.4204
 7499SOL     OW34129   4.379   4.670  15.002  0.1241 -0.2513 -0.3894
 7499SOL    HW134130   4.459   4.633  15.040  0.5394  1.8411  0.8136
 7499SOL    HW234131   4.344   4.723  15.075 -0.7057  1.3634 -1.9573
 7500SOL     OW34132   1.197   2.326   4.436  0.2396  0.3651  0.6566
 7500SOL    HW134133   1.156   2.374   4.365 -1.3316 -0.9142  0.6982
 7500SOL    HW234134   1.286   2.358   4.423 -0.9867  1.7371 -4.5638
 7501SOL     OW34135   0.251   1.071   6.723  0.1281 -0.4513 -0.3796
 7501SOL    HW134136   0.345   1.064   6.739  0.1428  1.2917  0.3706
 7501SOL    HW234137   0.239   0.981   6.692  1.8923 -0.1457 -1.9524
 7502SOL     OW34138   3.601   0.378   7.868  0.5790  0.4640  0.3903
 7502SOL    HW134139   3.551   0.313   7.818 -0.3178  1.2354  0.2785
 7502SOL    HW234140   3.691   0.345   7.862  0.2240 -0.4400  0.0234
 7503SOL     OW34141   3.342   0.892   1.399 -0.6928  0.5722 -0.2860
 7503SOL    HW134142   3.410   0.938   1.349  0.6695  0.2275  1.2532
 7503SOL    HW234143   3.296   0.837   1.335 -0.7961  0.0199  0.2650
 7504SOL     OW34144   3.737   1.239   5.437 -0.1995 -0.2091  0.1566
 7504SOL    HW134145   3.790   1.162   5.456 -0.6702 -0.3238  1.0221
 7504SOL    HW234146   3.659   1.200   5.396  0.6895 -1.1740 -0.6112
 7505SOL     OW34147   1.281   0.245   1.335 -0.1327 -0.6019 -0.1407
 7505SOL    HW134148   1.312   0.155   1.337  0.0319 -0.5559 -0.5105
 7505SOL    HW234149   1.364   0.276   1.371 -1.7609  0.8908  2.3030
 7506SOL     OW34150   1.520   3.918   4.334  0.0499  0.2407 -0.3214
 7506SOL    HW134151   1.534   3.923   4.428 -0.8469 -1.6469 -0.0873
 7506SOL    HW234152   1.425   3.914   4.324 -0.1508 -1.3372  2.3472
 7507SOL     OW34153   0.027   4.309   5.376  0.0320  0.1968 -0.1269
 7507SOL    HW134154   0.061   4.334   5.462  1.3877  1.9157 -1.1629
 7507SOL    HW234155   0.113   4.285   5.340  0.0779  1.9502 -1.1831
 7508SOL     OW34156   3.872   0.684   1.698 -0.2658 -0.2499  0.1367
 7508SOL    HW134157   3.950   0.657   1.650 -0.4438 -2.9162  1.3441
 7508SOL    HW234158   3.898   0.771   1.728 -2.0199  0.8165 -1.3924
 7509SOL     OW34159   2.221   2.227   5.478  0.6836  0.1531  0.6328
 7509SOL    HW134160   2.267   2.237   5.395  1.1820 -0.1786  0.8692
 7509SOL    HW234161   2.251   2.303   5.529 -2.4255  3.1832 -2.0548
 7510SOL     OW34162   2.334   1.834   2.886 -0.2493  0.2524  0.2366
 7510SOL    HW134163   2.398   1.859   2.819  0.4068 -0.3814  0.6257
 7510SOL    HW234164   2.270   1.901   2.861  1.0173  1.0825 -0.7928
 7511SOL     OW34165   3.480   0.572   5.001  0.0509  0.8139  0.0703
 7511SOL    HW134166   3.433   0.583   5.084 -1.2445  0.1664 -0.5771
 7511SOL    HW234167   3.512   0.483   5.015 -1.6602 -0.2920 -2.9012
 7512SOL     OW34168   4.731   0.510   6.736  0.0405 -0.2147  0.4548
 7512SOL    HW134169   4.726   0.601   6.708 -1.2707 -0.1595  0.9140
 7512SOL    HW234170   0.090   0.496   6.718  0.1634 -1.3862  2.0091
 7513SOL     OW34171   1.752   3.576   0.536  0.4599  0.4198  0.3508
 7513SOL    HW134172   1.665   3.549   0.562  0.9170 -1.3487  0.0211
 7513SOL    HW234173   1.799   3.569   0.619 -0.0021 -0.7069  0.5166
 7514SOL     OW34174   3.562   1.997  16.624  0.1611 -0.0932 -0.0043
 7514SOL    HW134175   3.484   2.047  16.598 -1.6842 -2.8285  0.2536
 7514SOL    HW234176   3.610   2.060  16.678 -0.5545  1.1254 -0.7666
 7515SOL     OW34177   2.832   2.106   5.920  0.0921  0.3556 -0.0885
 7515SOL    HW134178   2.771   2.050   5.967  1.3759 -1.2857 -0.3548
 7515SOL    HW234179   2.805   2.194   5.945 -1.0229 -0.1577  0.5424
 7516SOL     OW34180   0.334   1.991   0.671 -0.0973 -0.2790  0.0063
 7516SOL    HW134181   0.315   1.924   0.737 -0.0551 -2.3567 -2.0771
 7516SOL    HW234182   0.246   2.027   0.656  1.1068  2.0462 -1.4339
 7517SOL     OW34183   4.218   2.585   3.716  0.0257  0.3370 -0.3658
 7517SOL    HW134184   4.260   2.539   3.643  0.1811  0.3828 -0.3044
 7517SOL    HW234185   4.290   2.597   3.777 -1.5680 -1.6045  1.9055
 7518SOL     OW34186   1.404   0.846   9.289 -0.2701 -0.1675 -0.4933
 7518SOL    HW134187   1.320   0.891   9.300 -0.9819 -1.8918  1.1461
 7518SOL    HW234188   1.462   0.922   9.293 -0.4489  0.0126 -1.3404
 7519SOL     OW34189   4.391   0.948   2.728  0.0313 -0.4453  0.6820
 7519SOL    HW134190   4.484   0.939   2.744 -0.0686 -0.9624  0.9529
 7519SOL    HW234191   4.352   0.974   2.811  1.0571 -2.6828  1.8643
 7520SOL     OW34192   0.439   4.258   4.454  0.0109 -0.1727  0.2498
 7520SOL    HW134193   0.377   4.313   4.406  1.3468 -0.3991 -1.7498
 7520SOL    HW234194   0.434   4.309   4.535 -0.2415  2.0171 -1.1609
 7521SOL     OW34195   1.492   3.610   5.634 -0.5345 -0.1128 -0.2391
 7521SOL    HW134196   1.583   3.581   5.636 -0.6507 -0.4141  0.8593
 7521SOL    HW234197   1.493   3.679   5.701  0.0357  0.0969 -0.4590
 7522SOL     OW34198   0.632   0.234   1.544 -0.0622  0.2068  0.2258
 7522SOL    HW134199   0.587   0.151   1.559 -0.3063  0.1663 -0.7185
 7522SOL    HW234200   0.716   0.233   1.591  0.1046 -2.0508 -0.1036
 7523SOL     OW34201   4.170   2.331   6.341  0.2310 -0.2784 -0.7418
 7523SOL    HW134202   4.105   2.261   6.346  1.0129 -1.1330 -2.3297
 7523SOL    HW234203   4.238   2.283   6.388 -0.2310 -1.4657 -1.2838
 7524SOL     OW34204   3.440   4.285   1.678 -0.6184  0.3163 -0.4407
 7524SOL    HW134205   3.468   4.369   1.713 -0.6643  0.1688 -0.0388
 7524SOL    HW234206   3.391   4.257   1.756 -0.1120 -0.4966 -0.4082
 7525SOL     OW34207   2.869   3.350  10.508  0.0386 -0.1939  0.4601
 7525SOL    HW134208   2.881   3.439  10.474 -0.7744 -1.9666 -4.4810
 7525SOL    HW234209   2.797   3.360  10.571 -2.0462 -0.0640 -1.9405
 7526SOL     OW34210   2.663   0.263   4.717 -0.0000 -0.3007  0.1634
 7526SOL    HW134211   2.602   0.233   4.649  2.0829 -0.5762 -1.6066
 7526SOL    HW234212   2.744   0.219   4.693  0.1247 -0.5631  1.1004
 7527SOL     OW34213   3.792   3.625   2.993  0.0938  0.0658 -0.1962
 7527SOL    HW134214   3.781   3.711   2.952 -0.0941 -0.6220 -1.5877
 7527SOL    HW234215   3.775   3.569   2.917 -1.4723  1.8495 -1.1857
 7528SOL     OW34216   3.879   0.598   3.054  0.1946 -0.2589  0.2060
 7528SOL    HW134217   3.815   0.528   3.063 -1.9496  1.7915  0.8326
 7528SOL    HW234218   3.840   0.667   3.107 -1.9658 -0.0585 -1.6582
 7529SOL     OW34219   1.476   0.108  14.147 -0.0358 -0.2078 -0.5663
 7529SOL    HW134220   1.389   0.090  14.111  0.5367 -0.9383 -1.6075
 7529SOL    HW234221   1.498   0.024  14.187  1.2511  0.4325  0.0479
 7530SOL     OW34222   2.072   4.600   9.937 -0.1937 -0.5713  0.0306
 7530SOL    HW134223   2.019   4.615  10.015  1.1433  0.0491  0.8251
 7530SOL    HW234224   2.073   4.686   9.895 -0.7740 -0.6268 -0.0850
 7531SOL     OW34225   4.711   2.853   3.165 -0.4360 -0.2308 -0.5258
 7531SOL    HW134226   4.631   2.823   3.207 -0.1696  0.9724  0.8672
 7531SOL    HW234227   0.018   2.770   3.143  0.0112  0.2272 -1.4242
 7532SOL     OW34228   1.903   1.068   1.897  0.7422  0.1538  0.2000
 7532SOL    HW134229   1.917   1.083   1.803 -1.1085 -1.9054 -0.4209
 7532SOL    HW234230   1.993   1.091   1.918  1.0133 -0.6426 -0.0862
 7533SOL     OW34231   2.199   3.108   0.957  0.4607 -0.1221  0.0142
 7533SOL    HW134232   2.171   3.027   0.913 -0.7305 -0.2251  0.9603
 7533SOL    HW234233   2.240   3.080   1.038 -0.1928 -2.4126 -0.4513
 7534SOL     OW34234   3.844   3.498   8.403 -0.2615  0.3541  0.6145
 7534SOL    HW134235   3.890   3.425   8.443  2.7045  0.7991 -1.9715
 7534SOL    HW234236   3.757   3.462   8.388  0.1002  0.2138 -1.2263
 7535SOL     OW34237   0.158   3.177   0.400 -0.4419 -0.7599  0.2980
 7535SOL    HW134238   0.149   3.228   0.319  2.1105  1.0892  1.1877
 7535SOL    HW234239   0.230   3.119   0.375 -1.3514 -1.0262 -1.6739
 7536SOL     OW34240   1.311   3.070  10.442  0.4025 -0.2356 -0.2831
 7536SOL    HW134241   1.235   3.030  10.484  2.4300 -2.0277  1.6411
 7536SOL    HW234242   1.285   3.089  10.352 -0.2956 -1.7766 -0.3956
 7537SOL     OW34243   0.753   0.925   2.040  0.5469  0.0478 -0.6304
 7537SOL    HW134244   0.848   0.933   2.040  0.6444 -0.9149  3.6313
 7537SOL    HW234245   0.733   1.015   2.065 -0.5252 -0.6483  1.0046
 7538SOL     OW34246   2.538   3.575  10.908 -0.1311  0.2096  0.2177
 7538SOL    HW134247   2.444   3.567  10.893  0.1911 -0.2875 -1.5218
 7538SOL    HW234248   2.552   3.665  10.880 -0.4486 -0.5151 -2.2452
 7539SOL     OW34249   2.821   2.245   6.219  0.8205  0.0784 -0.8538
 7539SOL    HW134250   2.784   2.293   6.145  0.0338  1.5954  0.5286
 7539SOL    HW234251   2.841   2.317   6.278 -1.5799 -1.8363  2.2980
 7540SOL     OW34252   4.227   1.622   2.059  0.1330  0.1928 -0.1092
 7540SOL    HW134253   4.160   1.680   2.096 -1.1437 -1.4044  0.0617
 7540SOL    HW234254   4.181   1.541   2.041  2.4949 -1.1225 -0.2523
 7541SOL     OW34255   1.040   3.482   5.517 -0.4417 -0.1494  0.5907
 7541SOL    HW134256   1.079   3.534   5.586 -0.1523  2.3038 -1.4343
 7541SOL    HW234257   0.992   3.420   5.572  2.2957 -1.2378  1.7437
 7542SOL     OW34258   4.434   0.178   5.755  0.4786 -0.3547 -0.2160
 7542SOL    HW134259   4.523   0.197   5.784  0.0493  1.3572 -0.0055
 7542SOL    HW234260   4.436   0.085   5.776 -3.3047 -0.2017  0.8205
 7543SOL     OW34261   3.328   0.126   0.149  0.0207 -0.4085 -0.0313
 7543SOL    HW134262   3.298   0.101   0.061  1.0471 -0.3900 -0.3902
 7543SOL    HW234263   3.312   0.043   0.194  2.8716  0.3447  2.3781
 7544SOL     OW34264   3.166   2.514   2.787 -0.2453  0.9507 -0.3400
 7544SOL    HW134265   3.238   2.520   2.724  1.6040  0.7247  1.7144
 7544SOL    HW234266   3.091   2.557   2.748  0.4111  1.7430 -0.7130
 7545SOL     OW34267   0.168   3.595   3.813  0.8469 -0.0852 -0.6401
 7545SOL    HW134268   0.101   3.564   3.874  0.9943  0.7816 -0.0326
 7545SOL    HW234269   0.126   3.582   3.728 -2.4519 -1.0422  1.1305
 7546SOL     OW34270   4.444   4.312   4.518  0.3868 -0.4398 -1.0949
 7546SOL    HW134271   4.405   4.396   4.543 -0.7662 -1.9147  2.1172
 7546SOL    HW234272   4.534   4.316   4.548  0.2921  0.8317 -1.0029
 7547SOL     OW34273   0.276   4.113  16.557  0.5101  0.0058 -0.4358
 7547SOL    HW134274   0.220   4.103  16.480  1.6483  1.4802 -1.4574
 7547SOL    HW234275   0.231   4.176  16.613 -0.1221  0.2997 -1.2772
 7548SOL     OW34276   3.168   3.246  11.610  0.7023  0.1185 -0.0323
 7548SOL    HW134277   3.211   3.304  11.547  2.4285 -1.7435 -0.5898
 7548SOL    HW234278   3.244   3.197  11.642  0.1449 -1.1800 -0.6966
 7549SOL     OW34279   2.827   0.064   4.924 -0.2351  0.1336 -0.3553
 7549SOL    HW134280   2.848   0.098   4.837  1.4486 -0.8905 -0.3441
 7549SOL    HW234281   2.841   4.706   4.902 -2.3190  0.1126 -1.5648
 7550SOL     OW34282   2.787   0.483   2.068 -0.3819  0.0789  0.2059
 7550SOL    HW134283   2.763   0.560   2.017  0.8717  0.3070 -0.0430
 7550SOL    HW234284   2.880   0.504   2.068 -0.7720  1.7960  1.5310
 7551SOL     OW34285   4.341   3.450   0.553 -0.1851 -0.3540 -0.4191
 7551SOL    HW134286   4.264   3.505   0.537  0.6554  0.5125 -1.4035
 7551SOL    HW234287   4.294   3.380   0.598  0.8443 -0.6286  0.2151
 7552SOL     OW34288   0.690   2.181   3.830 -0.1358  0.4301  0.5616
 7552SOL    HW134289   0.744   2.124   3.885  0.7796 -0.8797 -1.6779
 7552SOL    HW234290   0.753   2.170   3.758 -0.2174  1.8781  0.2605
 7553SOL     OW34291   3.583   2.108   9.346 -0.0743  0.4115  0.4993
 7553SOL    HW134292   3.565   2.047   9.418  0.4504  1.3896  1.4482
 7553SOL    HW234293   3.630   2.178   9.391  1.0044  0.4476 -0.7082
 7554SOL     OW34294   1.560   1.741   5.124 -0.0406 -0.7752  0.4514
 7554SOL    HW134295   1.646   1.777   5.101  1.1659 -3.0611  1.4018
 7554SOL    HW234296   1.585   1.660   5.168  0.0824 -0.8022  0.3317
 7555SOL     OW34297   2.287   1.890   5.092  0.1977  0.8577  0.0387
 7555SOL    HW134298   2.209   1.919   5.045  0.5794 -2.7773 -2.9197
 7555SOL    HW234299   2.295   1.800   5.059 -0.1717  1.0173 -0.4832
 7556SOL     OW34300   3.122   1.820   5.445 -0.4556  0.2709  0.0329
 7556SOL    HW134301   3.093   1.803   5.535  1.7259 -0.3918  0.6067
 7556SOL    HW234302   3.203   1.869   5.457  0.7679 -2.0516  1.0637
 7557SOL     OW34303   0.377   0.545  16.562 -0.3051  0.0602  0.1905
 7557SOL    HW134304   0.448   0.606  16.542 -1.9351  1.6010 -0.9029
 7557SOL    HW234305   0.312   0.613  16.576  1.0331  1.4880 -0.5028
 7558SOL     OW34306   1.860   0.045   1.974 -0.1598  0.4117 -0.0575
 7558SOL    HW134307   1.866   0.141   1.969  0.0926  0.3012 -1.8280
 7558SOL    HW234308   1.948   0.032   2.008  0.0502  1.4756 -0.1822
 7559SOL     OW34309   3.650   0.827  17.577 -0.0463 -0.5074  0.7550
 7559SOL    HW134310   3.644   0.793  17.488  4.5005 -2.5325  1.2162
 7559SOL    HW234311   3.743   0.827  17.602 -0.1757 -0.8350  1.2404
 7560SOL     OW34312   1.851   0.409   9.250 -0.2725 -0.7249  0.0468
 7560SOL    HW134313   1.770   0.359   9.239 -0.9360 -0.3321  3.0663
 7560SOL    HW234314   1.816   0.473   9.312 -2.3583 -0.6148 -1.2449
 7561SOL     OW34315   2.679   4.462   1.728 -0.7589 -0.5043 -0.5372
 7561SOL    HW134316   2.688   4.502   1.814  0.6213 -1.1815 -0.3683
 7561SOL    HW234317   2.771   4.446   1.710 -0.8302 -0.1703 -1.1690
 7562SOL     OW34318   1.760   3.816  16.275  0.4585 -0.1068 -0.3943
 7562SOL    HW134319   1.725   3.848  16.192 -1.5524 -0.8349  0.1916
 7562SOL    HW234320   1.842   3.784  16.237 -0.8157 -0.3416 -2.9103
 7563SOL     OW34321   2.598   1.049  11.134  0.0301  0.3410  0.1267
 7563SOL    HW134322   2.552   1.092  11.063 -0.9443 -0.2260  0.4022
 7563SOL    HW234323   2.669   1.007  11.087  1.0349  1.8305  0.3227
 7564SOL     OW34324   0.893   3.554   9.010 -0.4020  0.3305  0.2261
 7564SOL    HW134325   0.964   3.522   9.066  0.3098  1.4171 -0.0566
 7564SOL    HW234326   0.861   3.477   8.963  1.0480 -0.1563  0.0624
 7565SOL     OW34327   4.458   1.526   1.435  0.0037  0.3794  0.3771
 7565SOL    HW134328   4.550   1.551   1.432  0.3800 -1.1176 -0.6824
 7565SOL    HW234329   4.450   1.438   1.397  0.5865  0.3676  0.2846
 7566SOL     OW34330   0.305   2.408   9.487  0.4607  0.0698 -0.3723
 7566SOL    HW134331   0.356   2.328   9.471 -1.2654 -1.3199  0.9279
 7566SOL    HW234332   0.234   2.404   9.423 -1.1500  3.2201  1.2273
 7567SOL     OW34333   0.092   4.610   3.527 -0.1616  0.0076 -0.0310
 7567SOL    HW134334   0.122   4.539   3.583 -2.5476  0.5767  1.9667
 7567SOL    HW234335   0.050   4.556   3.459 -0.6147  0.8300 -0.4102
 7568SOL     OW34336   0.133   4.507   5.098 -0.3633  0.7328  0.2027
 7568SOL    HW134337   0.207   4.564   5.078  0.5778  0.1411  1.9437
 7568SOL    HW234338   0.069   4.578   5.086 -1.9012 -0.1496  3.1016
 7569SOL     OW34339   0.816   1.669  16.019  0.4944 -0.0941  0.0002
 7569SOL    HW134340   0.869   1.739  15.979  1.5861 -0.9777 -0.0959
 7569SOL    HW234341   0.839   1.594  15.964  0.2989  1.2053 -1.8689
 7570SOL     OW34342   3.361   1.021   5.873  0.0834 -0.2435  0.1390
 7570SOL    HW134343   3.388   0.956   5.938  1.2844 -0.5743 -0.6993
 7570SOL    HW234344   3.297   0.962   5.834  0.0832 -0.7688  0.9319
 7571SOL     OW34345   2.045   3.809  11.712 -0.0890  0.5421 -0.4295
 7571SOL    HW134346   1.952   3.793  11.694 -0.5304  1.4943  0.9699
 7571SOL    HW234347   2.044   3.904  11.697 -3.4653  0.6862  0.4933
 7572SOL     OW34348   2.510   1.046   5.654  0.1882  0.0185 -0.4669
 7572SOL    HW134349   2.588   0.992   5.654 -0.3361 -0.7584  1.7526
 7572SOL    HW234350   2.527   1.122   5.598  1.2987 -0.5297 -0.8572
 7573SOL     OW34351   0.511   1.523   5.447  0.4041 -0.3292  0.2262
 7573SOL    HW134352   0.526   1.611   5.483  0.9322 -0.5790  0.6203
 7573SOL    HW234353   0.585   1.476   5.485 -0.3200  0.2108  2.2911
 7574SOL     OW34354   2.431   0.430  12.364  0.2124  0.4001  0.4448
 7574SOL    HW134355   2.478   0.506  12.397 -1.3522  0.9737  1.3629
 7574SOL    HW234356   2.347   0.474  12.347 -0.2123 -2.1454 -3.9322
 7575SOL     OW34357   4.726   0.557  13.517  0.0379  0.0596  0.3913
 7575SOL    HW134358   4.734   0.503  13.439 -2.0359 -0.8140  0.8002
 7575SOL    HW234359   4.644   0.528  13.556  0.7622 -0.2291  1.7257
 7576SOL     OW34360   3.001   1.002   5.800  0.6818 -0.5243 -0.5501
 7576SOL    HW134361   3.000   0.942   5.725 -1.0652 -1.7217  0.4406
 7576SOL    HW234362   2.913   0.991   5.835  0.2392  0.7058 -1.3034
 7577SOL     OW34363   3.389   4.682   8.198  0.5328  0.1042 -0.0503
 7577SOL    HW134364   3.346   4.707   8.116 -0.5429 -2.6803 -0.3356
 7577SOL    HW234365   3.394   4.587   8.187  2.0332  0.5045 -3.0680
 7578SOL     OW34366   3.665   3.817   4.111  0.0730 -0.5462 -0.4192
 7578SOL    HW134367   3.715   3.741   4.081 -0.0230 -1.3906  1.5653
 7578SOL    HW234368   3.577   3.780   4.115 -0.1317  0.4128  3.5400
 7579SOL     OW34369   3.389   3.865   4.718  0.3529 -0.7217 -0.2908
 7579SOL    HW134370   3.433   3.802   4.660  0.2666 -0.0603 -1.0655
 7579SOL    HW234371   3.339   3.904   4.647 -0.4036 -0.8218  0.1853
 7580SOL     OW34372   3.801   2.397   8.117  0.3223  0.2638 -0.3495
 7580SOL    HW134373   3.840   2.327   8.169  2.6686  1.4156 -0.5688
 7580SOL    HW234374   3.747   2.340   8.061 -0.0928 -0.7425  1.0677
 7581SOL     OW34375   4.071   4.284   5.485 -0.2639  0.0163 -0.3114
 7581SOL    HW134376   4.039   4.205   5.442 -0.3104  0.8201 -1.7793
 7581SOL    HW234377   4.014   4.281   5.562 -0.4066 -0.6720 -0.4428
 7582SOL     OW34378   1.188   3.966  11.643 -0.5619  0.2430  0.4022
 7582SOL    HW134379   1.210   3.881  11.605 -0.5900 -0.2967  1.5939
 7582SOL    HW234380   1.213   3.956  11.735  0.8515 -1.5917 -0.1845
 7583SOL     OW34381   0.827   4.502  15.758  0.4512  0.0594 -0.1112
 7583SOL    HW134382   0.891   4.566  15.727 -1.1890  1.5589 -0.3870
 7583SOL    HW234383   0.775   4.550  15.823  0.7412  1.6449 -1.0458
 7584SOL     OW34384   1.310   4.551  17.451 -0.4573 -0.2635  0.0112
 7584SOL    HW134385   1.315   4.540  17.356 -0.0812  1.6359 -0.1912
 7584SOL    HW234386   1.307   4.458  17.476 -1.9684 -0.3017 -0.3359
 7585SOL     OW34387   0.572   3.170   1.446 -0.2932  0.1619 -0.1888
 7585SOL    HW134388   0.484   3.172   1.407  0.2465 -0.9132 -1.4606
 7585SOL    HW234389   0.585   3.264   1.460  0.1724 -0.3088  2.4979
 7586SOL     OW34390   3.734   0.068   6.277 -0.2361 -0.2130  0.1670
 7586SOL    HW134391   3.701   0.126   6.346  0.8620  0.5276  0.0681
 7586SOL    HW234392   3.693   0.110   6.202  0.2792 -1.2103 -0.6630
 7587SOL     OW34393   3.201   1.991   2.536 -0.4003 -0.0372  0.0782
 7587SOL    HW134394   3.199   1.901   2.503 -0.6414  0.0993 -0.2779
 7587SOL    HW234395   3.120   1.995   2.588 -0.2301 -0.9586  0.4125
 7588SOL     OW34396   4.017   2.387   2.959 -0.3000 -0.0249 -0.4011
 7588SOL    HW134397   4.112   2.389   2.949 -0.3409 -1.1401 -0.9638
 7588SOL    HW234398   3.994   2.374   2.868 -1.3075 -1.1844  0.0211
 7589SOL     OW34399   4.299   0.933   5.157  0.6164 -0.1565 -0.0530
 7589SOL    HW134400   4.291   0.838   5.165 -0.3824  0.0184  1.0129
 7589SOL    HW234401   4.372   0.948   5.096  1.5887 -0.3176  1.0826
 7590SOL     OW34402   2.532   3.658  11.393  0.3028 -0.5618 -0.7234
 7590SOL    HW134403   2.477   3.654  11.314  0.1338  0.4508 -0.6593
 7590SOL    HW234404   2.470   3.693  11.457  1.8777  0.7221  0.1054
 7591SOL     OW34405   2.792   3.800   2.925 -0.0637  0.1688 -0.0489
 7591SOL    HW134406   2.846   3.875   2.950  0.9627 -1.4468  2.5966
 7591SOL    HW234407   2.853   3.730   2.902 -0.1088 -0.7216  2.5236
 7592SOL     OW34408   1.027   0.287   2.104  0.0349 -0.3626 -0.1532
 7592SOL    HW134409   1.030   0.193   2.123 -1.9673 -0.1288  1.3375
 7592SOL    HW234410   0.952   0.276   2.047 -0.3457 -2.7113  0.7875
 7593SOL     OW34411   4.163   0.312  11.855 -0.7759  0.4913  0.0798
 7593SOL    HW134412   4.223   0.244  11.824 -1.3258 -0.9600  2.1483
 7593SOL    HW234413   4.217   0.355  11.922  0.6531 -0.6088 -0.3548
 7594SOL     OW34414   4.235   4.445   7.823 -0.2749 -0.1008 -0.1316
 7594SOL    HW134415   4.234   4.350   7.818  3.1104 -0.2369  2.0360
 7594SOL    HW234416   4.206   4.475   7.736  3.3786  0.7041 -1.0549
 7595SOL     OW34417   2.012   4.495   2.780  0.3244 -0.6654  0.5009
 7595SOL    HW134418   1.956   4.459   2.711  0.4649 -1.5040  0.8366
 7595SOL    HW234419   1.943   4.521   2.841  0.6378  1.4161 -0.0210
 7596SOL     OW34420   0.109   0.044   8.025  0.3438 -0.5753 -0.0169
 7596SOL    HW134421   0.137   0.120   8.076  1.0211  0.5045 -1.9791
 7596SOL    HW234422   0.047   4.726   8.075 -1.0397 -0.8307 -1.9863
 7597SOL     OW34423   1.474   0.167  17.398  0.3773 -0.1541  0.1950
 7597SOL    HW134424   1.541   0.229  17.428 -0.1413  0.6745 -0.3545
 7597SOL    HW234425   1.456   0.121  17.480 -0.4994  1.9579  1.2086
 7598SOL     OW34426   1.560   3.420  12.984  0.1587 -0.1690  0.2863
 7598SOL    HW134427   1.579   3.502  13.028  1.3558 -0.5701  0.5117
 7598SOL    HW234428   1.464   3.420  12.981  0.1159 -1.9672  1.4621
 7599SOL     OW34429   1.526   3.352   5.381 -0.0541 -0.8262 -0.2319
 7599SOL    HW134430   1.535   3.260   5.357  0.3852 -1.4395  2.2924
 7599SOL    HW234431   1.430   3.353   5.386 -0.0124 -1.0819  0.7745
 7600SOL     OW34432   2.381   4.302   7.028 -0.4218 -0.0727 -0.5945
 7600SOL    HW134433   2.464   4.320   6.983 -0.1908 -0.0767 -0.1628
 7600SOL    HW234434   2.396   4.297   7.122  1.1075 -1.0706 -0.9098
 7601SOL     OW34435   1.360   1.031   0.016 -0.5843  0.0081 -0.1823
 7601SOL    HW134436   1.344   1.071   0.101 -0.0311 -1.6862  0.7290
 7601SOL    HW234437   1.388   1.112  17.709 -1.5262  0.0569 -0.7121
 7602SOL     OW34438   3.104   1.040   9.656  0.0467 -0.1080  0.6780
 7602SOL    HW134439   3.033   0.980   9.677 -1.5133  1.3604 -0.3703
 7602SOL    HW234440   3.130   1.013   9.568 -0.2917 -1.2090  0.9140
 7603SOL     OW34441   1.175   0.502   0.876 -0.1070 -0.3539 -0.5502
 7603SOL    HW134442   1.082   0.488   0.893  0.4806 -0.7656  2.3770
 7603SOL    HW234443   1.168   0.582   0.825 -2.4792 -0.2879 -0.1329
 7604SOL     OW34444   2.103   3.029   9.141 -0.1335  0.3554 -0.1988
 7604SOL    HW134445   2.123   2.939   9.169 -0.9054 -0.1030 -1.1310
 7604SOL    HW234446   2.184   3.057   9.099 -0.1850 -0.7423 -1.0235
 7605SOL     OW34447   1.088   0.022   7.902 -0.2067  0.1416  0.5467
 7605SOL    HW134448   0.992   0.025   7.906 -0.1769  1.2871  0.2376
 7605SOL    HW234449   1.110   0.071   7.981  2.0134 -2.5598  1.6210
 7606SOL     OW34450   1.485   1.451   5.049  0.2443 -0.2197  0.0115
 7606SOL    HW134451   1.394   1.424   5.053 -0.3787  1.6800 -1.2612
 7606SOL    HW234452   1.485   1.532   4.999  3.3093  1.3078  2.4412
 7607SOL     OW34453   2.226   1.086   0.996 -0.9300 -0.1541  0.0511
 7607SOL    HW134454   2.251   1.023   0.929  0.9746  1.0749 -0.4035
 7607SOL    HW234455   2.313   1.118   1.021 -0.8963  0.3059 -0.6538
 7608SOL     OW34456   1.738   2.142   2.665 -0.1110  0.0609 -0.0525
 7608SOL    HW134457   1.745   2.178   2.576  0.9897 -2.8179 -1.1275
 7608SOL    HW234458   1.826   2.157   2.701  0.1047  1.3553 -1.1370
 7609SOL     OW34459   2.028   0.087  15.307  0.2727  0.1579  0.0102
 7609SOL    HW134460   2.092   0.021  15.280 -0.8244  0.2885 -2.8778
 7609SOL    HW234461   1.991   0.054  15.389  1.5558 -0.1791  0.4532
 7610SOL     OW34462   0.616   0.179  17.701  0.2347 -0.1316  0.1424
 7610SOL    HW134463   0.632   0.260   0.014 -1.8566  0.3744 -0.0093
 7610SOL    HW234464   0.537   0.153   0.012 -0.1515 -1.9131 -1.5083
 7611SOL     OW34465   3.781   3.113  16.171 -0.2508  0.2874  0.3727
 7611SOL    HW134466   3.724   3.186  16.194 -1.2020 -1.1257  2.4051
 7611SOL    HW234467   3.871   3.146  16.170 -1.3295  3.2117  3.2804
 7612SOL     OW34468   3.090   0.069   8.149  0.4462  0.0914  0.8115
 7612SOL    HW134469   3.027   4.732   8.139  0.3281  0.6969 -2.6652
 7612SOL    HW234470   3.155   0.047   8.082 -1.4177  0.8570 -1.2132
 7613SOL     OW34471   4.177   3.127  11.189  0.2290 -0.1301  0.1814
 7613SOL    HW134472   4.152   3.037  11.168 -0.6800  0.4349 -1.1677
 7613SOL    HW234473   4.093   3.169  11.207  0.7143  0.4821  1.0276
 7614SOL     OW34474   1.121   4.095  17.085 -0.1187  0.6440  0.3015
 7614SOL    HW134475   1.104   4.124  17.175 -1.7203  3.0463 -0.7714
 7614SOL    HW234476   1.212   4.067  17.099 -0.4163 -1.0409 -1.2022
 7615SOL     OW34477   0.600   0.569   4.289  0.4140 -0.3450  0.0539
 7615SOL    HW134478   0.656   0.564   4.366 -1.3069  0.4041  1.3783
 7615SOL    HW234479   0.657   0.617   4.229  1.0994  1.8070  2.3687
 7616SOL     OW34480   3.123   1.433  12.513 -0.6365  0.1892 -0.0039
 7616SOL    HW134481   3.143   1.512  12.563  2.7629 -0.2512 -0.6617
 7616SOL    HW234482   3.203   1.383  12.500 -0.6657  0.6279 -2.0124
 7617SOL     OW34483   0.607   2.336   9.205 -0.2320  0.5931 -0.1651
 7617SOL    HW134484   0.647   2.395   9.269  0.1107  0.7532 -0.5234
 7617SOL    HW234485   0.671   2.334   9.134 -0.8346 -1.0010 -0.6484
 7618SOL     OW34486   3.204   2.261   6.272 -0.0726 -0.3613  0.4660
 7618SOL    HW134487   3.203   2.235   6.364  1.1667  0.6716  0.7766
 7618SOL    HW234488   3.146   2.337   6.281 -0.8788 -0.9045 -0.2468
 7619SOL     OW34489   2.635   0.115   8.325 -1.2013  0.2958  0.0182
 7619SOL    HW134490   2.623   0.210   8.333  0.5882  0.5275 -0.0281
 7619SOL    HW234491   2.707   0.102   8.388  1.2628 -0.2189 -2.9073
 7620SOL     OW34492   4.421   0.980   7.607 -0.1929 -0.2042  0.2504
 7620SOL    HW134493   4.469   1.062   7.591 -1.0053  0.4432  1.1107
 7620SOL    HW234494   4.333   1.010   7.631 -0.0307  1.3777 -1.0930
 7621SOL     OW34495   0.883   4.648   5.859 -0.3704  0.3401 -0.7452
 7621SOL    HW134496   0.883   4.652   5.955  0.8107  2.5589 -0.8243
 7621SOL    HW234497   0.971   4.614   5.845 -0.6894  0.2243 -2.4643
 7622SOL     OW34498   0.611   0.538   2.801 -0.7377 -0.4607 -0.2646
 7622SOL    HW134499   0.612   0.543   2.706  0.7440  1.4509 -0.1499
 7622SOL    HW234500   0.706   0.541   2.816 -0.8768  0.7832  0.3173
 7623SOL     OW34501   1.481   2.817  10.562  1.1444 -0.1860  0.5737
 7623SOL    HW134502   1.489   2.896  10.616  1.5845  0.0808  0.1184
 7623SOL    HW234503   1.539   2.841  10.490  0.8562  1.1980  0.7970
 7624SOL     OW34504   3.133   4.403   3.063  0.1595  0.3253 -0.4703
 7624SOL    HW134505   3.110   4.362   2.979  0.7497  1.5012 -1.2006
 7624SOL    HW234506   3.100   4.487   3.031 -0.0118  0.4729  0.0840
 7625SOL     OW34507   2.326   3.359  13.075 -0.5321  0.2800  0.3645
 7625SOL    HW134508   2.297   3.437  13.029  2.4908  1.2192  0.1297
 7625SOL    HW234509   2.401   3.327  13.026  0.9419  0.3588  2.5922
 7626SOL     OW34510   3.117   2.368   2.453 -0.1137  0.4142  0.2206
 7626SOL    HW134511   3.179   2.311   2.408  0.7629  1.0379  0.6397
 7626SOL    HW234512   3.178   2.430   2.493 -2.1927  2.7620 -0.2396
 7627SOL     OW34513   1.007   4.207   2.778  0.2019  0.4886 -0.5250
 7627SOL    HW134514   1.083   4.198   2.836 -0.2938  1.9035  0.3462
 7627SOL    HW234515   0.985   4.115   2.765 -0.0726  0.4033  0.5030
 7628SOL     OW34516   0.137   0.446   7.144 -0.3828 -0.1472 -0.3299
 7628SOL    HW134517   0.051   0.480   7.172 -1.9155 -2.2712 -2.4362
 7628SOL    HW234518   0.142   0.361   7.187  0.1313  1.4792  2.8219
 7629SOL     OW34519   2.237   0.448   0.883  0.4616  0.3769 -0.0398
 7629SOL    HW134520   2.278   0.497   0.812 -0.9055  0.8537 -0.5149
 7629SOL    HW234521   2.157   0.420   0.838  0.7176  1.3663 -1.0967
 7630SOL     OW34522   1.470   0.467   4.317  0.1449  0.2227 -0.3542
 7630SOL    HW134523   1.470   0.558   4.345 -0.6484  1.1280 -3.3494
 7630SOL    HW234524   1.379   0.446   4.298  0.2459  0.1816 -0.7983
 7631SOL     OW34525   1.748   2.899   2.047  0.6836  0.1037 -0.4943
 7631SOL    HW134526   1.791   2.982   2.069  0.8469 -0.0551 -0.2237
 7631SOL    HW234527   1.657   2.917   2.073  0.7067  1.4539 -1.3719
 7632SOL     OW34528   0.692   3.047  17.670  0.0989 -0.3869 -0.0041
 7632SOL    HW134529   0.779   3.087  17.674  0.2698 -0.3268 -3.8877
 7632SOL    HW234530   0.648   3.096  17.601  2.8966 -0.5683 -1.9155
 7633SOL     OW34531   2.943   3.592  12.339  0.0236  0.4484  0.1978
 7633SOL    HW134532   3.007   3.524  12.315 -0.4736 -0.3003  0.9926
 7633SOL    HW234533   2.973   3.660  12.279  0.1117 -0.9231 -1.3122
 7634SOL     OW34534   3.773   3.999   1.046 -0.8416  0.8263  0.9124
 7634SOL    HW134535   3.699   3.999   1.106 -0.6610 -0.8944  1.1311
 7634SOL    HW234536   3.803   3.908   1.052 -1.1472  0.7042  0.5622
 7635SOL     OW34537   1.445   2.485   5.472  0.2749 -0.2597 -0.1629
 7635SOL    HW134538   1.527   2.530   5.495 -0.1488  0.8705 -0.8587
 7635SOL    HW234539   1.386   2.511   5.543  2.5639  2.7219  0.6785
 7636SOL     OW34540   0.655   3.830   1.477 -0.0069 -0.0869 -0.0328
 7636SOL    HW134541   0.741   3.853   1.442 -0.0512  2.5926  1.6278
 7636SOL    HW234542   0.656   3.863   1.566 -0.9743 -2.3179  0.8225
 7637SOL     OW34543   1.830   0.519  14.405 -0.0668  0.1693  0.1138
 7637SOL    HW134544   1.867   0.503  14.319 -2.0216  2.3764 -1.1345
 7637SOL    HW234545   1.835   0.435  14.450 -4.5298  1.2872  2.7414
 7638SOL     OW34546   3.579   1.385   3.629 -0.1190 -0.2054 -0.0062
 7638SOL    HW134547   3.494   1.367   3.670  0.4927 -0.3327  1.2174
 7638SOL    HW234548   3.631   1.357   3.704  0.8327 -1.0763 -0.9842
 7639SOL     OW34549   1.612   2.406   7.771  0.1605  0.0093 -0.1518
 7639SOL    HW134550   1.570   2.329   7.809 -1.4690  0.5512 -0.8517
 7639SOL    HW234551   1.567   2.410   7.686  0.7868  2.6130 -0.3669
 7640SOL     OW34552   2.537   2.586   0.810 -0.1482  0.4588  0.1245
 7640SOL    HW134553   2.569   2.511   0.859  0.5392  1.1389  0.7211
 7640SOL    HW234554   2.557   2.554   0.722  1.7182 -0.5186  0.8993
 7641SOL     OW34555   3.061   3.742  15.771  0.3187  0.1078 -0.1424
 7641SOL    HW134556   3.067   3.819  15.827 -1.2016  0.3867 -0.3713
 7641SOL    HW234557   3.138   3.693  15.800  0.8928  3.1057  3.3728
 7642SOL     OW34558   4.120   1.380   6.703 -0.3308 -0.3156  0.4132
 7642SOL    HW134559   4.061   1.321   6.656 -1.2408  1.1062 -0.2327
 7642SOL    HW234560   4.068   1.460   6.708  1.2882  0.7421  0.3417
 7643SOL     OW34561   2.172   3.389   4.077  0.1320  0.5445  0.0713
 7643SOL    HW134562   2.127   3.436   4.147 -1.1136 -1.0544  0.3321
 7643SOL    HW234563   2.261   3.404   4.109  0.4313 -0.7699 -0.1747
 7644SOL     OW34564   4.560   1.481   1.187 -0.0263 -0.4547  0.6383
 7644SOL    HW134565   4.545   1.459   1.095 -0.2051  0.7722  0.3720
 7644SOL    HW234566   4.531   1.571   1.198 -1.6447 -0.8003 -0.7240
 7645SOL     OW34567   0.054   1.183   1.998  0.8165 -0.3496 -0.7286
 7645SOL    HW134568   0.039   1.093   2.026 -0.7782  0.6268  1.5780
 7645SOL    HW234569   0.004   1.239   2.057 -0.0895 -1.2328 -0.6734
 7646SOL     OW34570   0.124   2.150  15.126  0.4060  0.1322 -0.2854
 7646SOL    HW134571   0.140   2.108  15.211  4.3909  1.2060 -0.4945
 7646SOL    HW234572   0.033   2.122  15.118  0.6637 -0.6813 -0.3386
 7647SOL     OW34573   4.588   3.284   8.392  0.6449 -0.0441 -0.4379
 7647SOL    HW134574   4.584   3.377   8.368 -1.4367 -0.2641 -0.9496
 7647SOL    HW234575   4.625   3.257   8.308  1.6712  0.3186 -0.1050
 7648SOL     OW34576   3.850   3.837  13.440  0.2260  0.0380 -0.3019
 7648SOL    HW134577   3.807   3.892  13.506  0.8079  1.5874 -1.2200
 7648SOL    HW234578   3.826   3.751  13.474 -0.0295 -0.2138 -1.1043
 7649SOL     OW34579   0.264   0.274   2.803 -0.3398  0.2442 -0.3426
 7649SOL    HW134580   0.262   0.244   2.894 -0.4315  0.5644 -0.2355
 7649SOL    HW234581   0.196   0.342   2.807  0.9384  1.5418 -0.5400
 7650SOL     OW34582   4.554   4.552   2.214  0.2120  0.3329  0.1662
 7650SOL    HW134583   4.476   4.526   2.164  0.8378 -2.1820  0.4648
 7650SOL    HW234584   4.603   4.593   2.144  0.8075  1.7889  1.4399
 7651SOL     OW34585   1.914   3.083   7.778 -0.3705 -0.5779  0.3461
 7651SOL    HW134586   1.834   3.070   7.727  1.8364 -2.6239 -2.6568
 7651SOL    HW234587   1.926   3.177   7.771 -0.8338 -0.6286 -1.2110
 7652SOL     OW34588   0.701   1.170   7.704 -0.0528 -0.0477  0.2236
 7652SOL    HW134589   0.631   1.212   7.654 -0.9776  0.3451  1.8301
 7652SOL    HW234590   0.777   1.213   7.664 -0.0497 -0.1429  0.1252
 7653SOL     OW34591   3.881   3.954   5.911 -0.3909 -0.2461  0.3448
 7653SOL    HW134592   3.882   3.983   6.002 -1.5640  1.1052 -0.0884
 7653SOL    HW234593   3.838   4.024   5.863 -2.2807 -0.3197  1.9637
 7654SOL     OW34594   4.249   4.057   2.488 -0.1085  0.2754  0.2021
 7654SOL    HW134595   4.193   4.006   2.546 -0.3338 -0.1222 -0.3681
 7654SOL    HW234596   4.315   4.094   2.547  0.1144  2.8597 -1.6602
 7655SOL     OW34597   3.319   1.125   6.292  0.5922 -0.3868 -0.6348
 7655SOL    HW134598   3.387   1.147   6.228 -1.4715  1.0282 -2.3022
 7655SOL    HW234599   3.244   1.173   6.257  0.4640  0.1386  0.3726
 7656SOL     OW34600   0.371   1.386   3.746 -0.0778 -0.2002  0.4511
 7656SOL    HW134601   0.462   1.382   3.776  0.5385  0.4978 -1.3677
 7656SOL    HW234602   0.353   1.479   3.745 -0.7382 -0.3727 -2.3924
 7657SOL     OW34603   3.211   2.556   1.463  0.1435 -0.1256  0.1265
 7657SOL    HW134604   3.177   2.594   1.383  0.6719 -3.1128 -1.5253
 7657SOL    HW234605   3.302   2.535   1.441 -0.3439 -0.2420 -1.7200
 7658SOL     OW34606   1.019   3.631   9.995  0.2456 -0.1298  0.8858
 7658SOL    HW134607   1.098   3.621   9.941  0.3757  0.6812  0.9256
 7658SOL    HW234608   0.946   3.596   9.945 -0.2876  1.0322  0.8686
 7659SOL     OW34609   4.457   3.781   0.918  0.3904 -0.0156 -0.1752
 7659SOL    HW134610   4.362   3.792   0.913  0.3996  0.3732  0.4296
 7659SOL    HW234611   4.478   3.874   0.910 -2.0899  0.7412  1.9874
 7660SOL     OW34612   0.540   3.828  11.741  0.2174  0.2543 -0.1602
 7660SOL    HW134613   0.468   3.854  11.683 -0.4439  0.6957  0.8573
 7660SOL    HW234614   0.595   3.786  11.675 -0.6170 -0.4804 -0.3846
 7661SOL     OW34615   0.536   0.241   5.303  0.2445 -0.0394 -0.3178
 7661SOL    HW134616   0.466   0.233   5.237 -1.4426  0.5297  1.3903
 7661SOL    HW234617   0.562   0.149   5.306  1.2677  0.3072  0.7552
 7662SOL     OW34618   2.034   1.323   9.118 -0.0153  0.2917  0.0484
 7662SOL    HW134619   1.976   1.369   9.178  0.3798  0.5086  0.2645
 7662SOL    HW234620   1.982   1.250   9.086 -2.2996  0.7531  2.8049
 7663SOL     OW34621   3.289   4.391  14.657 -0.4572  0.3873 -0.0646
 7663SOL    HW134622   3.205   4.346  14.645  0.5064 -1.5552  0.4816
 7663SOL    HW234623   3.261   4.480  14.636 -0.8376  1.0807  3.5344
 7664SOL     OW34624   3.629   1.771   8.230  0.0976  0.0338  0.2602
 7664SOL    HW134625   3.691   1.728   8.172  0.0433 -0.5470  0.6347
 7664SOL    HW234626   3.554   1.745   8.176  0.4527  1.0826 -0.7406
 7665SOL     OW34627   3.232   3.706   6.363  0.0809  0.3661  0.0444
 7665SOL    HW134628   3.211   3.667   6.448 -0.6465  0.2901 -0.1656
 7665SOL    HW234629   3.278   3.634   6.319 -0.2362  0.7212 -0.8700
 7666SOL     OW34630   1.436   4.327   6.753 -0.0320  0.0380 -0.1692
 7666SOL    HW134631   1.496   4.285   6.815  2.1947  0.2583 -2.1804
 7666SOL    HW234632   1.484   4.408   6.735 -1.2799  0.6786 -0.6506
 7667SOL     OW34633   2.259   3.997   7.317  0.4008 -0.0527  0.2882
 7667SOL    HW134634   2.344   3.959   7.336  0.3184 -0.1617  0.4334
 7667SOL    HW234635   2.192   3.939   7.352 -1.5597 -0.8188 -4.7287
 7668SOL     OW34636   2.017   1.039  11.768 -0.1896 -0.8212 -0.2798
 7668SOL    HW134637   1.953   1.109  11.781 -0.3068 -0.9198 -0.3179
 7668SOL    HW234638   2.065   1.073  11.693  1.5655  0.5864  1.4994
 7669SOL     OW34639   3.242   1.973   8.070 -0.0326 -0.6799  0.6169
 7669SOL    HW134640   3.234   2.028   7.993  0.0071 -0.9074  0.4507
 7669SOL    HW234641   3.246   2.037   8.142  0.7255 -0.0051 -0.0250
 7670SOL     OW34642   4.436   1.899   7.762  0.3505  0.5401  0.4686
 7670SOL    HW134643   4.478   1.952   7.695  0.8357  0.6656  0.8655
 7670SOL    HW234644   4.350   1.900   7.720  0.3533 -1.2314  0.4210
 7671SOL     OW34645   3.299   4.077  14.710  0.0820 -0.1674  0.3948
 7671SOL    HW134646   3.241   4.001  14.708  1.6150 -1.3363  0.4925
 7671SOL    HW234647   3.238   4.151  14.710  1.5315  1.0381  0.5652
 7672SOL     OW34648   4.575   0.098   5.301  0.6305 -0.0422  0.0633
 7672SOL    HW134649   4.662   0.061   5.292 -0.2088 -1.5576 -1.7707
 7672SOL    HW234650   4.580   0.153   5.224 -0.4215  0.1795  0.1485
 7673SOL     OW34651   3.922   4.676  16.223  0.2417 -0.8671 -0.1281
 7673SOL    HW134652   3.891   0.026  16.189  1.7052  0.3359  1.5286
 7673SOL    HW234653   3.843   4.628  16.200 -1.0818  0.8021  0.8743
 7674SOL     OW34654   4.170   4.394   1.804  0.1151  0.2668  0.0788
 7674SOL    HW134655   4.079   4.426   1.805 -0.2078 -0.6122 -0.6390
 7674SOL    HW234656   4.209   4.432   1.725  1.9153  0.0628  0.8968
 7675SOL     OW34657   1.985   3.797   7.972 -0.4938 -0.1949  0.0453
 7675SOL    HW134658   2.007   3.875   8.023 -1.6451  1.1127 -1.4760
 7675SOL    HW234659   1.918   3.774   8.036  1.3461  1.2711  2.5248
 7676SOL     OW34660   3.934   3.835   0.584 -0.0539 -0.7442  0.2204
 7676SOL    HW134661   3.909   3.895   0.654  1.5004 -0.8298  0.8610
 7676SOL    HW234662   4.026   3.859   0.575 -0.3889  0.5769  0.4180
 7677SOL     OW34663   2.602   3.803   5.135 -0.5150  0.2619 -0.2754
 7677SOL    HW134664   2.645   3.770   5.056  1.7381 -0.5935  1.3094
 7677SOL    HW234665   2.596   3.897   5.116  0.7182  0.8832  2.3069
 7678SOL     OW34666   1.752   0.403   5.696  0.3679  0.0810  0.4071
 7678SOL    HW134667   1.709   0.462   5.758  1.8987  1.7716 -0.1217
 7678SOL    HW234668   1.819   0.375   5.759  0.5027  1.8584  1.0457
 7679SOL     OW34669   4.630   4.677  16.391  0.4795  0.0031  0.0831
 7679SOL    HW134670   4.707   4.658  16.338 -0.4219 -1.9468 -0.5271
 7679SOL    HW234671   4.557   4.643  16.339  1.2793  0.0442 -1.0654
 7680SOL     OW34672   1.530   4.078   5.889 -0.3390  0.4321 -0.9516
 7680SOL    HW134673   1.578   4.150   5.849  2.1821 -1.5826 -1.6059
 7680SOL    HW234674   1.603   4.019   5.908 -1.4700 -1.0130 -1.1122
 7681SOL     OW34675   3.321   1.600   2.082 -0.4205 -0.8542  0.1625
 7681SOL    HW134676   3.380   1.638   2.147 -2.1823  1.5635  0.3528
 7681SOL    HW234677   3.272   1.539   2.137  0.0398 -1.7313 -0.3947
 7682SOL     OW34678   1.697   4.443   5.469 -0.0529 -0.2873 -0.4315
 7682SOL    HW134679   1.777   4.409   5.510 -0.0877 -2.2389 -2.0105
 7682SOL    HW234680   1.669   4.506   5.535 -0.3692 -1.2776  0.3825
 7683SOL     OW34681   0.217   2.195   2.791  0.0369  0.2383  0.1966
 7683SOL    HW134682   0.252   2.113   2.755 -1.2141 -0.9245  1.6108
 7683SOL    HW234683   0.206   2.248   2.713 -3.6609 -1.6197 -0.5409
 7684SOL     OW34684   3.263   1.756   4.942  0.2351  0.0098 -0.0263
 7684SOL    HW134685   3.185   1.703   4.962  1.7221 -2.1602  0.0696
 7684SOL    HW234686   3.311   1.699   4.881 -0.6171  1.4903 -2.0659
 7685SOL     OW34687   2.591   4.101   5.083  1.2891 -0.2910 -0.2344
 7685SOL    HW134688   2.538   4.130   5.009 -0.2573  1.4747  1.5748
 7685SOL    HW234689   2.584   4.180   5.136 -0.4141 -0.4785 -0.1718
 7686SOL     OW34690   0.748   0.320  11.664 -0.8764 -0.1339  0.2958
 7686SOL    HW134691   0.660   0.290  11.643 -1.6732  1.8489  0.8414
 7686SOL    HW234692   0.778   0.262  11.735  2.3948 -1.8420 -2.4795
 7687SOL     OW34693   4.120   1.577   2.383  0.6253 -0.8367  0.0760
 7687SOL    HW134694   4.131   1.522   2.305 -2.4733 -0.6616 -0.4853
 7687SOL    HW234695   4.152   1.521   2.453  0.2472  0.4978  1.3107
 7688SOL     OW34696   3.967   4.473   4.601  0.6646  0.0574 -0.3998
 7688SOL    HW134697   4.026   4.405   4.568  1.6523 -0.1119  1.7479
 7688SOL    HW234698   4.010   4.516   4.675 -1.1925 -1.1955  1.4166
 7689SOL     OW34699   2.759   2.616   7.058 -0.3111 -1.0549 -0.2772
 7689SOL    HW134700   2.735   2.658   6.976  0.3712  0.2632  0.1854
 7689SOL    HW234701   2.682   2.562   7.076 -1.5671  1.2254  1.2062
 7690SOL     OW34702   0.130   1.517   5.613  0.2476 -0.2357 -0.5287
 7690SOL    HW134703   0.086   1.603   5.608 -1.4697 -1.1373 -1.0120
 7690SOL    HW234704   0.089   1.461   5.547 -0.9489 -0.8125  0.7259
 7691SOL     OW34705   4.468   3.628  14.332  0.0399 -0.6204  0.2792
 7691SOL    HW134706   4.539   3.691  14.346 -0.2455 -0.3585  0.5230
 7691SOL    HW234707   4.422   3.669  14.259  2.5938  2.0368  0.1745
 7692SOL     OW34708   0.982   0.725   0.928 -0.2863 -0.3901  0.3035
 7692SOL    HW134709   0.907   0.694   0.980  0.9612 -1.2987  1.5472
 7692SOL    HW234710   0.962   0.818   0.919  1.1968 -0.2620 -1.4594
 7693SOL     OW34711   4.531   3.293   9.356  0.3931  0.3834  0.6037
 7693SOL    HW134712   4.455   3.251   9.314 -0.1740  0.3194  1.6702
 7693SOL    HW234713   4.601   3.249   9.308 -2.3294 -0.8751 -2.1983
 7694SOL     OW34714   4.074   1.548  12.762 -0.3829  0.7416  0.0432
 7694SOL    HW134715   4.033   1.484  12.820  0.1024  0.5876  0.2147
 7694SOL    HW234716   4.133   1.585  12.828  1.7653 -0.4640 -1.2019
 7695SOL     OW34717   4.438   2.615   1.742  0.1643 -0.2112  0.5100
 7695SOL    HW134718   4.492   2.576   1.811  1.0259  0.8959  0.4581
 7695SOL    HW234719   4.419   2.703   1.775 -0.0168 -0.0032 -0.1573
 7696SOL     OW34720   2.112   0.811   1.377  0.0481 -0.0052  0.1391
 7696SOL    HW134721   2.152   0.828   1.292  1.1214 -0.3302  0.5833
 7696SOL    HW234722   2.158   0.874   1.432  1.1421 -0.1213 -0.6552
 7697SOL     OW34723   0.124   2.994  15.737  0.1312 -0.1212 -0.4682
 7697SOL    HW134724   0.080   3.020  15.657  0.1408  0.5484 -0.2560
 7697SOL    HW234725   0.210   2.976  15.699  0.5153  0.7961 -0.0386
 7698SOL     OW34726   2.723   1.397   1.914 -0.2519  0.5024 -0.6649
 7698SOL    HW134727   2.726   1.485   1.953  1.8334  0.4391 -0.7152
 7698SOL    HW234728   2.811   1.393   1.876  0.9350 -1.4620  2.3158
 7699SOL     OW34729   4.069   0.689  15.671  0.5410 -0.4250 -0.2286
 7699SOL    HW134730   3.990   0.679  15.618 -0.5316 -0.5663  1.4180
 7699SOL    HW234731   4.054   0.765  15.728  0.9894  0.3355 -1.1131
 7700SOL     OW34732   0.700   2.434   6.484 -0.0764 -0.0598  0.0326
 7700SOL    HW134733   0.657   2.491   6.548 -0.9273 -1.4008  0.6596
 7700SOL    HW234734   0.788   2.427   6.520 -0.6331  2.9387  1.9387
 7701SOL     OW34735   4.358   3.291   5.625 -0.0691  0.4436  0.0676
 7701SOL    HW134736   4.305   3.218   5.659 -1.4117  1.3900  0.0115
 7701SOL    HW234737   4.448   3.267   5.647 -0.3941 -0.5892  0.2670
 7702SOL     OW34738   0.037   3.983  16.767 -0.0686  0.6620  0.4257
 7702SOL    HW134739   0.079   4.051  16.819  1.2196  0.4086 -0.2766
 7702SOL    HW234740   4.685   3.989  16.809 -0.4293  0.7076 -0.3254
 7703SOL     OW34741   1.082   0.021   2.172 -0.0465 -0.2146  0.1636
 7703SOL    HW134742   0.998   4.718   2.200  0.2173 -0.6780  0.3361
 7703SOL    HW234743   1.116   4.678   2.126  3.4734  0.7826  1.0733
 7704SOL     OW34744   1.155   1.610   5.317  0.1297 -0.0406  0.0290
 7704SOL    HW134745   1.115   1.527   5.293  2.7652 -1.0517 -0.8705
 7704SOL    HW234746   1.201   1.642   5.240 -1.7717  0.7486 -0.7665
 7705SOL     OW34747   2.113   1.184   7.288 -0.8282 -0.2906  0.0235
 7705SOL    HW134748   2.030   1.140   7.304 -1.3883  1.4267  2.0070
 7705SOL    HW234749   2.094   1.251   7.222  0.2474  1.6170  1.6349
 7706SOL     OW34750   0.790   4.175   8.488  0.5142  0.1565  0.0302
 7706SOL    HW134751   0.724   4.228   8.444 -0.4026 -2.0494 -1.2561
 7706SOL    HW234752   0.839   4.243   8.533  0.3629  0.1890  0.1470
 7707SOL     OW34753   4.118   1.823   6.896  0.1434  0.6254 -0.1779
 7707SOL    HW134754   4.123   1.795   6.805  1.2067 -0.6196  0.2477
 7707SOL    HW234755   4.168   1.904   6.897 -1.9303  1.9163 -1.5052
 7708SOL     OW34756   1.724   0.984   5.835  1.0510  0.1314  0.4403
 7708SOL    HW134757   1.665   1.050   5.798 -1.4842 -1.5976  1.3142
 7708SOL    HW234758   1.700   0.994   5.927  3.0748 -0.2512  1.0090
 7709SOL     OW34759   0.062   2.990   5.603 -0.2508 -0.0302 -0.2718
 7709SOL    HW134760   4.734   2.948   5.543 -0.6306  2.3545 -1.5686
 7709SOL    HW234761   0.139   3.005   5.549  0.5711 -1.6248  0.4661
 7710SOL     OW34762   1.740   1.969   4.598 -0.3324  0.2665 -0.1275
 7710SOL    HW134763   1.831   1.960   4.625 -0.2675  0.2681 -0.3519
 7710SOL    HW234764   1.739   1.913   4.521  1.3592 -1.1299  0.8788
 7711SOL     OW34765   1.685   1.317   7.263 -0.0809 -0.5514 -0.1159
 7711SOL    HW134766   1.639   1.312   7.347 -0.8087 -1.0545 -0.5481
 7711SOL    HW234767   1.617   1.337   7.199  0.2534 -0.1453 -0.3461
 7712SOL     OW34768   2.492   4.302   2.044  0.2936 -0.1190  0.4573
 7712SOL    HW134769   2.517   4.368   2.109  2.0887  1.0820 -1.4528
 7712SOL    HW234770   2.432   4.363   2.002 -1.1669 -0.7275  1.6680
 7713SOL     OW34771   1.012   4.231   1.013  0.1789  0.3259  0.7125
 7713SOL    HW134772   1.099   4.193   1.001  0.0459 -0.3910  1.9770
 7713SOL    HW234773   1.004   4.232   1.108  0.7796 -0.0259  0.7650
 7714SOL     OW34774   3.906   1.374   4.643 -0.1092 -0.2581  0.5819
 7714SOL    HW134775   3.983   1.336   4.686  1.5908  1.3492 -1.0384
 7714SOL    HW234776   3.940   1.393   4.556  1.5216  0.0781  1.2866
 7715SOL     OW34777   1.453   3.252   6.906  0.0450 -0.0940 -0.1668
 7715SOL    HW134778   1.523   3.314   6.925 -0.6086  0.9608 -1.2234
 7715SOL    HW234779   1.378   3.308   6.892 -0.1663  0.0411  1.5636
 7716SOL     OW34780   0.688   4.205   6.419  0.0369  0.0530  0.0463
 7716SOL    HW134781   0.767   4.165   6.455 -0.2835 -2.0875 -1.6264
 7716SOL    HW234782   0.675   4.284   6.471  1.1694 -0.7535  1.5529
 7717SOL     OW34783   4.472   1.353   4.836  0.4250 -0.4483 -0.2365
 7717SOL    HW134784   4.460   1.334   4.743  0.0531 -0.1496 -0.2488
 7717SOL    HW234785   4.560   1.391   4.841  0.1024  0.5117 -2.0643
 7718SOL     OW34786   4.703   2.537  12.207  0.6806  0.3810 -0.1812
 7718SOL    HW134787   4.622   2.571  12.244  0.6640  1.7694 -1.4962
 7718SOL    HW234788   4.720   2.598  12.134  0.4366 -0.9590 -1.3613
 7719SOL     OW34789   0.651   0.312   5.573 -0.2002  0.3259 -0.2673
 7719SOL    HW134790   0.596   0.294   5.497 -1.1336  2.8584 -0.1869
 7719SOL    HW234791   0.680   0.222   5.587  1.8205  1.2041  1.1665
 7720SOL     OW34792   4.660   2.752  12.892  0.2128  0.3373 -0.0716
 7720SOL    HW134793   4.608   2.823  12.930 -0.3022 -1.6279  2.8948
 7720SOL    HW234794   4.594   2.721  12.829  0.4517  0.8368 -0.5693
 7721SOL     OW34795   2.441   1.801   8.564  0.2878  0.1490  0.1079
 7721SOL    HW134796   2.482   1.723   8.526  1.1426 -0.1228  1.6282
 7721SOL    HW234797   2.497   1.822   8.638 -1.3069  2.5740  0.6135
 7722SOL     OW34798   0.159   2.390  14.979 -0.4590 -0.5034 -0.1410
 7722SOL    HW134799   0.161   2.304  15.021 -3.3625  0.1881  1.4327
 7722SOL    HW234800   0.191   2.370  14.891 -2.4601  0.4898 -1.1132
 7723SOL     OW34801   3.719   2.071   6.269  0.3925  0.0165  0.2438
 7723SOL    HW134802   3.707   2.136   6.199  3.1767 -0.1298 -0.3764
 7723SOL    HW234803   3.628   2.067   6.296  0.5037 -0.5539  0.5176
 7724SOL     OW34804   3.928   2.310  17.494 -0.1690  0.0427  0.0971
 7724SOL    HW134805   3.936   2.216  17.511 -0.0109 -0.1323 -0.9232
 7724SOL    HW234806   3.893   2.306  17.405 -1.8479  2.3520  0.6626
 7725SOL     OW34807   4.382   3.134   9.214 -0.2962  0.0116 -0.0349
 7725SOL    HW134808   4.446   3.064   9.205 -1.2974 -0.5970 -2.4160
 7725SOL    HW234809   4.307   3.097   9.167 -1.9484  1.0584  1.7822
 7726SOL     OW34810   1.789   2.048  13.529 -0.1006 -0.0507 -0.0017
 7726SOL    HW134811   1.884   2.053  13.518 -0.0220 -0.2437  0.5886
 7726SOL    HW234812   1.763   2.135  13.558  2.3045  0.0959  1.7198
 7727SOL     OW34813   4.063   0.881  13.369  0.4209 -0.1706 -0.6083
 7727SOL    HW134814   3.969   0.899  13.373  0.3229 -0.8098 -0.1114
 7727SOL    HW234815   4.103   0.965  13.345  0.6964  0.1311  0.9449
 7728SOL     OW34816   2.459   3.017  13.180  0.2700  0.1188  0.0832
 7728SOL    HW134817   2.502   2.937  13.149  1.6019  0.8712  0.0129
 7728SOL    HW234818   2.388   3.028  13.116  2.0710 -1.5056 -2.2237
 7729SOL     OW34819   2.420   1.612   4.318  0.2614  0.0297 -0.0208
 7729SOL    HW134820   2.411   1.699   4.281 -1.5657  0.9379  2.5368
 7729SOL    HW234821   2.514   1.597   4.322  0.0014 -1.1090  1.9238
 7730SOL     OW34822   1.455   0.821   3.424  0.4085 -0.4778  0.0048
 7730SOL    HW134823   1.429   0.758   3.491 -0.3960 -0.2028 -0.0538
 7730SOL    HW234824   1.393   0.891   3.445  1.1894  0.6032 -1.2407
 7731SOL     OW34825   0.712   2.924   1.803  0.0398 -0.0333 -0.8954
 7731SOL    HW134826   0.801   2.887   1.798 -0.4400 -1.0744 -1.7321
 7731SOL    HW234827   0.728   2.992   1.737 -2.6480 -0.0467 -1.5320
 7732SOL     OW34828   3.288   1.718  13.135  0.4505  0.0865 -0.3463
 7732SOL    HW134829   3.372   1.673  13.143  1.2455  1.6858  0.3146
 7732SOL    HW234830   3.272   1.746  13.226 -2.5323 -1.0410 -0.5417
 7733SOL     OW34831   1.601   1.374   9.271 -0.1316 -0.8981 -0.3279
 7733SOL    HW134832   1.548   1.309   9.317  0.7853 -0.3465  1.5342
 7733SOL    HW234833   1.540   1.446   9.255 -0.4088 -1.1929 -0.5776
 7734SOL     OW34834   3.958   3.965   1.472  0.0491  0.2080 -0.1000
 7734SOL    HW134835   3.924   4.054   1.480  1.0927  0.6069  0.0411
 7734SOL    HW234836   4.023   3.974   1.402  0.8563  1.4152  0.7900
 7735SOL     OW34837   3.963   2.333   6.775  0.9099  0.1737  0.2178
 7735SOL    HW134838   3.978   2.242   6.751  2.8918 -0.1890  2.8956
 7735SOL    HW234839   4.026   2.379   6.720 -0.0733  0.2049 -0.9010
 7736SOL     OW34840   1.893   1.990  13.057  0.9033 -0.3129 -0.2343
 7736SOL    HW134841   1.944   2.035  13.125  0.2577  0.4024 -0.2289
 7736SOL    HW234842   1.867   1.919  13.116  1.7895  1.0524  1.8100
 7737SOL     OW34843   1.311   2.714   2.567 -0.0894 -0.4555 -0.0628
 7737SOL    HW134844   1.392   2.761   2.585  0.9393 -2.8312  1.4961
 7737SOL    HW234845   1.251   2.738   2.638  0.3256  2.6382 -0.7544
 7738SOL     OW34846   1.507   1.988   6.496 -0.4699 -0.1663 -0.1046
 7738SOL    HW134847   1.454   2.024   6.424  0.4175  0.7385 -0.2923
 7738SOL    HW234848   1.601   1.987   6.478 -0.1467 -1.8194  1.6688
 7739SOL     OW34849   1.639   0.244   9.258 -0.0198 -0.0275  0.2019
 7739SOL    HW134850   1.644   0.150   9.239  1.4993 -0.3276  2.0952
 7739SOL    HW234851   1.604   0.240   9.347 -0.8138 -3.9508 -0.2685
 7740SOL     OW34852   1.281   0.399  17.665 -0.1076 -0.8936  0.0406
 7740SOL    HW134853   1.196   0.359  17.645 -0.8948  1.5120 -1.3617
 7740SOL    HW234854   1.296   0.379   0.023 -0.7870 -1.0598  0.1194
 7741SOL     OW34855   3.331   3.613   8.558  0.0795  0.2672 -0.2013
 7741SOL    HW134856   3.363   3.604   8.468 -2.4362 -0.5787 -1.0094
 7741SOL    HW234857   3.280   3.693   8.548 -0.4405  0.0651  0.7446
 7742SOL     OW34858   1.287   1.700   5.075 -0.2174  0.6367 -0.0082
 7742SOL    HW134859   1.372   1.734   5.104  0.5323 -0.7632 -0.5812
 7742SOL    HW234860   1.264   1.767   5.012 -0.3928 -1.4616 -2.1896
 7743SOL     OW34861   3.199   1.709   2.449 -0.2246  0.0749  0.1720
 7743SOL    HW134862   3.293   1.702   2.430 -0.1191  0.3019  0.5996
 7743SOL    HW234863   3.191   1.630   2.503 -3.7912  1.1273  1.1674
 7744SOL     OW34864   1.866   2.696   1.904  0.0084  0.0844 -0.3220
 7744SOL    HW134865   1.822   2.760   1.961  0.6300  0.0335  0.2152
 7744SOL    HW234866   1.798   2.678   1.840 -0.3293 -0.6905  0.2596
 7745SOL     OW34867   1.951   2.714   9.370  0.1847  0.2474  0.1685
 7745SOL    HW134868   1.926   2.686   9.282  2.2063 -1.5859  0.1632
 7745SOL    HW234869   2.041   2.739   9.349  1.1545 -0.3872  3.6700
 7746SOL     OW34870   3.089   0.993   2.685 -0.0942 -0.4870 -0.5591
 7746SOL    HW134871   3.034   0.988   2.763  0.8526 -1.5049  0.0251
 7746SOL    HW234872   3.036   0.936   2.629 -2.1475  0.6666  0.1915
 7747SOL     OW34873   3.580   4.350   1.939 -1.0438 -0.1405 -0.4084
 7747SOL    HW134874   3.496   4.394   1.924 -1.0902  0.1855  0.7624
 7747SOL    HW234875   3.637   4.421   1.911 -0.5072  0.0077  1.0686
 7748SOL     OW34876   4.597   4.123  17.465  1.0017  0.0042  0.1925
 7748SOL    HW134877   4.530   4.174  17.511  0.7376  0.0289 -0.2203
 7748SOL    HW234878   4.668   4.124  17.528 -0.2737 -2.6967  1.6801
 7749SOL     OW34879   2.355   3.492  17.142  0.1008 -0.5870  0.3067
 7749SOL    HW134880   2.295   3.510  17.070 -1.8264 -1.8582  1.6174
 7749SOL    HW234881   2.294   3.487  17.216  2.8775  1.0047  2.7138
 7750SOL     OW34882   2.767   2.694   1.468 -0.0185 -0.0696  0.0557
 7750SOL    HW134883   2.793   2.602   1.474 -2.9818 -0.9213  0.0932
 7750SOL    HW234884   2.723   2.716   1.550  0.3826 -0.9170  0.4935
 7751SOL     OW34885   2.526   1.481   2.749 -0.2358  0.2031  0.1276
 7751SOL    HW134886   2.431   1.490   2.740  0.1694 -0.9388 -5.0406
 7751SOL    HW234887   2.525   1.386   2.761  0.2394  0.4841  2.4397
 7752SOL     OW34888   3.221   3.752   6.922 -0.0870  0.0998  0.1093
 7752SOL    HW134889   3.297   3.777   6.975 -0.6958 -1.6715  1.8575
 7752SOL    HW234890   3.153   3.733   6.988  0.1375  2.2462  0.9606
 7753SOL     OW34891   0.018   1.422   4.413  0.2829 -0.5550 -0.1006
 7753SOL    HW134892   0.039   1.329   4.419 -0.0284 -0.5472  1.2855
 7753SOL    HW234893   4.717   1.428   4.324  1.8531 -0.4226 -0.7040
 7754SOL     OW34894   2.424   4.015   2.394  0.1001 -0.3884  0.2002
 7754SOL    HW134895   2.519   4.005   2.390 -0.1067 -1.4011 -1.8584
 7754SOL    HW234896   2.414   4.108   2.415  0.1663 -0.2939 -0.1861
 7755SOL     OW34897   1.053   0.018   3.112  0.0686  0.3984  0.8115
 7755SOL    HW134898   0.968   0.060   3.106  0.1565  0.2272 -1.3562
 7755SOL    HW234899   1.038   4.665   3.150 -0.3650  1.2955  2.7018
 7756SOL     OW34900   2.505   2.552   7.263 -0.5457  0.0491  0.1000
 7756SOL    HW134901   2.451   2.495   7.318 -0.1966 -0.2177  0.1729
 7756SOL    HW234902   2.449   2.567   7.187 -0.9003  1.2909  0.6114
 7757SOL     OW34903   4.358   4.636  11.002 -0.0905  0.2410  0.5555
 7757SOL    HW134904   4.402   4.580  10.938  0.0940  0.9456  0.0681
 7757SOL    HW234905   4.373   4.722  10.964 -0.9700 -0.1128 -0.5860
 7758SOL     OW34906   4.645   2.347  13.071  0.2562  0.2999  0.8633
 7758SOL    HW134907   4.674   2.432  13.039 -0.9922  0.7996  1.0288
 7758SOL    HW234908   4.616   2.368  13.161 -0.0357  0.2004  0.7938
 7759SOL     OW34909   1.406   0.224   8.140  0.2978  0.1885  0.0296
 7759SOL    HW134910   1.375   0.141   8.177 -1.6998  0.9602  0.1309
 7759SOL    HW234911   1.320   0.266   8.143 -0.1436 -0.6656 -0.5258
 7760SOL     OW34912   2.841   3.125   9.810  0.2719  0.0963 -0.3055
 7760SOL    HW134913   2.787   3.048   9.829 -0.4317  0.6897  0.1038
 7760SOL    HW234914   2.777   3.195   9.804  0.3099  0.2521  1.0930
 7761SOL     OW34915   3.534   2.306   2.397  0.4798  0.0725 -0.8802
 7761SOL    HW134916   3.602   2.275   2.336  0.8201 -0.3266 -0.2952
 7761SOL    HW234917   3.454   2.268   2.361  1.6021 -2.2010 -0.9775
 7762SOL     OW34918   4.589   1.199  12.219 -0.0260  0.0939  0.3234
 7762SOL    HW134919   4.649   1.272  12.236  2.2914 -1.7164 -0.0328
 7762SOL    HW234920   4.550   1.244  12.144 -1.3817 -0.0767  0.9292
 7763SOL     OW34921   0.179   2.065   8.838  0.1818 -0.1152  0.4537
 7763SOL    HW134922   0.163   2.091   8.747  0.9744 -1.1957  0.0060
 7763SOL    HW234923   0.259   2.013   8.822 -1.0321 -2.6876  2.7724
 7764SOL     OW34924   4.069   1.775   4.933 -0.0363 -0.5055 -0.0034
 7764SOL    HW134925   3.985   1.736   4.953  1.1612 -1.8359  2.4290
 7764SOL    HW234926   4.091   1.716   4.861 -1.9023 -1.4304  0.2091
 7765SOL     OW34927   2.602   1.363   8.961  0.0283 -0.3636 -0.5813
 7765SOL    HW134928   2.674   1.302   8.981  0.2269 -0.3878 -1.3541
 7765SOL    HW234929   2.584   1.344   8.868  0.2423  1.0901 -0.9238
 7766SOL     OW34930   2.822   3.989   3.283 -0.4535 -0.2669 -0.3116
 7766SOL    HW134931   2.858   4.072   3.249 -2.7393  0.3073 -1.3254
 7766SOL    HW234932   2.731   3.990   3.254 -0.8687 -0.9966  0.9923
 7767SOL     OW34933   4.031   2.965  15.615 -0.0276  0.0779 -0.7399
 7767SOL    HW134934   4.124   2.988  15.609  0.1917 -0.2866  1.2710
 7767SOL    HW234935   4.030   2.890  15.557 -0.1931 -2.7173  2.8931
 7768SOL     OW34936   2.635   3.634   8.016  0.2030  0.3938  0.1812
 7768SOL    HW134937   2.634   3.570   7.945 -0.5889  0.1568  0.4120
 7768SOL    HW234938   2.603   3.583   8.090 -3.7232 -0.2624 -1.9853
 7769SOL     OW34939   2.971   3.819   8.382  0.1489  0.3222  0.2249
 7769SOL    HW134940   2.951   3.910   8.358  0.2359  0.4175  0.5200
 7769SOL    HW234941   2.967   3.770   8.300  2.2289 -0.0791  0.3610
 7770SOL     OW34942   4.316   2.838  14.388  0.0392  0.6308  0.3921
 7770SOL    HW134943   4.270   2.868  14.467 -2.0195  0.0552 -0.5826
 7770SOL    HW234944   4.238   2.832  14.333  0.0185 -1.0914  0.5972
 7771SOL     OW34945   0.416   1.034   2.757 -0.4729 -0.0676 -0.2141
 7771SOL    HW134946   0.363   1.111   2.736  0.3410  0.4432 -0.3677
 7771SOL    HW234947   0.445   1.074   2.839 -1.4486 -0.2307  0.2113
 7772SOL     OW34948   2.543   2.597   9.078 -0.1566  0.1633  0.2569
 7772SOL    HW134949   2.584   2.682   9.090  3.5505 -1.5557 -0.2122
 7772SOL    HW234950   2.451   2.622   9.087 -0.3640 -0.4794 -0.0448
 7773SOL     OW34951   0.105   3.250   4.381 -0.0402 -0.1615 -0.1137
 7773SOL    HW134952   0.102   3.338   4.419  0.0007 -1.2218  2.3386
 7773SOL    HW234953   0.032   3.205   4.424  1.0347 -0.7729  1.0389
 7774SOL     OW34954   3.201   0.976   2.984 -0.5283  0.1116  0.1499
 7774SOL    HW134955   3.179   1.060   3.024  0.5397  2.0383 -3.3180
 7774SOL    HW234956   3.203   0.916   3.059  1.3462  0.9722  0.7812
 7775SOL     OW34957   4.399   4.092  16.643  0.0541 -0.4556  0.2993
 7775SOL    HW134958   4.387   4.028  16.712 -2.6914 -1.0881 -0.7332
 7775SOL    HW234959   4.369   4.036  16.571 -0.6421 -0.3581  0.5104
 7776SOL     OW34960   1.172   4.354  16.984 -0.0742  0.2620 -0.0275
 7776SOL    HW134961   1.147   4.267  17.013  0.1208  0.7638  1.6213
 7776SOL    HW234962   1.084   4.391  16.972  0.4875  1.3854 -0.6874
 7777SOL     OW34963   1.732   1.743   7.278 -0.7895 -0.4252  0.4183
 7777SOL    HW134964   1.679   1.812   7.318 -1.6646 -0.5995 -0.4373
 7777SOL    HW234965   1.765   1.697   7.355  0.0499 -2.5272 -1.1855
 7778SOL     OW34966   2.947   0.903   1.826 -0.1339  0.1032 -0.2829
 7778SOL    HW134967   3.032   0.925   1.864  0.1292 -0.0172 -0.7993
 7778SOL    HW234968   2.965   0.919   1.733 -0.3699 -0.1119 -0.3651
 7779SOL     OW34969   0.685   3.642   5.916  0.8454  0.1289  0.0178
 7779SOL    HW134970   0.664   3.557   5.879 -1.8199  1.0186 -0.4902
 7779SOL    HW234971   0.754   3.671   5.856  1.5531  1.1462  1.3054
 7780SOL     OW34972   0.551   2.947   8.047  0.3843  0.2714  0.0152
 7780SOL    HW134973   0.549   3.034   8.089  0.6881  1.5058 -2.5074
 7780SOL    HW234974   0.458   2.933   8.032  0.2576  2.8565 -1.7426
 7781SOL     OW34975   4.135   0.066   2.210  0.0798 -0.8065 -0.0256
 7781SOL    HW134976   4.120   0.127   2.137 -1.4659 -0.4087  0.6253
 7781SOL    HW234977   4.229   0.077   2.223 -0.5476  2.6034  1.4346
 7782SOL     OW34978   4.076   2.095  12.179  0.5021  1.1236  0.0233
 7782SOL    HW134979   4.054   2.015  12.227  0.8243  2.0453  1.6805
 7782SOL    HW234980   3.992   2.106  12.135 -0.0612 -0.2545  0.7403
 7783SOL     OW34981   3.153   0.777   7.462  0.4035  0.2402 -0.6452
 7783SOL    HW134982   3.118   0.852   7.509 -0.0809  0.1969 -0.9419
 7783SOL    HW234983   3.187   0.715   7.527  1.7514  0.6849 -0.9137
 7784SOL     OW34984   1.447   2.887  16.098  0.4405 -0.4420 -0.2287
 7784SOL    HW134985   1.497   2.863  16.019  1.7122  1.4101  0.0053
 7784SOL    HW234986   1.483   2.975  16.114 -0.2840  0.3314 -2.7178
 7785SOL     OW34987   2.625   0.549  12.084  0.1337  0.2964  0.1641
 7785SOL    HW134988   2.549   0.607  12.082 -1.6743 -1.9828  2.1317
 7785SOL    HW234989   2.689   0.589  12.143  0.6455 -2.4938  1.4841
 7786SOL     OW34990   2.314   3.630   3.022 -0.9158  0.5628  0.3762
 7786SOL    HW134991   2.301   3.621   3.116  2.5060  2.6476  1.0550
 7786SOL    HW234992   2.409   3.620   3.026 -0.5915  2.6061 -2.2307
 7787SOL     OW34993   1.316   3.827  12.943 -0.1371 -0.0133  0.6146
 7787SOL    HW134994   1.324   3.802  12.850 -0.7736  3.7215 -0.4407
 7787SOL    HW234995   1.374   3.770  12.994 -0.5903 -0.3301  0.7674
 7788SOL     OW34996   0.857   1.945   4.366  0.5548  0.0919  0.5724
 7788SOL    HW134997   0.934   1.978   4.413  2.4717 -0.1484 -2.3818
 7788SOL    HW234998   0.809   1.892   4.429  1.6251 -2.5279 -0.8196
 7789SOL     OW34999   0.022   2.825   2.810 -0.1609  0.2531  0.5584
 7789SOL    HW135000   4.714   2.893   2.757 -0.8157 -0.4789  0.1441
 7789SOL    HW235001   0.110   2.862   2.811 -0.3631  0.6584  2.3211
 7790SOL     OW35002   2.526   4.578   0.233 -0.4987  0.2350 -0.2719
 7790SOL    HW135003   2.564   4.511   0.291 -0.2267 -0.8304 -1.6933
 7790SOL    HW235004   2.493   4.523   0.162 -2.1729  1.7615 -0.6796
 7791SOL     OW35005   4.403   4.246   6.868  0.1323 -0.1905  0.0978
 7791SOL    HW135006   4.481   4.231   6.815  1.4780  0.0847  1.9822
 7791SOL    HW235007   4.358   4.311   6.814 -0.4361 -0.7977 -0.1639
 7792SOL     OW35008   1.582   2.667  15.346  0.3044 -0.1623 -0.0539
 7792SOL    HW135009   1.585   2.587  15.399  1.3765 -0.0513  0.0558
 7792SOL    HW235010   1.626   2.727  15.406  1.0746  0.6423 -1.4192
 7793SOL     OW35011   3.269   2.948   7.062  0.1023  0.4418 -0.6642
 7793SOL    HW135012   3.333   3.004   7.107 -1.1934 -0.0646  1.8145
 7793SOL    HW235013   3.319   2.869   7.046 -2.3946 -0.7822 -2.4321
 7794SOL     OW35014   0.524   3.708  10.597  0.0222  0.2171 -0.1377
 7794SOL    HW135015   0.558   3.755  10.521  1.1288 -0.4626 -0.0670
 7794SOL    HW235016   0.473   3.638  10.557  0.0175 -1.1517  2.2386
 7795SOL     OW35017   2.266   3.110   4.181  0.7631 -0.1745 -0.7742
 7795SOL    HW135018   2.273   3.015   4.183 -0.8649 -0.2908 -0.8761
 7795SOL    HW235019   2.356   3.133   4.206  0.5683 -1.8647  1.4552
 7796SOL     OW35020   2.024   3.893   1.301  0.4222  0.0961 -0.0133
 7796SOL    HW135021   1.948   3.946   1.324  1.1647  1.1411  0.0236
 7796SOL    HW235022   1.984   3.843   1.230  2.0691 -0.6118 -0.4478
 7797SOL     OW35023   0.725   3.548   0.784 -0.0269 -0.1841  0.5316
 7797SOL    HW135024   0.748   3.555   0.691  2.8103 -1.5202  1.1403
 7797SOL    HW235025   0.649   3.490   0.778  0.4446 -0.6251 -1.0729
 7798SOL     OW35026   2.331   0.806  12.240 -0.0709 -0.2557 -0.1745
 7798SOL    HW135027   2.308   0.837  12.153  0.0729 -0.6239 -0.3458
 7798SOL    HW235028   2.402   0.867  12.258  2.9146 -3.5211 -0.8146
 7799SOL     OW35029   2.721   4.604   1.173  0.1874  0.5268  0.0484
 7799SOL    HW135030   2.780   4.532   1.154 -0.7781 -0.9089  2.4935
 7799SOL    HW235031   2.679   4.568   1.251  0.0471  0.5500 -0.0164
 7800SOL     OW35032   4.173   1.538   4.806 -0.2109  0.3826  0.1885
 7800SOL    HW135033   4.149   1.459   4.758  1.3314 -0.4725  0.8290
 7800SOL    HW235034   4.187   1.501   4.893 -1.1594 -1.4739 -0.4531
 7801SOL     OW35035   2.227   1.856  16.725  0.1969  0.6174  0.0789
 7801SOL    HW135036   2.213   1.915  16.799  0.3823  2.3537 -1.2868
 7801SOL    HW235037   2.314   1.887  16.700  1.5322 -2.8531  0.4098
 7802SOL     OW35038   4.308   1.466   0.048  0.3048 -0.3478 -0.3842
 7802SOL    HW135039   4.339   1.529   0.112 -0.7484  0.5670 -0.7688
 7802SOL    HW235040   4.213   1.471   0.057  0.2049 -1.2417 -0.9368
 7803SOL     OW35041   0.344   1.546   3.335 -0.1970 -0.0560 -0.0978
 7803SOL    HW135042   0.342   1.458   3.297 -0.1420 -0.0258 -0.1700
 7803SOL    HW235043   0.378   1.592   3.258 -2.4661  1.0010 -0.4793
 7804SOL     OW35044   0.791   2.268   5.907 -0.4307 -0.2761  0.0288
 7804SOL    HW135045   0.847   2.344   5.892 -1.1552  0.1842 -0.3181
 7804SOL    HW235046   0.705   2.306   5.925 -0.5749 -0.3444 -0.5355
 7805SOL     OW35047   4.148   2.844   8.224 -0.4294  0.4423 -0.1685
 7805SOL    HW135048   4.238   2.849   8.190 -0.4952 -0.2404 -0.4276
 7805SOL    HW235049   4.085   2.835   8.153  1.3407 -0.7181 -1.5772
 7806SOL     OW35050   1.020   0.775  17.391 -0.2843  0.2041  0.1104
 7806SOL    HW135051   1.076   0.850  17.409 -2.3630  1.3873  1.7726
 7806SOL    HW235052   1.073   0.711  17.437 -1.4074 -1.4569 -0.9378
 7807SOL     OW35053   0.196   1.138   8.508 -0.1199  0.5873 -0.1867
 7807SOL    HW135054   0.230   1.228   8.509 -0.8767  0.8548  0.9019
 7807SOL    HW235055   0.203   1.117   8.415 -1.2102 -0.8940  0.0747
 7808SOL     OW35056   3.040   4.082   9.441  0.4318  0.2959 -0.6341
 7808SOL    HW135057   2.988   4.160   9.420  0.4594 -0.8336 -5.0167
 7808SOL    HW235058   3.075   4.057   9.355 -0.2279 -0.1869 -0.7606
 7809SOL     OW35059   0.784   0.467   2.346  0.1919  0.0323 -0.1883
 7809SOL    HW135060   0.732   0.530   2.396 -1.6133 -1.5102 -0.0962
 7809SOL    HW235061   0.768   0.506   2.260  1.7715  1.3775  0.1487
 7810SOL     OW35062   3.153   2.295   7.310  0.4836  0.1249 -0.6475
 7810SOL    HW135063   3.154   2.231   7.381 -5.1066  0.4120 -0.2695
 7810SOL    HW235064   3.171   2.374   7.361  2.6860 -1.8326  1.5892
 7811SOL     OW35065   1.238   4.023   4.208  0.2116 -0.0975 -1.0445
 7811SOL    HW135066   1.249   3.937   4.165  0.2467 -0.3771 -0.4727
 7811SOL    HW235067   1.162   4.065   4.167 -0.9773 -1.3343 -0.1101
 7812SOL     OW35068   1.924   2.798   8.429  0.9882  0.6568  0.0553
 7812SOL    HW135069   1.986   2.726   8.417  0.0775 -0.1305  0.1116
 7812SOL    HW235070   1.967   2.855   8.366  1.1780  2.1199  1.5086
 7813SOL     OW35071   3.473   0.225   2.935 -0.0054 -0.0045 -0.9087
 7813SOL    HW135072   3.519   0.270   2.865 -0.0315  0.1903 -0.8008
 7813SOL    HW235073   3.488   0.135   2.907  0.0725 -0.4434  0.5037
 7814SOL     OW35074   3.221   3.741   3.904  0.2782 -0.1320 -0.1354
 7814SOL    HW135075   3.163   3.697   3.841  1.5275  0.7255 -1.9008
 7814SOL    HW235076   3.176   3.708   3.981 -0.0516  0.2904 -0.1530
 7815SOL     OW35077   1.775   1.332   6.880  0.1091 -0.1844 -0.5260
 7815SOL    HW135078   1.840   1.279   6.927  1.3132  1.4271 -0.3605
 7815SOL    HW235079   1.826   1.411   6.861  2.9394 -1.6574  0.8594
 7816SOL     OW35080   3.351   2.377   5.146 -0.5764  0.2908 -0.7034
 7816SOL    HW135081   3.309   2.462   5.156  1.8581  1.3106  0.7982
 7816SOL    HW235082   3.433   2.400   5.190 -0.9702  0.6348 -0.1491
 7817SOL     OW35083   4.581   2.218   8.332  0.0972  0.1326 -0.3149
 7817SOL    HW135084   4.624   2.302   8.350 -1.6775  1.6811 -3.2400
 7817SOL    HW235085   4.651   2.155   8.316  0.6693  1.1034 -1.6904
 7818SOL     OW35086   1.264   1.311   8.496 -0.1482  0.2142 -0.2685
 7818SOL    HW135087   1.187   1.254   8.487 -0.5249  0.6155  0.4364
 7818SOL    HW235088   1.304   1.267   8.421  0.3901 -1.8586  1.2182
 7819SOL     OW35089   1.090   3.726   3.932 -0.0120 -0.2132 -0.3290
 7819SOL    HW135090   1.154   3.715   3.862  0.4580 -2.2389  0.4397
 7819SOL    HW235091   1.055   3.641   3.957  1.2927 -0.9976 -1.1919
 7820SOL     OW35092   3.739   0.329  14.147  0.3392  0.4720 -0.5330
 7820SOL    HW135093   3.691   0.367  14.220  1.8258  0.4191  0.4723
 7820SOL    HW235094   3.827   0.358  14.173  0.6560 -0.3059 -0.7189
 7821SOL     OW35095   2.289   4.294   9.185  0.2563 -0.2769 -0.4481
 7821SOL    HW135096   2.227   4.221   9.186  1.1466 -1.0284  2.4445
 7821SOL    HW235097   2.308   4.304   9.092  1.3158 -0.0658 -0.2091
 7822SOL     OW35098   4.591   4.619  14.636 -0.1464 -0.0883  0.2294
 7822SOL    HW135099   4.629   4.549  14.584  1.7712  0.5915  0.6959
 7822SOL    HW235100   4.661   4.684  14.646 -0.6289  0.6883 -1.5026
 7823SOL     OW35101   1.415   0.952   2.324  0.8120  0.0278  0.3950
 7823SOL    HW135102   1.419   0.890   2.396 -1.6156 -0.3169  0.2326
 7823SOL    HW235103   1.332   0.941   2.279  1.2768 -1.8974  0.0387
 7824SOL     OW35104   0.321   2.690   2.913 -0.2358 -0.9264 -0.3687
 7824SOL    HW135105   0.361   2.734   2.838 -2.3541  1.4999 -0.0537
 7824SOL    HW235106   0.229   2.681   2.889 -0.3716 -1.1005  0.2274
 7825SOL     OW35107   4.701   0.831   3.045  0.4183 -0.0326  0.0739
 7825SOL    HW135108   4.711   0.738   3.022 -0.5597 -0.1238  0.0250
 7825SOL    HW235109   4.724   0.829   3.138  0.2559  1.1846  0.1343
 7826SOL     OW35110   1.442   4.682   7.119 -0.2799 -0.0731 -0.0774
 7826SOL    HW135111   1.531   4.663   7.148 -0.0261  0.9422 -0.1759
 7826SOL    HW235112   1.390   4.703   7.197 -1.5173  0.5651 -1.0802
 7827SOL     OW35113   0.671   0.528   1.529  0.3166  1.1830  0.4574
 7827SOL    HW135114   0.719   0.450   1.556 -1.8012 -0.8233 -1.5103
 7827SOL    HW235115   0.658   0.505   1.437 -2.0222  0.7011  0.9112
 7828SOL     OW35116   1.830   3.428  16.119 -0.3166 -0.0890  0.1635
 7828SOL    HW135117   1.900   3.444  16.055 -0.4683  0.7226  0.1936
 7828SOL    HW235118   1.876   3.411  16.201  1.8109 -0.2213 -1.0330
 7829SOL     OW35119   0.818   4.551   8.087 -0.1604  0.2163  0.1888
 7829SOL    HW135120   0.858   4.492   8.023  1.2236  1.9425 -0.5249
 7829SOL    HW235121   0.742   4.581   8.037 -0.8929 -0.7053  0.7608
 7830SOL     OW35122   1.551   4.179   6.994 -0.1258 -0.3170 -0.2037
 7830SOL    HW135123   1.477   4.146   7.045  1.2956  0.6585  2.5375
 7830SOL    HW235124   1.629   4.143   7.037  0.3374  2.2012  1.0726
 7831SOL     OW35125   2.355   2.691   2.100 -0.2360  0.1981  0.4374
 7831SOL    HW135126   2.338   2.630   2.171 -2.2001 -0.7787 -0.8569
 7831SOL    HW235127   2.426   2.644   2.056  1.0970  1.6557  1.0284
 7832SOL     OW35128   2.169   3.507  16.932 -0.1566  0.7056 -0.0358
 7832SOL    HW135129   2.118   3.538  16.856  0.8685  1.8631 -0.2623
 7832SOL    HW235130   2.174   3.412  16.919 -3.2659  0.4473  0.6468
 7833SOL     OW35131   0.299   3.104   5.081  0.6515  0.0555 -0.0614
 7833SOL    HW135132   0.330   3.015   5.062 -1.1537 -0.5793 -0.0116
 7833SOL    HW235133   0.210   3.096   5.047 -0.0398  0.9597  1.5337
 7834SOL     OW35134   1.193   2.527   3.635  0.1267 -0.0891  0.5623
 7834SOL    HW135135   1.240   2.504   3.715 -0.2237  0.3624  0.9035
 7834SOL    HW235136   1.261   2.570   3.584  1.1793  0.4165  2.3935
 7835SOL     OW35137   4.243   0.152   4.199 -0.0456 -0.4910  0.0659
 7835SOL    HW135138   4.255   0.078   4.258  1.0155 -0.7194 -0.4278
 7835SOL    HW235139   4.151   0.136   4.177 -0.6965  0.6141  1.9880
 7836SOL     OW35140   0.392   3.808   1.610 -0.2755  0.0607  0.5559
 7836SOL    HW135141   0.483   3.834   1.597  0.2463 -0.6029  2.9244
 7836SOL    HW235142   0.347   3.893   1.611  1.3664  0.9824 -2.5608
 7837SOL     OW35143   4.377   2.058   4.325 -0.1739  0.1165  0.2727
 7837SOL    HW135144   4.413   2.095   4.245  0.8306  0.5354  0.9071
 7837SOL    HW235145   4.385   1.964   4.310  3.0746  0.8098 -2.3344
 7838SOL     OW35146   2.940   2.683  12.053  0.1859  0.5141  0.0104
 7838SOL    HW135147   3.032   2.708  12.061 -0.3550  2.0018  1.4141
 7838SOL    HW235148   2.940   2.624  11.978  0.1897 -1.2227  1.3610
 7839SOL     OW35149   0.282   2.790   6.031  0.0448  0.2437  0.1555
 7839SOL    HW135150   0.373   2.797   6.002  0.1669 -1.7796  0.0461
 7839SOL    HW235151   0.245   2.848   5.964  0.6222 -0.5024 -0.8221
 7840SOL     OW35152   2.423   3.036   0.729 -0.3521 -0.2434  0.2069
 7840SOL    HW135153   2.427   2.973   0.801 -0.4272  1.5340  1.7770
 7840SOL    HW235154   2.493   3.096   0.755  1.2891 -0.9718 -2.5997
 7841SOL     OW35155   3.977   3.067   4.538 -0.3873 -0.9769  0.1614
 7841SOL    HW135156   4.022   3.077   4.622  1.7470  1.1130 -1.1987
 7841SOL    HW235157   4.043   3.108   4.482 -1.0491 -0.2622 -0.0799
 7842SOL     OW35158   4.591   4.036   7.527 -0.0798  0.0097 -0.1945
 7842SOL    HW135159   4.555   4.100   7.467  1.2086  0.1993 -0.7623
 7842SOL    HW235160   4.516   4.031   7.587 -0.2184  0.2734 -0.3467
 7843SOL     OW35161   2.580   3.153   8.917 -0.4122  0.3201  0.1789
 7843SOL    HW135162   2.522   3.210   8.968 -0.9903 -1.3098  1.3241
 7843SOL    HW235163   2.666   3.175   8.953 -1.4883 -1.2797  3.6250
 7844SOL     OW35164   3.419   2.506   7.524 -0.2998 -0.3513  0.3224
 7844SOL    HW135165   3.428   2.599   7.547 -0.4366 -0.5201  1.0584
 7844SOL    HW235166   3.329   2.507   7.492 -1.0406 -0.6534  2.3738
 7845SOL     OW35167   2.075   4.490   7.299  0.0939  0.2288 -0.0465
 7845SOL    HW135168   2.138   4.528   7.361  0.2911  0.7959 -0.5975
 7845SOL    HW235169   2.051   4.569   7.252  3.3268  0.2312 -1.7196
 7846SOL     OW35170   4.023   3.880   6.580 -0.1849 -0.3095 -0.0943
 7846SOL    HW135171   4.117   3.862   6.586  0.1181  1.1624 -0.4096
 7846SOL    HW235172   3.998   3.807   6.637 -0.9506 -2.6688 -3.5217
 7847SOL     OW35173   2.939   2.039   2.629  0.0195  0.6041  0.8208
 7847SOL    HW135174   2.909   2.060   2.540 -0.1092 -1.4948  0.3697
 7847SOL    HW235175   2.876   1.971   2.652  0.2572 -0.5628 -1.9197
 7848SOL     OW35176   4.639   4.068  10.151 -0.1805 -0.4149  0.0584
 7848SOL    HW135177   4.560   4.090  10.201 -2.0564  0.5193 -3.2799
 7848SOL    HW235178   4.701   4.047  10.221  0.7006 -1.5062 -1.0445
 7849SOL     OW35179   0.435   4.349   6.073 -0.0790  0.0392  0.1532
 7849SOL    HW135180   0.373   4.375   6.141  0.1680 -1.0110  0.7831
 7849SOL    HW235181   0.521   4.368   6.110 -0.5611 -0.0098  1.2776
 7850SOL     OW35182   1.465   4.215   5.385  0.9682 -0.6352 -0.6098
 7850SOL    HW135183   1.514   4.172   5.314 -0.0245 -0.1115 -1.6092
 7850SOL    HW235184   1.522   4.189   5.458 -0.1155 -1.1026  0.0581
 7851SOL     OW35185   2.402   1.471   3.955  0.5330 -0.2250 -0.2489
 7851SOL    HW135186   2.425   1.433   4.040 -0.0933 -0.9991 -0.4244
 7851SOL    HW235187   2.365   1.395   3.910  0.9715 -0.7047  0.1973
 7852SOL     OW35188   2.305   4.421  11.600 -0.2787 -0.1212  0.4211
 7852SOL    HW135189   2.332   4.504  11.638  1.0806 -0.8347  1.0045
 7852SOL    HW235190   2.279   4.444  11.510  1.6916  2.0963  0.4573
 7853SOL     OW35191   2.200   2.049  12.615 -0.5519 -0.3320  0.0451
 7853SOL    HW135192   2.132   2.089  12.561  1.6725  1.6480 -1.3213
 7853SOL    HW235193   2.275   2.092  12.573  0.6235 -0.2030  2.2937
 7854SOL     OW35194   2.929   2.152   1.169  0.1824 -0.6328  0.2824
 7854SOL    HW135195   2.940   2.078   1.110 -1.3471  1.2992 -2.4818
 7854SOL    HW235196   3.004   2.130   1.223  0.8991  0.4979 -0.2493
 7855SOL     OW35197   0.279   0.058  10.537 -0.0126 -0.0911  0.6233
 7855SOL    HW135198   0.321   0.011  10.465  1.4792  2.5353 -0.2188
 7855SOL    HW235199   0.339   0.130  10.556  1.3730 -0.1317 -3.6856
 7856SOL     OW35200   1.363   4.680  13.659  0.0780  0.1910 -0.1788
 7856SOL    HW135201   1.385   0.034  13.631 -0.5418  1.0536  2.0683
 7856SOL    HW235202   1.403   4.696  13.745  1.9229  1.7115 -1.3350
 7857SOL     OW35203   0.242   2.970   4.004 -0.4794 -0.4809 -0.0452
 7857SOL    HW135204   0.173   2.993   3.942 -2.0195  2.1080  2.5907
 7857SOL    HW235205   0.196   2.921   4.073  2.2456 -0.0929  2.0312
 7858SOL     OW35206   2.948   3.678   2.344 -0.1150 -0.5243 -0.3280
 7858SOL    HW135207   2.872   3.736   2.331  1.2276  1.2790 -0.0487
 7858SOL    HW235208   2.943   3.639   2.257 -2.4993 -0.4370 -0.2284
 7859SOL     OW35209   2.993   0.202   3.947  0.2138 -0.0293 -0.1735
 7859SOL    HW135210   2.897   0.195   3.943 -0.0302  1.4253  3.4620
 7859SOL    HW235211   3.007   0.261   3.873  2.2861 -1.1169 -0.6367
 7860SOL     OW35212   2.948   2.572   6.858  0.3532 -0.1516  0.0845
 7860SOL    HW135213   2.878   2.597   6.918 -0.3885  0.4547 -1.0227
 7860SOL    HW235214   3.016   2.638   6.870  1.0843 -0.5320 -1.9431
 7861SOL     OW35215   0.151   3.345   1.675  0.1932 -0.4222 -0.4420
 7861SOL    HW135216   0.223   3.407   1.684  1.6349 -2.1461  0.0051
 7861SOL    HW235217   0.200   3.273   1.635  4.2175  0.8059  2.2832
 7862SOL     OW35218   3.775   2.996   3.911 -0.5518  0.2626  0.3188
 7862SOL    HW135219   3.780   2.902   3.891 -0.4294  0.6254 -1.3068
 7862SOL    HW235220   3.687   3.009   3.947 -1.0081  0.0627 -0.7375
 7863SOL     OW35221   2.800   1.738   3.876  0.2173 -0.3882  0.3188
 7863SOL    HW135222   2.732   1.697   3.822  2.6039 -2.5120 -1.0770
 7863SOL    HW235223   2.790   1.831   3.854  1.4824 -0.1562  0.7208
 7864SOL     OW35224   3.982   2.138   6.396  0.6488  0.1957 -0.3866
 7864SOL    HW135225   3.887   2.145   6.411  0.5949  0.9183 -1.0484
 7864SOL    HW235226   3.992   2.050   6.359 -0.9567  1.4714 -3.8561
 7865SOL     OW35227   1.923   3.222   5.709  0.3019 -0.4248  0.0551
 7865SOL    HW135228   1.851   3.238   5.771  2.5075  0.9596  2.2238
 7865SOL    HW235229   1.862   3.215   5.635  0.7303 -0.5248 -0.2899
 7866SOL     OW35230   1.483   3.780  14.774 -0.9634 -0.4131 -0.0499
 7866SOL    HW135231   1.389   3.795  14.759 -0.7455 -0.0638 -1.0176
 7866SOL    HW235232   1.492   3.767  14.869  2.3121  0.4834 -0.2359
 7867SOL     OW35233   3.720   3.468  10.654  0.0344 -0.4983  0.3180
 7867SOL    HW135234   3.751   3.485  10.743  0.6511  0.5427 -0.1043
 7867SOL    HW235235   3.799   3.474  10.602  1.1293 -1.4026  1.8599
 7868SOL     OW35236   3.752   2.262  12.219 -0.0744  0.7470 -0.9796
 7868SOL    HW135237   3.676   2.205  12.233  2.0394 -1.1813  2.5818
 7868SOL    HW235238   3.803   2.233  12.143  1.0141  0.6978 -0.2302
 7869SOL     OW35239   0.962   1.814  15.805  0.1638 -0.1126  0.4236
 7869SOL    HW135240   0.960   1.763  15.724 -0.0981  1.1485 -0.3669
 7869SOL    HW235241   1.043   1.862  15.792 -0.7949  0.8837 -1.9438
 7870SOL     OW35242   0.566   2.732  15.875  0.0652 -0.7185  0.2987
 7870SOL    HW135243   0.570   2.806  15.936 -0.9882 -0.1141 -0.3440
 7870SOL    HW235244   0.623   2.671  15.920 -0.0253 -0.6699  0.4786
 7871SOL     OW35245   2.139   0.297   7.501  0.5648  0.0780 -0.0293
 7871SOL    HW135246   2.213   0.244   7.472  2.5651  3.0690 -0.2838
 7871SOL    HW235247   2.170   0.301   7.591 -0.1262 -0.9760  0.2608
 7872SOL     OW35248   1.409   0.800   8.768  0.2800 -0.0095 -0.2181
 7872SOL    HW135249   1.409   0.704   8.770  0.2034  0.0069  1.1167
 7872SOL    HW235250   1.331   0.816   8.821 -0.0126 -0.9277 -0.3694
 7873SOL     OW35251   1.948   2.565   3.061 -0.2990  0.1366 -0.6138
 7873SOL    HW135252   1.920   2.654   3.086  2.3211  0.7763  0.0022
 7873SOL    HW235253   1.967   2.529   3.148  1.7855  1.1984 -0.6237
 7874SOL     OW35254   1.812   1.091   8.835  0.5638 -0.1107  0.1182
 7874SOL    HW135255   1.846   1.003   8.852 -0.1157 -0.3602  0.1667
 7874SOL    HW235256   1.802   1.119   8.926 -1.1690 -1.3188  0.2884
 7875SOL     OW35257   0.699   2.838  10.476 -0.1415 -0.7360  0.6236
 7875SOL    HW135258   0.607   2.822  10.497 -0.0550 -1.4189  0.4737
 7875SOL    HW235259   0.749   2.785  10.538  2.4894 -2.4600 -2.9237
 7876SOL     OW35260   4.538   1.431  11.352 -0.0822 -0.1369 -0.6027
 7876SOL    HW135261   4.531   1.512  11.403 -1.0109 -1.4115  1.3093
 7876SOL    HW235262   4.618   1.465  11.312 -0.1856 -2.0918 -2.4759
 7877SOL     OW35263   2.926   1.535   3.303 -0.0465 -0.3405 -0.1394
 7877SOL    HW135264   2.924   1.586   3.222 -1.4266  0.0047  0.1247
 7877SOL    HW235265   2.975   1.597   3.357 -0.7347  0.8660 -0.8994
 7878SOL     OW35266   2.972   2.724   6.387  0.2088  0.4571  0.5199
 7878SOL    HW135267   2.923   2.739   6.468 -1.7913  0.2117 -0.6407
 7878SOL    HW235268   3.063   2.713   6.415 -0.3549 -0.6476  1.8705
 7879SOL     OW35269   3.586   3.228   9.575 -0.3428 -0.0880 -0.6372
 7879SOL    HW135270   3.515   3.170   9.603 -1.8050  1.5753 -0.9257
 7879SOL    HW235271   3.572   3.302   9.634 -0.5095 -0.6098 -0.0238
 7880SOL     OW35272   1.780   0.197   6.989 -0.2228  0.1098  0.7074
 7880SOL    HW135273   1.689   0.203   7.018  0.0943  1.0248  1.5129
 7880SOL    HW235274   1.827   0.262   7.042  0.6665 -0.5444  0.7085
 7881SOL     OW35275   0.448   4.504   2.897 -0.2387  0.6378  0.6546
 7881SOL    HW135276   0.398   4.554   2.961 -2.2958 -0.3962 -0.1136
 7881SOL    HW235277   0.533   4.547   2.894 -0.1112  0.3753  0.4843
 7882SOL     OW35278   0.840   4.333  17.143 -0.2345  0.5307 -0.2495
 7882SOL    HW135279   0.831   4.378  17.059 -3.5379  1.0727  0.4202
 7882SOL    HW235280   0.749   4.310  17.163 -0.0334  2.0361  2.3548
 7883SOL     OW35281   2.567   2.788   3.071  0.2851  0.4810  0.0193
 7883SOL    HW135282   2.613   2.853   3.017 -0.5851  0.7894 -0.3579
 7883SOL    HW235283   2.475   2.815   3.077  0.6316  1.1847  2.0676
 7884SOL     OW35284   3.533   4.491  14.631  0.5655  0.2882  0.6496
 7884SOL    HW135285   3.451   4.442  14.639 -0.7817  2.3044 -0.7736
 7884SOL    HW235286   3.515   4.538  14.549 -0.6034 -1.4487 -0.1002
 7885SOL     OW35287   0.991   0.849   3.840 -0.4449 -0.1755 -0.4872
 7885SOL    HW135288   1.044   0.916   3.797 -0.9583  0.4253 -0.1922
 7885SOL    HW235289   1.006   0.779   3.777 -0.3174 -2.2195  1.8392
 7886SOL     OW35290   1.562   4.036  11.865 -0.0014 -0.1298  0.4972
 7886SOL    HW135291   1.627   3.986  11.816  2.5285  3.7756 -0.1691
 7886SOL    HW235292   1.591   4.127  11.856 -1.5093  0.2916 -0.2260
 7887SOL     OW35293   1.830   4.104   6.144 -0.5115  0.0034 -0.2542
 7887SOL    HW135294   1.925   4.103   6.139 -0.4409 -0.8177  1.3120
 7887SOL    HW235295   1.812   4.010   6.142 -1.9321  0.2387  0.9380
 7888SOL     OW35296   2.865   1.461   5.409  0.1484  0.2702  0.0417
 7888SOL    HW135297   2.806   1.513   5.463 -2.0476 -2.3209  0.1733
 7888SOL    HW235298   2.816   1.454   5.327  2.2785  0.5696 -1.2513
 7889SOL     OW35299   0.252   3.555   7.937 -0.1138 -0.6537  0.0863
 7889SOL    HW135300   0.220   3.474   7.977 -2.4774 -0.0720 -0.6756
 7889SOL    HW235301   0.207   3.621   7.990 -0.5423 -1.2995  0.5285
 7890SOL     OW35302   3.216   2.234  13.727 -0.1794  0.1715  0.0094
 7890SOL    HW135303   3.171   2.161  13.684 -1.2668  0.9791 -0.2287
 7890SOL    HW235304   3.306   2.208  13.706 -0.6065 -0.6112 -0.9037
 7891SOL     OW35305   2.776   4.634  13.057  0.5678  0.1872  0.5312
 7891SOL    HW135306   2.737   4.549  13.039  0.4252  0.6498 -1.3896
 7891SOL    HW235307   2.845   4.615  13.120  1.3255  1.1649 -0.0025
 7892SOL     OW35308   1.351   3.332  17.521  0.4781 -0.1895  0.0951
 7892SOL    HW135309   1.408   3.375  17.585 -1.7778  2.4785  0.3336
 7892SOL    HW235310   1.359   3.387  17.442  1.2389  1.9304  1.6544
 7893SOL     OW35311   0.289   3.256   6.996  0.1047 -0.0608  0.8045
 7893SOL    HW135312   0.332   3.170   6.995  0.0872 -0.0611  0.0651
 7893SOL    HW235313   0.201   3.226   6.971  0.4005 -0.6173  0.4365
 7894SOL     OW35314   4.042   3.700   3.721  0.0877 -0.4174 -0.2008
 7894SOL    HW135315   3.971   3.723   3.661 -1.2268 -1.0449  1.1023
 7894SOL    HW235316   3.992   3.633   3.769 -1.4278  1.5126  0.9049
 7895SOL     OW35317   3.496   0.122   5.128 -0.0109  0.1989  0.5668
 7895SOL    HW135318   3.586   0.137   5.098  0.8881 -3.9977  1.1827
 7895SOL    HW235319   3.451   0.184   5.071 -0.7732 -0.7199  0.1878
 7896SOL     OW35320   1.244   2.057   8.084 -0.2531  0.0810  0.0707
 7896SOL    HW135321   1.172   2.050   8.147  0.4166  1.0798  0.9163
 7896SOL    HW235322   1.297   1.981   8.107  0.8623  1.3793  1.7014
 7897SOL     OW35323   2.321   0.024  14.620  0.2695 -0.1607  0.1100
 7897SOL    HW135324   2.415   0.044  14.626 -0.5626  2.5963  3.8920
 7897SOL    HW235325   2.284   0.107  14.589 -2.1402 -1.5334 -0.6225
 7898SOL     OW35326   2.172   4.313  11.333 -0.3436 -0.1807  0.0090
 7898SOL    HW135327   2.125   4.263  11.267 -2.8446 -0.2437  1.8739
 7898SOL    HW235328   2.234   4.250  11.371 -2.9409 -2.3886  0.5253
 7899SOL     OW35329   2.320   0.917   4.999  0.3188  0.4122  0.2878
 7899SOL    HW135330   2.245   0.863   5.024  1.6009 -1.3430  0.3985
 7899SOL    HW235331   2.378   0.910   5.075 -0.0350  0.1398  0.5332
 7900SOL     OW35332   1.674   2.475  13.209  0.1325 -0.5606 -0.0472
 7900SOL    HW135333   1.602   2.514  13.160  0.5971 -0.9080 -1.0038
 7900SOL    HW235334   1.655   2.383  13.190  1.9079 -1.5913  3.1347
 7901SOL     OW35335   1.877   3.728   1.138 -0.2866  0.4443 -0.2828
 7901SOL    HW135336   1.806   3.710   1.200 -0.5168 -0.1043 -0.7052
 7901SOL    HW235337   1.920   3.644   1.120  1.0035  0.6577  1.6990
 7902SOL     OW35338   4.264   3.659  13.335 -0.5993 -0.3975  0.0373
 7902SOL    HW135339   4.270   3.612  13.418  0.6849 -0.3542 -0.0336
 7902SOL    HW235340   4.209   3.730  13.369 -0.5326 -0.6173  0.6000
 7903SOL     OW35341   3.420   4.276   0.609  0.1138  0.2362 -0.4301
 7903SOL    HW135342   3.408   4.323   0.692  0.0574  0.4760 -0.5720
 7903SOL    HW235343   3.329   4.259   0.587 -0.6973  0.4844  2.7765
 7904SOL     OW35344   0.842   4.672   3.349  0.5001 -0.5647 -0.6139
 7904SOL    HW135345   0.908   4.624   3.400  0.6946  0.3146 -0.0330
 7904SOL    HW235346   0.874   0.027   3.367  0.5679 -0.9083  0.9521
 7905SOL     OW35347   3.225   3.358   2.682 -0.2419  0.4377 -0.5412
 7905SOL    HW135348   3.281   3.293   2.638  2.0835  1.7909  0.3971
 7905SOL    HW235349   3.263   3.435   2.641 -0.1911  1.4724  1.4826
 7906SOL     OW35350   2.431   4.060   5.313 -0.1655  1.0410  0.0090
 7906SOL    HW135351   2.432   4.131   5.377 -1.2057 -0.0397  1.2351
 7906SOL    HW235352   2.521   4.073   5.284 -0.3257 -0.3351 -1.1186
 7907SOL     OW35353   3.399   0.795   6.057 -0.4161 -0.1141 -0.3000
 7907SOL    HW135354   3.339   0.810   6.130  0.4623  0.5231  0.2794
 7907SOL    HW235355   3.361   0.712   6.027  0.6297 -0.4674 -0.6679
 7908SOL     OW35356   0.148   0.402  15.485 -0.4848 -0.2387 -0.1041
 7908SOL    HW135357   0.126   0.485  15.527 -0.8606 -1.5856  2.3564
 7908SOL    HW235358   0.075   0.383  15.425 -2.5294 -0.7620  2.5401
 7909SOL     OW35359   1.251   3.839   6.645  0.0338 -0.0283  0.0008
 7909SOL    HW135360   1.246   3.934   6.635 -3.0766 -0.0999  1.1606
 7909SOL    HW235361   1.259   3.821   6.551 -0.5593  1.1814 -0.2801
 7910SOL     OW35362   2.894   2.943   1.443 -0.0469 -0.0169 -0.3611
 7910SOL    HW135363   2.853   2.858   1.460  1.8755 -0.7217  0.8395
 7910SOL    HW235364   2.887   2.994   1.524 -1.1875  1.2327 -1.2510
 7911SOL     OW35365   2.232   1.364   7.604  0.2173 -0.2014 -0.2351
 7911SOL    HW135366   2.164   1.378   7.539 -0.9102  0.2261  1.0347
 7911SOL    HW235367   2.317   1.358   7.560 -0.2668  3.8875 -1.6440
 7912SOL     OW35368   4.210   2.345   3.207 -0.0241 -0.1028  0.6946
 7912SOL    HW135369   4.256   2.263   3.189 -0.2826  0.0418 -0.6445
 7912SOL    HW235370   4.122   2.311   3.223 -0.7060  0.9694 -0.8457
 7913SOL     OW35371   2.717   1.452   9.265  0.1101  0.1019  0.1493
 7913SOL    HW135372   2.719   1.458   9.361 -3.9312  0.7037  0.1933
 7913SOL    HW235373   2.670   1.369   9.261 -2.4173  1.6221 -1.4791
 7914SOL     OW35374   1.139   1.554   4.375 -0.3608  0.3727 -0.2775
 7914SOL    HW135375   1.121   1.580   4.465 -2.5955 -0.4420 -0.4898
 7914SOL    HW235376   1.202   1.484   4.393  0.4281  0.8729 -1.1089
 7915SOL     OW35377   3.704   4.669   7.473  0.3010  0.0547 -0.6036
 7915SOL    HW135378   3.738   4.580   7.482  0.2584  0.1120  0.0954
 7915SOL    HW235379   3.784   4.717   7.494 -0.5430  1.5834 -0.8645
 7916SOL     OW35380   2.261   1.251   2.873  0.4006  0.0444 -0.1530
 7916SOL    HW135381   2.275   1.324   2.812 -0.7741  1.0230  0.7444
 7916SOL    HW235382   2.241   1.187   2.805  2.6411 -0.6163 -0.1880
 7917SOL     OW35383   3.205   2.881  11.420  0.0782 -0.4961  0.2994
 7917SOL    HW135384   3.282   2.929  11.389 -0.9925  1.9101  1.3526
 7917SOL    HW235385   3.134   2.927  11.375  1.3065  0.5495 -0.5796
 7918SOL     OW35386   3.873   2.178   7.150 -0.0023  0.1579  0.0700
 7918SOL    HW135387   3.968   2.176   7.136  0.1559 -0.0855  1.1760
 7918SOL    HW235388   3.846   2.242   7.083 -2.0124 -1.7577 -0.9577
 7919SOL     OW35389   3.766   3.459   2.193 -0.5121  0.4678 -0.3067
 7919SOL    HW135390   3.736   3.511   2.118 -0.8944  0.2894 -0.2763
 7919SOL    HW235391   3.751   3.517   2.267  1.2330 -1.1338  1.2820
 7920SOL     OW35392   2.078   4.011   6.197 -0.4462 -0.2532 -0.2804
 7920SOL    HW135393   2.144   4.058   6.147 -0.3347  0.0347  0.1432
 7920SOL    HW235394   2.072   3.938   6.134  1.2026  0.4533 -1.2415
 7921SOL     OW35395   2.445   3.444  16.040 -0.0618 -0.0402 -0.2008
 7921SOL    HW135396   2.442   3.354  16.008 -1.6963 -0.7962  2.0512
 7921SOL    HW235397   2.471   3.499  15.966  1.6772 -1.4611 -0.6706
 7922SOL     OW35398   3.241   0.985   4.578  0.5624  0.1290 -0.1490
 7922SOL    HW135399   3.270   1.040   4.505  2.1534 -0.6817 -0.1414
 7922SOL    HW235400   3.253   0.894   4.549 -1.2470 -0.1239 -0.0871
 7923SOL     OW35401   0.295   1.858   6.868  0.2024 -0.4117 -0.3909
 7923SOL    HW135402   0.236   1.930   6.849 -0.3090 -1.2173 -1.9184
 7923SOL    HW235403   0.307   1.815   6.783  0.5274  0.2493 -0.6761
 7924SOL     OW35404   1.109   3.445   4.273  0.9784 -0.3873  0.9751
 7924SOL    HW135405   1.044   3.508   4.242  0.5370 -0.0504  2.6276
 7924SOL    HW235406   1.165   3.510   4.315  0.6152  0.1203  0.6800
 7925SOL     OW35407   2.990   3.702  10.831 -0.3289  0.2652 -0.5703
 7925SOL    HW135408   2.996   3.611  10.861  1.1827  0.1001 -1.3731
 7925SOL    HW235409   2.946   3.683  10.748 -0.1506 -0.6048 -0.4626
 7926SOL     OW35410   0.873   4.668   9.043  0.1215  0.1285 -0.5219
 7926SOL    HW135411   0.827   0.011   9.076  0.7549 -0.9008  2.7729
 7926SOL    HW235412   0.894   4.632   9.129 -0.2339  0.4054 -0.3166
 7927SOL     OW35413   3.166   3.528  16.363 -0.5605  0.3855 -0.1844
 7927SOL    HW135414   3.184   3.444  16.321 -0.8791 -0.0823  0.5950
 7927SOL    HW235415   3.153   3.584  16.287 -0.2848  0.0447 -0.4786
 7928SOL     OW35416   4.122   4.144  10.747 -0.1399 -0.2661 -0.2529
 7928SOL    HW135417   4.201   4.197  10.759 -0.6186  1.1200 -3.3835
 7928SOL    HW235418   4.082   4.156  10.833  0.7801 -0.8070  0.2583
 7929SOL     OW35419   4.239   1.562   3.204 -0.2253 -0.1352  0.3821
 7929SOL    HW135420   4.303   1.539   3.137 -1.9726  1.5008 -1.8586
 7929SOL    HW235421   4.217   1.481   3.249 -0.7715 -0.7358 -0.9500
 7930SOL     OW35422   2.327   3.428   4.910 -0.0993  0.0720 -0.0591
 7930SOL    HW135423   2.268   3.353   4.900  0.2056 -0.1596 -0.0818
 7930SOL    HW235424   2.259   3.494   4.926 -1.2414 -0.4218 -2.9644
 7931SOL     OW35425   2.962   2.389   6.673  0.1972  0.0231  0.1095
 7931SOL    HW135426   2.888   2.396   6.613  0.0925 -0.6516  0.1589
 7931SOL    HW235427   2.941   2.467   6.725  0.0033  0.0596 -0.0229
 7932SOL     OW35428   4.330   3.051   6.082  0.6007 -0.4725  0.5755
 7932SOL    HW135429   4.339   3.027   5.990  3.0712  0.9010  0.4565
 7932SOL    HW235430   4.375   3.135   6.081 -0.1002 -0.0995  0.0627
 7933SOL     OW35431   3.055   1.704   1.954 -0.0143 -0.4956 -0.2670
 7933SOL    HW135432   3.081   1.754   1.877 -1.1573 -0.9199 -0.9269
 7933SOL    HW235433   3.135   1.658   1.979 -0.6210 -2.7049 -2.4544
 7934SOL     OW35434   2.007   3.415   7.512  0.1562  0.0116  0.1172
 7934SOL    HW135435   1.935   3.467   7.476  0.5686  0.5097 -0.0054
 7934SOL    HW235436   1.970   3.407   7.599  1.9668 -3.1907  0.5823
 7935SOL     OW35437   2.763   2.039   3.184 -0.1643  0.5804  0.4225
 7935SOL    HW135438   2.753   2.109   3.249  1.1442  0.6677  0.5222
 7935SOL    HW235439   2.688   2.056   3.126 -0.3556  1.5924  0.9746
 7936SOL     OW35440   0.886   3.751   7.232 -0.5021  0.4614  0.7718
 7936SOL    HW135441   0.816   3.816   7.234  0.1537  1.3271 -3.6573
 7936SOL    HW235442   0.859   3.693   7.304 -0.7269 -0.8600 -0.3631
 7937SOL     OW35443   0.467   2.900   7.705  0.2310  0.0375 -0.4462
 7937SOL    HW135444   0.417   2.870   7.628 -1.5212  1.1816  0.2597
 7937SOL    HW235445   0.402   2.960   7.741 -0.1352  0.8520 -2.4525
 7938SOL     OW35446   3.753   2.315   2.180  0.1110  0.6101 -0.0918
 7938SOL    HW135447   3.802   2.366   2.245  0.6943  0.4467 -0.4106
 7938SOL    HW235448   3.832   2.298   2.129 -0.5760 -2.1768 -0.2323
 7939SOL     OW35449   2.885   1.804   4.748 -0.0381  0.4491  0.0598
 7939SOL    HW135450   2.880   1.795   4.653  0.4963 -2.5685  0.3083
 7939SOL    HW235451   2.804   1.762   4.776  0.0869  0.7113  0.8194
 7940SOL     OW35452   4.549   3.628  17.154  0.5295 -0.7134 -0.0065
 7940SOL    HW135453   4.567   3.650  17.245 -2.0712  1.5308 -0.0335
 7940SOL    HW235454   4.519   3.713  17.121  1.2439 -0.9081 -1.1672
 7941SOL     OW35455   1.038   3.375   7.248 -0.5716 -0.3879 -0.3712
 7941SOL    HW135456   1.092   3.440   7.293 -1.0321  0.2777 -0.7885
 7941SOL    HW235457   0.974   3.425   7.198  0.5919  1.1028 -0.3760
 7942SOL     OW35458   4.352   4.520   3.631 -0.1899  0.2941  0.0909
 7942SOL    HW135459   4.340   4.614   3.617  0.8505  0.5112  0.5770
 7942SOL    HW235460   4.262   4.496   3.654 -0.3851  0.0436 -0.9699
 7943SOL     OW35461   0.428   2.324   4.983 -0.2002 -0.2428  0.3491
 7943SOL    HW135462   0.522   2.311   4.975  0.1783  2.3906  0.5837
 7943SOL    HW235463   0.397   2.378   4.910 -1.0057  3.1272  3.1675
 7944SOL     OW35464   1.912   4.157  12.245  0.1006  0.3665  0.3104
 7944SOL    HW135465   1.825   4.119  12.255  1.2207 -2.2994 -0.1364
 7944SOL    HW235466   1.911   4.251  12.264  1.0363  0.7699 -1.5720
 7945SOL     OW35467   0.855   2.754   9.492  0.0311  0.6873 -0.2079
 7945SOL    HW135468   0.765   2.785   9.498  0.9235  3.4041 -0.8547
 7945SOL    HW235469   0.896   2.761   9.578  0.4142 -1.6904 -0.1805
 7946SOL     OW35470   2.145   0.215   2.116 -0.9086 -0.3532 -0.5195
 7946SOL    HW135471   2.238   0.219   2.093 -0.5388 -3.0917  0.4838
 7946SOL    HW235472   2.135   0.228   2.210 -2.4744 -1.5998 -0.5134
 7947SOL     OW35473   3.330   0.185   4.476  0.2860  0.3485  0.3543
 7947SOL    HW135474   3.328   0.152   4.566  0.1526 -0.9181 -0.1189
 7947SOL    HW235475   3.424   0.191   4.459  0.1216  0.3035 -0.5414
 7948SOL     OW35476   2.330   3.740   9.547  0.2162  0.1119 -0.1165
 7948SOL    HW135477   2.311   3.834   9.547  2.2732  0.5109  0.9259
 7948SOL    HW235478   2.315   3.713   9.456 -1.0995 -2.8199  0.9762
 7949SOL     OW35479   2.996   3.772   4.381  0.3229 -0.4536 -0.4527
 7949SOL    HW135480   2.970   3.796   4.470 -0.0155 -0.8657 -0.4434
 7949SOL    HW235481   2.939   3.830   4.330 -0.7326 -0.4164  0.7619
 7950SOL     OW35482   4.530   4.286  16.781 -0.7087  0.0626  0.1018
 7950SOL    HW135483   4.493   4.366  16.744 -1.2885 -0.8267 -1.2374
 7950SOL    HW235484   4.500   4.220  16.719  1.4442 -0.3269 -0.4950
 7951SOL     OW35485   4.667   4.720   7.376  0.2976 -0.0034  0.5285
 7951SOL    HW135486   0.012   4.669   7.393  0.2462 -1.0535 -2.2943
 7951SOL    HW235487   4.701   0.075   7.371 -0.4023  0.2055 -0.4601
 7952SOL     OW35488   0.140   2.107   6.842  0.1360 -0.1628  0.7492
 7952SOL    HW135489   0.045   2.119   6.842  0.4737  2.6150  0.3143
 7952SOL    HW235490   0.159   2.193   6.878 -2.4835  0.9876 -0.6112
 7953SOL     OW35491   0.683   4.314   8.268 -0.3066  0.0722 -0.3432
 7953SOL    HW135492   0.651   4.401   8.291 -0.2512  0.7957 -3.0072
 7953SOL    HW235493   0.608   4.255   8.273  0.0869 -0.3039  1.2788
 7954SOL     OW35494   4.244   0.424   7.255  0.3950  0.4406 -0.4742
 7954SOL    HW135495   4.246   0.468   7.170  2.6551 -0.8339 -1.0937
 7954SOL    HW235496   4.170   0.467   7.297 -1.0166 -0.1081 -2.4205
 7955SOL     OW35497   0.896   1.503   8.963  0.0830 -0.4470  0.6564
 7955SOL    HW135498   0.899   1.561   9.039  0.2195 -0.6288  0.7891
 7955SOL    HW235499   0.819   1.530   8.913  1.2487  1.0484 -0.3162
 7956SOL     OW35500   1.026   2.933   9.082 -1.0130 -0.5133  0.6378
 7956SOL    HW135501   0.995   2.863   9.139 -0.2125  0.5611  2.3864
 7956SOL    HW235502   1.004   2.997   9.150 -0.4570  0.0265  0.3038
 7957SOL     OW35503   1.049   1.597   4.975 -0.3602  0.4674  0.0478
 7957SOL    HW135504   0.995   1.670   5.003 -1.1015  0.6073 -1.7671
 7957SOL    HW235505   1.129   1.617   5.023 -1.2397  0.7898  1.3734
 7958SOL     OW35506   0.137   1.658   9.341 -0.2987 -0.1619  0.7352
 7958SOL    HW135507   0.116   1.739   9.386 -1.4586 -0.6770  1.1097
 7958SOL    HW235508   0.133   1.594   9.413 -0.9032  0.6294  1.3969
 7959SOL     OW35509   3.446   1.932   3.101  0.1338 -0.1363  1.2329
 7959SOL    HW135510   3.433   1.862   3.164  1.1028 -0.6367  0.8843
 7959SOL    HW235511   3.354   1.946   3.078  0.0169 -0.0009  1.7857
 7960SOL     OW35512   2.089   0.321  10.159 -0.4571 -0.2710  1.0185
 7960SOL    HW135513   2.015   0.291  10.106 -0.4763 -0.3077  1.0667
 7960SOL    HW235514   2.157   0.270  10.115 -1.0628 -0.7342  0.6275
 7961SOL     OW35515   4.041   0.987   9.075  0.4796 -0.5319  0.2184
 7961SOL    HW135516   4.019   1.013   9.164  0.9359  2.0202 -0.3913
 7961SOL    HW235517   3.982   0.917   9.049  2.7483 -2.9072  1.4328
 7962SOL     OW35518   1.013   1.127   7.503 -0.1726 -0.0087  0.0479
 7962SOL    HW135519   1.087   1.145   7.445 -0.7566  0.2717 -0.6119
 7962SOL    HW235520   0.948   1.132   7.433 -2.5258 -0.0002  2.2336
 7963SOL     OW35521   1.711   1.201   2.438  0.1022 -0.3463 -0.1571
 7963SOL    HW135522   1.686   1.261   2.368  1.6818  0.3550 -0.1317
 7963SOL    HW235523   1.744   1.118   2.404 -1.9324 -0.5120 -1.7205
 7964SOL     OW35524   4.672   2.803   4.945  1.4661 -0.1046  0.0237
 7964SOL    HW135525   4.585   2.841   4.947  0.7307 -1.7717 -0.6354
 7964SOL    HW235526   4.626   2.721   4.959  1.3716 -0.4296 -2.1950
 7965SOL     OW35527   4.117   1.882  12.794 -0.3063  0.0717  0.1892
 7965SOL    HW135528   4.090   1.950  12.731 -1.2868  0.9043  1.5181
 7965SOL    HW235529   4.037   1.829  12.790  0.9683 -1.7461 -1.1301
 7966SOL     OW35530   4.715   1.666   4.978 -0.1646  0.1419 -0.3079
 7966SOL    HW135531   4.631   1.712   4.974 -0.4198 -0.4557 -1.8260
 7966SOL    HW235532   0.036   1.725   4.927  2.3284 -1.9369 -0.0122
 7967SOL     OW35533   2.381   1.447   3.555  0.1900  0.3978  0.3664
 7967SOL    HW135534   2.363   1.394   3.477  1.5543 -0.2948  0.5317
 7967SOL    HW235535   2.333   1.529   3.543 -2.0960 -0.5916  2.7402
 7968SOL     OW35536   1.879   2.340   9.306  0.2261  0.1302  0.3187
 7968SOL    HW135537   1.946   2.326   9.373  0.6421 -1.3919 -0.4092
 7968SOL    HW235538   1.909   2.278   9.239 -1.2926  1.5598 -1.6720
 7969SOL     OW35539   0.086   1.157   7.491 -0.6687 -0.0347  0.6909
 7969SOL    HW135540   0.104   1.247   7.462 -0.8259 -1.0421 -2.4870
 7969SOL    HW235541   0.167   1.140   7.540  0.1966  0.7565 -0.4486
 7970SOL     OW35542   4.683   4.534   2.440  0.4879 -0.5281 -0.2936
 7970SOL    HW135543   4.643   4.556   2.356 -2.5019  4.0623  2.3113
 7970SOL    HW235544   4.636   4.454   2.461  0.5312  0.0031  1.8353
 7971SOL     OW35545   3.567   3.416  13.887  0.1981  0.0514  0.3503
 7971SOL    HW135546   3.613   3.382  13.963  1.9657  0.8480 -0.3604
 7971SOL    HW235547   3.473   3.399  13.891  0.1112  0.9723  2.0279
 7972SOL     OW35548   3.703   3.086  17.700  0.3469 -0.1328  0.1899
 7972SOL    HW135549   3.782   3.139  17.686  0.8999 -1.1881 -0.6708
 7972SOL    HW235550   3.620   3.134  17.701  0.9379  0.9754 -1.8328
 7973SOL     OW35551   1.109   3.477   8.019 -0.3547 -0.4396  0.6212
 7973SOL    HW135552   1.021   3.465   8.056 -0.3595  0.9206  1.0591
 7973SOL    HW235553   1.108   3.571   8.039 -2.4490 -0.3312  0.0387
 7974SOL     OW35554   4.176   3.753   0.899  0.3091 -0.1638  0.2215
 7974SOL    HW135555   4.083   3.741   0.876  0.7014  1.5714 -2.2328
 7974SOL    HW235556   4.203   3.663   0.883 -2.1988 -0.8160 -0.3581
 7975SOL     OW35557   2.249   3.564  10.897  0.1204  0.3385 -0.1300
 7975SOL    HW135558   2.219   3.490  10.843  0.2872  1.0848 -1.2434
 7975SOL    HW235559   2.169   3.615  10.888  1.7455  2.6836 -1.2935
 7976SOL     OW35560   2.759   1.884   9.931  0.1363 -0.3019 -0.0548
 7976SOL    HW135561   2.828   1.888   9.998 -1.4357 -0.3124  1.5715
 7976SOL    HW235562   2.787   1.965   9.889 -3.2137  0.9798  0.1431
 7977SOL     OW35563   3.839   1.333   3.520  0.7320 -0.2452 -0.1230
 7977SOL    HW135564   3.743   1.338   3.523  0.7075 -1.0248  0.5058
 7977SOL    HW235565   3.855   1.255   3.573  0.9953 -0.3909 -0.4154
 7978SOL     OW35566   4.051   0.009   9.470  0.2267  0.1582  0.4534
 7978SOL    HW135567   4.131   0.051   9.437 -1.0725  0.7256 -1.9677
 7978SOL    HW235568   3.983   0.064   9.432 -0.2130 -0.7379 -0.0521
 7979SOL     OW35569   4.407   0.478  15.269  0.4732 -0.0472  1.1075
 7979SOL    HW135570   4.343   0.536  15.311 -0.0822  1.6937 -2.1134
 7979SOL    HW235571   4.395   0.500  15.177  0.5274 -0.9023  0.8931
 7980SOL     OW35572   0.642   1.225   6.089 -0.4913 -0.3311  0.4868
 7980SOL    HW135573   0.578   1.223   6.160  0.3411  2.3085  1.2903
 7980SOL    HW235574   0.581   1.258   6.024 -1.5657 -0.8095  1.2461
 7981SOL     OW35575   1.887   3.285  17.681 -0.5352  0.3190  0.0652
 7981SOL    HW135576   1.982   3.297  17.672 -0.4925 -1.0761 -1.2330
 7981SOL    HW235577   1.883   3.229   0.023 -2.0754 -0.9468 -0.9291
 7982SOL     OW35578   0.899   3.115   3.376 -0.2664 -0.0859  0.0419
 7982SOL    HW135579   0.811   3.146   3.355 -0.0833  0.3136 -0.1336
 7982SOL    HW235580   0.880   3.032   3.421  1.0255 -0.6453 -0.4571
 7983SOL     OW35581   1.475   1.177   8.291 -0.3999 -0.0305  0.5962
 7983SOL    HW135582   1.426   1.096   8.278 -0.6324  0.6200 -2.4554
 7983SOL    HW235583   1.558   1.154   8.250  0.2919 -0.8941  2.4649
 7984SOL     OW35584   1.789   1.406   5.516 -0.1730 -0.2420 -0.8659
 7984SOL    HW135585   1.808   1.318   5.484  0.8219 -0.0563 -0.7829
 7984SOL    HW235586   1.749   1.394   5.602  1.7310 -0.1900  0.0092
 7985SOL     OW35587   3.192   2.652   2.368 -0.1879 -0.0464 -0.1007
 7985SOL    HW135588   3.229   2.581   2.316 -2.7153 -0.4171 -1.3631
 7985SOL    HW235589   3.099   2.636   2.353 -0.1718 -0.1493 -0.0860
 7986SOL     OW35590   3.243   4.151   7.365 -0.5482  0.0242 -0.7964
 7986SOL    HW135591   3.235   4.201   7.284  1.6206 -1.3995 -1.8814
 7986SOL    HW235592   3.202   4.073   7.329 -2.8726  0.0159  1.8174
 7987SOL     OW35593   1.915   1.978   2.013 -0.2438 -0.3950  0.4866
 7987SOL    HW135594   1.921   1.902   2.071  3.5536 -0.2478  0.2841
 7987SOL    HW235595   1.821   1.990   2.003 -0.5036 -2.7763  0.2510
 7988SOL     OW35596   4.436   4.099  12.048  0.0589  0.8929  0.3700
 7988SOL    HW135597   4.400   4.124  11.964 -1.4479 -1.3798  0.3337
 7988SOL    HW235598   4.434   4.183  12.094  0.2063  1.0347  0.1116
 7989SOL     OW35599   2.610   0.856   9.807 -0.0110 -0.2337 -0.0822
 7989SOL    HW135600   2.541   0.815   9.859  1.3243 -0.8109  1.2440
 7989SOL    HW235601   2.683   0.860   9.868 -1.1544 -3.0067  1.4948
 7990SOL     OW35602   2.295   1.155   8.950 -0.4403 -0.2850 -0.2023
 7990SOL    HW135603   2.368   1.109   8.992  0.5243  0.0544 -1.5262
 7990SOL    HW235604   2.228   1.132   9.015  1.5229 -0.4140  1.7742
 7991SOL     OW35605   2.184   3.687   7.243  0.0247 -0.2140  0.3020
 7991SOL    HW135606   2.136   3.751   7.191  1.5483  2.5155  2.2110
 7991SOL    HW235607   2.165   3.714   7.333 -0.2476 -0.7899  0.4162
 7992SOL     OW35608   0.947   2.938   8.405  0.1016 -0.2331  0.2802
 7992SOL    HW135609   0.951   2.990   8.325  0.2300  1.2222  1.2197
 7992SOL    HW235610   0.938   2.854   8.360 -0.4816  0.0647 -0.1592
 7993SOL     OW35611   0.226   0.359   1.904 -0.3148  0.6057  0.3595
 7993SOL    HW135612   0.289   0.411   1.854 -0.5634 -0.2102 -0.7884
 7993SOL    HW235613   0.279   0.292   1.948  1.5610  1.2661 -0.8827
 7994SOL     OW35614   2.843   1.980   6.302  0.0733  0.0229 -0.1358
 7994SOL    HW135615   2.788   2.053   6.273  0.7542  1.9149  3.3508
 7994SOL    HW235616   2.832   1.986   6.396  0.6182 -0.4246 -0.0489
 7995SOL     OW35617   3.411   2.273   6.978 -0.0654  0.4054  0.5834
 7995SOL    HW135618   3.447   2.350   7.022  1.0576  0.6685 -0.7882
 7995SOL    HW235619   3.479   2.256   6.912 -0.8800 -0.9429  0.0888
 7996SOL     OW35620   2.448   1.572   1.826  0.6252  0.0762  0.0176
 7996SOL    HW135621   2.502   1.650   1.813 -0.9154  1.5748  2.5654
 7996SOL    HW235622   2.465   1.520   1.747 -0.4668 -1.0500  0.5216
 7997SOL     OW35623   4.649   1.437   4.155 -0.1048 -0.2824 -0.1887
 7997SOL    HW135624   4.635   1.407   4.065  1.0244 -0.9170 -0.1568
 7997SOL    HW235625   4.664   1.531   4.143 -1.5701  0.1784  1.5493
 7998SOL     OW35626   3.564   1.814   8.511 -0.5730  0.2536  0.6596
 7998SOL    HW135627   3.572   1.794   8.418  0.3807  0.2812  0.7364
 7998SOL    HW235628   3.471   1.836   8.518 -1.0662 -1.2355 -1.3835
 7999SOL     OW35629   1.160   4.377   5.031 -0.1043  0.0825  0.3036
 7999SOL    HW135630   1.189   4.314   4.965 -1.4558 -0.2819  0.0512
 7999SOL    HW235631   1.228   4.445   5.033  1.2886 -1.2795 -1.1213
 8000SOL     OW35632   1.484   0.173  16.177 -0.2102 -0.3043 -0.0761
 8000SOL    HW135633   1.471   0.102  16.241  0.1448 -0.3672 -0.0707
 8000SOL    HW235634   1.479   0.112  16.104  3.0440 -1.3635  0.5568
 8001SOL     OW35635   2.348   1.956   0.291  0.6008  0.0208  0.0450
 8001SOL    HW135636   2.388   1.909   0.217 -2.7375  1.3746 -2.6337
 8001SOL    HW235637   2.359   2.043   0.253  1.3015  0.4427  1.2270
 8002SOL     OW35638   4.549   2.636   8.592 -0.5571  0.0531 -0.5759
 8002SOL    HW135639   4.567   2.699   8.662 -0.8432 -0.0274 -0.4296
 8002SOL    HW235640   4.493   2.694   8.541 -2.1378 -1.5539 -0.6690
 8003SOL     OW35641   0.019   0.583   6.060 -0.1932  0.4138  0.0636
 8003SOL    HW135642   4.657   0.584   6.058 -0.2034 -0.2601  0.2287
 8003SOL    HW235643   0.037   0.571   5.967  1.3553 -1.4948  0.5982
 8004SOL     OW35644   0.287   3.838  14.479  0.0443 -0.1675  0.1737
 8004SOL    HW135645   0.312   3.890  14.555 -4.4042  1.2176  0.7027
 8004SOL    HW235646   0.243   3.766  14.525  1.0410 -0.8297  0.0906
 8005SOL     OW35647   2.386   1.045   7.897  0.3755 -0.2027  0.2032
 8005SOL    HW135648   2.310   1.017   7.949 -0.3766 -0.2920 -0.9446
 8005SOL    HW235649   2.348   1.113   7.842  2.1325  0.3473 -0.3301
 8006SOL     OW35650   4.551   1.166   0.359  0.3685  0.1621 -0.4555
 8006SOL    HW135651   4.473   1.154   0.306 -0.5504 -0.6962  1.0916
 8006SOL    HW235652   4.548   1.261   0.372 -0.9881 -0.5065  3.9541
 8007SOL     OW35653   0.318   4.068   6.546  0.3507 -0.5132  0.2456
 8007SOL    HW135654   0.297   4.138   6.608 -2.0665 -2.2572  1.4108
 8007SOL    HW235655   0.407   4.094   6.521  0.4188 -0.0663  0.9589
 8008SOL     OW35656   2.630   1.180   0.541 -0.5501 -0.1655 -0.2289
 8008SOL    HW135657   2.566   1.141   0.481  0.1522 -0.0779 -1.0360
 8008SOL    HW235658   2.696   1.110   0.540  0.5099  0.8213  0.7712
 8009SOL     OW35659   3.120   2.113   3.068 -0.0124  0.3982  0.0196
 8009SOL    HW135660   3.096   2.166   3.144  2.5582  0.2190  0.9551
 8009SOL    HW235661   3.111   2.185   3.004 -0.5960  0.4843  0.1972
 8010SOL     OW35662   3.653   3.769   8.093 -0.8785  0.3797  0.8857
 8010SOL    HW135663   3.655   3.674   8.088  4.1623  0.6451 -1.8481
 8010SOL    HW235664   3.733   3.800   8.050 -2.0018 -1.2869 -2.3403
 8011SOL     OW35665   3.543   1.612  13.140  0.3610 -0.8313 -0.6038
 8011SOL    HW135666   3.591   1.554  13.199  0.8221 -1.7037 -1.8411
 8011SOL    HW235667   3.590   1.695  13.133 -0.0116 -0.4296  1.6717
 8012SOL     OW35668   3.510   2.097  13.405 -0.3111 -0.1908  0.6257
 8012SOL    HW135669   3.598   2.092  13.366 -1.1111 -0.3027 -1.1576
 8012SOL    HW235670   3.490   2.003  13.402 -1.6491  0.0896  0.8372
 8013SOL     OW35671   2.543   2.411   5.270 -0.3566 -0.3972  0.0602
 8013SOL    HW135672   2.630   2.372   5.278  0.0053 -0.4009 -3.7144
 8013SOL    HW235673   2.570   2.487   5.219  0.0172  1.6706  3.3583
 8014SOL     OW35674   4.249   1.476   2.614 -0.4132 -0.5287  0.0670
 8014SOL    HW135675   4.317   1.470   2.548 -0.6276 -1.6442 -0.0411
 8014SOL    HW235676   4.269   1.398   2.666 -1.0433 -0.4555  0.4245
 8015SOL     OW35677   3.826   4.729   2.773 -0.2223  0.5444  0.5660
 8015SOL    HW135678   3.890   4.689   2.714 -0.6208  0.2272  0.3544
 8015SOL    HW235679   3.796   4.657   2.829 -0.8048 -0.0987 -0.5887
 8016SOL     OW35680   0.045   1.847   9.900  0.1648 -0.6453 -0.3797
 8016SOL    HW135681   0.002   1.814   9.979 -0.6923 -0.3115 -0.7076
 8016SOL    HW235682   4.705   1.887   9.854 -1.0104 -2.3155  0.0579
 8017SOL     OW35683   4.251   1.831   3.204  0.1201  0.5358 -0.1089
 8017SOL    HW135684   4.233   1.738   3.191  1.8842  0.3745 -1.5392
 8017SOL    HW235685   4.176   1.861   3.153 -1.3528 -2.2840  0.4201
 8018SOL     OW35686   0.564   2.440   7.221  0.0692  0.7185  0.1550
 8018SOL    HW135687   0.603   2.353   7.227 -1.9757 -0.1808  0.5742
 8018SOL    HW235688   0.588   2.462   7.131 -0.1716 -0.6617 -0.2506
 8019SOL     OW35689   3.815   3.368   6.587  0.5333  0.3590 -0.2282
 8019SOL    HW135690   3.791   3.445   6.535  0.8866 -0.7480 -2.0598
 8019SOL    HW235691   3.786   3.404   6.671 -0.5138  2.5873 -1.5429
 8020SOL     OW35692   2.892   0.137   2.446 -0.4049  0.4039 -0.8236
 8020SOL    HW135693   2.940   0.140   2.363  0.5809 -0.8333 -0.2982
 8020SOL    HW235694   2.942   0.201   2.496  3.5193 -2.6483 -0.8804
 8021SOL     OW35695   0.890   0.791   8.855  0.1340  0.3749  0.0988
 8021SOL    HW135696   0.845   0.847   8.918  1.1080  1.1261  0.1184
 8021SOL    HW235697   0.857   0.827   8.773  0.2593 -0.7404 -0.4372
 8022SOL     OW35698   1.927   1.647   9.476  0.4149  0.2921  0.2217
 8022SOL    HW135699   1.990   1.606   9.535 -0.6020 -1.3010  0.2237
 8022SOL    HW235700   1.899   1.576   9.418  0.1693 -0.4133  1.1961
 8023SOL     OW35701   1.369   1.469  11.967 -0.1280 -0.0450 -0.4716
 8023SOL    HW135702   1.280   1.497  11.946 -0.2460  0.8228  1.1215
 8023SOL    HW235703   1.358   1.375  11.980 -3.2122  0.2283 -1.1381
 8024SOL     OW35704   3.966   0.059   4.197 -0.2677  0.5950 -0.5519
 8024SOL    HW135705   3.900   0.089   4.135  0.9651  0.5876 -1.8522
 8024SOL    HW235706   3.917   0.028   4.273  1.3895  0.1892  0.3435
 8025SOL     OW35707   0.938   3.792   4.444 -0.0788 -0.0137  0.5199
 8025SOL    HW135708   1.016   3.823   4.490  0.1182 -1.0167  0.8528
 8025SOL    HW235709   0.944   3.701   4.471 -2.9613 -0.5430 -0.6332
 8026SOL     OW35710   4.495   1.810   8.323  0.4642  0.3450  0.3980
 8026SOL    HW135711   4.475   1.796   8.416 -0.7891  0.1432  0.0916
 8026SOL    HW235712   4.419   1.777   8.276  1.6303  0.1299 -1.3217
 8027SOL     OW35713   2.160   3.506   4.495  0.1957 -0.5071  0.0618
 8027SOL    HW135714   2.234   3.453   4.526  0.6585  2.5499  4.0502
 8027SOL    HW235715   2.170   3.580   4.554  0.2359  0.3317 -1.0147
 8028SOL     OW35716   4.656   1.075   7.123 -0.1376 -0.0621  0.7468
 8028SOL    HW135717   4.572   1.120   7.109 -0.0185  0.2729  1.1246
 8028SOL    HW235718   4.626   1.012   7.189 -0.3882  1.4795  2.0993
 8029SOL     OW35719   3.282   0.889  16.083 -0.3743  0.1297  0.3563
 8029SOL    HW135720   3.353   0.849  16.033 -1.3144  0.5208 -1.2948
 8029SOL    HW235721   3.269   0.815  16.142  1.8829  0.2554  1.0049
 8030SOL     OW35722   0.662   0.683   9.116  0.1085 -0.7946 -0.5970
 8030SOL    HW135723   0.583   0.669   9.065 -1.5804 -1.1680  2.0937
 8030SOL    HW235724   0.668   0.778   9.110 -0.9261 -0.7949 -1.6423
 8031SOL     OW35725   0.163   0.920   8.321 -0.4614 -0.1801  0.0640
 8031SOL    HW135726   0.074   0.938   8.351  1.1131  3.1000  2.7331
 8031SOL    HW235727   0.151   0.828   8.296  2.8217 -0.8101  0.9105
 8032SOL     OW35728   1.644   1.552   2.829 -0.7858 -0.1893  0.3589
 8032SOL    HW135729   1.648   1.509   2.744  2.1804 -0.4193  0.6181
 8032SOL    HW235730   1.739   1.548   2.844 -1.0636  0.8532  2.3827
 8033SOL     OW35731   2.517   2.231   2.534 -0.2126  0.6872  0.4981
 8033SOL    HW135732   2.499   2.267   2.447 -0.0983 -0.8170 -0.1474
 8033SOL    HW235733   2.531   2.308   2.589 -1.0998 -0.5302  2.3932
 8034SOL     OW35734   2.956   2.383   4.423  0.4844 -0.1930  0.2402
 8034SOL    HW135735   2.989   2.460   4.376  1.1755  0.0048  1.0629
 8034SOL    HW235736   2.910   2.342   4.349  0.7592  0.3031 -0.2094
 8035SOL     OW35737   0.192   3.260   3.888 -0.3262 -0.1098  0.0867
 8035SOL    HW135738   0.202   3.275   3.982 -3.1154 -1.6006  0.6018
 8035SOL    HW235739   0.110   3.308   3.878 -0.5331 -0.9961 -2.4218
 8036SOL     OW35740   0.845   0.197   1.912  0.4487 -0.3873  0.0270
 8036SOL    HW135741   0.866   0.224   1.823  2.9954 -1.2537  0.3757
 8036SOL    HW235742   0.761   0.243   1.920  0.9185  0.6517 -0.9846
 8037SOL     OW35743   3.151   4.516  10.239  0.0226  0.5916 -0.2396
 8037SOL    HW135744   3.074   4.548  10.286 -0.7147  1.7874 -2.2744
 8037SOL    HW235745   3.206   4.594  10.238 -0.6834  1.1088  0.9498
 8038SOL     OW35746   2.954   0.921   7.039 -0.6751 -0.5653  0.9113
 8038SOL    HW135747   2.889   0.972   6.991  0.4374 -0.8082 -0.8696
 8038SOL    HW235748   2.915   0.846   7.083  0.7958 -0.8268  1.7619
 8039SOL     OW35749   2.266   1.878  15.109  0.2734  0.7669  0.4857
 8039SOL    HW135750   2.173   1.855  15.096  0.7063  0.6767 -2.5463
 8039SOL    HW235751   2.268   1.964  15.150  3.5748  1.2867 -0.8321
 8040SOL     OW35752   0.490   2.705  10.640 -0.0336 -0.4122 -0.6624
 8040SOL    HW135753   0.545   2.629  10.660 -1.3957 -0.6811  2.0138
 8040SOL    HW235754   0.428   2.663  10.580  0.2999 -2.0295  0.1441
 8041SOL     OW35755   3.322   0.685   9.305 -0.3521 -0.3817  0.2890
 8041SOL    HW135756   3.355   0.596   9.292 -4.1830 -2.1360  2.7260
 8041SOL    HW235757   3.359   0.725   9.226  1.1296 -0.7920  0.7696
 8042SOL     OW35758   0.182   1.481  15.613  0.0353  0.0829 -0.7238
 8042SOL    HW135759   0.124   1.405  15.622  0.2018 -0.0183 -0.5382
 8042SOL    HW235760   0.270   1.446  15.607  0.3500  1.1172 -2.2064
 8043SOL     OW35761   4.608   2.484   9.471  0.0380  0.8368  0.1295
 8043SOL    HW135762   4.622   2.559   9.414  0.1993  1.1196  0.5362
 8043SOL    HW235763   4.532   2.445   9.428  0.2207  0.1716  0.4054
 8044SOL     OW35764   4.340   1.351   7.376  0.3810 -0.9466  0.3310
 8044SOL    HW135765   4.346   1.444   7.398 -0.6900  0.0161 -3.2946
 8044SOL    HW235766   4.252   1.333   7.410 -0.7891 -0.9882 -2.7058
 8045SOL     OW35767   1.450   2.688   8.282  0.1224  0.0655 -0.1564
 8045SOL    HW135768   1.410   2.646   8.206  1.6288  1.9811 -2.0136
 8045SOL    HW235769   1.366   2.709   8.325  0.2983  2.4135 -0.9232
 8046SOL     OW35770   3.713   3.182   1.474  0.2338  0.0181  0.2695
 8046SOL    HW135771   3.658   3.149   1.403  0.2212 -4.0002  2.1203
 8046SOL    HW235772   3.699   3.276   1.470 -0.4571 -0.1862 -2.6826
 8047SOL     OW35773   1.122   2.684  16.264  0.3564  0.3765  0.1878
 8047SOL    HW135774   1.051   2.683  16.201  0.0815 -0.7094  0.5168
 8047SOL    HW235775   1.125   2.591  16.288 -1.4259  0.3946  0.4780
 8048SOL     OW35776   4.315   2.915   3.863  0.2966  0.4012 -0.2370
 8048SOL    HW135777   4.221   2.910   3.848  0.5217 -1.2140 -1.0658
 8048SOL    HW235778   4.314   2.912   3.958 -0.1965  0.5298 -0.2390
 8049SOL     OW35779   4.530   2.892  10.554  0.5149  0.3179 -0.1683
 8049SOL    HW135780   4.552   2.825  10.619  1.3494  0.1373 -0.6358
 8049SOL    HW235781   4.594   2.961  10.570  0.2951  0.4067  0.3465
 8050SOL     OW35782   0.179   1.174  10.922  0.5085 -0.5551 -0.0232
 8050SOL    HW135783   0.178   1.132  10.836 -0.5634 -2.4125  0.8838
 8050SOL    HW235784   0.108   1.235  10.900 -0.7709 -1.8667  0.4861
 8051SOL     OW35785   0.539   1.543   7.197 -0.2113 -0.0593 -0.1708
 8051SOL    HW135786   0.511   1.490   7.122  0.2978 -1.6675  0.7672
 8051SOL    HW235787   0.457   1.548   7.246 -0.0188  0.1273  0.1303
 8052SOL     OW35788   2.204   3.399   2.891 -0.2752 -0.0054 -0.2791
 8052SOL    HW135789   2.256   3.442   2.958  3.9420 -1.8588 -2.3395
 8052SOL    HW235790   2.121   3.445   2.902 -0.1489  0.3328 -0.7511
 8053SOL     OW35791   1.635   4.638   5.637 -0.1199 -0.0950  0.1897
 8053SOL    HW135792   1.624   4.603   5.725  0.2806 -3.2849 -1.0206
 8053SOL    HW235793   1.646   4.731   5.657  1.1295  0.2329 -2.0501
 8054SOL     OW35794   1.514   0.495   3.043  0.7052  0.3199  0.1243
 8054SOL    HW135795   1.600   0.463   3.068  1.3791  1.7352 -0.3488
 8054SOL    HW235796   1.464   0.439   3.102  1.2438  1.0876  1.3330
 8055SOL     OW35797   1.648   1.211  16.078 -0.0140  0.1965 -0.1490
 8055SOL    HW135798   1.663   1.301  16.106 -2.8592  1.1273 -1.5479
 8055SOL    HW235799   1.681   1.216  15.988 -0.9316  2.2891 -0.3583
 8056SOL     OW35800   3.054   2.103   3.743 -0.2059  0.8583  0.2736
 8056SOL    HW135801   3.130   2.161   3.751 -0.2568  0.6231  2.4187
 8056SOL    HW235802   3.031   2.126   3.653 -2.0864 -0.4867  0.4088
 8057SOL     OW35803   3.952   4.544   1.806  0.5338  0.3575  0.0155
 8057SOL    HW135804   3.892   4.618   1.798 -0.1666 -0.0160  1.7714
 8057SOL    HW235805   4.016   4.583   1.746  0.2975  0.0047 -0.4702
 8058SOL     OW35806   3.532   2.911   4.060 -0.4749 -0.2586  0.2859
 8058SOL    HW135807   3.460   2.867   4.106 -1.1610  1.1016  0.5008
 8058SOL    HW235808   3.566   2.977   4.120  0.5480 -0.9390  0.4483
 8059SOL     OW35809   3.741   3.113  11.159  0.5811 -0.4970 -0.8165
 8059SOL    HW135810   3.765   3.054  11.088 -0.2408  1.0041 -2.3780
 8059SOL    HW235811   3.704   3.053  11.224  0.8904  0.4855  0.2737
 8060SOL     OW35812   1.521   4.057   2.528 -0.1462 -0.4830  0.5973
 8060SOL    HW135813   1.498   4.150   2.525  0.7925 -0.1265  3.8760
 8060SOL    HW235814   1.469   4.024   2.602  0.5237 -0.1630  1.2122
 8061SOL     OW35815   3.521   1.681   1.243  0.2322  0.3640 -0.6276
 8061SOL    HW135816   3.523   1.697   1.337  0.9640  0.0263 -0.5874
 8061SOL    HW235817   3.580   1.749   1.210  1.1321  0.3893  1.0480
 8062SOL     OW35818   3.936   2.287   1.424 -0.1829  0.7919  0.1618
 8062SOL    HW135819   4.021   2.258   1.457  0.1308 -1.7517 -2.8792
 8062SOL    HW235820   3.934   2.377   1.455  0.3299  0.7729  0.2505
 8063SOL     OW35821   1.577   3.984  16.159  0.2774  0.5472  0.2031
 8063SOL    HW135822   1.621   4.028  16.232 -0.7012  2.0655 -0.1047
 8063SOL    HW235823   1.492   3.971  16.200 -0.4298  3.2339 -0.4027
 8064SOL     OW35824   0.535   1.225   6.855 -0.1425  0.7710 -0.3473
 8064SOL    HW135825   0.484   1.302   6.879 -1.1584  0.8560 -2.8469
 8064SOL    HW235826   0.505   1.211   6.766 -0.7304 -0.1059 -0.0083
 8065SOL     OW35827   2.176   2.945   7.942 -0.0600  0.7287 -0.0420
 8065SOL    HW135828   2.253   2.890   7.950  0.0707  1.3777  3.2813
 8065SOL    HW235829   2.120   2.889   7.888  2.1405 -2.6776  1.2923
 8066SOL     OW35830   4.578   2.494   1.967  0.1685 -0.1011 -0.4607
 8066SOL    HW135831   4.552   2.537   2.049 -2.8971 -0.3885 -1.2858
 8066SOL    HW235832   4.591   2.403   1.991 -3.4097 -0.3532  0.5580
 8067SOL     OW35833   4.135   0.751   6.709 -0.2280  0.0881 -0.0527
 8067SOL    HW135834   4.126   0.659   6.685  1.4792 -0.7483  2.5527
 8067SOL    HW235835   4.230   0.754   6.699 -0.3527 -2.1719 -1.9535
 8068SOL     OW35836   2.934   1.550   8.179  0.1389 -0.5837 -0.5832
 8068SOL    HW135837   2.964   1.515   8.095  1.5629  2.9657 -1.5424
 8068SOL    HW235838   3.018   1.575   8.218 -0.2850 -0.5471  0.3142
 8069SOL     OW35839   2.724   2.035  10.244  0.3558 -0.0715 -0.0787
 8069SOL    HW135840   2.727   2.052  10.338 -0.8664  2.1703 -0.4433
 8069SOL    HW235841   2.783   1.960  10.230 -0.2391 -0.1417 -2.2511
 8070SOL     OW35842   3.423   4.028   4.240 -0.1644 -0.0116 -0.2690
 8070SOL    HW135843   3.378   4.000   4.160  1.0553 -2.8457  0.0322
 8070SOL    HW235844   3.345   4.022   4.297 -0.7368 -2.1393 -1.2707
 8071SOL     OW35845   0.511   2.970   4.178 -0.3174  0.5274  0.5147
 8071SOL    HW135846   0.453   2.952   4.105 -0.2378  0.4184  0.4789
 8071SOL    HW235847   0.585   2.991   4.122 -0.9490  0.3262 -0.3885
 8072SOL     OW35848   2.518   1.798   4.565  0.2028  0.2800 -0.1593
 8072SOL    HW135849   2.557   1.884   4.548 -0.0923  0.3913 -0.2763
 8072SOL    HW235850   2.468   1.780   4.485 -1.9351  0.6130  1.1026
 8073SOL     OW35851   2.019   3.260   6.539 -0.0129  0.3599  0.1878
 8073SOL    HW135852   1.946   3.242   6.598  1.1674 -1.8539  0.9972
 8073SOL    HW235853   1.990   3.342   6.498 -2.7800 -1.0543 -0.6913
 8074SOL     OW35854   4.302   3.655   7.053  0.2358  0.8947 -0.2176
 8074SOL    HW135855   4.378   3.713   7.061 -0.3685  1.9490 -2.1461
 8074SOL    HW235856   4.305   3.634   6.959  1.6789  1.1561 -0.2320
 8075SOL     OW35857   0.318   1.151   7.609 -0.0240 -0.0468  0.4949
 8075SOL    HW135858   0.384   1.219   7.597 -1.6388  1.4543  0.0827
 8075SOL    HW235859   0.298   1.160   7.702  2.4370 -1.3695  1.1373
 8076SOL     OW35860   4.686   2.875  13.325 -0.2466 -0.0466 -0.9643
 8076SOL    HW135861   0.040   2.845  13.347 -0.6313  0.4370  1.1629
 8076SOL    HW235862   4.707   2.953  13.273  1.3213  0.9809  1.2039
 8077SOL     OW35863   1.832   2.696  12.172 -0.0125 -0.6413  0.0061
 8077SOL    HW135864   1.920   2.722  12.145 -0.8197 -0.1123 -2.1234
 8077SOL    HW235865   1.833   2.611  12.130 -0.8509  1.1185 -3.5822
 8078SOL     OW35866   0.940   0.482   0.634  0.3580 -0.5215  0.3572
 8078SOL    HW135867   0.868   0.444   0.584  0.3105 -0.3680  0.3117
 8078SOL    HW235868   0.924   0.438   0.717  0.2070 -1.5220 -0.2018
 8079SOL     OW35869   1.662   2.544   3.885  0.2633  0.2431 -0.3458
 8079SOL    HW135870   1.631   2.461   3.850 -0.1577  0.3318 -0.1903
 8079SOL    HW235871   1.757   2.535   3.874  0.3514 -0.0535  0.7159
 8080SOL     OW35872   1.211   0.442   5.929 -0.9858 -0.0733  0.2870
 8080SOL    HW135873   1.261   0.515   5.891 -0.6018 -0.4379  0.0956
 8080SOL    HW235874   1.131   0.451   5.877 -0.0543 -2.0200 -1.5097
 8081SOL     OW35875   2.225   4.275   2.223 -0.0901 -0.4512 -0.1134
 8081SOL    HW135876   2.304   4.301   2.177 -0.0341 -0.1618  0.1427
 8081SOL    HW235877   2.155   4.314   2.171  0.1420  0.5497  0.3161
 8082SOL     OW35878   2.805   1.733  10.310  0.1097 -0.4160  0.0215
 8082SOL    HW135879   2.825   1.680  10.233 -0.0919 -1.3528  0.6094
 8082SOL    HW235880   2.723   1.692  10.337 -1.1376  1.8627 -0.2889
 8083SOL     OW35881   4.670   1.685   5.489 -0.1395  0.0794 -0.4133
 8083SOL    HW135882   4.682   1.772   5.451 -1.8817  0.2431 -0.5814
 8083SOL    HW235883   4.670   1.629   5.412 -0.6982  0.1662 -0.4769
 8084SOL     OW35884   1.609   3.783   5.314  0.1103 -0.4745  0.0483
 8084SOL    HW135885   1.691   3.775   5.364 -0.8534 -0.6121  1.6158
 8084SOL    HW235886   1.639   3.761   5.226 -1.2575 -1.9478 -0.0340
 8085SOL     OW35887   3.503   0.612   3.498 -0.8722 -0.1281 -0.2070
 8085SOL    HW135888   3.579   0.613   3.440  0.2299  0.2163  1.2611
 8085SOL    HW235889   3.539   0.650   3.578 -1.1575 -0.7448  0.2118
 8086SOL     OW35890   1.700   1.250   0.193 -0.3836 -0.2443 -0.2797
 8086SOL    HW135891   1.738   1.234   0.279  1.3957  1.5764 -0.7394
 8086SOL    HW235892   1.607   1.257   0.217  0.1655 -0.6752  1.9781
 8087SOL     OW35893   2.888   0.413  12.414  0.2756  0.1005 -0.7203
 8087SOL    HW135894   2.814   0.367  12.453  0.3493  1.6607  1.2905
 8087SOL    HW235895   2.963   0.368  12.455 -0.0213 -0.5792 -0.9186
 8088SOL     OW35896   1.420   1.190   2.197  0.2532  0.4777  0.4141
 8088SOL    HW135897   1.433   1.106   2.241 -2.7356 -1.0846 -1.6723
 8088SOL    HW235898   1.368   1.177   2.118  1.8254 -1.1359 -0.3746
 8089SOL     OW35899   0.214   4.602   2.457  0.1007 -0.0677  0.4984
 8089SOL    HW135900   0.121   4.586   2.443  0.7014 -2.8952 -0.2198
 8089SOL    HW235901   0.207   4.661   2.532  0.4797 -0.6349  0.9858
 8090SOL     OW35902   2.762   2.222   9.152 -0.0195  0.2669  0.0811
 8090SOL    HW135903   2.694   2.176   9.201 -0.2110  0.4915  0.0258
 8090SOL    HW235904   2.752   2.311   9.187  0.4397  0.7085 -0.9044
 8091SOL     OW35905   0.268   2.314  15.601  0.0316  0.2942  0.1548
 8091SOL    HW135906   0.350   2.361  15.614  1.3604 -1.9362 -0.1308
 8091SOL    HW235907   0.256   2.276  15.688  1.0715  1.0114  0.6209
 8092SOL     OW35908   2.304   0.886  13.819  0.1894 -0.1217  0.0893
 8092SOL    HW135909   2.363   0.826  13.865  0.5021 -0.7085 -1.0774
 8092SOL    HW235910   2.246   0.910  13.891  0.4724 -2.2186  1.0212
 8093SOL     OW35911   4.619   3.851   1.448  0.0749 -0.2137 -0.5788
 8093SOL    HW135912   4.539   3.901   1.466  2.0407  3.2560 -1.3352
 8093SOL    HW235913   4.657   3.852   1.536  0.2371  2.3954 -0.6619
 8094SOL     OW35914   1.932   3.072   0.763  0.0459  0.5451  0.0377
 8094SOL    HW135915   1.909   3.127   0.688  0.6220  0.6603 -0.0594
 8094SOL    HW235916   1.863   3.081   0.828  0.3709 -1.0905  0.5929
 8095SOL     OW35917   2.967   1.392   3.636  0.1248  0.2151  0.1242
 8095SOL    HW135918   2.987   1.483   3.613  0.8924 -0.0514 -0.2446
 8095SOL    HW235919   2.872   1.385   3.626  0.5667 -2.2717 -2.3395
 8096SOL     OW35920   1.373   2.166   7.443 -0.2390  0.2992 -0.0094
 8096SOL    HW135921   1.391   2.243   7.389 -2.1941  0.8081  0.0331
 8096SOL    HW235922   1.335   2.108   7.376 -0.1755  0.8992 -0.5627
 8097SOL     OW35923   2.163   0.687   6.723 -0.4254  0.2287  0.5928
 8097SOL    HW135924   2.155   0.665   6.816 -1.0359 -1.3150  0.1847
 8097SOL    HW235925   2.213   0.767   6.732 -0.6733  0.8098 -3.2060
 8098SOL     OW35926   1.799   3.656  13.291  0.2128  0.2578 -0.4356
 8098SOL    HW135927   1.788   3.575  13.342 -2.3148  1.7234  1.3735
 8098SOL    HW235928   1.813   3.717  13.364  0.0140  0.8433 -0.8929
 8099SOL     OW35929   0.239   3.947   9.565  0.3463 -0.1061 -0.0822
 8099SOL    HW135930   0.213   3.874   9.621  0.1552 -0.3032 -0.4281
 8099SOL    HW235931   0.329   3.958   9.594  0.1286 -1.2232  1.0059
 8100SOL     OW35932   2.072   0.248   2.655  0.0724  0.4149 -0.3657
 8100SOL    HW135933   2.103   0.204   2.734  0.6802  3.8299  1.3071
 8100SOL    HW235934   1.983   0.270   2.680 -0.1305  0.8759 -1.5100
 8101SOL     OW35935   2.042   0.044   4.735  0.5711 -0.0639 -0.6729
 8101SOL    HW135936   2.119   0.095   4.708  1.0283 -0.6019 -0.3938
 8101SOL    HW235937   1.975   0.108   4.754  0.3569 -0.4302 -0.1976
 8102SOL     OW35938   0.144   1.010   3.477 -0.1666  0.0426  0.0145
 8102SOL    HW135939   0.215   1.007   3.542 -1.0424 -1.1230  0.9299
 8102SOL    HW235940   0.111   1.097   3.497 -0.8110  0.3115 -2.2374
 8103SOL     OW35941   4.010   3.298  10.667 -0.0858 -0.4115  0.0994
 8103SOL    HW135942   3.998   3.379  10.716  0.2445  0.0694 -0.6182
 8103SOL    HW235943   4.041   3.251  10.745  1.7457 -1.2285 -1.1232
 8104SOL     OW35944   3.203   0.679   4.573 -0.1052  0.4846 -0.5883
 8104SOL    HW135945   3.285   0.694   4.620 -1.7705  2.5502  1.6468
 8104SOL    HW235946   3.194   0.584   4.582  0.3362  0.5288  0.3374
 8105SOL     OW35947   0.037   0.068  10.420  0.0286 -0.3967  0.2119
 8105SOL    HW135948   0.064   0.049  10.330 -0.8373 -0.5062 -0.0266
 8105SOL    HW235949   0.119   0.089  10.463  0.3250  0.8961 -0.9993
 8106SOL     OW35950   4.672   0.292   4.325 -0.2217 -0.3858 -0.0050
 8106SOL    HW135951   4.602   0.272   4.263  1.7460  0.0078 -2.3967
 8106SOL    HW235952   0.010   0.319   4.267  0.4791  2.2066  2.0370
 8107SOL     OW35953   0.170   3.676   9.603  0.4027 -0.0647  0.4463
 8107SOL    HW135954   0.091   3.638   9.565 -0.3250  2.0197 -0.1353
 8107SOL    HW235955   0.242   3.619   9.576 -1.2113 -1.3027 -1.2284
 8108SOL     OW35956   1.688   2.865   7.625  0.1866 -0.5440 -0.8053
 8108SOL    HW135957   1.599   2.849   7.657  1.4697 -1.9976  2.0774
 8108SOL    HW235958   1.730   2.783   7.652  0.5824  0.2077  0.8448
 8109SOL     OW35959   1.590   0.331   8.683 -0.4928  0.6035  0.4118
 8109SOL    HW135960   1.535   0.256   8.708 -1.0459  1.1185  0.7343
 8109SOL    HW235961   1.639   0.303   8.605  0.5883  2.1417  0.5415
 8110SOL     OW35962   4.325   4.153  11.027 -0.0914 -0.1190 -0.3100
 8110SOL    HW135963   4.277   4.219  10.978 -1.2750 -0.6645  0.1213
 8110SOL    HW235964   4.332   4.076  10.970  1.9598 -0.6998  0.7019
 8111SOL     OW35965   1.622   3.424   8.900  1.0589 -0.3299  0.5820
 8111SOL    HW135966   1.585   3.512   8.893 -1.0307 -1.2021  0.6432
 8111SOL    HW235967   1.543   3.371   8.886  0.4273  0.2510  1.8931
 8112SOL     OW35968   3.383   2.835   7.506 -0.1145  0.0922 -0.4049
 8112SOL    HW135969   3.332   2.839   7.587 -1.2189  0.4454 -1.1305
 8112SOL    HW235970   3.309   2.828   7.447 -2.3147  2.8758  2.0376
 8113SOL     OW35971   0.608   3.462   8.956  0.5290  0.4011 -0.3116
 8113SOL    HW135972   0.548   3.436   9.026  0.2484 -0.4695 -0.8768
 8113SOL    HW235973   0.567   3.410   8.887 -0.6372  1.5625 -0.4863
 8114SOL     OW35974   2.176   1.150   8.467 -0.7386  0.4460 -0.0253
 8114SOL    HW135975   2.223   1.226   8.434 -0.3239  0.6081  0.9403
 8114SOL    HW235976   2.250   1.116   8.517 -0.0619  0.3645 -1.0933
 8115SOL     OW35977   0.447   0.446   3.845 -0.2537 -0.1871 -0.1787
 8115SOL    HW135978   0.472   0.356   3.824 -1.6948 -0.9889  1.5432
 8115SOL    HW235979   0.363   0.436   3.800 -1.2867 -1.4603  1.9839
 8116SOL     OW35980   1.058   3.992   3.613 -0.7043 -0.7136  0.3168
 8116SOL    HW135981   1.015   3.981   3.698 -0.6266  0.3322  0.5019
 8116SOL    HW235982   1.011   3.926   3.562 -1.9963  0.7997 -0.4552
 8117SOL     OW35983   1.112   4.003   6.219  0.6654 -0.3603 -0.3421
 8117SOL    HW135984   1.061   3.957   6.152 -0.1934  1.0003 -0.6182
 8117SOL    HW235985   1.099   3.939   6.290 -0.4003 -0.9518 -1.0664
 8118SOL     OW35986   2.670   3.620  11.134  0.1986 -0.7429  0.5721
 8118SOL    HW135987   2.632   3.569  11.206 -2.4472 -1.5956 -1.4360
 8118SOL    HW235988   2.633   3.592  11.051  0.4068 -0.4928  0.3966
 8119SOL     OW35989   0.334   4.714  16.946 -0.2407 -0.3697 -0.4191
 8119SOL    HW135990   0.286   4.662  16.882 -0.7850 -0.4190  0.0265
 8119SOL    HW235991   0.422   4.693  16.917 -0.6336  1.6430 -3.0159
 8120SOL     OW35992   0.743   3.991   7.312  0.1090  0.0609 -0.0180
 8120SOL    HW135993   0.669   3.937   7.337 -0.1985  0.6541  0.3663
 8120SOL    HW235994   0.779   3.999   7.401  1.8643  0.7210 -0.7790
 8121SOL     OW35995   4.488   4.149   2.664 -0.3133 -0.1671  0.6853
 8121SOL    HW135996   4.557   4.184   2.720 -0.3360 -0.0729  0.6548
 8121SOL    HW235997   4.411   4.156   2.721 -0.2520  0.2151  0.7182
 8122SOL     OW35998   0.125   2.268   5.024  0.0158 -0.5053 -0.7182
 8122SOL    HW135999   0.063   2.197   5.040  0.4292 -0.7941 -0.3976
 8122SOL    HW236000   0.184   2.218   4.968 -0.3055 -1.4774 -0.1886
 8123SOL     OW36001   2.160   2.597  14.410 -0.5839 -0.1829  0.4219
 8123SOL    HW136002   2.156   2.604  14.315 -1.6649  1.7310  0.6195
 8123SOL    HW236003   2.114   2.674  14.442  1.0459  0.7356  0.5846
 8124SOL     OW36004   1.970   3.424   6.223  0.0898  0.0237  0.3225
 8124SOL    HW136005   2.050   3.380   6.195 -0.2926 -0.8292  0.5816
 8124SOL    HW236006   1.905   3.371   6.175 -1.1780  1.2304  0.7097
 8125SOL     OW36007   2.993   3.041   6.113 -0.2129 -0.1433  0.3295
 8125SOL    HW136008   3.036   3.095   6.179 -1.8247 -1.6223  2.6219
 8125SOL    HW236009   2.989   3.106   6.044  2.8306 -2.2473 -1.8329
 8126SOL     OW36010   2.788   4.035   7.775  0.6093 -0.2891  0.0277
 8126SOL    HW136011   2.758   3.944   7.772  1.1213 -0.3837 -2.7666
 8126SOL    HW236012   2.699   4.061   7.752  0.9603  0.2266 -0.7527
 8127SOL     OW36013   2.431   3.110   9.450  0.4885  0.3191 -0.0981
 8127SOL    HW136014   2.461   3.195   9.481 -0.3645  0.3359  0.6878
 8127SOL    HW236015   2.427   3.117   9.354  1.1832 -2.2591 -0.3276
 8128SOL     OW36016   1.270   0.282   5.690 -0.0223  0.5620 -0.0186
 8128SOL    HW136017   1.175   0.276   5.705 -0.2277  2.9041 -0.3736
 8128SOL    HW236018   1.287   0.376   5.700  0.6932  0.3365  0.9257
 8129SOL     OW36019   3.770   4.244   8.537 -0.1875  0.2297 -0.5833
 8129SOL    HW136020   3.813   4.289   8.609 -1.3383 -1.6292  1.2613
 8129SOL    HW236021   3.776   4.313   8.471 -1.2222  0.3889 -0.5007
 8130SOL     OW36022   3.387   1.567   7.080  0.1048  0.6832 -0.3549
 8130SOL    HW136023   3.395   1.503   7.009  1.5065  0.7333 -0.2375
 8130SOL    HW236024   3.307   1.613   7.052 -1.1852 -1.2395  0.1453
 8131SOL     OW36025   0.178   4.387   8.199 -0.1734  0.4665  0.4812
 8131SOL    HW136026   0.137   4.371   8.284 -1.6912 -1.3801 -0.5980
 8131SOL    HW236027   0.102   4.373   8.143 -0.9629  5.4253  0.3430
 8132SOL     OW36028   1.952   4.024   3.869 -0.6111 -0.4637  0.3493
 8132SOL    HW136029   2.005   4.062   3.799 -1.1670  0.7389  0.5941
 8132SOL    HW236030   1.881   4.088   3.868  0.3392  0.5847  0.9623
 8133SOL     OW36031   0.704   2.724   2.894 -0.0653  0.0296  0.2864
 8133SOL    HW136032   0.715   2.755   2.804  0.1781 -1.2405 -0.1248
 8133SOL    HW236033   0.652   2.798   2.927  0.1145  0.7799 -1.1116
 8134SOL     OW36034   4.042   0.979   5.028 -0.0811  0.0721 -0.6548
 8134SOL    HW136035   4.056   0.943   4.940  0.2856  2.4783 -1.5831
 8134SOL    HW236036   4.132   0.986   5.060  0.4682 -2.0958 -1.6790
 8135SOL     OW36037   0.545   3.154  17.481  0.1439 -0.8400  1.0256
 8135SOL    HW136038   0.461   3.108  17.483  0.0517 -0.6143  2.4783
 8135SOL    HW236039   0.514   3.242  17.460 -0.1616 -1.2617 -0.2930
 8136SOL     OW36040   1.610   4.458  12.358 -0.7866  0.4881 -0.2513
 8136SOL    HW136041   1.605   4.548  12.392 -2.0205 -0.5605  2.4057
 8136SOL    HW236042   1.608   4.416  12.444 -2.2127 -0.5344 -0.7839
 8137SOL     OW36043   2.575   1.435  11.325  0.7487  0.7746  0.2700
 8137SOL    HW136044   2.627   1.360  11.297  1.3295  0.7937  1.2897
 8137SOL    HW236045   2.570   1.484  11.243  0.7450  1.4768  0.6912
 8138SOL     OW36046   3.254   1.281   9.629 -0.7379  0.1450 -0.1342
 8138SOL    HW136047   3.226   1.198   9.667  1.2272 -1.9250 -3.2399
 8138SOL    HW236048   3.228   1.272   9.537 -0.4522 -1.4591 -0.0573
 8139SOL     OW36049   3.005   1.004   8.067  0.3049 -0.6080  0.2557
 8139SOL    HW136050   3.017   0.972   8.157 -1.8974  0.1775  0.8116
 8139SOL    HW236051   3.020   1.097   8.086  1.6123 -0.5393 -1.0923
 8140SOL     OW36052   2.449   3.681   7.184  0.8066 -0.4277 -0.3330
 8140SOL    HW136053   2.355   3.665   7.180  0.3529  1.8758  1.1874
 8140SOL    HW236054   2.456   3.703   7.277  2.6042 -1.9690 -0.1232
 8141SOL     OW36055   4.418   2.687   1.309 -0.0032  0.4883 -0.2514
 8141SOL    HW136056   4.335   2.676   1.264 -0.1633  0.7306 -0.0193
 8141SOL    HW236057   4.481   2.712   1.241 -0.4607 -0.6879 -1.1043
 8142SOL     OW36058   2.594   3.599   9.514 -0.1746  0.3774 -0.3269
 8142SOL    HW136059   2.669   3.597   9.455 -1.7650  0.3572 -2.3955
 8142SOL    HW236060   2.527   3.650   9.468 -0.2032  1.0450  0.4560
 8143SOL     OW36061   4.345   3.461   5.836  0.1461  0.5953 -0.6769
 8143SOL    HW136062   4.261   3.504   5.825  0.5208  1.5316  0.1030
 8143SOL    HW236063   4.343   3.414   5.753  1.5611 -3.0530  1.3277
 8144SOL     OW36064   0.779   0.713   1.690 -0.1787 -0.1479  0.1472
 8144SOL    HW136065   0.707   0.768   1.722 -0.5892 -0.3033 -0.5170
 8144SOL    HW236066   0.740   0.669   1.614 -2.3439  1.4704  0.3217
 8145SOL     OW36067   3.937   1.353  12.934  0.5054 -0.3942 -0.6056
 8145SOL    HW136068   3.868   1.296  12.969 -1.3532  0.8145 -2.3225
 8145SOL    HW236069   4.008   1.338  12.996  1.3299 -2.1003 -1.9508
 8146SOL     OW36070   3.119   1.256   6.621 -0.4772  0.4186 -0.4961
 8146SOL    HW136071   3.187   1.324   6.625  0.2212 -0.2977 -0.0877
 8146SOL    HW236072   3.178   1.180   6.620 -3.3215 -1.7784  0.1501
 8147SOL     OW36073   0.508   3.430  11.383  0.2198  0.3452  0.0420
 8147SOL    HW136074   0.542   3.371  11.450 -0.5900 -0.0210  0.1364
 8147SOL    HW236075   0.460   3.495  11.433  0.2789 -1.0666  1.9174
 8148SOL     OW36076   1.346   2.700   8.688  0.0572  0.3592  0.0467
 8148SOL    HW136077   1.377   2.630   8.630  0.4690  0.9063 -0.4031
 8148SOL    HW236078   1.430   2.742   8.708 -0.8214  1.8193  0.6797
 8149SOL     OW36079   4.388   3.323   1.175 -0.0319  0.0052  0.4241
 8149SOL    HW136080   4.353   3.282   1.096  1.2153  0.2063 -0.2461
 8149SOL    HW236081   4.390   3.412   1.139 -2.0990  0.6696  1.9962
 8150SOL     OW36082   1.774   3.090   6.685  0.1757 -0.4838 -0.0139
 8150SOL    HW136083   1.761   3.116   6.776  3.6086 -2.7192  1.0934
 8150SOL    HW236084   1.698   3.116   6.633  2.2756 -1.5038 -3.5794
 8151SOL     OW36085   3.734   2.094   3.367  0.1478 -0.2179  0.1193
 8151SOL    HW136086   3.818   2.117   3.406  0.8547  0.3785 -1.7678
 8151SOL    HW236087   3.690   2.076   3.451  2.5428  0.2071  1.4518
 8152SOL     OW36088   1.963   0.557  17.055  0.2941 -0.0785  0.4725
 8152SOL    HW136089   2.027   0.487  17.072  0.5249  0.2066  0.7769
 8152SOL    HW236090   1.981   0.570  16.962 -1.4253  0.4305  0.2217
 8153SOL     OW36091   1.627   1.545  17.628 -0.4497 -0.3291 -0.7496
 8153SOL    HW136092   1.558   1.535  17.694  1.7066  0.3825  1.6228
 8153SOL    HW236093   1.679   1.468  17.652  0.9876  0.2359 -2.0367
 8154SOL     OW36094   2.238   4.596   3.450  0.0410 -0.0670 -0.0161
 8154SOL    HW136095   2.204   4.683   3.431  1.4836  0.0931 -1.8705
 8154SOL    HW236096   2.178   4.568   3.519  0.6762  0.5253  0.7694
 8155SOL     OW36097   2.341   3.933   6.365  0.0211 -0.1481  0.2037
 8155SOL    HW136098   2.399   3.882   6.309  2.6709  2.0193  0.9797
 8155SOL    HW236099   2.257   3.913   6.323  0.4398  2.1427 -1.7352
 8156SOL     OW36100   4.181   4.477   5.992  0.8166  0.3060  0.3533
 8156SOL    HW136101   4.179   4.429   6.075 -0.8120 -0.6208 -0.2309
 8156SOL    HW236102   4.257   4.437   5.949 -0.9583 -0.6499 -1.8633
 8157SOL     OW36103   3.308   1.992   1.851  0.6531 -0.1210 -0.4173
 8157SOL    HW136104   3.382   1.987   1.791  0.8149 -1.6028 -0.0902
 8157SOL    HW236105   3.351   2.044   1.919 -0.5167  0.0437  0.2011
 8158SOL     OW36106   2.727   2.585   5.530 -0.7448 -0.1081  0.6468
 8158SOL    HW136107   2.701   2.672   5.498  0.2553  0.0107  0.1490
 8158SOL    HW236108   2.799   2.571   5.469 -1.2051 -1.8646  0.5158
 8159SOL     OW36109   0.200   3.655   1.385 -0.0123  0.1321 -0.0248
 8159SOL    HW136110   0.221   3.748   1.373  0.4253  0.0298 -0.0430
 8159SOL    HW236111   0.288   3.619   1.381 -0.3285 -0.6049 -0.3875
 8160SOL     OW36112   3.165   3.233   4.525 -0.0567  0.8627 -0.0501
 8160SOL    HW136113   3.186   3.253   4.617  1.7881 -0.3153 -0.2293
 8160SOL    HW236114   3.221   3.159   4.503 -1.1394  0.0034  0.0833
 8161SOL     OW36115   4.033   4.553  10.262 -0.5361  0.1068 -0.0594
 8161SOL    HW136116   4.086   4.474  10.258 -0.5615  0.1464 -1.3857
 8161SOL    HW236117   3.992   4.549  10.175  2.0530 -0.4886 -1.2520
 8162SOL     OW36118   4.289   3.189   0.650 -0.1858 -0.7014 -0.3987
 8162SOL    HW136119   4.361   3.145   0.605 -1.7359 -1.3136 -2.2629
 8162SOL    HW236120   4.220   3.124   0.637 -1.5877  1.2033 -2.5356
 8163SOL     OW36121   3.076   0.508  13.588  0.6357 -0.5840 -0.1397
 8163SOL    HW136122   3.147   0.477  13.531  0.1153 -1.5166 -0.2968
 8163SOL    HW236123   3.040   0.419  13.592 -2.5334  0.6850 -0.2157
 8164SOL     OW36124   0.620   0.788   4.762 -0.5870 -0.1521  0.4551
 8164SOL    HW136125   0.529   0.772   4.786 -0.4396  0.1623  1.2459
 8164SOL    HW236126   0.615   0.809   4.669  0.6624  0.0385  0.4323
 8165SOL     OW36127   4.401   4.395   8.447  0.1998 -1.1902  0.2327
 8165SOL    HW136128   4.436   4.345   8.374  0.9713 -0.5270  0.1478
 8165SOL    HW236129   4.480   4.429   8.489  0.3289 -0.2947 -0.7309
 8166SOL     OW36130   3.094   4.094   4.161  0.1771 -0.1570 -0.3782
 8166SOL    HW136131   3.133   4.173   4.122 -0.7817 -0.2778 -1.5476
 8166SOL    HW236132   3.160   4.032   4.129  1.5194  1.2058 -0.2863
 8167SOL     OW36133   1.230   3.527  11.724 -0.7093  0.0494 -0.3081
 8167SOL    HW136134   1.168   3.560  11.659 -0.2806  2.1765  0.3559
 8167SOL    HW236135   1.202   3.589  11.792  2.2440 -0.1412  1.0847
 8168SOL     OW36136   2.428   4.374   0.906  0.5080  0.6589  0.7217
 8168SOL    HW136137   2.424   4.304   0.970 -1.7129  0.0257 -0.1199
 8168SOL    HW236138   2.418   4.448   0.967 -3.8636  1.1635 -0.5958
 8169SOL     OW36139   2.528   2.770   1.663 -0.2142  0.1096 -0.5753
 8169SOL    HW136140   2.488   2.684   1.673  3.5974 -1.9990 -3.6712
 8169SOL    HW236141   2.446   2.811   1.637 -0.9584 -0.3844  0.9705
 8170SOL     OW36142   3.629   2.048   7.357 -0.1571  0.6654 -0.0117
 8170SOL    HW136143   3.553   2.080   7.308  0.4040  1.4600 -0.3794
 8170SOL    HW236144   3.682   2.013   7.285 -0.0694  0.0143  0.3747
 8171SOL     OW36145   3.960   3.654   6.754  0.5553  0.4278 -1.0901
 8171SOL    HW136146   3.867   3.636   6.735  0.5913 -1.3590  0.4292
 8171SOL    HW236147   3.962   3.660   6.849  0.6786 -1.4671 -0.9765
 8172SOL     OW36148   4.377   1.994   3.636 -0.0234 -0.4105  0.2742
 8172SOL    HW136149   4.331   1.911   3.623 -0.7755 -0.0300  0.4730
 8172SOL    HW236150   4.389   2.022   3.545  0.1977 -3.1990 -0.5449
 8173SOL     OW36151   1.747   0.563   6.840  0.0083 -0.4357 -0.0825
 8173SOL    HW136152   1.739   0.595   6.750  0.3480  0.2063  0.1143
 8173SOL    HW236153   1.822   0.503   6.839 -0.1539 -0.6279 -0.7264
 8174SOL     OW36154   2.406   0.703   9.630  0.4200  0.0816 -0.5987
 8174SOL    HW136155   2.395   0.630   9.690 -0.0277 -0.1366 -0.9410
 8174SOL    HW236156   2.482   0.673   9.580  1.8085  2.3171  0.1858
 8175SOL     OW36157   4.460   0.451   6.778  0.1203 -0.3323 -0.4865
 8175SOL    HW136158   4.439   0.365   6.815 -1.9078  0.7836  1.0080
 8175SOL    HW236159   4.555   0.451   6.770  0.2935  1.2617  1.6274
 8176SOL     OW36160   0.541   2.912   8.966 -0.3333  0.0071 -0.3413
 8176SOL    HW136161   0.598   2.842   8.998  0.0699  1.1379  1.4302
 8176SOL    HW236162   0.597   2.990   8.966  2.0498 -1.7172  4.1445
 8177SOL     OW36163   1.875   3.747   3.849 -0.6600 -0.1964  0.3190
 8177SOL    HW136164   1.932   3.761   3.773 -0.4662 -0.1030  0.4805
 8177SOL    HW236165   1.889   3.827   3.898 -0.3152  0.3994 -0.7493
 8178SOL     OW36166   2.199   0.335   9.369 -0.5562 -0.8945  0.1034
 8178SOL    HW136167   2.203   0.267   9.300  0.0699 -0.7419 -0.0156
 8178SOL    HW236168   2.111   0.365   9.347 -0.6408 -0.4510  1.0772
 8179SOL     OW36169   0.971   2.791   7.891  0.0626  0.1008  0.3695
 8179SOL    HW136170   0.891   2.845   7.894 -0.5833 -0.7740 -1.2098
 8179SOL    HW236171   0.930   2.704   7.890  0.3166  0.0266 -2.5387
 8180SOL     OW36172   3.784   0.474   2.534 -0.1914  0.5404  0.3311
 8180SOL    HW136173   3.837   0.512   2.604 -0.2256  2.6711 -0.8062
 8180SOL    HW236174   3.716   0.426   2.582 -0.8167 -0.4750 -1.5834
 8181SOL     OW36175   3.255   0.260   3.297 -0.1245 -0.3572 -0.0279
 8181SOL    HW136176   3.180   0.235   3.351  0.0232 -0.2553  0.2258
 8181SOL    HW236177   3.266   0.186   3.237  1.0185  2.5912 -3.4904
 8182SOL     OW36178   1.605   1.732   0.527 -0.4496 -0.1518 -0.4828
 8182SOL    HW136179   1.655   1.762   0.452  1.8591 -0.8041  0.7693
 8182SOL    HW236180   1.562   1.813   0.554  1.8046  0.6269  0.7753
 8183SOL     OW36181   1.527   1.115   3.139 -0.1971 -0.1353  0.2379
 8183SOL    HW136182   1.519   1.025   3.168  0.1561 -0.8066 -1.7316
 8183SOL    HW236183   1.605   1.144   3.185 -0.0224 -0.7076  0.2913
 8184SOL     OW36184   0.157   3.454   5.181  0.2075  0.1619  0.1205
 8184SOL    HW136185   0.242   3.425   5.147 -0.5891 -0.6727 -1.1200
 8184SOL    HW236186   0.178   3.434   5.273  1.2341  0.3703 -0.0696
 8185SOL     OW36187   2.259   0.179   4.703 -0.0647  0.6829  0.3657
 8185SOL    HW136188   2.313   0.173   4.782 -0.2333  0.0338  0.4333
 8185SOL    HW236189   2.316   0.189   4.627  0.6735  0.7452  0.9274
 8186SOL     OW36190   0.860   0.796   3.402 -0.3591  0.1088 -0.0950
 8186SOL    HW136191   0.927   0.743   3.358 -2.0388 -1.0209 -1.3197
 8186SOL    HW236192   0.817   0.841   3.329 -0.7626 -0.3842 -0.1618
 8187SOL     OW36193   3.301   1.369   7.779  0.1690 -0.3468  0.3575
 8187SOL    HW136194   3.285   1.331   7.692 -1.6744  2.5106 -0.5716
 8187SOL    HW236195   3.215   1.371   7.822 -0.9059  3.9315 -1.9242
 8188SOL     OW36196   0.414   4.357   2.028  0.6012  0.4286 -0.4664
 8188SOL    HW136197   0.331   4.403   2.015  1.1820  1.2912 -1.0988
 8188SOL    HW236198   0.440   4.375   2.119  0.2691 -0.9332 -0.1043
 8189SOL     OW36199   3.413   0.303  16.284  0.0020  0.2283  0.2788
 8189SOL    HW136200   3.407   0.222  16.335 -1.5693  0.7292  0.8974
 8189SOL    HW236201   3.495   0.341  16.316  0.8984 -1.7713  0.3965
 8190SOL     OW36202   2.174   3.631   4.982 -0.1336  0.1462 -0.2192
 8190SOL    HW136203   2.116   3.604   5.054 -0.0763 -0.0548 -0.2503
 8190SOL    HW236204   2.220   3.706   5.022  0.3386  0.0578 -0.5973
 8191SOL     OW36205   3.337   4.310  16.860  0.5913  0.1169  0.1011
 8191SOL    HW136206   3.330   4.228  16.909  0.9351  0.0504  0.0405
 8191SOL    HW236207   3.303   4.377  16.919  1.0397  0.3667  0.0757
 8192SOL     OW36208   0.351   0.272   3.360 -0.2620 -0.3247  0.2820
 8192SOL    HW136209   0.363   0.177   3.370 -0.6208 -0.4645 -0.6913
 8192SOL    HW236210   0.422   0.308   3.413 -0.1750 -0.8423  0.5189
 8193SOL     OW36211   0.004   1.557   1.503  0.2080 -0.8325  0.0684
 8193SOL    HW136212   4.712   1.467   1.526  0.5848 -0.9457  0.0436
 8193SOL    HW236213   0.065   1.572   1.576  1.4687  0.4879 -1.2775
 8194SOL     OW36214   3.313   3.251   9.899  0.0606 -0.5852  0.1820
 8194SOL    HW136215   3.356   3.165   9.897  1.5565  0.1912 -0.8776
 8194SOL    HW236216   3.327   3.270   9.807  0.7972 -1.9861  0.0054
 8195SOL     OW36217   3.925   2.754   9.342  0.4313  0.2907 -0.6298
 8195SOL    HW136218   3.997   2.814   9.326  0.2595  0.8141  0.6159
 8195SOL    HW236219   3.915   2.746   9.437  3.4986  2.1355 -0.1653
 8196SOL     OW36220   0.372   3.652  15.925 -0.0188  0.6783 -0.0149
 8196SOL    HW136221   0.294   3.691  15.965 -1.4709 -1.2010 -1.0097
 8196SOL    HW236222   0.423   3.731  15.908  0.5767 -0.1423 -1.9817
 8197SOL     OW36223   3.757   3.434   1.359 -0.0191  0.1128  0.0619
 8197SOL    HW136224   3.847   3.434   1.326  0.3652  1.3498  1.1404
 8197SOL    HW236225   3.727   3.525   1.357  2.2088  0.8419  0.3075
 8198SOL     OW36226   3.392   1.594  15.974 -0.4874 -0.7534 -0.4631
 8198SOL    HW136227   3.427   1.681  15.994  0.5533 -1.0835 -0.8248
 8198SOL    HW236228   3.298   1.610  15.973 -0.7309 -1.9892  1.9493
 8199SOL     OW36229   2.580   1.610  11.087 -0.6110 -0.4755 -0.1444
 8199SOL    HW136230   2.671   1.639  11.096 -0.3927 -1.9272  2.4371
 8199SOL    HW236231   2.528   1.689  11.103 -0.9958 -1.4303  3.4425
 8200SOL     OW36232   1.125   1.450   8.795  0.1006  0.1404 -0.1766
 8200SOL    HW136233   1.051   1.488   8.842  0.5806 -1.3134  1.7569
 8200SOL    HW236234   1.196   1.471   8.855  2.9143  1.4500 -3.9019
 8201SOL     OW36235   0.314   3.397   5.384 -0.3808  0.3612  0.1661
 8201SOL    HW136236   0.303   3.303   5.393  2.6176  0.2841  3.0832
 8201SOL    HW236237   0.405   3.396   5.356 -0.4995  1.1658 -0.2432
 8202SOL     OW36238   2.668   1.518  15.122 -0.1911  0.3844  0.1521
 8202SOL    HW136239   2.676   1.454  15.051 -1.5061  0.3565  0.0381
 8202SOL    HW236240   2.760   1.518  15.148 -0.5023 -1.2084  1.2412
 8203SOL     OW36241   2.589   4.685  14.358  0.3685  0.0905  0.1969
 8203SOL    HW136242   2.591   4.718  14.448 -2.2834  1.0983 -0.1064
 8203SOL    HW236243   2.618   0.026  14.307  2.6812 -0.3237  0.9192
 8204SOL     OW36244   0.316   3.009   9.218  0.0709  0.0312  0.7625
 8204SOL    HW136245   0.312   3.100   9.190 -1.3284 -0.6081 -1.1527
 8204SOL    HW236246   0.320   2.966   9.133 -0.6536  0.4438  0.5193
 8205SOL     OW36247   3.494   2.389   8.003  0.0407  0.5061 -0.2243
 8205SOL    HW136248   3.507   2.397   7.909  0.4649  0.3318 -0.1845
 8205SOL    HW236249   3.554   2.318   8.028 -1.6258 -0.8694 -0.1226
 8206SOL     OW36250   1.977   2.931   3.006  0.1781  0.1105  0.0675
 8206SOL    HW136251   2.029   2.945   2.927  0.5718  2.5316  0.7439
 8206SOL    HW236252   1.974   3.025   3.023 -5.0110 -0.1141  0.1617
 8207SOL     OW36253   1.018   2.106   1.284 -0.7074 -0.1733  0.6285
 8207SOL    HW136254   1.070   2.129   1.207 -0.8673 -1.0813  0.2518
 8207SOL    HW236255   0.935   2.143   1.255  0.5242  1.4314 -0.8326
 8208SOL     OW36256   2.577   3.989   9.443 -0.2302  0.1362  0.1991
 8208SOL    HW136257   2.561   4.004   9.350  2.4483  0.7540 -0.1496
 8208SOL    HW236258   2.524   4.063   9.474 -0.2944  0.8467 -1.6105
 8209SOL     OW36259   1.698   4.565   8.835 -0.2365 -0.6134  0.2835
 8209SOL    HW136260   1.770   4.574   8.773 -0.0231 -1.6438  0.3850
 8209SOL    HW236261   1.628   4.518   8.788  0.1702  0.5503 -1.4975
 8210SOL     OW36262   0.975   2.606  14.005 -0.8140 -0.2585  0.3133
 8210SOL    HW136263   0.970   2.571  13.915 -2.8601  0.1125  0.2826
 8210SOL    HW236264   1.027   2.685  13.988  0.1022 -0.8336  0.4084
 8211SOL     OW36265   3.700   4.544  16.134  0.2844 -0.4736  0.0603
 8211SOL    HW136266   3.606   4.526  16.131  0.0008  0.9183  0.6541
 8211SOL    HW236267   3.715   4.529  16.041  1.0153 -0.0368  0.1132
 8212SOL     OW36268   2.047   1.258   6.972  0.0080  0.3432 -0.2074
 8212SOL    HW136269   2.050   1.163   6.981 -1.2356  0.2774 -0.4968
 8212SOL    HW236270   2.106   1.279   6.899  0.8806  1.7908  0.9243
 8213SOL     OW36271   1.021   1.495   0.348 -0.3952 -0.7883  0.3156
 8213SOL    HW136272   1.028   1.527   0.439 -0.7987 -0.5767  0.2746
 8213SOL    HW236273   0.937   1.451   0.365 -1.1080 -0.0437 -1.3179
 8214SOL     OW36274   1.634   1.658  16.352  0.8966  0.0895 -0.4165
 8214SOL    HW136275   1.706   1.710  16.318  0.4239  0.1417 -1.3367
 8214SOL    HW236276   1.562   1.711  16.318 -0.3747 -1.1194  0.3776
 8215SOL     OW36277   0.054   1.811   8.929  0.6169  0.0587  0.1873
 8215SOL    HW136278   0.124   1.821   8.865 -0.4723  0.6206 -0.9155
 8215SOL    HW236279   0.041   1.901   8.959 -0.8825 -1.2024  3.3278
 8216SOL     OW36280   2.336   1.102   4.576 -0.2829  0.2100  0.1272
 8216SOL    HW136281   2.310   1.185   4.536 -2.7529 -0.5160  0.2596
 8216SOL    HW236282   2.322   1.034   4.510  0.5587 -0.4084  0.5832
 8217SOL     OW36283   2.832   1.047   9.507 -0.0009 -0.1065  0.4792
 8217SOL    HW136284   2.853   0.967   9.555  1.6588  1.2084  1.9553
 8217SOL    HW236285   2.846   1.109   9.579 -1.0799  0.4991  0.1659
 8218SOL     OW36286   4.113   3.005   1.281 -0.1321  0.5940 -0.2470
 8218SOL    HW136287   4.131   2.997   1.188 -1.5020  1.9532 -0.6275
 8218SOL    HW236288   4.203   2.996   1.312 -0.0362 -0.0443 -0.7176
 8219SOL     OW36289   3.888   0.110   4.684  0.1008  0.1259 -0.2091
 8219SOL    HW136290   3.834   0.054   4.738  2.1544 -1.2817  0.3752
 8219SOL    HW236291   3.837   0.190   4.667  1.6493  1.0312 -0.6348
 8220SOL     OW36292   0.429   1.000   5.951  0.8513 -0.2805  0.1330
 8220SOL    HW136293   0.406   1.092   5.938 -1.1400 -0.5622  1.6179
 8220SOL    HW236294   0.363   0.980   6.018 -0.6909  0.5335 -1.1338
 8221SOL     OW36295   3.671   0.449  12.106  0.2480  0.2000  0.1778
 8221SOL    HW136296   3.672   0.354  12.105 -2.8231  0.1645  0.9588
 8221SOL    HW236297   3.609   0.466  12.177  2.3272 -0.0559  2.0559
 8222SOL     OW36298   1.027   0.155   8.454 -0.0478 -0.3622  0.0060
 8222SOL    HW136299   0.952   0.215   8.455 -1.3534 -1.9935 -0.6900
 8222SOL    HW236300   0.992   0.091   8.393  0.6869  1.2138 -2.0815
 8223SOL     OW36301   0.204   3.204   0.041  0.2442  0.4485  0.4026
 8223SOL    HW136302   0.243   3.280   0.083  0.4695  0.7999 -0.4332
 8223SOL    HW236303   0.279   3.146   0.052 -1.2653 -1.8512 -1.2828
 8224SOL     OW36304   3.808   2.913   1.329 -0.4107 -0.0018 -0.0888
 8224SOL    HW136305   3.769   3.000   1.320  0.1867  0.3094  0.3124
 8224SOL    HW236306   3.898   2.935   1.306 -0.6467  1.5592  0.5155
 8225SOL     OW36307   2.705   1.105   3.269  0.6331 -0.3166  0.2371
 8225SOL    HW136308   2.712   1.045   3.195 -0.5663  0.5345 -0.5675
 8225SOL    HW236309   2.691   1.177   3.208 -3.2918 -1.8170 -0.6275
 8226SOL     OW36310   4.630   0.710  15.771 -0.1720 -0.5976 -0.2323
 8226SOL    HW136311   4.667   0.708  15.683 -0.9466 -0.7162 -0.5600
 8226SOL    HW236312   4.594   0.799  15.773  0.9389 -0.1450 -0.7067
 8227SOL     OW36313   4.594   2.030   4.989  0.4156  0.1535  0.4739
 8227SOL    HW136314   4.523   1.967   4.991  1.9342 -1.5523  0.3529
 8227SOL    HW236315   4.576   2.074   4.906  0.8749 -0.4979  0.0341
 8228SOL     OW36316   1.968   0.451   3.531 -0.3188 -0.2227  0.2997
 8228SOL    HW136317   2.052   0.415   3.559  0.1222  0.5991  0.0404
 8228SOL    HW236318   1.977   0.535   3.574  0.5291 -1.3307  2.2919
 8229SOL     OW36319   0.576   2.932   2.978  0.0491 -0.1674 -0.3221
 8229SOL    HW136320   0.521   2.993   3.027 -2.3085 -1.9813 -0.7222
 8229SOL    HW236321   0.571   2.987   2.899 -0.3358  0.8520  0.4061
 8230SOL     OW36322   4.633   2.306  15.291 -0.1171 -0.2515 -1.0347
 8230SOL    HW136323   4.722   2.340  15.282 -0.4493  0.7197 -0.6505
 8230SOL    HW236324   4.628   2.240  15.223 -1.4465 -1.3329  0.1030
 8231SOL     OW36325   2.333   1.301   3.772 -0.2181  0.5707  0.1983
 8231SOL    HW136326   2.329   1.232   3.706 -0.3358  0.8779 -0.1176
 8231SOL    HW236327   2.354   1.371   3.709  0.2144 -0.2780 -0.5980
 8232SOL     OW36328   4.251   0.677   8.387 -0.1654  0.3023  0.2129
 8232SOL    HW136329   4.157   0.676   8.371  0.4874 -1.5740 -3.4639
 8232SOL    HW236330   4.278   0.716   8.303 -1.8791 -1.6330 -1.2187
 8233SOL     OW36331   2.071   1.561   3.742  0.3866  0.4435 -0.4743
 8233SOL    HW136332   2.150   1.608   3.716  0.9784  0.3653  1.1925
 8233SOL    HW236333   2.045   1.501   3.672  0.6044 -0.2015  0.0010
 8234SOL     OW36334   2.597   3.227   6.172  0.4331  0.2365  0.0665
 8234SOL    HW136335   2.676   3.188   6.210 -0.4839 -0.1018  1.6115
 8234SOL    HW236336   2.591   3.310   6.220 -3.4151 -0.1782  0.2596
 8235SOL     OW36337   3.562   3.854   0.796  0.1272  0.2854 -0.2855
 8235SOL    HW136338   3.605   3.932   0.760 -0.6231  1.9083  2.3360
 8235SOL    HW236339   3.472   3.886   0.798  0.1900  0.4984 -0.7622
 8236SOL     OW36340   0.905   1.479  14.318  0.2482 -0.2801 -0.6661
 8236SOL    HW136341   0.990   1.471  14.274  0.0904 -1.3914 -0.7633
 8236SOL    HW236342   0.922   1.520  14.403 -2.6420 -0.4734  0.0259
 8237SOL     OW36343   3.456   3.590  11.532  0.8607  0.0259 -0.2686
 8237SOL    HW136344   3.432   3.631  11.615  0.0201 -2.0474  0.5220
 8237SOL    HW236345   3.437   3.663  11.474 -1.8623 -1.9945 -1.9283
 8238SOL     OW36346   0.475   0.083   2.836  0.8144  0.2630  0.3486
 8238SOL    HW136347   0.541   0.128   2.889  1.3861 -1.5749  1.1910
 8238SOL    HW236348   0.400   0.142   2.838  0.1861 -0.5112 -0.4353
 8239SOL     OW36349   3.620   3.904   1.879 -0.2048 -0.4544 -0.2663
 8239SOL    HW136350   3.540   3.858   1.851  0.1890 -1.5900  0.4518
 8239SOL    HW236351   3.694   3.877   1.825 -0.0697  0.5878 -0.5933
 8240SOL     OW36352   3.538   0.385   8.924 -0.5879  0.0147 -0.0007
 8240SOL    HW136353   3.444   0.371   8.937 -0.6666  1.1419  0.6591
 8240SOL    HW236354   3.540   0.392   8.828  0.3891 -0.9731 -0.0508
 8241SOL     OW36355   2.593   1.600   7.855 -0.0999 -0.1986  0.6153
 8241SOL    HW136356   2.571   1.683   7.898 -0.0608 -0.4687  1.1668
 8241SOL    HW236357   2.509   1.555   7.849  0.4217 -1.0720 -0.0753
 8242SOL     OW36358   0.354   1.741  12.543  0.3417 -0.2567  0.4016
 8242SOL    HW136359   0.266   1.732  12.581  0.2263 -0.9123 -0.0139
 8242SOL    HW236360   0.356   1.828  12.504 -0.6210 -0.8319 -0.9472
 8243SOL     OW36361   3.922   2.033   7.586 -0.7391  0.8881  0.3727
 8243SOL    HW136362   3.896   2.101   7.649 -1.1344 -3.6817  5.1745
 8243SOL    HW236363   3.835   1.994   7.578 -1.1641  1.9154 -0.0394
 8244SOL     OW36364   0.456   4.676  15.023 -0.1997 -0.3709  0.0170
 8244SOL    HW136365   0.463   4.599  14.966 -1.6160 -0.6794  0.2739
 8244SOL    HW236366   0.534   4.666  15.078 -0.1672 -4.1870 -0.7138
 8245SOL     OW36367   1.386   3.023   7.622  0.2844  0.4913  0.2343
 8245SOL    HW136368   1.420   3.095   7.570 -0.9529  0.7951 -0.1561
 8245SOL    HW236369   1.409   2.952   7.562 -2.9523 -1.3676  1.1852
 8246SOL     OW36370   0.820   0.570   8.178  0.2335  0.3615 -0.4203
 8246SOL    HW136371   0.884   0.571   8.250  0.3597  1.8007 -0.5514
 8246SOL    HW236372   0.833   0.654   8.133  1.1306  1.0206  1.0537
 8247SOL     OW36373   3.681   2.054   4.605 -0.0898  0.1144  0.1818
 8247SOL    HW136374   3.602   2.000   4.596  1.3325 -2.1799  1.7547
 8247SOL    HW236375   3.742   1.984   4.629  1.4849  1.6693  0.7091
 8248SOL     OW36376   0.792   4.327   2.164  0.3186 -0.5103  0.1166
 8248SOL    HW136377   0.708   4.360   2.197  0.9515  2.7600 -1.5040
 8248SOL    HW236378   0.844   4.353   2.239  1.2491  0.3526 -0.8246
 8249SOL     OW36379   2.132   0.357  16.633  0.6685  0.0309 -0.6756
 8249SOL    HW136380   2.223   0.378  16.613  0.3502  1.3497 -0.7374
 8249SOL    HW236381   2.139   0.267  16.665  2.0180 -0.0137 -1.1163
 8250SOL     OW36382   1.632   3.615  16.402 -0.0254  0.7759  0.4514
 8250SOL    HW136383   1.693   3.686  16.380  0.9592  1.3925  5.2115
 8250SOL    HW236384   1.693   3.549  16.435  0.3028  1.1500  0.6050
 8251SOL     OW36385   0.884   4.242   4.479 -0.0710 -0.0709 -0.3433
 8251SOL    HW136386   0.973   4.219   4.454 -0.3696  0.1382 -1.6129
 8251SOL    HW236387   0.831   4.239   4.399 -2.0535 -0.8950  1.0170
 8252SOL     OW36388   1.695   4.611   7.154  0.0268 -0.0604 -0.0821
 8252SOL    HW136389   1.782   4.637   7.124 -0.3085  1.4622  0.2407
 8252SOL    HW236390   1.686   4.526   7.112 -0.3481  0.4671 -1.0743
 8253SOL     OW36391   3.972   1.176  12.726 -0.6358  0.0799  0.2145
 8253SOL    HW136392   4.010   1.257  12.759 -0.3838 -0.1516  0.4894
 8253SOL    HW236393   3.886   1.198  12.692 -0.0814  2.5206  0.4383
 8254SOL     OW36394   4.089   4.292   3.827  0.7650  0.0480  0.3304
 8254SOL    HW136395   4.152   4.281   3.756  3.5636 -3.1638  3.3091
 8254SOL    HW236396   4.012   4.329   3.785  1.4401 -0.4912 -1.3877
 8255SOL     OW36397   3.974   2.505   8.383  0.0649  0.9703  0.3634
 8255SOL    HW136398   3.977   2.428   8.440 -1.8927 -0.3755 -1.3518
 8255SOL    HW236399   4.032   2.475   8.312 -1.7797 -0.8768 -0.3933
 8256SOL     OW36400   3.696   2.313   6.154  0.2925  0.9747 -0.7781
 8256SOL    HW136401   3.776   2.360   6.178  0.3455  0.8553 -0.7193
 8256SOL    HW236402   3.634   2.381   6.180 -3.3479 -2.2598 -0.9705
 8257SOL     OW36403   0.331   1.288   2.675 -0.1210  0.8604 -0.2217
 8257SOL    HW136404   0.403   1.326   2.624 -1.1659  2.4914 -0.4808
 8257SOL    HW236405   0.301   1.362   2.727 -3.3429 -1.6105  1.4108
 8258SOL     OW36406   0.946   0.820   5.926 -0.4516  1.1276  0.7622
 8258SOL    HW136407   0.861   0.861   5.942 -0.6563  0.9968  0.0045
 8258SOL    HW236408   0.931   0.815   5.832 -1.4103  1.5902  0.8884
 8259SOL     OW36409   3.757   0.654   6.354  0.2673  0.2824 -0.3321
 8259SOL    HW136410   3.762   0.697   6.268  0.3941 -1.5149 -1.2240
 8259SOL    HW236411   3.675   0.607   6.343  0.1837  0.0128  1.4781
 8260SOL     OW36412   3.138   1.551  12.216 -0.0785 -0.2377 -0.7492
 8260SOL    HW136413   3.082   1.621  12.250 -0.2347 -0.7752  0.0939
 8260SOL    HW236414   3.080   1.499  12.160 -0.5106  2.0630 -2.4869
 8261SOL     OW36415   0.312   2.176  11.883 -0.0501  0.3823 -0.0903
 8261SOL    HW136416   0.217   2.162  11.880 -0.1023  1.2708 -2.6836
 8261SOL    HW236417   0.344   2.100  11.932  0.8336  1.2799  0.7239
 8262SOL     OW36418   2.124   1.075  14.889  0.4656 -0.7137  0.1379
 8262SOL    HW136419   2.172   0.992  14.892  1.0362 -0.3985 -0.2828
 8262SOL    HW236420   2.041   1.051  14.848  0.3785  1.4220 -0.9080
 8263SOL     OW36421   3.836   4.384   3.433  0.2418 -0.2365 -0.1170
 8263SOL    HW136422   3.901   4.395   3.362 -1.5394 -1.2023 -1.8881
 8263SOL    HW236423   3.783   4.317   3.390  1.5431 -1.4075  0.1127
 8264SOL     OW36424   3.122   1.267   4.635  0.4590 -0.4751 -0.6414
 8264SOL    HW136425   3.060   1.214   4.584 -0.2575  2.4727 -2.8513
 8264SOL    HW236426   3.147   1.201   4.700 -0.5807  0.2296  0.4927
 8265SOL     OW36427   1.392   3.375   7.913 -0.1363  0.1861 -0.2483
 8265SOL    HW136428   1.482   3.344   7.918 -0.0816  0.8427  2.6191
 8265SOL    HW236429   1.378   3.394   8.006  0.8838  1.5786 -0.3760
 8266SOL     OW36430   1.943   1.299   6.301 -0.5250  0.3818  0.6288
 8266SOL    HW136431   2.014   1.264   6.355 -1.2683 -0.7340  0.9018
 8266SOL    HW236432   1.917   1.241   6.230 -1.1825  0.2884  0.9476
 8267SOL     OW36433   2.274   2.918   2.202  0.1929 -0.5977 -0.3293
 8267SOL    HW136434   2.284   2.829   2.168  1.8189 -0.5515 -0.0116
 8267SOL    HW236435   2.344   2.961   2.153 -0.7826  1.2733 -0.0494
 8268SOL     OW36436   0.486   1.984   4.920  0.3941 -0.1346  0.5928
 8268SOL    HW136437   0.559   1.996   4.859  0.4050  0.1991  0.6722
 8268SOL    HW236438   0.539   1.958   4.995  0.9854  0.5350  0.4061
 8269SOL     OW36439   4.245   0.433   8.093  0.0756 -0.0955  0.2639
 8269SOL    HW136440   4.334   0.439   8.127 -0.3772 -0.6084  1.5500
 8269SOL    HW236441   4.253   0.477   8.008  2.2348 -1.0734 -0.0495
 8270SOL     OW36442   0.322   3.164  15.353  0.1309  0.1714 -0.0230
 8270SOL    HW136443   0.328   3.166  15.449  0.6235 -0.7610 -0.0369
 8270SOL    HW236444   0.293   3.254  15.337 -0.9958 -0.4480 -1.4609
 8271SOL     OW36445   0.531   0.278  14.519 -1.2033  0.4311 -0.1308
 8271SOL    HW136446   0.450   0.260  14.470 -0.1556  0.7482 -1.9838
 8271SOL    HW236447   0.514   0.351  14.578  0.2904  0.4810  0.2320
 8272SOL     OW36448   3.208   1.489  17.137 -0.2883 -0.1040  0.3694
 8272SOL    HW136449   3.230   1.575  17.100  1.6974  0.1235  2.1180
 8272SOL    HW236450   3.128   1.493  17.189 -0.4927 -1.4777  0.1499
 8273SOL     OW36451   1.964   2.970  10.724  0.0857  0.3837  0.0522
 8273SOL    HW136452   1.982   2.996  10.633  0.7403 -0.3018 -0.0219
 8273SOL    HW236453   2.039   3.001  10.774  1.4441 -0.2833 -1.5590
 8274SOL     OW36454   1.295   4.697   2.361 -0.3734  0.0425  0.0093
 8274SOL    HW136455   1.248   4.708   2.278  0.6151  0.2657 -0.5290
 8274SOL    HW236456   1.369   0.023   2.347 -1.0864  0.3683 -2.5058
 8275SOL     OW36457   0.939   1.671   3.116  0.1493  0.1384  0.2618
 8275SOL    HW136458   0.908   1.733   3.050 -1.2553 -0.2311  0.5878
 8275SOL    HW236459   0.988   1.732   3.170 -1.3526  0.9727  0.6813
 8276SOL     OW36460   3.256   0.838   8.793 -0.3668  0.7642  0.6047
 8276SOL    HW136461   3.246   0.894   8.871 -1.8491  0.2832  0.7659
 8276SOL    HW236462   3.274   0.754   8.834 -2.4357  0.6111  1.2196
 8277SOL     OW36463   3.978   0.421  16.437 -0.0235  0.3352  0.1044
 8277SOL    HW136464   4.030   0.500  16.449  1.1676 -0.6952  1.8100
 8277SOL    HW236465   4.032   0.376  16.372  2.0620  0.1255  1.9649
 8278SOL     OW36466   3.466   2.670  15.348  0.3204  0.0478 -0.8236
 8278SOL    HW136467   3.477   2.765  15.352 -1.6893  0.2017  1.0302
 8278SOL    HW236468   3.421   2.660  15.432  0.1887 -0.5187 -0.9567
 8279SOL     OW36469   0.581   3.332  16.683 -0.3387  0.0106 -0.5799
 8279SOL    HW136470   0.623   3.410  16.720 -1.2149 -0.5180  1.5349
 8279SOL    HW236471   0.666   3.292  16.665 -0.2150 -0.4289  0.9342
 8280SOL     OW36472   3.336   0.922   7.277 -0.1561  0.1681 -0.0487
 8280SOL    HW136473   3.295   0.873   7.347  1.1492 -2.2983 -1.0340
 8280SOL    HW236474   3.267   0.909   7.212 -1.1738 -2.6934  1.6300
 8281SOL     OW36475   3.441   1.798   6.251  0.2251 -0.3398  0.3849
 8281SOL    HW136476   3.510   1.732   6.239  0.3614  0.4886 -3.2826
 8281SOL    HW236477   3.449   1.850   6.171  0.1156 -0.9390 -0.0199
 8282SOL     OW36478   0.854   3.943   6.903  0.5486 -0.2152  0.0100
 8282SOL    HW136479   0.878   4.000   6.830 -0.4863 -2.2102 -1.8873
 8282SOL    HW236480   0.794   4.001   6.951 -0.6733 -1.6076  0.1564
 8283SOL     OW36481   2.306   0.918   3.079 -0.0063 -0.4547 -0.3816
 8283SOL    HW136482   2.293   0.976   3.154 -1.1655 -0.8148 -0.2968
 8283SOL    HW236483   2.383   0.956   3.037  0.2026 -2.4034 -1.7377
 8284SOL     OW36484   2.872   4.016  14.003  0.0985  0.1912  0.2341
 8284SOL    HW136485   2.777   4.013  13.996  0.1522  2.2904 -1.3163
 8284SOL    HW236486   2.893   3.941  13.948  0.5035  0.1095  0.5029
 8285SOL     OW36487   4.446   1.872  15.035 -0.5640 -0.3606 -0.0728
 8285SOL    HW136488   4.351   1.885  15.029 -0.0049  3.1665 -1.5663
 8285SOL    HW236489   4.460   1.781  15.061 -0.0242  0.0793  1.1552
 8286SOL     OW36490   0.128   1.452   1.208 -0.4705  0.3567  0.4540
 8286SOL    HW136491   0.136   1.357   1.218  0.3310  0.3314 -0.4193
 8286SOL    HW236492   0.033   1.461   1.208 -0.6922 -1.7550 -1.1869
 8287SOL     OW36493   0.526   2.753   2.504  0.1301 -0.5484 -0.0385
 8287SOL    HW136494   0.593   2.788   2.445  0.1385  0.5281  0.6183
 8287SOL    HW236495   0.551   2.661   2.492  0.7672 -0.2905 -0.7351
 8288SOL     OW36496   3.375   3.973  15.803 -0.1765  0.6193  0.5195
 8288SOL    HW136497   3.329   4.055  15.785  0.3994  0.9070  0.3534
 8288SOL    HW236498   3.447   3.996  15.862 -2.1041  1.5008  2.5180
 8289SOL     OW36499   2.390   2.702  13.768  0.6721  0.2029 -0.1510
 8289SOL    HW136500   2.312   2.746  13.801 -1.4192 -1.6073 -2.6186
 8289SOL    HW236501   2.459   2.758  13.801  0.5276 -0.0684  0.6218
 8290SOL     OW36502   0.038   2.317   5.737 -0.1386  0.0032  0.0907
 8290SOL    HW136503   0.110   2.380   5.740  3.4121 -3.9071 -2.1539
 8290SOL    HW236504   4.695   2.374   5.735 -0.1432 -0.0378 -0.6873
 8291SOL     OW36505   4.156   1.234   6.097 -0.0370  0.3902  0.4550
 8291SOL    HW136506   4.180   1.200   6.183 -0.1738 -0.0486  0.3211
 8291SOL    HW236507   4.226   1.295   6.074 -0.8987  1.0615 -0.3582
 8292SOL     OW36508   2.375   1.026  16.987  0.3109 -0.2914  0.1280
 8292SOL    HW136509   2.291   1.002  16.949  0.2576 -0.4118  0.3245
 8292SOL    HW236510   2.428   0.969  16.932  2.4186  1.8479 -0.0672
 8293SOL     OW36511   1.218   3.013   4.822 -0.8915 -0.0105 -0.1529
 8293SOL    HW136512   1.292   2.960   4.854 -0.3210 -0.3489 -1.9935
 8293SOL    HW236513   1.239   3.100   4.855 -2.8453 -0.3370  1.8729
 8294SOL     OW36514   3.174   3.727   4.183  0.2562 -0.1281 -0.3100
 8294SOL    HW136515   3.141   3.643   4.215 -0.4134  1.1748  2.3866
 8294SOL    HW236516   3.126   3.789   4.238  0.7774 -0.1887  0.2121
 8295SOL     OW36517   0.153   0.239   3.583  0.2475  0.4325 -0.7141
 8295SOL    HW136518   0.078   0.179   3.584  0.3039  0.3728 -0.0749
 8295SOL    HW236519   0.199   0.215   3.503 -0.2512 -0.1836 -0.8195
 8296SOL     OW36520   0.976   1.972  10.455  0.0821  0.3080  0.4398
 8296SOL    HW136521   1.044   1.992  10.390 -1.3338 -2.4405 -1.9009
 8296SOL    HW236522   0.935   2.058  10.460 -0.0446  0.1498  2.0241
 8297SOL     OW36523   1.049   2.419   4.656  0.0411 -0.3788  0.7108
 8297SOL    HW136524   1.103   2.348   4.622 -0.5398  0.4044 -1.8295
 8297SOL    HW236525   1.087   2.499   4.621  1.8554 -1.8246 -0.5815
 8298SOL     OW36526   0.758   4.612   7.408 -0.0073  0.0685 -0.1069
 8298SOL    HW136527   0.821   4.684   7.411  0.1138  0.0892 -2.8050
 8298SOL    HW236528   0.804   4.539   7.365 -0.4920  0.2433 -0.9121
 8299SOL     OW36529   1.869   2.121   3.772  0.2070  0.2940  0.2839
 8299SOL    HW136530   1.821   2.055   3.721  1.3137 -0.5963  0.3994
 8299SOL    HW236531   1.814   2.194   3.747  1.0599  1.7114  2.5560
 8300SOL     OW36532   4.391   3.818   5.247 -0.5391 -0.0722  0.0732
 8300SOL    HW136533   4.455   3.861   5.304 -0.5661  0.2756 -0.1580
 8300SOL    HW236534   4.412   3.853   5.160  0.8527 -0.2577  0.3304
 8301SOL     OW36535   0.233   0.187   7.216  0.5307 -0.0247  0.0047
 8301SOL    HW136536   0.256   0.095   7.202 -1.6956 -0.8678  1.8894
 8301SOL    HW236537   0.254   0.195   7.309 -1.9880  1.6501  0.4284
 8302SOL     OW36538   1.467   3.675  12.729  0.3427  0.0722  0.6001
 8302SOL    HW136539   1.435   3.717  12.650 -0.5116  0.6421  1.2508
 8302SOL    HW236540   1.513   3.605  12.683  0.6170  1.6531 -1.5192
 8303SOL     OW36541   1.704   2.517  12.535 -0.5247 -0.1044  0.3000
 8303SOL    HW136542   1.622   2.513  12.487 -0.6118 -1.7970  0.5636
 8303SOL    HW236543   1.679   2.560  12.616  3.3162 -1.7572  2.3602
 8304SOL     OW36544   2.379   3.567   1.392 -0.4775 -0.1301 -0.0492
 8304SOL    HW136545   2.461   3.547   1.436 -0.2154 -0.5808 -0.7403
 8304SOL    HW236546   2.341   3.481   1.373  0.1293 -0.8211  1.8187
 8305SOL     OW36547   3.316   4.477   2.196  0.1411 -0.2700  0.6064
 8305SOL    HW136548   3.239   4.446   2.242 -0.7672 -1.0091 -1.4294
 8305SOL    HW236549   3.375   4.404   2.215  0.3502 -0.5338 -1.0200
 8306SOL     OW36550   4.368   3.777   2.780  0.0899 -0.0693  0.2380
 8306SOL    HW136551   4.460   3.787   2.804 -0.0490 -0.9070  1.0991
 8306SOL    HW236552   4.337   3.738   2.861 -1.2940  2.0871  0.7713
 8307SOL     OW36553   0.050   2.493   7.578  0.4292 -0.7375  0.0071
 8307SOL    HW136554   0.089   2.413   7.614  1.8963 -0.5960 -1.2796
 8307SOL    HW236555   0.040   2.549   7.656 -0.5080 -3.2036  1.6633
 8308SOL     OW36556   3.228   2.793   8.335  0.2170 -0.1019 -0.1400
 8308SOL    HW136557   3.150   2.774   8.388  0.7308  0.6430  0.8906
 8308SOL    HW236558   3.288   2.747   8.394 -0.0125  1.7165  1.5180
 8309SOL     OW36559   0.940   4.528   5.015 -0.1387 -0.5601  0.3611
 8309SOL    HW136560   0.931   4.486   4.930 -2.0582  0.1948  0.1825
 8309SOL    HW236561   0.998   4.464   5.057  1.3583  0.6777  0.1725
 8310SOL     OW36562   2.271   3.410  15.751  0.0971  0.9820  0.1276
 8310SOL    HW136563   2.211   3.347  15.789  0.5209 -1.2125 -2.8205
 8310SOL    HW236564   2.349   3.404  15.806 -0.0455 -0.2756  0.1824
 8311SOL     OW36565   1.121   0.635   7.251  0.1133  0.7000  0.3708
 8311SOL    HW136566   1.068   0.567   7.292 -0.1956  1.0776  0.5916
 8311SOL    HW236567   1.048   0.663   7.196 -1.1335 -1.7695  0.7357
 8312SOL     OW36568   3.306   4.616   5.459 -0.7011 -0.5539  0.7240
 8312SOL    HW136569   3.288   4.529   5.495 -1.3240 -0.3240  0.9632
 8312SOL    HW236570   3.376   4.650   5.516  1.0558  1.4614 -2.5846
 8313SOL     OW36571   3.442   1.590   2.605  0.2239 -0.3863 -0.2261
 8313SOL    HW136572   3.443   1.682   2.633 -1.8386  0.1107 -1.8011
 8313SOL    HW236573   3.535   1.570   2.614  0.4812  0.9449  0.1424
 8314SOL     OW36574   4.466   0.038  14.383  1.0994  0.2501  0.3586
 8314SOL    HW136575   4.423   0.039  14.469  2.5525  0.7671  1.0856
 8314SOL    HW236576   4.507   0.124  14.384  1.5552  0.0310  0.6223
 8315SOL     OW36577   4.703   2.829  15.165  0.1381  0.5128 -0.2153
 8315SOL    HW136578   4.616   2.791  15.164  0.4445 -0.1286 -1.9512
 8315SOL    HW236579   0.007   2.787  15.088  2.4864  0.0347  1.1757
 8316SOL     OW36580   1.186   2.847   5.570 -0.2642 -0.2528  0.2261
 8316SOL    HW136581   1.234   2.924   5.600 -0.2719 -0.2482  0.2265
 8316SOL    HW236582   1.102   2.866   5.611  0.2628 -1.5649  1.8961
 8317SOL     OW36583   4.355   3.579   8.024  0.6439  0.0502  0.0162
 8317SOL    HW136584   4.319   3.667   8.020  2.6395  0.9282  1.0980
 8317SOL    HW236585   4.352   3.584   8.119 -0.4356  1.0736 -0.0827
 8318SOL     OW36586   1.348   2.331   6.709  0.1390  0.3277 -0.4259
 8318SOL    HW136587   1.307   2.305   6.626 -0.4497 -0.8784  0.2268
 8318SOL    HW236588   1.418   2.389   6.681  0.9164  0.5606  1.9541
 8319SOL     OW36589   0.051   0.685   4.858  0.0091  0.1457  0.0722
 8319SOL    HW136590   0.033   0.763   4.805 -0.1983 -0.0311 -0.1152
 8319SOL    HW236591   0.129   0.721   4.900  0.0538  0.1673 -0.0312
 8320SOL     OW36592   4.223   2.630   7.991 -0.5553  0.1203 -0.5590
 8320SOL    HW136593   4.215   2.610   8.084 -0.0655 -0.5396 -0.6560
 8320SOL    HW236594   4.174   2.559   7.949 -0.1178 -0.4559 -0.1087
 8321SOL     OW36595   3.792   4.627   6.754  0.4704 -0.3659 -0.2375
 8321SOL    HW136596   3.868   4.672   6.790  0.3695  0.4466 -1.0364
 8321SOL    HW236597   3.797   4.544   6.802 -0.5831 -1.3220 -1.8000
 8322SOL     OW36598   0.039   2.647   1.483  0.2214  0.1237  0.3183
 8322SOL    HW136599   0.094   2.570   1.465 -2.0630 -1.6268  0.8629
 8322SOL    HW236600   4.684   2.612   1.489  0.7680 -1.3385  0.0049
 8323SOL     OW36601   1.624   1.057   7.770 -0.3421  0.3362 -0.4172
 8323SOL    HW136602   1.653   0.967   7.760 -0.9576  0.1254 -0.2640
 8323SOL    HW236603   1.535   1.037   7.798 -0.0524 -0.8947 -0.3774
 8324SOL     OW36604   2.341   4.530   1.931  0.4331  0.1143 -0.3194
 8324SOL    HW136605   2.347   4.603   1.869 -0.5193 -2.0125 -2.9074
 8324SOL    HW236606   2.283   4.478   1.876 -2.4839  1.4145  1.5607
 8325SOL     OW36607   4.278   3.519  17.468  0.4525 -0.4184 -0.4795
 8325SOL    HW136608   4.357   3.491  17.420  0.6077  1.1877 -1.1479
 8325SOL    HW236609   4.277   3.435  17.515 -2.2598 -0.3015 -0.3143
 8326SOL     OW36610   1.250   0.428   3.663 -0.3325  0.3680  0.4541
 8326SOL    HW136611   1.309   0.354   3.646 -1.5586 -0.8352  1.4200
 8326SOL    HW236612   1.178   0.386   3.710 -0.8471  1.0516  0.2625
 8327SOL     OW36613   0.909   2.927   8.120 -0.0913 -0.1506 -0.3871
 8327SOL    HW136614   0.832   2.870   8.114 -0.7260  0.7094 -0.3604
 8327SOL    HW236615   0.979   2.867   8.093  0.8257  0.1315  1.3005
 8328SOL     OW36616   2.223   4.094   1.883  0.4456  0.1729 -0.5867
 8328SOL    HW136617   2.147   4.145   1.858 -0.2819 -0.2290  0.8228
 8328SOL    HW236618   2.205   4.091   1.977  0.4836 -2.0939 -0.6501
 8329SOL     OW36619   2.980   2.108   3.453  0.8155 -0.1511 -1.1174
 8329SOL    HW136620   3.025   2.030   3.421 -0.0431 -0.3298 -1.8810
 8329SOL    HW236621   3.022   2.169   3.392 -0.5642  2.4888  0.5747
 8330SOL     OW36622   1.324   3.544   7.523 -0.2936  0.7615  0.3418
 8330SOL    HW136623   1.277   3.599   7.460  0.7645  2.1496  0.7683
 8330SOL    HW236624   1.413   3.578   7.513  0.6858 -1.7569  0.5251
 8331SOL     OW36625   0.050   2.376  16.998 -0.4379 -0.1433  0.4924
 8331SOL    HW136626   0.002   2.344  17.074 -0.0682 -0.8078  0.4430
 8331SOL    HW236627   0.074   2.296  16.952  1.5084  1.5843 -1.4570
 8332SOL     OW36628   2.784   3.761  11.460 -0.3731  0.4226  0.2089
 8332SOL    HW136629   2.764   3.802  11.375 -0.0275  2.2359  1.0017
 8332SOL    HW236630   2.717   3.694  11.470 -1.1596  1.1100 -0.3810
 8333SOL     OW36631   0.053   2.806   5.216  0.1240 -0.1883  0.4059
 8333SOL    HW136632   0.018   2.767   5.136 -1.7374  2.9325 -0.2717
 8333SOL    HW236633   4.713   2.790   5.274  0.0805 -1.3214  0.0502
 8334SOL     OW36634   3.008   0.579   3.639 -0.5502 -0.1086 -0.1568
 8334SOL    HW136635   3.088   0.568   3.588 -1.3593  0.6397 -1.5763
 8334SOL    HW236636   3.013   0.675   3.635  0.3203 -0.1679 -0.4739
 8335SOL     OW36637   2.604   1.887   7.485 -0.1454 -0.0577  0.3852
 8335SOL    HW136638   2.663   1.951   7.525  0.5755  1.3394 -2.8938
 8335SOL    HW236639   2.634   1.807   7.528 -0.0161  0.7901  1.8458
 8336SOL     OW36640   3.654   1.184  16.212  0.1163  0.1432 -0.4202
 8336SOL    HW136641   3.576   1.226  16.174  0.0826 -0.8587 -1.4698
 8336SOL    HW236642   3.674   1.248  16.279 -1.8356  0.8340 -0.5083
 8337SOL     OW36643   2.476   4.123   2.973  0.4724  0.7392  0.6337
 8337SOL    HW136644   2.418   4.047   2.981  0.6892  0.4826 -0.1729
 8337SOL    HW236645   2.421   4.184   2.923 -1.4380 -1.7379 -0.3541
 8338SOL     OW36646   1.920   0.864   8.972  0.2415 -0.7058  0.7700
 8338SOL    HW136647   1.965   0.799   8.918 -1.3972 -1.4912  0.3578
 8338SOL    HW236648   1.877   0.807   9.035 -3.6741 -0.8021 -1.9571
 8339SOL     OW36649   1.463   2.804   6.769  0.0800  0.6128  0.1098
 8339SOL    HW136650   1.445   2.864   6.697  0.6266 -0.2563 -0.7543
 8339SOL    HW236651   1.425   2.854   6.841 -2.8537 -1.0991 -0.2477
 8340SOL     OW36652   2.091   0.079   6.672 -0.2014  0.0029  0.4715
 8340SOL    HW136653   2.129   0.014   6.731 -0.6652  0.8547  1.7030
 8340SOL    HW236654   2.156   0.148   6.660 -0.7466 -0.0436 -2.7294
 8341SOL     OW36655   3.038   2.481   8.446  0.0713 -0.0715 -0.0625
 8341SOL    HW136656   2.975   2.489   8.518 -1.1303 -0.4504 -1.0795
 8341SOL    HW236657   3.127   2.479   8.483 -1.5270  0.0295  3.7840
 8342SOL     OW36658   3.000   3.108  12.283 -0.1760  1.2333  0.1831
 8342SOL    HW136659   2.935   3.089  12.351  0.4503  2.7675  1.2231
 8342SOL    HW236660   3.060   3.178  12.308  2.7658 -1.1753 -0.1508
 8343SOL     OW36661   3.821   3.136   3.081 -0.1928 -0.9679 -0.0134
 8343SOL    HW136662   3.742   3.167   3.037  1.2886  3.2435  0.2925
 8343SOL    HW236663   3.786   3.118   3.168 -1.7121 -1.3336 -0.7011
 8344SOL     OW36664   4.716   2.951   3.895 -0.4433 -0.3599  0.0764
 8344SOL    HW136665   4.696   2.875   3.950 -1.7735 -0.2680 -0.2817
 8344SOL    HW236666   4.651   2.940   3.826 -1.7908 -0.5359  1.3731
 8345SOL     OW36667   3.604   1.688   0.054  0.2934  0.1789  0.2665
 8345SOL    HW136668   3.675   1.625   0.071  1.4816  1.4592  0.0503
 8345SOL    HW236669   3.620   1.713  17.698 -1.5634 -0.5577 -0.2567
 8346SOL     OW36670   4.527   4.360   7.576 -0.1668 -0.8019  0.0472
 8346SOL    HW136671   4.498   4.291   7.635 -4.0690 -0.6100 -1.6268
 8346SOL    HW236672   4.620   4.341   7.582 -0.0366  0.4774  2.0964
 8347SOL     OW36673   4.232   3.737   1.196  0.3074 -0.0279  0.2442
 8347SOL    HW136674   4.157   3.678   1.206  0.4406 -0.1023  0.7564
 8347SOL    HW236675   4.298   3.667   1.197  0.7901  0.4052 -0.8575
 8348SOL     OW36676   0.158   4.473   2.024 -0.3839  0.2376 -0.1784
 8348SOL    HW136677   0.101   4.549   2.036 -0.0452  0.7013 -1.4917
 8348SOL    HW236678   0.164   4.454   2.117  1.5997 -1.4325 -0.6387
 8349SOL     OW36679   3.289   0.310   3.741 -0.4090  0.0730 -0.2914
 8349SOL    HW136680   3.296   0.394   3.696 -1.4715  0.1389 -0.3382
 8349SOL    HW236681   3.194   0.295   3.744 -0.1522 -1.1894  1.6128
 8350SOL     OW36682   2.398   1.800   8.964 -0.3454  0.1097 -0.6597
 8350SOL    HW136683   2.457   1.785   9.038  0.1800  0.0262 -1.0926
 8350SOL    HW236684   2.458   1.808   8.890  1.6792 -1.4178  0.8068
 8351SOL     OW36685   0.683   2.536   3.952  0.8666 -0.7958  0.3715
 8351SOL    HW136686   0.661   2.629   3.944  1.7702 -0.4003  2.5466
 8351SOL    HW236687   0.777   2.535   3.929  1.1867  0.0873  1.6668
 8352SOL     OW36688   0.287   1.946   9.976  0.6825  0.2186  0.2407
 8352SOL    HW136689   0.207   1.898   9.955 -0.2415  1.2415  1.4149
 8352SOL    HW236690   0.326   1.889  10.042 -1.4178 -0.8366  0.5725
 8353SOL     OW36691   3.189   0.159  13.736  0.2053 -0.0502 -0.0353
 8353SOL    HW136692   3.254   0.230  13.731 -0.7998  0.6379 -3.2661
 8353SOL    HW236693   3.105   0.202  13.749  0.2676  0.2520 -0.6673
 8354SOL     OW36694   0.533   4.303   1.442 -0.3397  0.4379  0.1850
 8354SOL    HW136695   0.564   4.363   1.374 -0.3780  1.6481  1.2471
 8354SOL    HW236696   0.490   4.242   1.381  1.2288  0.3901 -0.8814
 8355SOL     OW36697   0.829   1.747   8.090 -0.7097  0.4445 -0.0590
 8355SOL    HW136698   0.865   1.831   8.060 -0.4129  0.3497  0.0306
 8355SOL    HW236699   0.908   1.708   8.127 -0.1327  1.2796 -0.3828
 8356SOL     OW36700   1.645   2.625  13.802 -0.0494  0.1941  0.5441
 8356SOL    HW136701   1.565   2.599  13.848 -1.4959  3.2956 -0.1813
 8356SOL    HW236702   1.627   2.608  13.710 -2.8737 -0.9605  1.3220
 8357SOL     OW36703   3.259   3.964   0.038 -0.0518  0.1618  0.1323
 8357SOL    HW136704   3.200   3.942   0.110 -2.1635  1.5292 -1.1460
 8357SOL    HW236705   3.263   4.059   0.050  2.3135  0.0055  0.4752
 8358SOL     OW36706   1.963   2.586  12.765  0.4554  0.3740 -0.5902
 8358SOL    HW136707   2.023   2.516  12.738 -0.8330 -0.4407 -1.3540
 8358SOL    HW236708   2.016   2.665  12.755 -0.9385  1.5741  1.3448
 8359SOL     OW36709   4.671   0.487  12.370 -0.1470 -0.0399 -0.4083
 8359SOL    HW136710   0.010   0.459  12.425 -0.5566  0.6986  0.5183
 8359SOL    HW236711   4.700   0.576  12.350 -2.7318 -0.1866 -4.8561
 8360SOL     OW36712   4.629   4.488  17.224  0.1717 -0.0673  0.1586
 8360SOL    HW136713   4.723   4.501  17.237  0.1471  0.7829 -0.5379
 8360SOL    HW236714   4.639   4.421  17.157  0.7677 -0.5730  0.7524
 8361SOL     OW36715   4.335   2.761   9.249 -0.3979  0.8545 -0.1391
 8361SOL    HW136716   4.336   2.748   9.344  0.9593 -0.8770 -0.3994
 8361SOL    HW236717   4.417   2.812   9.248  0.2532 -0.1951 -0.4075
 8362SOL     OW36718   1.427   3.632   1.413  0.5304  0.2646 -0.8476
 8362SOL    HW136719   1.423   3.596   1.502  3.3774  1.8283 -0.0720
 8362SOL    HW236720   1.362   3.702   1.424  0.1335 -0.8812  4.0536
 8363SOL     OW36721   2.242   0.180   7.155  0.0849  0.6789  0.5880
 8363SOL    HW136722   2.302   0.156   7.084 -3.3516 -0.4205 -1.9724
 8363SOL    HW236723   2.289   0.145   7.230 -0.3533 -0.1125  0.4963
 8364SOL     OW36724   0.686   3.160  16.150  0.3919 -0.4184  0.3502
 8364SOL    HW136725   0.652   3.134  16.236 -1.0014 -0.8704 -0.3367
 8364SOL    HW236726   0.776   3.183  16.172  0.2172  1.7044 -1.1863
 8365SOL     OW36727   1.571   1.959   2.806  0.5463 -0.2258 -0.0718
 8365SOL    HW136728   1.605   1.973   2.894  1.8693  2.2041 -0.9950
 8365SOL    HW236729   1.633   2.010   2.754 -0.7838  0.6946 -0.7440
 8366SOL     OW36730   1.253   1.759   8.940 -0.2014  0.0881 -0.6032
 8366SOL    HW136731   1.288   1.670   8.951 -0.3444  0.0436 -0.4982
 8366SOL    HW236732   1.247   1.778   9.033  2.9567 -2.2751  0.1016
 8367SOL     OW36733   1.720   4.209   3.870 -0.0323 -0.1540  0.0778
 8367SOL    HW136734   1.656   4.280   3.866  0.8485  0.5973 -0.5889
 8367SOL    HW236735   1.685   4.141   3.928  0.8794  0.0170  0.8255
 8368SOL     OW36736   2.403   2.737   5.561  0.1668 -0.0793 -0.6182
 8368SOL    HW136737   2.439   2.776   5.481 -1.1564  1.5595 -0.4313
 8368SOL    HW236738   2.462   2.776   5.626 -2.8143 -0.0013  2.0224
 8369SOL     OW36739   1.112   2.584   3.381 -0.0555  0.0303 -0.3551
 8369SOL    HW136740   1.146   2.569   3.469  0.2744 -1.9726 -0.8190
 8369SOL    HW236741   1.112   2.680   3.374  3.5976  0.1461  1.5920
 8370SOL     OW36742   2.933   2.798   0.539  0.1006 -0.3320 -0.3866
 8370SOL    HW136743   2.888   2.810   0.623  0.5700 -3.3224  0.2905
 8370SOL    HW236744   2.860   2.803   0.477  0.5717  0.1260 -0.8982
 8371SOL     OW36745   0.117   4.237   9.081  0.0631  0.2646  0.2080
 8371SOL    HW136746   0.075   4.275   9.004 -3.2856  0.1286  1.9741
 8371SOL    HW236747   0.157   4.160   9.041 -0.0146 -0.1633  0.9483
 8372SOL     OW36748   1.487   0.889  13.490 -0.6397 -0.2976  0.1856
 8372SOL    HW136749   1.465   0.889  13.397  0.6480  1.1663 -0.1317
 8372SOL    HW236750   1.399   0.902  13.524  0.3507 -0.5041  2.8267
 8373SOL     OW36751   2.105   3.551  13.182  0.0850 -0.2575 -0.0310
 8373SOL    HW136752   2.091   3.463  13.146  1.0168 -0.1460 -0.6490
 8373SOL    HW236753   2.014   3.576  13.196  0.4155  1.9882 -2.0508
 8374SOL     OW36754   2.403   1.098   3.982  0.0760 -0.3912  0.4807
 8374SOL    HW136755   2.381   1.168   3.920  1.8756  0.0618  0.3330
 8374SOL    HW236756   2.337   1.038   3.949 -1.8492  0.6985  2.4032
 8375SOL     OW36757   2.927   4.410   3.801 -0.6711  0.7428  0.1405
 8375SOL    HW136758   3.015   4.385   3.773 -0.9024 -0.9261  0.9286
 8375SOL    HW236759   2.892   4.325   3.825  1.6107 -0.1970  0.1901
 8376SOL     OW36760   1.508   3.044   9.704  0.1986 -0.5605  0.6097
 8376SOL    HW136761   1.572   3.108   9.671 -0.3977 -0.1693  0.1980
 8376SOL    HW236762   1.457   3.101   9.761 -0.5247  1.0821 -1.6474
 8377SOL     OW36763   2.511   3.748   4.370 -0.0931  0.6477 -0.1362
 8377SOL    HW136764   2.563   3.707   4.440 -0.9828 -0.5070 -0.1456
 8377SOL    HW236765   2.569   3.752   4.294 -0.6511  1.7345 -0.5015
 8378SOL     OW36766   0.679   1.172   0.019 -0.1021  0.5373 -0.3751
 8378SOL    HW136767   0.690   1.083  17.718  1.9905  0.1705  1.2021
 8378SOL    HW236768   0.761   1.192   0.062  0.1992 -1.6029  0.0710
 8379SOL     OW36769   4.226   3.561   4.422 -0.7277  1.0403  0.0306
 8379SOL    HW136770   4.269   3.646   4.410  0.8115  0.0827 -1.3437
 8379SOL    HW236771   4.241   3.540   4.514 -0.6933  1.7908  0.1983
 8380SOL     OW36772   1.332   1.628   6.792  0.1418 -0.4621 -0.0558
 8380SOL    HW136773   1.395   1.556   6.790  0.5076 -0.1505  0.1264
 8380SOL    HW236774   1.253   1.592   6.753  0.4694 -1.3918  0.1434
 8381SOL     OW36775   0.708   3.295   6.568  0.4982  0.2202 -0.1151
 8381SOL    HW136776   0.653   3.216   6.570  0.9651 -0.0987  0.2194
 8381SOL    HW236777   0.725   3.296   6.663 -2.3975 -0.1561  0.4295
 8382SOL     OW36778   2.175   3.142   5.652  0.2464 -0.1296 -0.1590
 8382SOL    HW136779   2.082   3.163   5.651 -0.2746 -2.5080  0.2516
 8382SOL    HW236780   2.178   3.054   5.690 -0.0197  1.6364  4.0166
 8383SOL     OW36781   4.730   4.129   2.888 -0.9311  0.0432 -0.9237
 8383SOL    HW136782   4.689   4.076   2.957 -1.7035  1.6263 -0.1724
 8383SOL    HW236783   0.078   4.080   2.890 -2.0722 -1.8445  0.0337
 8384SOL     OW36784   1.587   3.148  17.295  0.0543  0.7058  0.8515
 8384SOL    HW136785   1.663   3.097  17.324 -0.0251  0.8585  1.3204
 8384SOL    HW236786   1.593   3.222  17.355  1.4196  1.2571  0.0443
 8385SOL     OW36787   4.103   1.377  14.775  0.6646  0.2188  0.0897
 8385SOL    HW136788   4.166   1.365  14.703  1.4299 -0.1920  0.8257
 8385SOL    HW236789   4.129   1.462  14.810 -1.5585  1.0804 -0.3691
 8386SOL     OW36790   2.194   4.610   7.532  0.2425  0.1435  0.0823
 8386SOL    HW136791   2.132   4.665   7.580  3.4302  2.3935  1.6195
 8386SOL    HW236792   2.200   4.529   7.583  0.1421  0.3733  0.4635
 8387SOL     OW36793   2.572   1.008   9.065 -0.1739 -0.2401  0.1717
 8387SOL    HW136794   2.600   0.982   8.978  0.0561 -1.9021  0.7501
 8387SOL    HW236795   2.517   0.935   9.093  0.2857 -0.8941 -0.6452
 8388SOL     OW36796   3.515   0.764  15.954  0.1714 -0.1013  0.3057
 8388SOL    HW136797   3.518   0.691  16.015  0.7223 -1.5450 -1.4701
 8388SOL    HW236798   3.606   0.754  15.929 -0.2235 -1.2679 -0.6515
 8389SOL     OW36799   4.435   0.260  15.031  0.0087 -0.5371 -0.2122
 8389SOL    HW136800   4.350   0.229  15.061 -0.6741 -0.7270 -2.3021
 8389SOL    HW236801   4.424   0.355  15.038 -1.2378 -0.7219  0.3663
 8390SOL     OW36802   3.075   1.268   5.872 -0.1293  0.3693  0.3262
 8390SOL    HW136803   3.060   1.305   5.785  0.3193 -0.4915 -0.1071
 8390SOL    HW236804   3.047   1.178   5.855 -0.3656  0.3881  0.6145
 8391SOL     OW36805   0.686   0.101   4.689  0.7157  0.0403  0.3678
 8391SOL    HW136806   0.595   0.123   4.668 -0.0657 -1.9750  1.6441
 8391SOL    HW236807   0.732   0.094   4.606  0.0116  0.3761 -0.0564
 8392SOL     OW36808   1.824   2.202   5.759 -0.2173 -0.1712  0.1535
 8392SOL    HW136809   1.898   2.165   5.806  0.6320  0.1883 -0.9218
 8392SOL    HW236810   1.755   2.137   5.768 -1.6845  1.1815 -1.1810
 8393SOL     OW36811   0.840   3.876   8.548 -0.0521 -0.1404  0.2104
 8393SOL    HW136812   0.855   3.853   8.640  1.6409  1.4698  0.3318
 8393SOL    HW236813   0.829   3.970   8.533 -0.0997 -0.5359 -2.2173
 8394SOL     OW36814   0.746   3.586   5.504 -0.1418 -0.0174  0.2387
 8394SOL    HW136815   0.683   3.517   5.487 -0.9300  0.1558  2.4384
 8394SOL    HW236816   0.817   3.532   5.538 -0.4000 -0.4272  0.1208
 8395SOL     OW36817   0.410   1.522  12.341 -0.2018  0.4815 -0.6594
 8395SOL    HW136818   0.331   1.489  12.385  0.6442 -1.4241 -0.6100
 8395SOL    HW236819   0.451   1.572  12.411 -2.7754 -2.0811  2.6917
 8396SOL     OW36820   0.071   3.036   4.928 -0.4697  0.3208  0.3025
 8396SOL    HW136821   0.017   2.957   4.934 -1.7804  1.2556  0.6837
 8396SOL    HW236822   0.141   3.005   4.869 -0.2206 -1.6927  1.6432
 8397SOL     OW36823   1.548   0.278  15.105  1.1364 -0.4760 -0.3234
 8397SOL    HW136824   1.610   0.210  15.134 -0.4159 -1.7171  0.1040
 8397SOL    HW236825   1.575   0.347  15.165 -1.2961  0.0404  0.1532
 8398SOL     OW36826   3.699   4.423   7.211  0.1407 -0.2589 -0.5539
 8398SOL    HW136827   3.746   4.502   7.234 -0.2106 -0.7397  1.7834
 8398SOL    HW236828   3.752   4.398   7.135  2.2094 -2.2354  1.5643
 8399SOL     OW36829   4.104   2.938   9.147  0.7246  0.0354  0.3917
 8399SOL    HW136830   4.128   2.991   9.071  2.0176  0.2889  0.9766
 8399SOL    HW236831   4.180   2.883   9.162  0.6118  0.6044  3.0238
 8400SOL     OW36832   1.770   2.243  12.897 -0.3177 -0.0706 -0.2937
 8400SOL    HW136833   1.758   2.235  12.802  3.6535 -0.1568 -0.7799
 8400SOL    HW236834   1.863   2.222  12.900  0.1547  1.9513 -0.9935
 8401SOL     OW36835   2.527   4.121   7.719 -0.0935 -0.2220  0.4027
 8401SOL    HW136836   2.451   4.085   7.765 -0.3524 -0.6915 -0.3844
 8401SOL    HW236837   2.507   4.214   7.731  2.3536  0.0453  2.2930
 8402SOL     OW36838   3.167   4.308   7.600  0.2556 -0.0788  0.2988
 8402SOL    HW136839   3.259   4.309   7.626 -0.2492  0.5161  2.0716
 8402SOL    HW236840   3.173   4.257   7.520  1.0758 -2.5020  1.8945
 8403SOL     OW36841   0.417   3.719   6.198 -0.1390  0.2924  0.1422
 8403SOL    HW136842   0.337   3.738   6.150 -0.2228 -0.1512  0.1152
 8403SOL    HW236843   0.484   3.786   6.179 -1.8696  1.9547 -0.1064
 8404SOL     OW36844   4.190   0.780   7.212  0.0860  0.5259  0.6304
 8404SOL    HW136845   4.233   0.862   7.190  2.4378 -0.2596  2.2926
 8404SOL    HW236846   4.228   0.718   7.150 -1.0558 -1.4365  1.8768
 8405SOL     OW36847   4.077   3.283   7.560  0.6186  0.0876  0.6246
 8405SOL    HW136848   4.067   3.234   7.478  0.2815  1.1370  0.0469
 8405SOL    HW236849   4.166   3.266   7.591  0.3316  1.1945  2.0261
 8406SOL     OW36850   2.200   0.478   2.790 -0.1837 -0.2033 -1.0621
 8406SOL    HW136851   2.113   0.512   2.814  0.8863  1.5009  0.3468
 8406SOL    HW236852   2.254   0.524   2.854 -0.7344  1.3511 -1.7302
 8407SOL     OW36853   0.745   2.915   7.862  0.1625 -1.4509 -0.5937
 8407SOL    HW136854   0.709   2.935   7.776  0.4538 -2.2181 -0.8928
 8407SOL    HW236855   0.656   2.912   7.899 -0.0112 -1.3316 -1.0046
 8408SOL     OW36856   0.743   3.559   1.960  0.0788  0.3230 -0.0853
 8408SOL    HW136857   0.827   3.532   1.997  0.2336 -0.0835 -0.7313
 8408SOL    HW236858   0.681   3.487   1.975  0.3059 -0.1064 -1.1797
 8409SOL     OW36859   2.094   0.606   9.449 -0.6524 -0.0510  0.0610
 8409SOL    HW136860   2.115   0.541   9.516  0.7858  0.5930  0.2245
 8409SOL    HW236861   2.001   0.588   9.433 -1.1078  2.9753 -0.7365
 8410SOL     OW36862   2.733   0.615  14.308 -0.5305  0.5583 -0.1132
 8410SOL    HW136863   2.646   0.621  14.269 -0.8663  1.4744  0.7607
 8410SOL    HW236864   2.712   0.601  14.401  0.0010 -1.4661 -0.3197
 8411SOL     OW36865   1.488   4.405   3.290 -0.1453  0.3964 -0.1859
 8411SOL    HW136866   1.572   4.376   3.325  0.1909  0.5416 -0.8718
 8411SOL    HW236867   1.423   4.349   3.331 -0.6642  0.4186 -0.9829
 8412SOL     OW36868   2.729   4.257  16.401  0.1127 -0.3815  0.0997
 8412SOL    HW136869   2.660   4.191  16.402  1.5663 -1.9033  0.2129
 8412SOL    HW236870   2.675   4.334  16.419  1.8258  0.6976  0.6058
 8413SOL     OW36871   3.961   0.483   1.864 -0.5012  0.3873 -0.2164
 8413SOL    HW136872   3.884   0.438   1.900 -0.4536  1.7282  1.5019
 8413SOL    HW236873   3.925   0.550   1.805 -1.8224 -0.5358 -0.4678
 8414SOL     OW36874   4.462   1.140   4.059 -0.3514  0.0076 -0.0428
 8414SOL    HW136875   4.545   1.099   4.083  0.2885  0.8800 -0.7343
 8414SOL    HW236876   4.476   1.164   3.968 -1.0739  0.3552 -0.0639
 8415SOL     OW36877   2.190   0.271   8.914 -0.2937 -0.3880  0.1490
 8415SOL    HW136878   2.175   0.332   8.987 -1.3049 -2.2033  1.4588
 8415SOL    HW236879   2.121   0.208   8.937 -3.6219  2.4428 -1.9625
 8416SOL     OW36880   1.613   4.139  12.142  0.3479 -0.8055 -0.0659
 8416SOL    HW136881   1.631   4.096  12.058  1.3950 -0.3571 -0.0698
 8416SOL    HW236882   1.630   4.230  12.115  0.1965  0.1164  2.9283
 8417SOL     OW36883   2.099   0.315  11.250 -0.1238  0.3339 -0.2698
 8417SOL    HW136884   2.032   0.301  11.316  0.4743  1.2465  0.5296
 8417SOL    HW236885   2.068   0.260  11.177 -0.3443  0.4410 -0.2556
 8418SOL     OW36886   4.668   2.681  17.654  0.8011  0.3614  0.3951
 8418SOL    HW136887   0.008   2.656  17.597  0.2790  1.1551 -0.6255
 8418SOL    HW236888   4.705   2.743  17.717 -0.8778  0.5832  1.1371
 8419SOL     OW36889   4.639   1.303   1.561  0.2598 -0.6282 -0.0676
 8419SOL    HW136890   4.628   1.259   1.477 -1.8463 -0.9740  0.3981
 8419SOL    HW236891   4.678   1.230   1.609  0.4565  0.5078  1.4841
 8420SOL     OW36892   1.500   0.231   9.504 -0.1168 -0.2037 -0.1896
 8420SOL    HW136893   1.509   0.226   9.599 -0.6992  0.9859 -0.0721
 8420SOL    HW236894   1.431   0.168   9.482  0.1902  0.2118 -2.4175
 8421SOL     OW36895   1.896   4.571   9.344 -0.0413  0.2183  0.8125
 8421SOL    HW136896   1.896   4.596   9.436 -0.4269  0.1273  0.8398
 8421SOL    HW236897   1.984   4.601   9.322 -1.3682  2.3393 -1.6791
 8422SOL     OW36898   0.964   1.759   6.593  0.0105 -1.1022  0.2694
 8422SOL    HW136899   0.926   1.723   6.673 -0.1593  0.0841  0.7261
 8422SOL    HW236900   0.961   1.687   6.531  2.0669  0.6374 -1.8381
 8423SOL     OW36901   3.935   2.026   2.201 -0.4097  0.1382 -0.0959
 8423SOL    HW136902   3.911   2.111   2.163 -1.5525 -0.2939 -0.3253
 8423SOL    HW236903   3.948   2.063   2.288  1.2629  2.4001 -1.2862
 8424SOL     OW36904   3.018   3.717   3.129  0.0521  0.0227 -0.4956
 8424SOL    HW136905   3.050   3.802   3.160  0.4956 -1.2777  2.6550
 8424SOL    HW236906   3.096   3.668   3.157 -0.9220 -0.7686  0.8302
 8425SOL     OW36907   4.423   3.572   1.114  0.1630 -0.5135 -0.4319
 8425SOL    HW136908   4.491   3.638   1.124 -0.8364 -0.1410  3.6180
 8425SOL    HW236909   4.411   3.580   1.019 -0.2799  0.2971 -0.2991
 8426SOL     OW36910   2.003   4.128   4.462 -0.2160  0.0273  0.1848
 8426SOL    HW136911   2.023   4.036   4.481 -1.2866 -0.0544  0.8786
 8426SOL    HW236912   1.998   4.141   4.367 -1.3530 -0.8273  0.1263
 8427SOL     OW36913   3.679   2.815  11.156  0.5306  0.3710  0.0217
 8427SOL    HW136914   3.766   2.778  11.173 -0.2981 -1.1423  0.8774
 8427SOL    HW236915   3.646   2.751  11.094 -0.5111  2.1471 -1.2536
 8428SOL     OW36916   3.903   2.599   7.442  0.3024  0.1879 -0.2402
 8428SOL    HW136917   3.959   2.634   7.373 -0.7436  3.5964  0.6363
 8428SOL    HW236918   3.902   2.511   7.405  1.9300  0.9052 -2.0287
 8429SOL     OW36919   1.015   1.874   9.724  0.1560 -0.4950  0.7252
 8429SOL    HW136920   1.105   1.904   9.734  0.2980 -0.2724 -1.2474
 8429SOL    HW236921   1.026   1.783   9.752  0.7511 -1.3231 -2.1276
 8430SOL     OW36922   4.490   4.636   5.833 -0.8031  0.8933  0.7729
 8430SOL    HW136923   4.444   4.553   5.848 -2.2177  1.2294 -1.6697
 8430SOL    HW236924   4.532   4.651   5.918  0.5819 -0.6658  0.3780
 8431SOL     OW36925   0.622   2.217  16.772  0.4822 -0.4893 -0.7029
 8431SOL    HW136926   0.649   2.177  16.855  1.0653  1.8003  0.2300
 8431SOL    HW236927   0.705   2.258  16.746 -0.2047  1.5656  0.3133
 8432SOL     OW36928   3.307   0.785  15.754 -0.3799 -0.2905 -0.9139
 8432SOL    HW136929   3.240   0.845  15.786  1.0155 -0.2310  1.8044
 8432SOL    HW236930   3.380   0.785  15.815  0.1419 -1.7498 -1.5352
 8433SOL     OW36931   3.851   2.084  12.050  0.0802 -0.1667 -0.2509
 8433SOL    HW136932   3.780   2.025  12.075  0.5913 -1.0046 -0.7660
 8433SOL    HW236933   3.851   2.055  11.959 -1.2149 -1.5359  0.1871
 8434SOL     OW36934   0.249   0.213   8.252  0.2977 -0.3203 -0.2653
 8434SOL    HW136935   0.296   0.284   8.297 -0.4741 -0.5212  0.8491
 8434SOL    HW236936   0.166   0.256   8.232 -0.7490 -0.4230  3.9831
 8435SOL     OW36937   3.584   0.097  16.986  0.4083 -0.5360 -0.2274
 8435SOL    HW136938   3.666   0.137  16.957 -1.3656  1.3689 -2.6254
 8435SOL    HW236939   3.616   0.026  17.041 -2.5978 -1.5455  0.2218
 8436SOL     OW36940   4.190   3.233   4.458 -0.2348 -0.1553 -0.3570
 8436SOL    HW136941   4.241   3.218   4.379  1.4946 -2.3460  1.1648
 8436SOL    HW236942   4.238   3.304   4.500  0.0962 -1.0425  0.7897
 8437SOL     OW36943   0.325   0.434   5.387  0.6776  0.4208 -0.5308
 8437SOL    HW136944   0.329   0.359   5.446 -0.1903  0.0148 -0.9888
 8437SOL    HW236945   0.262   0.489   5.433 -0.7842  0.4976 -2.6022
 8438SOL     OW36946   1.548   0.865   7.361 -0.5633 -0.2290 -0.2944
 8438SOL    HW136947   1.473   0.923   7.349  0.3318  0.9324 -0.3207
 8438SOL    HW236948   1.512   0.777   7.376 -1.1529  0.0597 -0.0359
 8439SOL     OW36949   4.410   4.459  16.608  0.3851  0.2493 -0.1026
 8439SOL    HW136950   4.454   4.395  16.553  0.2849  0.7332 -0.7408
 8439SOL    HW236951   4.323   4.418  16.609  0.7554 -0.5507 -0.6832
 8440SOL     OW36952   4.022   1.315   4.076  0.2672  0.0052 -0.1942
 8440SOL    HW136953   4.115   1.328   4.095 -0.5009  2.8741  1.6216
 8440SOL    HW236954   4.014   1.229   4.118 -1.5897  0.3634  0.2011
 8441SOL     OW36955   0.711   2.460   4.436 -0.3707  0.2720  0.2509
 8441SOL    HW136956   0.648   2.413   4.382  1.2604  0.1183 -1.5323
 8441SOL    HW236957   0.747   2.385   4.484  0.0416  0.7879  0.7519
 8442SOL     OW36958   4.614   3.197   4.817  0.3147 -0.4687 -0.2496
 8442SOL    HW136959   4.602   3.260   4.888 -0.2368 -1.1019  0.2176
 8442SOL    HW236960   4.692   3.148   4.843  0.3123  0.1249  0.9100
 8443SOL     OW36961   0.990   0.337   7.637 -0.1246  0.0074  0.2998
 8443SOL    HW136962   0.939   0.363   7.561 -0.1991  0.9416  0.6685
 8443SOL    HW236963   0.918   0.334   7.701  0.3124 -1.6687  0.7118
 8444SOL     OW36964   0.740   1.413   5.593  0.3056  0.1162 -0.5306
 8444SOL    HW136965   0.762   1.321   5.603 -0.5403  0.2394  2.4797
 8444SOL    HW236966   0.762   1.446   5.681  0.9702 -0.1100 -0.6158
 8445SOL     OW36967   0.719   4.646  15.970 -0.0238  0.1790 -1.0562
 8445SOL    HW136968   0.740   4.582  16.038 -1.4199  0.9744  0.1269
 8445SOL    HW236969   0.720   4.729  16.017  1.3199  1.0967 -2.7084
 8446SOL     OW36970   2.706   2.750  17.436  0.5532  0.1842 -0.2170
 8446SOL    HW136971   2.669   2.768  17.350 -1.7255 -1.7000  0.3801
 8446SOL    HW236972   2.735   2.838  17.460  2.0163 -0.3683  0.0188
 8447SOL     OW36973   2.424   1.923   8.287  0.0893  0.0677 -0.0452
 8447SOL    HW136974   2.427   1.891   8.377 -1.5445  0.6295  0.2103
 8447SOL    HW236975   2.393   1.842   8.247  0.6461  1.3900 -3.1266
 8448SOL     OW36976   3.976   3.267  11.261  0.6433 -0.0031  0.4142
 8448SOL    HW136977   3.934   3.353  11.258  2.3262  0.8113  0.4194
 8448SOL    HW236978   3.901   3.210  11.274  0.9853 -0.3404  0.9102
 8449SOL     OW36979   4.192   1.872   5.913  0.1608 -0.3866 -0.2246
 8449SOL    HW136980   4.280   1.863   5.875  2.0091  1.4168  3.6023
 8449SOL    HW236981   4.219   1.865   6.004 -0.0149 -0.8979 -0.2150
 8450SOL     OW36982   0.726   1.085   5.702 -0.1491  0.1298 -0.3657
 8450SOL    HW136983   0.714   0.992   5.724  0.2840  0.2468  0.3770
 8450SOL    HW236984   0.684   1.133   5.774  1.9432 -2.3511  2.5312
 8451SOL     OW36985   1.796   4.160   8.419 -0.1437 -0.2756  0.4423
 8451SOL    HW136986   1.724   4.103   8.445 -2.0463  3.1416  2.6389
 8451SOL    HW236987   1.854   4.095   8.378  0.7718  2.5183 -2.6316
 8452SOL     OW36988   2.695   3.871   9.668  0.1864 -0.4187 -0.5938
 8452SOL    HW136989   2.651   3.822   9.598  1.6626 -2.7745  0.1176
 8452SOL    HW236990   2.691   3.955   9.622 -2.1382  0.4416  1.1403
 8453SOL     OW36991   1.652   2.501   2.183  0.2136  0.1858 -0.0125
 8453SOL    HW136992   1.651   2.540   2.096 -1.5329  0.2141  0.0099
 8453SOL    HW236993   1.657   2.583   2.232 -2.9547 -0.0481  0.7099
 8454SOL     OW36994   2.247   4.353  16.608  0.4661 -0.3554 -0.2949
 8454SOL    HW136995   2.327   4.305  16.632 -0.1559 -0.9552  0.5900
 8454SOL    HW236996   2.287   4.399  16.535  2.9795  0.3685  1.5217
 8455SOL     OW36997   2.480   0.455  10.484 -0.0669  0.2215 -0.2048
 8455SOL    HW136998   2.397   0.459  10.437  0.1937  0.1374 -0.6715
 8455SOL    HW236999   2.510   0.367  10.459 -1.5238  0.1065 -1.5015
 8456SOL     OW37000   1.875   0.155  12.401  0.2773 -0.2753  0.2927
 8456SOL    HW137001   1.883   0.186  12.491 -3.0525  3.9875 -0.8566
 8456SOL    HW237002   1.934   0.081  12.404  0.9665  0.2200 -0.9184
 8457SOL     OW37003   2.525   3.985   7.452 -1.2420 -0.8875 -0.7778
 8457SOL    HW137004   2.604   3.931   7.459 -0.0186  0.8678 -1.0053
 8457SOL    HW237005   2.519   4.031   7.535  0.7081 -2.1704  0.0843
 8458SOL     OW37006   1.293   1.500   1.897 -0.0860  0.2366 -0.2477
 8458SOL    HW137007   1.326   1.411   1.883  2.2327  1.1694 -0.6561
 8458SOL    HW237008   1.357   1.557   1.855 -0.0470  1.4532  1.4824
 8459SOL     OW37009   1.773   2.307  11.059 -0.3462  0.4883 -0.1994
 8459SOL    HW137010   1.743   2.216  11.063  1.7425 -0.2176 -0.3695
 8459SOL    HW237011   1.751   2.329  10.969  3.1240  1.7662 -0.7317
 8460SOL     OW37012   4.137   3.825   3.351  0.5390  0.1144 -0.4383
 8460SOL    HW137013   4.055   3.797   3.392 -0.1986  1.6498 -0.8302
 8460SOL    HW237014   4.192   3.818   3.429  0.7335 -1.5360 -0.7393
 8461SOL     OW37015   4.594   2.079   5.237 -0.5904 -0.3475 -0.2507
 8461SOL    HW137016   4.538   2.003   5.255  1.1453 -1.1381  1.8607
 8461SOL    HW237017   4.600   2.074   5.142 -2.0803 -0.3242 -0.3485
 8462SOL     OW37018   3.163   2.229   6.533 -0.0330  0.2542  0.2770
 8462SOL    HW137019   3.174   2.175   6.611  0.1918 -0.3375 -0.1650
 8462SOL    HW237020   3.101   2.297   6.559 -0.2035  0.4525 -0.6248
 8463SOL     OW37021   1.581   1.924   2.030 -0.3405 -0.1262 -0.0339
 8463SOL    HW137022   1.533   2.004   2.008  0.1146 -0.2749 -1.5747
 8463SOL    HW237023   1.566   1.920   2.125 -1.6002 -0.3249 -0.2319
 8464SOL     OW37024   3.524   1.104  13.171 -0.6552 -0.0374  0.1346
 8464SOL    HW137025   3.453   1.072  13.227 -0.1630 -1.9555 -0.3434
 8464SOL    HW237026   3.557   1.025  13.129  2.7320  0.4119  1.8994
 8465SOL     OW37027   4.366   2.971   7.161  0.3626  0.3273 -0.3421
 8465SOL    HW137028   4.379   3.035   7.091 -1.5935  1.5127  0.3645
 8465SOL    HW237029   4.323   2.899   7.116  0.3095  1.6448 -2.3886
 8466SOL     OW37030   2.694   2.021   4.083 -0.0321  0.3433  0.4213
 8466SOL    HW137031   2.710   1.960   4.155  2.2536  2.5262  1.7124
 8466SOL    HW237032   2.728   1.970   4.009  3.3808  3.0257  0.1806
 8467SOL     OW37033   4.172   1.634  14.870  0.4577  0.2805 -0.6118
 8467SOL    HW137034   4.263   1.645  14.843  0.0514  1.4169 -1.5301
 8467SOL    HW237035   4.123   1.699  14.820  1.8741  1.3887 -0.5680
 8468SOL     OW37036   4.399   0.041  14.743 -0.1694 -0.9741 -0.1974
 8468SOL    HW137037   4.453   4.717  14.689 -2.8806 -2.6031 -1.1743
 8468SOL    HW237038   4.420   0.023  14.834  0.1169 -1.4069 -0.3499
 8469SOL     OW37039   2.615   0.346   6.184 -0.0974  0.5732 -0.5829
 8469SOL    HW137040   2.661   0.363   6.266 -0.1980 -0.0672 -0.3980
 8469SOL    HW237041   2.604   0.436   6.152  2.0903  0.4813 -1.5983
 8470SOL     OW37042   2.451   0.758   9.109  0.4455 -0.4906 -0.0579
 8470SOL    HW137043   2.419   0.711   9.032 -0.0028 -1.0947  0.4930
 8470SOL    HW237044   2.403   0.702   9.169 -1.5505 -0.3918 -1.5675
 8471SOL     OW37045   4.235   4.445   2.922  0.0918  0.5672  0.6407
 8471SOL    HW137046   4.284   4.525   2.904 -1.0029  0.8652 -1.0453
 8471SOL    HW237047   4.147   4.475   2.943  0.1571 -0.1165  1.8372
 8472SOL     OW37048   2.377   3.083   8.287  0.4221  0.2176  0.5843
 8472SOL    HW137049   2.327   3.027   8.347 -1.5813  1.7623  0.3529
 8472SOL    HW237050   2.341   3.169   8.309  0.7160 -0.0635  2.1879
 8473SOL     OW37051   0.646   3.259   1.863 -0.2066  0.0705 -0.0492
 8473SOL    HW137052   0.587   3.199   1.817  1.2063 -0.7504 -0.7763
 8473SOL    HW237053   0.693   3.286   1.784 -1.6372  0.9743 -0.5908
 8474SOL     OW37054   1.128   3.699  12.178  0.2710 -0.2842  0.2945
 8474SOL    HW137055   1.040   3.735  12.167  1.2835  1.2761 -2.5618
 8474SOL    HW237056   1.120   3.604  12.193 -1.4839  0.1333  2.1681
 8475SOL     OW37057   4.402   2.619   6.164 -0.1581  0.5925  0.2131
 8475SOL    HW137058   4.402   2.656   6.076 -2.3281  1.1652  0.4426
 8475SOL    HW237059   4.351   2.541   6.140  0.2699  0.7257 -1.1178
 8476SOL     OW37060   4.103   3.413   8.035  0.2586 -0.3396  0.2614
 8476SOL    HW137061   4.160   3.337   8.022  0.3343 -0.2394  0.0131
 8476SOL    HW237062   4.135   3.476   7.970  0.0385  2.3578  2.7615
 8477SOL     OW37063   0.952   4.366   8.629  0.2389 -0.3571 -0.1297
 8477SOL    HW137064   0.962   4.435   8.563 -1.1865 -0.9758 -1.0082
 8477SOL    HW237065   0.968   4.409   8.712 -0.1471 -0.9087  0.2330
 8478SOL     OW37066   1.954   0.152   0.175  0.0368  0.4646  0.3342
 8478SOL    HW137067   1.878   0.136   0.118  1.4283  0.7087 -1.5927
 8478SOL    HW237068   1.931   0.092   0.246 -0.1320 -0.1387 -0.2290
 8479SOL     OW37069   4.036   4.252  10.997  0.8287  0.0542  0.0022
 8479SOL    HW137070   4.052   4.341  11.027  0.2463  0.0302  0.3906
 8479SOL    HW237071   3.946   4.233  11.024  0.4020  0.7722 -0.9271
 8480SOL     OW37072   1.150   0.899   4.737 -0.4565  0.2174  0.4471
 8480SOL    HW137073   1.072   0.846   4.720  0.3776 -0.6900 -0.5475
 8480SOL    HW237074   1.119   0.962   4.803  1.8973  0.6907  1.0764
 8481SOL     OW37075   4.344   3.526   3.694 -0.0204  0.1218  0.2694
 8481SOL    HW137076   4.338   3.519   3.790 -0.4038 -1.3146  0.1419
 8481SOL    HW237077   4.422   3.473   3.679 -0.9814 -1.3308  0.3662
 8482SOL     OW37078   0.489   1.881  12.754  0.2808  0.7925  0.5087
 8482SOL    HW137079   0.411   1.930  12.777  0.0744  1.3184 -1.2750
 8482SOL    HW237080   0.455   1.822  12.687  1.3216 -0.1830  0.8353
 8483SOL     OW37081   1.342   0.319   4.106  0.3324  0.3291 -0.7568
 8483SOL    HW137082   1.296   0.258   4.048 -0.6353  1.5539 -1.2833
 8483SOL    HW237083   1.429   0.287   4.085  1.5251  1.3197  2.7729
 8484SOL     OW37084   2.432   1.282   8.742 -0.1327 -0.5435 -0.2060
 8484SOL    HW137085   2.388   1.253   8.822 -1.1404  1.4721 -0.0419
 8484SOL    HW237086   2.424   1.206   8.684  3.0751 -1.7068  0.8829
 8485SOL     OW37087   4.057   1.565   5.248 -0.4102 -0.2623 -0.5599
 8485SOL    HW137088   4.078   1.657   5.233 -1.4331  0.0668  0.0104
 8485SOL    HW237089   3.994   1.567   5.320  0.4104 -0.9946  0.1965
 8486SOL     OW37090   3.403   2.230   8.526 -0.2426 -0.5733 -1.2500
 8486SOL    HW137091   3.409   2.155   8.585 -2.0074  2.7281  3.0985
 8486SOL    HW237092   3.491   2.266   8.517 -0.0024 -1.0953 -0.9835
 8487SOL     OW37093   4.150   3.607   2.963  0.0726  0.1612  0.8246
 8487SOL    HW137094   4.066   3.593   3.006  0.1440 -0.3692  0.7880
 8487SOL    HW237095   4.188   3.675   3.019 -0.1142  0.7275  0.2717
 8488SOL     OW37096   1.344   4.592   8.910  0.3710 -0.5363 -0.0875
 8488SOL    HW137097   1.270   4.609   8.851  0.5862 -0.4250 -0.3223
 8488SOL    HW237098   1.386   4.527   8.854  0.6499 -2.4738  2.4034
 8489SOL     OW37099   3.241   4.216   9.227 -0.1473 -0.4849 -0.3498
 8489SOL    HW137100   3.184   4.140   9.229  0.0223 -0.5370  1.9383
 8489SOL    HW237101   3.173   4.282   9.243  0.5957  0.4276 -0.9059
 8490SOL     OW37102   2.957   3.098  11.694  0.5046  0.1437  0.0769
 8490SOL    HW137103   3.026   3.152  11.656 -0.4605 -0.0938 -2.0270
 8490SOL    HW237104   2.877   3.142  11.666  0.3123  0.1132  0.5793
 8491SOL     OW37105   0.104   0.437   3.271 -0.1425  0.3370  0.3859
 8491SOL    HW137106   0.115   0.477   3.184  1.9755 -1.4214 -0.1488
 8491SOL    HW237107   0.186   0.400   3.303 -0.0473 -0.6657 -0.9931
 8492SOL     OW37108   0.010   3.820   1.683 -0.4477  0.0848 -0.1867
 8492SOL    HW137109   0.061   3.788   1.608 -0.8722 -2.6914  0.6836
 8492SOL    HW237110   0.032   3.760   1.755  1.6841  2.1427  0.8763
 8493SOL     OW37111   2.830   2.317   8.847  0.1318 -0.5489  0.1385
 8493SOL    HW137112   2.809   2.228   8.876 -0.9953 -0.5363 -0.6509
 8493SOL    HW237113   2.835   2.371   8.926 -0.2811  1.0337 -0.9135
 8494SOL     OW37114   0.241   3.536   0.891  0.2899 -0.9533 -0.1700
 8494SOL    HW137115   0.158   3.490   0.905 -0.6338  1.2104  1.4706
 8494SOL    HW237116   0.218   3.625   0.916 -0.4426 -1.1099 -0.2886
 8495SOL     OW37117   0.187   2.873  15.308 -0.2233  0.3881  0.2752
 8495SOL    HW137118   0.222   2.962  15.301  2.2381 -0.5114  1.0119
 8495SOL    HW237119   0.118   2.866  15.242 -0.2979 -1.0083  0.5085
 8496SOL     OW37120   1.228   0.313   5.273  0.0115  0.1669  0.1605
 8496SOL    HW137121   1.220   0.228   5.315  1.1656  0.1463  0.3456
 8496SOL    HW237122   1.184   0.302   5.189 -2.1996 -0.8025  1.4379
 8497SOL     OW37123   2.903   4.167   8.708 -0.0435 -0.4558 -0.6785
 8497SOL    HW137124   2.843   4.192   8.637  1.4477  0.2225 -1.6882
 8497SOL    HW237125   2.976   4.135   8.656  0.4604  2.6488 -1.8691
 8498SOL     OW37126   3.164   4.020   8.097 -0.1341  0.4043 -0.2474
 8498SOL    HW137127   3.245   3.982   8.064  0.3747 -0.6580  2.2613
 8498SOL    HW237128   3.181   4.013   8.191  0.0530 -1.6535 -0.4453
 8499SOL     OW37129   0.909   3.282   8.854 -0.0846  0.0920  0.7833
 8499SOL    HW137130   0.938   3.296   8.764  0.6898 -1.3855  0.8065
 8499SOL    HW237131   0.991   3.284   8.903  2.0016 -0.0631 -2.7702
 8500SOL     OW37132   0.096   1.671   2.155 -0.1235  0.1747 -0.6222
 8500SOL    HW137133   0.077   1.661   2.248  1.1097  0.1267 -0.3839
 8500SOL    HW237134   0.002   1.663   2.137 -0.2023 -1.9079  0.7886
 8501SOL     OW37135   0.354   1.374   5.619  0.1345  0.6481 -0.0050
 8501SOL    HW137136   0.409   1.424   5.559 -0.0303  1.7546  0.7663
 8501SOL    HW237137   0.283   1.438   5.630  0.4313  0.7758  1.0695
 8502SOL     OW37138   1.347   4.112  16.299  0.0056 -0.1176 -0.0153
 8502SOL    HW137139   1.308   4.070  16.222 -0.2033  2.2314 -1.1998
 8502SOL    HW237140   1.372   4.041  16.358 -1.3081  1.0746  1.9879
 8503SOL     OW37141   0.511   4.369   7.634 -0.2507  0.2421  0.6836
 8503SOL    HW137142   0.563   4.336   7.561 -1.0804 -1.1839  0.7333
 8503SOL    HW237143   0.583   4.401   7.688  1.5765  0.8435 -2.1389
 8504SOL     OW37144   0.600   0.105   6.721 -0.3338 -0.2671  0.5767
 8504SOL    HW137145   0.607   0.101   6.816  0.1185  2.2705  0.6651
 8504SOL    HW237146   0.507   0.119   6.701  0.1403  0.2857 -1.2775
 8505SOL     OW37147   4.530   2.087   9.108  0.0252 -0.2860 -0.2599
 8505SOL    HW137148   4.567   2.059   9.024 -0.0959  2.1669 -1.1543
 8505SOL    HW237149   4.469   2.154   9.076  0.3019  0.5144  0.8998
 8506SOL     OW37150   2.905   2.523   9.792  0.3873  0.6656 -0.1191
 8506SOL    HW137151   2.910   2.605   9.841 -0.8729  0.4935  0.3102
 8506SOL    HW237152   2.861   2.557   9.713  0.8978  0.0587 -0.6644
 8507SOL     OW37153   2.510   1.782   9.397 -0.1983 -0.2617 -0.1694
 8507SOL    HW137154   2.591   1.757   9.443  1.3503  0.0462 -2.7502
 8507SOL    HW237155   2.488   1.702   9.350  1.5522 -0.9301  0.1314
 8508SOL     OW37156   2.095   0.627  13.546  0.6640 -0.2032  0.1693
 8508SOL    HW137157   2.062   0.680  13.618 -1.3568 -0.2680 -0.6871
 8508SOL    HW237158   2.187   0.652  13.550 -0.1786  2.3777  3.1997
 8509SOL     OW37159   1.212   0.189   7.712 -0.4935 -0.0005 -0.1691
 8509SOL    HW137160   1.133   0.225   7.672 -0.5594 -0.5252 -0.5069
 8509SOL    HW237161   1.173   0.110   7.750 -0.7696  0.2459  0.0612
 8510SOL     OW37162   3.897   3.856  10.056  0.1613 -0.1735 -0.2530
 8510SOL    HW137163   3.924   3.890  10.141  1.1305  0.3666 -0.7792
 8510SOL    HW237164   3.981   3.833  10.017  0.1053  1.7702 -1.5368
 8511SOL     OW37165   2.440   0.735   8.144 -0.1425  0.0043  0.0585
 8511SOL    HW137166   2.349   0.752   8.169  0.8232  2.9038  1.6430
 8511SOL    HW237167   2.458   0.644   8.167  1.1711  0.4643  0.8200
 8512SOL     OW37168   3.150   2.784  12.954 -0.1387  0.0196  0.1487
 8512SOL    HW137169   3.150   2.873  12.990  0.3504  0.6774 -1.4966
 8512SOL    HW237170   3.064   2.749  12.976 -0.4134  0.0289 -0.9430
 8513SOL     OW37171   4.080   1.532   8.758  0.5086  0.2591  0.0243
 8513SOL    HW137172   4.092   1.575   8.673 -0.3848  0.7501  0.1485
 8513SOL    HW237173   4.076   1.614   8.806  2.9541 -0.7022  1.8690
 8514SOL     OW37174   1.497   0.727   4.989 -0.1341 -0.3582 -0.0776
 8514SOL    HW137175   1.440   0.665   5.035  0.1486 -1.2938 -0.9726
 8514SOL    HW237176   1.505   0.681   4.905 -1.0651 -0.4877 -0.0981
 8515SOL     OW37177   2.249   0.140  17.172  0.5883 -0.1768  0.6105
 8515SOL    HW137178   2.224   0.231  17.190 -2.2630 -0.4808 -1.7907
 8515SOL    HW237179   2.340   0.150  17.199 -0.3041  1.1742  3.1475
 8516SOL     OW37180   1.525   4.126  11.143  0.1109  0.0390  0.5142
 8516SOL    HW137181   1.574   4.191  11.192 -1.5001  1.2604  0.5101
 8516SOL    HW237182   1.582   4.050  11.156 -2.5405 -1.9366  0.6287
 8517SOL     OW37183   1.732   2.838  12.684  0.5576 -0.4028 -0.0047
 8517SOL    HW137184   1.757   2.875  12.599 -0.4721 -0.3412 -0.2770
 8517SOL    HW237185   1.794   2.765  12.688  0.2011 -0.7209 -0.3194
 8518SOL     OW37186   2.650   3.394   2.502  0.0543 -0.0992  0.0039
 8518SOL    HW137187   2.606   3.379   2.586 -0.9007 -0.8924 -0.6415
 8518SOL    HW237188   2.580   3.352   2.452 -0.1609  2.1909 -1.5952
 8519SOL     OW37189   0.396   2.516  15.946 -0.6157 -0.3141 -0.2376
 8519SOL    HW137190   0.442   2.600  15.938  0.2381 -0.8775 -1.1552
 8519SOL    HW237191   0.397   2.485  15.855 -0.6181 -0.3405 -0.2283
 8520SOL     OW37192   4.628   4.014   0.895 -0.1246  0.6158  0.3190
 8520SOL    HW137193   4.667   3.928   0.878 -0.5144  0.4673  0.1856
 8520SOL    HW237194   4.703   4.065   0.863  0.1457 -0.2385 -0.4116
 8521SOL     OW37195   3.018   4.627  11.870 -0.4506 -0.4417  0.1886
 8521SOL    HW137196   2.932   4.592  11.893 -1.1685 -0.0855 -1.9283
 8521SOL    HW237197   3.005   4.711  11.827  2.3484 -1.2456 -2.2259
 8522SOL     OW37198   2.314   0.250  11.678 -0.5393  0.0970 -0.2380
 8522SOL    HW137199   2.242   0.307  11.653  0.9220  1.8527 -0.4063
 8522SOL    HW237200   2.340   0.276  11.767  2.9704 -3.1573 -0.3163
 8523SOL     OW37201   1.272   2.270   9.908 -0.7862  0.4105 -0.2572
 8523SOL    HW137202   1.273   2.297   9.816  1.5824 -1.1048 -0.6685
 8523SOL    HW237203   1.205   2.203   9.918  2.8539 -3.1916 -0.1912
 8524SOL     OW37204   3.117   3.128   8.128  0.5563 -0.0330 -1.1702
 8524SOL    HW137205   3.190   3.094   8.075  1.2749 -1.4330  0.6938
 8524SOL    HW237206   3.163   3.173   8.199 -0.2230 -1.2027  0.0821
 8525SOL     OW37207   3.934   1.204   6.620  0.0063 -0.2005 -0.0145
 8525SOL    HW137208   3.841   1.205   6.640  0.6095  0.1536  2.7499
 8525SOL    HW237209   3.944   1.109   6.613  0.6902 -0.0448 -1.0866
 8526SOL     OW37210   0.268   3.600  12.053  0.2871  0.2795 -0.2815
 8526SOL    HW137211   0.339   3.579  12.114 -1.9642 -1.0329  1.8470
 8526SOL    HW237212   0.194   3.626  12.107 -2.3609 -2.3326 -2.6553
 8527SOL     OW37213   4.487   2.273   5.950 -0.5973 -0.4379 -0.7331
 8527SOL    HW137214   4.403   2.296   5.912  0.7600  0.9675 -2.8504
 8527SOL    HW237215   4.532   2.357   5.947 -0.9414 -0.1250  2.3285
 8528SOL     OW37216   2.861   3.462   6.305  0.0220 -0.1105 -0.0410
 8528SOL    HW137217   2.848   3.372   6.335  2.2589 -0.2706  0.4770
 8528SOL    HW237218   2.865   3.510   6.387 -1.7313  3.8026 -2.2325
 8529SOL     OW37219   3.311   2.614   2.999  0.2326  0.1915  0.2908
 8529SOL    HW137220   3.302   2.707   2.979 -1.1876  0.0037  0.0431
 8529SOL    HW237221   3.257   2.574   2.931 -0.3424  1.7654 -0.1801
 8530SOL     OW37222   3.396   2.758   6.663  0.0545  0.0874  0.1379
 8530SOL    HW137223   3.488   2.771   6.685  0.3777  1.0915 -1.8227
 8530SOL    HW237224   3.351   2.829   6.709 -1.3470  0.9250 -2.5143
 8531SOL     OW37225   0.243   4.019   2.966  0.0176 -0.0213  0.2107
 8531SOL    HW137226   0.336   3.998   2.958 -0.4245 -1.4579 -1.0403
 8531SOL    HW237227   0.255   4.096   3.022  1.8317 -0.9940  1.1541
 8532SOL     OW37228   2.803   1.107   6.901  0.7939 -0.2515  0.3051
 8532SOL    HW137229   2.714   1.129   6.927  0.9582  0.1173  0.5632
 8532SOL    HW237230   2.848   1.191   6.914  0.4920  0.1384 -1.1459
 8533SOL     OW37231   0.592   2.758   9.405  0.1197 -0.0966 -0.2585
 8533SOL    HW137232   0.541   2.681   9.379  0.1480 -0.9351  2.1148
 8533SOL    HW237233   0.533   2.797   9.469  0.3162 -0.9726  0.4599
 8534SOL     OW37234   1.397   3.645   5.400  0.0239  0.3592 -0.1750
 8534SOL    HW137235   1.450   3.724   5.400 -1.3324  1.2654  0.9786
 8534SOL    HW237236   1.425   3.609   5.484  1.7956 -0.3856 -1.0953
 8535SOL     OW37237   3.055   0.835  13.067 -0.1031 -0.2298 -0.1892
 8535SOL    HW137238   2.968   0.803  13.043  0.9403 -1.8138 -1.8090
 8535SOL    HW237239   3.111   0.758  13.064  0.2019  0.0168 -0.8108
 8536SOL     OW37240   0.749   3.118   1.620  0.1963 -0.7377 -0.1031
 8536SOL    HW137241   0.820   3.167   1.581  2.2347 -2.1532  1.8212
 8536SOL    HW237242   0.683   3.120   1.551 -0.2317  0.8413  0.3672
 8537SOL     OW37243   2.969   3.864   6.717 -0.0348  0.3674  0.7283
 8537SOL    HW137244   3.030   3.837   6.786  0.9744  2.8336  0.7975
 8537SOL    HW237245   3.030   3.900   6.653  0.0274 -0.4763  0.3247
 8538SOL     OW37246   4.721   3.664   5.473  0.3308  0.3009  0.5973
 8538SOL    HW137247   4.643   3.615   5.448 -0.7853  0.8857  2.9727
 8538SOL    HW237248   0.037   3.670   5.391  0.6270 -3.9855  0.4747
 8539SOL     OW37249   1.264   4.214  11.724 -0.3313  0.7294 -0.5590
 8539SOL    HW137250   1.219   4.160  11.660 -0.1683  2.1085 -1.8520
 8539SOL    HW237251   1.276   4.147  11.792  2.1439  0.7139 -0.9948
 8540SOL     OW37252   2.956   1.424   1.802  0.2949 -0.4425  0.5542
 8540SOL    HW137253   2.991   1.375   1.728  1.2941  1.4550 -0.2197
 8540SOL    HW237254   3.033   1.465   1.841  0.1308 -0.9155  1.3933
 8541SOL     OW37255   3.168   0.085   4.777  0.0710 -0.3198  0.3813
 8541SOL    HW137256   3.254   0.047   4.796 -0.9577 -2.7968  0.0789
 8541SOL    HW237257   3.141   0.095   4.869 -0.0657  1.7246  0.1335
 8542SOL     OW37258   4.647   4.570   7.020  0.3204  0.3790  0.5568
 8542SOL    HW137259   4.590   4.638   7.054 -0.7732 -0.3304  0.1595
 8542SOL    HW237260   4.637   4.583   6.925  0.9663  1.1857  0.6014
 8543SOL     OW37261   4.252   4.700  15.304  0.6103 -0.1727 -0.3040
 8543SOL    HW137262   4.221   4.614  15.275 -0.2405 -1.0346  3.1849
 8543SOL    HW237263   4.189   0.014  15.251  0.3712 -0.3230 -0.1586
 8544SOL     OW37264   2.355   3.387   1.897 -0.3290  0.4628 -0.2330
 8544SOL    HW137265   2.275   3.337   1.915 -0.5861  2.1533  3.2864
 8544SOL    HW237266   2.331   3.419   1.810 -0.4358  2.8047  0.6714
 8545SOL     OW37267   2.031   2.438   4.118  0.7342 -0.2602 -0.2587
 8545SOL    HW137268   2.119   2.460   4.089  1.2472  2.7588  3.5215
 8545SOL    HW237269   2.028   2.351   4.079 -1.8569  0.3998 -1.5241
 8546SOL     OW37270   0.544   0.506   4.938  0.0828  0.1467  0.0594
 8546SOL    HW137271   0.473   0.569   4.947 -1.0770 -0.9773 -1.1283
 8546SOL    HW237272   0.575   0.505   5.029  1.5957 -0.4765 -0.4612
 8547SOL     OW37273   1.271   2.609   3.143  0.3879 -0.2848  0.5474
 8547SOL    HW137274   1.186   2.609   3.098 -0.4736  3.4622  2.1898
 8547SOL    HW237275   1.240   2.638   3.229 -0.5184  1.4476 -0.3632
 8548SOL     OW37276   0.587   0.674  17.209  0.2153  0.0900 -0.5369
 8548SOL    HW137277   0.499   0.676  17.247  0.2685  0.9364 -0.4614
 8548SOL    HW237278   0.607   0.583  17.190 -0.1240  0.4794 -2.6756
 8549SOL     OW37279   1.141   1.874   5.892 -0.3306  0.0594 -0.3588
 8549SOL    HW137280   1.178   1.847   5.976 -1.3968  1.5354  0.5758
 8549SOL    HW237281   1.104   1.961   5.909  0.5002  0.4992 -0.7739
 8550SOL     OW37282   1.659   1.796   2.553 -0.0190  0.0112  0.0085
 8550SOL    HW137283   1.583   1.847   2.525  0.8125  1.3697  0.2744
 8550SOL    HW237284   1.642   1.793   2.647  3.5619  0.1001  0.6499
 8551SOL     OW37285   3.305   3.032  14.934 -0.0119 -0.1925 -0.0289
 8551SOL    HW137286   3.332   2.986  14.854 -1.7170 -1.7335  0.2836
 8551SOL    HW237287   3.251   3.100  14.894 -0.7212  0.4497  2.0026
 8552SOL     OW37288   0.216   2.145   5.866 -0.0801  0.4969  0.4099
 8552SOL    HW137289   0.173   2.210   5.811 -1.5876 -1.4286 -0.6846
 8552SOL    HW237290   0.183   2.178   5.949 -0.7078  2.0708 -0.4684
 8553SOL     OW37291   3.836   1.527   2.384  0.2544  0.1444 -0.1207
 8553SOL    HW137292   3.749   1.563   2.367  0.1360 -0.5086 -0.9049
 8553SOL    HW237293   3.828   1.435   2.357  1.7152 -0.9316  3.1223
 8554SOL     OW37294   3.674   3.249  11.575  0.0582  0.2212  0.1614
 8554SOL    HW137295   3.628   3.167  11.559 -0.2534  0.2812  0.7700
 8554SOL    HW237296   3.615   3.287  11.640 -1.3965  1.1443 -1.7082
 8555SOL     OW37297   1.378   4.367   4.273 -0.3101 -0.2583  1.1435
 8555SOL    HW137298   1.357   4.282   4.234  0.2923 -1.2377  2.9848
 8555SOL    HW237299   1.415   4.342   4.357  1.2706 -2.2375 -0.1397
 8556SOL     OW37300   4.474   2.900   0.015 -0.3503 -0.2310 -0.5905
 8556SOL    HW137301   4.510   2.972  17.699 -0.2054 -0.7460 -1.2109
 8556SOL    HW237302   4.480   2.822  17.695 -1.8560 -2.2677  2.0938
 8557SOL     OW37303   4.423   2.515   2.570  0.5256  0.5699 -0.1418
 8557SOL    HW137304   4.387   2.595   2.609 -0.1429  0.9593 -1.5459
 8557SOL    HW237305   4.516   2.538   2.574  0.2612  1.6056  0.0821
 8558SOL     OW37306   2.065   4.516   6.004  0.1253  0.2356 -0.2823
 8558SOL    HW137307   2.034   4.502   6.093  0.8313 -1.8775 -0.3624
 8558SOL    HW237308   2.157   4.530   6.024 -0.2356  0.3671  1.2742
 8559SOL     OW37309   0.310   3.248  11.291  0.6585 -0.7414 -0.8804
 8559SOL    HW137310   0.265   3.234  11.375 -0.0365 -2.9710 -1.6152
 8559SOL    HW237311   0.376   3.312  11.319 -0.0406  0.0895 -1.1257
 8560SOL     OW37312   2.366   1.405   2.161  0.0634  0.6962 -0.4175
 8560SOL    HW137313   2.346   1.481   2.216 -0.8857 -1.0401  1.6551
 8560SOL    HW237314   2.444   1.367   2.202 -1.4828 -4.0473 -1.8511
 8561SOL     OW37315   3.959   4.084   7.616  0.4015  0.6296 -0.2310
 8561SOL    HW137316   3.957   4.061   7.523 -0.5196  0.2357 -0.1203
 8561SOL    HW237317   3.869   4.111   7.637  0.0203 -0.8792  0.0937
 8562SOL     OW37318   3.618   3.027   8.611  0.1771 -0.6452 -0.7778
 8562SOL    HW137319   3.552   3.024   8.541  0.3119  1.4373 -1.0135
 8562SOL    HW237320   3.661   3.111   8.596 -2.5816  0.9341  0.1516
 8563SOL     OW37321   0.516   3.400   4.164 -0.1621  0.2446  0.2295
 8563SOL    HW137322   0.514   3.472   4.101 -1.4852  0.6517  0.7443
 8563SOL    HW237323   0.423   3.393   4.183 -0.3485 -1.6369 -1.3731
 8564SOL     OW37324   3.647   3.613   2.422  0.3958 -0.3991  0.1359
 8564SOL    HW137325   3.609   3.533   2.459 -0.2185 -1.6382 -3.1566
 8564SOL    HW237326   3.650   3.663   2.503  2.9325  1.3844 -1.0526
 8565SOL     OW37327   0.937   3.689  11.862 -0.0215 -0.2094  0.4984
 8565SOL    HW137328   1.029   3.713  11.872  0.1027 -0.9121  1.0491
 8565SOL    HW237329   0.895   3.772  11.885 -2.0093 -0.7872 -1.0633
 8566SOL     OW37330   3.035   4.346   2.043 -0.4361  0.8904 -0.4717
 8566SOL    HW137331   2.967   4.316   2.103 -0.2893  2.7374  0.6065
 8566SOL    HW237332   3.098   4.274   2.043  0.0274  1.2983 -3.1314
 8567SOL     OW37333   2.250   4.034  14.111  0.4964 -0.5560 -0.1095
 8567SOL    HW137334   2.294   3.987  14.041 -0.7515 -1.9586  0.0437
 8567SOL    HW237335   2.328   4.054  14.163  1.4532 -2.2208 -0.9152
 8568SOL     OW37336   0.829   1.984   3.975  0.2919  0.3800  0.3304
 8568SOL    HW137337   0.906   1.968   4.031  0.1152  0.2709  0.5439
 8568SOL    HW237338   0.805   1.893   3.954  1.3155  0.1497  0.1517
 8569SOL     OW37339   1.557   1.587   7.117  0.0429  0.0943 -0.1693
 8569SOL    HW137340   1.637   1.616   7.160 -0.1156 -0.8608  0.7720
 8569SOL    HW237341   1.511   1.553   7.194  0.8680 -0.4234  0.0926
 8570SOL     OW37342   3.370   1.553   2.914 -0.1557  0.8757 -0.0754
 8570SOL    HW137343   3.462   1.572   2.898 -0.4793  0.2349 -2.7106
 8570SOL    HW237344   3.384   1.478   2.972  1.5474  0.1853 -1.3564
 8571SOL     OW37345   4.720   1.899   3.221 -0.1263  0.2117 -0.5499
 8571SOL    HW137346   0.039   1.874   3.297 -0.4669 -1.4803 -0.8695
 8571SOL    HW237347   0.025   1.981   3.192 -2.5183  0.7666 -2.1865
 8572SOL     OW37348   0.869   3.751   5.715  0.4451  0.2870 -0.5356
 8572SOL    HW137349   0.788   3.788   5.680 -0.1319 -1.4716 -1.0608
 8572SOL    HW237350   0.921   3.716   5.642 -0.8896 -0.3110 -1.2120
 8573SOL     OW37351   3.037   0.809   5.595 -0.3391 -0.0801  0.1744
 8573SOL    HW137352   3.061   0.835   5.506 -1.5960  1.6246  0.3378
 8573SOL    HW237353   2.982   0.732   5.582  1.5614 -1.2895 -0.9017
 8574SOL     OW37354   4.394   4.595  13.467 -0.6265 -0.1005  0.4159
 8574SOL    HW137355   4.410   4.688  13.484 -1.0575  0.0145  0.2014
 8574SOL    HW237356   4.391   4.563  13.557  1.3891 -0.7509  0.2534
 8575SOL     OW37357   0.641   1.611  14.663  0.2359 -0.4899  0.6434
 8575SOL    HW137358   0.584   1.587  14.735  0.4739  1.6613  1.5672
 8575SOL    HW237359   0.723   1.627  14.711  0.1536 -0.5658  0.8066
 8576SOL     OW37360   0.215   2.972  14.810 -0.0157  0.3538  0.1103
 8576SOL    HW137361   0.285   2.911  14.789 -1.5064 -1.6039  0.8270
 8576SOL    HW237362   0.242   3.002  14.897  1.5355 -1.3273  0.2052
 8577SOL     OW37363   1.248   1.329   9.797 -0.3759  0.3378 -0.0276
 8577SOL    HW137364   1.330   1.351   9.840  1.0798 -3.9450 -0.6521
 8577SOL    HW237365   1.193   1.299   9.870 -0.5011  1.6240  0.4201
 8578SOL     OW37366   2.603   4.218  14.488 -0.4563 -0.5061  0.3668
 8578SOL    HW137367   2.522   4.256  14.520  0.2951  0.4935  1.0720
 8578SOL    HW237368   2.643   4.294  14.444 -0.5154  0.0403  1.2712
 8579SOL     OW37369   4.403   4.007   1.424 -0.4651  0.0562 -0.3046
 8579SOL    HW137370   4.319   3.970   1.397 -1.1471  1.2492  0.2020
 8579SOL    HW237371   4.446   4.033   1.342  0.3327  0.8297  0.3650
 8580SOL     OW37372   3.753   0.299  11.495 -0.0111  0.1226  0.4200
 8580SOL    HW137373   3.769   0.268  11.584 -0.3758 -0.6862  0.2085
 8580SOL    HW237374   3.839   0.308  11.454  0.7597  0.0030  2.0294
 8581SOL     OW37375   0.224   1.511  15.334 -0.4249 -0.1981  0.1076
 8581SOL    HW137376   0.237   1.606  15.325  0.8617 -0.5528 -1.7955
 8581SOL    HW237377   0.215   1.502  15.429 -0.2788 -3.0356 -0.1537
 8582SOL     OW37378   4.074   1.306  10.505 -0.0157  0.1057  0.5284
 8582SOL    HW137379   4.075   1.267  10.593  2.5512 -0.8139  0.0928
 8582SOL    HW237380   4.010   1.377  10.500  0.2560  0.2849 -0.4290
 8583SOL     OW37381   0.404   3.875   8.065  0.3682 -0.1906 -0.4611
 8583SOL    HW137382   0.331   3.931   8.091  1.7036  0.4362  1.9404
 8583SOL    HW237383   0.391   3.860   7.971  1.9080  0.0015 -0.7106
 8584SOL     OW37384   4.159   3.648  10.341  0.1318 -0.5101  0.2571
 8584SOL    HW137385   4.153   3.739  10.372  2.6141 -0.2803  0.0583
 8584SOL    HW237386   4.238   3.626  10.390 -0.3079 -0.5653  0.9392
 8585SOL     OW37387   2.320   4.586   2.195 -0.0512 -0.2142 -0.2344
 8585SOL    HW137388   2.327   4.643   2.119 -3.5623  0.2608 -0.2140
 8585SOL    HW237389   2.405   4.543   2.195 -0.9670 -2.0041 -1.1438
 8586SOL     OW37390   0.269   1.654   1.355  0.1253 -0.2562 -0.2865
 8586SOL    HW137391   0.178   1.633   1.377  0.8030 -2.3107  0.5365
 8586SOL    HW237392   0.305   1.569   1.328 -0.5029 -0.9207  0.9504
 8587SOL     OW37393   3.277   3.963   2.358  0.5304  0.3803 -0.3290
 8587SOL    HW137394   3.262   4.057   2.366  2.5220  0.5991  0.8185
 8587SOL    HW237395   3.369   3.960   2.333  0.9000  2.0967  0.8409
 8588SOL     OW37396   2.135   4.165   9.402 -0.4049  0.4113  0.2421
 8588SOL    HW137397   2.047   4.201   9.386 -0.3828 -0.3355 -1.5855
 8588SOL    HW237398   2.187   4.239   9.434 -1.5888  1.0909  0.5981
 8589SOL     OW37399   0.604   0.872   1.825  0.0092 -0.0228 -0.2774
 8589SOL    HW137400   0.555   0.952   1.805  0.2931 -0.2631 -1.9495
 8589SOL    HW237401   0.659   0.898   1.899  0.1925  1.2605 -0.8589
 8590SOL     OW37402   2.484   3.012   6.042 -0.6377  0.2609 -0.5490
 8590SOL    HW137403   2.545   3.071   6.087 -0.2011  0.0431 -0.8545
 8590SOL    HW237404   2.409   3.071   6.045  0.9603  2.1683  2.1295
 8591SOL     OW37405   0.062   0.240  10.122  0.2494  0.4915 -0.4600
 8591SOL    HW137406   0.155   0.259  10.112  0.5807 -0.1783  1.2481
 8591SOL    HW237407   0.074   0.146  10.137 -1.4707  0.2623 -0.4923
 8592SOL     OW37408   0.096   1.164   4.735 -0.0873 -0.6451  0.1295
 8592SOL    HW137409   0.079   1.245   4.782  2.5243  0.8678 -1.5033
 8592SOL    HW237410   0.185   1.183   4.707 -0.3610 -0.5028 -0.6438
 8593SOL     OW37411   0.761   0.374   6.741  0.3688 -0.1504 -0.2271
 8593SOL    HW137412   0.702   0.417   6.679 -1.1132  0.5599  1.6950
 8593SOL    HW237413   0.694   0.370   6.809 -0.5414  0.3961 -1.0903
 8594SOL     OW37414   4.730   4.424   8.865  0.0012 -0.5852 -0.1644
 8594SOL    HW137415   0.066   4.489   8.862  0.2661 -0.8582  0.1173
 8594SOL    HW237416   4.656   4.483   8.847  0.3799 -0.3894 -1.0842
 8595SOL     OW37417   3.645   0.119   0.748  0.2295 -0.5930  0.1802
 8595SOL    HW137418   3.621   0.198   0.797  1.9101 -0.7945  1.3497
 8595SOL    HW237419   3.692   0.164   0.679  1.2219  1.0979  1.9481
 8596SOL     OW37420   2.506   2.281   5.737 -0.0348  0.6325  0.0340
 8596SOL    HW137421   2.498   2.354   5.675  1.3438 -1.8413 -3.0208
 8596SOL    HW237422   2.600   2.284   5.751 -0.1543 -0.4977  1.0643
 8597SOL     OW37423   2.686   0.681   3.480 -0.1746  0.1599 -0.2044
 8597SOL    HW137424   2.639   0.742   3.424 -0.8744 -1.5299 -1.4207
 8597SOL    HW237425   2.666   0.722   3.565  0.3151  0.9805 -0.4821
 8598SOL     OW37426   0.124   1.407   7.764  0.2310  0.1338  0.1180
 8598SOL    HW137427   0.207   1.447   7.740  0.7768 -0.1410  1.5512
 8598SOL    HW237428   0.060   1.443   7.703 -1.7901 -0.2032  2.0372
 8599SOL     OW37429   4.226   1.445  13.312  0.5444  0.5984  0.0986
 8599SOL    HW137430   4.192   1.406  13.392  2.2951 -0.5619  0.2864
 8599SOL    HW237431   4.238   1.537  13.335 -0.3516  0.6415  0.3831
 8600SOL     OW37432   1.109   2.464   2.737 -0.0406 -0.3325  0.8641
 8600SOL    HW137433   1.056   2.385   2.724  0.0330 -0.2300 -0.0476
 8600SOL    HW237434   1.042   2.523   2.771  0.3522  1.0854 -0.8595
 8601SOL     OW37435   3.376   2.289  10.270  0.0330 -0.4734 -0.7414
 8601SOL    HW137436   3.438   2.222  10.244  1.0546 -0.0861  0.7118
 8601SOL    HW237437   3.319   2.230  10.320 -0.3864  0.3354 -0.2624
 8602SOL     OW37438   2.214   1.326  16.594  0.5389  0.1870 -0.1070
 8602SOL    HW137439   2.174   1.256  16.644 -2.1111  0.7267 -1.4892
 8602SOL    HW237440   2.307   1.304  16.592  0.8884  1.7333 -1.1013
 8603SOL     OW37441   1.392   4.643  10.184  0.2322 -0.1614  0.0834
 8603SOL    HW137442   1.367   4.662  10.275  2.4412 -1.5357  0.9781
 8603SOL    HW237443   1.461   4.579  10.201  1.6359  1.0867 -0.9211
 8604SOL     OW37444   0.944   1.093  12.166  0.0819  0.6919  0.0582
 8604SOL    HW137445   0.996   1.051  12.233 -1.8527  0.2404  1.2814
 8604SOL    HW237446   0.911   1.016  12.118 -0.9239 -0.8038  3.1376
 8605SOL     OW37447   0.753   1.776   9.987 -0.1800 -0.7799 -0.3816
 8605SOL    HW137448   0.754   1.684  10.013  0.0420  0.1362  2.8636
 8605SOL    HW237449   0.811   1.810  10.055 -0.4892 -1.9408  0.4643
 8606SOL     OW37450   4.357   1.318   1.674 -0.1903  0.1822 -0.6821
 8606SOL    HW137451   4.450   1.310   1.651 -0.0580 -1.6854  0.4604
 8606SOL    HW237452   4.335   1.403   1.636  0.3591  0.5980 -0.0849
 8607SOL     OW37453   2.073   0.951   4.747 -0.5476  0.1892 -0.4706
 8607SOL    HW137454   2.148   0.992   4.704 -1.9078  1.6061 -1.5062
 8607SOL    HW237455   2.106   0.867   4.778 -0.3569  1.2044  2.1363
 8608SOL     OW37456   2.182   3.752   8.918 -0.0949 -0.0665  0.2443
 8608SOL    HW137457   2.118   3.723   8.982  1.2429  0.5431  1.8683
 8608SOL    HW237458   2.132   3.806   8.856 -3.0419 -1.9916  0.9594
 8609SOL     OW37459   0.077   1.468  14.192 -0.3901  0.7902  0.0768
 8609SOL    HW137460   0.145   1.518  14.147 -0.9854 -0.1197 -1.8357
 8609SOL    HW237461   4.731   1.506  14.155 -1.1647 -0.7641  0.1230
 8610SOL     OW37462   3.473   2.240  15.305 -0.5104 -0.0230  0.1645
 8610SOL    HW137463   3.459   2.232  15.211  2.8753  1.2074 -0.4487
 8610SOL    HW237464   3.543   2.305  15.313  0.5529 -1.1148 -0.3468
 8611SOL     OW37465   0.368   0.618   7.886 -0.3914 -0.0787  0.1522
 8611SOL    HW137466   0.437   0.653   7.829 -2.5992  2.0383 -1.2154
 8611SOL    HW237467   0.323   0.702   7.898 -2.4360 -1.0663 -0.5653
 8612SOL     OW37468   0.695   4.143  11.666  0.2897 -0.5339 -0.1773
 8612SOL    HW137469   0.760   4.074  11.652  1.9733  1.3306 -1.5201
 8612SOL    HW237470   0.653   4.109  11.586 -0.8679  0.9229 -0.1830
 8613SOL     OW37471   3.867   1.773  12.859 -0.0080  0.4211  0.3515
 8613SOL    HW137472   3.825   1.816  12.933  0.1809  0.9692  0.1416
 8613SOL    HW237473   3.811   1.697  12.845  1.5107 -0.5668 -0.3106
 8614SOL     OW37474   3.857   1.365   6.954 -0.1979 -0.3302 -0.1823
 8614SOL    HW137475   3.916   1.409   6.892  1.0195  1.3870  2.1786
 8614SOL    HW237476   3.845   1.279   6.913 -1.1138  0.0500 -0.7228
 8615SOL     OW37477   3.496   1.832  13.464 -1.0193  0.0704 -0.2815
 8615SOL    HW137478   3.548   1.757  13.436  1.5757  0.3292  3.8820
 8615SOL    HW237479   3.410   1.803  13.432 -1.5519 -0.3856  1.5850
 8616SOL     OW37480   1.129   0.175   7.085  0.0405  0.3554  0.0237
 8616SOL    HW137481   1.097   0.135   7.004 -0.4217  1.6078 -0.4077
 8616SOL    HW237482   1.221   0.149   7.086  0.4075  1.5452 -4.5250
 8617SOL     OW37483   1.842   0.134   3.005 -0.2396 -0.0124  0.3383
 8617SOL    HW137484   1.911   0.106   2.945 -0.3230  0.3278  0.0836
 8617SOL    HW237485   1.788   0.189   2.948 -1.3113 -0.1733  1.2066
 8618SOL     OW37486   1.151   4.646   6.297  0.3227 -0.1828 -1.1869
 8618SOL    HW137487   1.148   4.680   6.208 -2.0400 -0.1593 -1.0882
 8618SOL    HW237488   1.069   4.688   6.321  1.2103  0.9712 -0.2002
 8619SOL     OW37489   2.431   0.162   2.028  0.6158  0.2877 -0.0494
 8619SOL    HW137490   2.446   0.124   1.942 -0.9637 -0.5660  0.0553
 8619SOL    HW237491   2.518   0.171   2.066  1.1667  3.3716 -2.0332
 8620SOL     OW37492   1.731   4.434   8.278 -0.1661  0.1651 -0.2969
 8620SOL    HW137493   1.722   4.339   8.267 -2.3430  0.4260 -0.7312
 8620SOL    HW237494   1.826   4.439   8.289 -0.5467  0.6611  2.7243
 8621SOL     OW37495   0.534   2.968  16.014 -0.3020  0.7454 -0.1679
 8621SOL    HW137496   0.466   3.026  16.049  0.7677  1.4729  0.7598
 8621SOL    HW237497   0.620   3.010  16.015 -0.2029  0.5455 -0.4201
 8622SOL     OW37498   4.384   4.062   3.097  0.3065 -0.2020 -0.0805
 8622SOL    HW137499   4.388   4.148   3.137  1.8567 -1.0308  1.5483
 8622SOL    HW237500   4.477   4.045   3.081  1.1306  2.5471  1.8475
 8623SOL     OW37501   4.530   1.231   3.322  0.3441  0.4771 -0.1413
 8623SOL    HW137502   4.582   1.289   3.267 -0.9967 -0.0352 -1.9586
 8623SOL    HW237503   4.543   1.146   3.279 -0.7165 -0.7694  1.9920
 8624SOL     OW37504   2.254   2.898   1.828 -0.4285 -0.2935  0.2616
 8624SOL    HW137505   2.180   2.872   1.773 -0.9832 -0.3478  1.0234
 8624SOL    HW237506   2.205   2.936   1.902  0.2808  1.9236 -0.3971
 8625SOL     OW37507   0.183   3.373   3.390 -0.1706 -0.5398  0.3511
 8625SOL    HW137508   0.162   3.418   3.471 -0.7154  0.8967 -0.5935
 8625SOL    HW237509   0.110   3.388   3.330 -1.1728  0.7105  1.8713
 8626SOL     OW37510   4.120   4.512  11.083  0.3679  0.7395 -0.4853
 8626SOL    HW137511   4.210   4.543  11.067  0.8169 -1.0670 -1.4986
 8626SOL    HW237512   4.074   4.576  11.028 -0.2682  2.0591  1.5786
 8627SOL     OW37513   1.655   4.668   9.478 -0.5223 -0.2930 -0.1568
 8627SOL    HW137514   1.652   4.600   9.546 -1.8040  0.7853  0.8569
 8627SOL    HW237515   1.651   4.615   9.398 -2.5768  0.6587 -0.6610
 8628SOL     OW37516   0.059   4.133   5.878 -0.5906  0.1635  0.3663
 8628SOL    HW137517   0.001   4.057   5.876  0.7203 -0.7769 -1.5430
 8628SOL    HW237518   0.143   4.091   5.862 -0.7361  0.0407 -0.0489
 8629SOL     OW37519   0.869   2.935  16.776 -0.5925  0.2031  0.5687
 8629SOL    HW137520   0.900   2.915  16.687 -0.3050  0.8275  0.5265
 8629SOL    HW237521   0.918   2.874  16.831  0.8080  1.6233  0.8779
 8630SOL     OW37522   3.618   4.509  13.935  0.0440  0.4784 -0.2581
 8630SOL    HW137523   3.658   4.591  13.963  0.4598 -0.5114  2.0203
 8630SOL    HW237524   3.551   4.543  13.875  0.8509 -2.0008 -2.6073
 8631SOL     OW37525   0.596   0.609   7.709  0.6829  0.3426  0.4259
 8631SOL    HW137526   0.641   0.689   7.683 -0.3282  0.8884  0.3728
 8631SOL    HW237527   0.580   0.555   7.632  1.3395 -0.7033  1.0236
 8632SOL     OW37528   0.142   2.063   7.917  0.2052 -0.1122 -0.0126
 8632SOL    HW137529   0.216   2.062   7.978 -0.9083  0.6535  1.3369
 8632SOL    HW237530   0.081   2.126   7.956  2.5267  3.1091 -1.4835
 8633SOL     OW37531   0.241   3.773   5.910 -0.6530  0.7867 -0.1472
 8633SOL    HW137532   0.184   3.777   5.834  0.1193  2.0202 -0.6718
 8633SOL    HW237533   0.296   3.851   5.898 -1.2488  1.2935  0.3590
 8634SOL     OW37534   0.026   2.046   5.452 -0.1501 -0.0379 -0.2155
 8634SOL    HW137535   0.100   2.107   5.458 -0.2474 -0.0211  0.8782
 8634SOL    HW237536   4.716   2.073   5.372  0.4060 -1.6532 -1.0627
 8635SOL     OW37537   4.557   1.134   6.385 -0.2506 -0.4217 -0.0934
 8635SOL    HW137538   4.553   1.202   6.451  1.7356  0.0795 -0.4825
 8635SOL    HW237539   4.542   1.061   6.445 -0.9206 -0.3261 -0.1444
 8636SOL     OW37540   3.317   0.417  12.918  0.1613 -0.2944  0.1788
 8636SOL    HW137541   3.275   0.459  12.843 -0.8951 -2.1482 -0.2852
 8636SOL    HW237542   3.409   0.417  12.891 -0.1156  1.9897 -0.7196
 8637SOL     OW37543   1.815   1.918   1.572  0.0336 -0.1067 -0.4238
 8637SOL    HW137544   1.760   1.871   1.634 -0.6111  1.9691  0.5935
 8637SOL    HW237545   1.898   1.871   1.582 -0.7991 -1.4088  0.2529
 8638SOL     OW37546   2.899   1.398  12.368  0.2269  0.0552 -0.4308
 8638SOL    HW137547   2.877   1.488  12.344  0.1210 -0.6584 -3.0858
 8638SOL    HW237548   2.987   1.413  12.402  0.2691 -1.6391  0.1996
 8639SOL     OW37549   0.837   2.003   7.136  1.0938  0.4506  0.4044
 8639SOL    HW137550   0.802   1.983   7.049 -0.8446 -2.0919  1.7711
 8639SOL    HW237551   0.797   1.937   7.193 -0.6605  1.0682 -0.1167
 8640SOL     OW37552   0.429   2.899  17.424 -0.5498  0.3975  0.2054
 8640SOL    HW137553   0.385   2.966  17.373 -1.8083  0.2159  1.0530
 8640SOL    HW237554   0.478   2.860  17.352 -0.5717 -1.4677  1.2071
 8641SOL     OW37555   3.468   0.694   3.192  0.6063 -0.3421 -0.2743
 8641SOL    HW137556   3.395   0.725   3.245  0.8871 -0.9857  0.4756
 8641SOL    HW237557   3.420   0.660   3.116  0.1332 -0.5498  0.1251
 8642SOL     OW37558   1.262   4.319  16.455 -0.9342 -0.3326  0.6239
 8642SOL    HW137559   1.298   4.238  16.418 -1.0968  0.4053 -1.1630
 8642SOL    HW237560   1.175   4.326  16.414  0.0670  0.8390 -1.3088
 8643SOL     OW37561   1.007   3.301   6.593 -0.4754 -0.1095 -0.3687
 8643SOL    HW137562   0.923   3.299   6.546  0.4634 -0.6718 -2.0047
 8643SOL    HW237563   0.976   3.322   6.681 -1.7431  2.3161 -1.3948
 8644SOL     OW37564   2.249   0.963  10.163 -0.3489 -0.3778  0.1330
 8644SOL    HW137565   2.330   1.008  10.188 -0.4714 -0.5183  0.7720
 8644SOL    HW237566   2.184   1.023  10.200  0.6349 -0.4458  1.9673
 8645SOL     OW37567   3.167   4.198   3.497  0.0996  0.6834  0.2343
 8645SOL    HW137568   3.110   4.121   3.491  0.3358  0.5030  0.3047
 8645SOL    HW237569   3.115   4.258   3.444  1.1082  2.1306  0.8821
 8646SOL     OW37570   0.119   1.985  16.409  0.0962  0.7162 -0.2772
 8646SOL    HW137571   0.198   1.979  16.463  0.1777 -0.4006 -0.5205
 8646SOL    HW237572   0.126   1.913  16.346 -3.6085  1.0391 -1.0534
 8647SOL     OW37573   0.046   0.759   8.626 -0.3551 -0.1472  0.0245
 8647SOL    HW137574   0.059   0.830   8.563  1.1363  0.0919  0.6023
 8647SOL    HW237575   4.691   0.781   8.654 -0.1250 -0.0075  0.6504
 8648SOL     OW37576   4.528   2.203   0.225  0.1477 -0.2163 -0.5267
 8648SOL    HW137577   4.474   2.168   0.154  2.4000 -2.5759 -1.1052
 8648SOL    HW237578   4.615   2.212   0.187  1.4886  0.2393  2.6572
 8649SOL     OW37579   3.231   0.676   5.250  0.1350  0.2667  0.0497
 8649SOL    HW137580   3.135   0.675   5.241  0.1376  0.5121 -0.0057
 8649SOL    HW237581   3.249   0.746   5.313 -0.0528  0.5604 -0.2218
 8650SOL     OW37582   4.234   3.046   7.447  0.0338 -0.3595 -0.8258
 8650SOL    HW137583   4.270   3.124   7.404 -1.4585  1.3136  0.9739
 8650SOL    HW237584   4.302   2.984   7.420 -0.0499  0.6596 -3.4452
 8651SOL     OW37585   2.358   0.311   8.115  0.3121 -0.2424 -0.2428
 8651SOL    HW137586   2.450   0.339   8.105  0.2954  0.2408  1.0726
 8651SOL    HW237587   2.309   0.375   8.063  0.7859 -0.9119 -1.5279
 8652SOL     OW37588   4.508   4.345  14.332  0.3482 -0.2608 -0.3547
 8652SOL    HW137589   4.539   4.409  14.268 -1.2321 -0.0960 -0.9603
 8652SOL    HW237590   4.435   4.383  14.380  1.4246  0.2705  0.8515
 8653SOL     OW37591   2.096   2.357   7.062 -0.1952 -0.7360 -0.2174
 8653SOL    HW137592   2.119   2.275   7.107 -0.9135 -0.0178  1.4272
 8653SOL    HW237593   2.028   2.338   6.997 -0.3092  1.2322 -0.6648
 8654SOL     OW37594   0.829   1.168   8.464  0.2123  0.1163  0.0118
 8654SOL    HW137595   0.738   1.178   8.436  0.4377  0.0245 -0.7382
 8654SOL    HW237596   0.842   1.256   8.502  0.4845 -0.4999  1.3556
 8655SOL     OW37597   0.646   3.137   2.808  0.7673 -0.2513 -0.2717
 8655SOL    HW137598   0.699   3.074   2.758  0.9280  1.2620 -1.9831
 8655SOL    HW237599   0.621   3.199   2.740  1.9469  2.0387  1.3977
 8656SOL     OW37600   3.492   2.131   7.594  0.0351 -0.4135  0.0811
 8656SOL    HW137601   3.534   2.049   7.621  1.1035 -0.2586 -1.1570
 8656SOL    HW237602   3.532   2.149   7.509  0.6027 -2.3745 -0.0799
 8657SOL     OW37603   3.216   1.966   2.144  0.2658  0.7817  0.3273
 8657SOL    HW137604   3.300   1.966   2.098 -0.2355 -2.3633 -0.5834
 8657SOL    HW237605   3.149   1.965   2.077  0.4739  0.3437  0.1269
 8658SOL     OW37606   4.538   1.830   2.133 -0.5681 -0.4565 -0.1734
 8658SOL    HW137607   4.618   1.874   2.159  0.6804 -0.6452 -3.6812
 8658SOL    HW237608   4.471   1.875   2.184 -0.9501  0.4957 -1.5283
 8659SOL     OW37609   2.732   2.804   3.598  0.0251  0.0526  0.2760
 8659SOL    HW137610   2.750   2.877   3.657 -1.5055 -0.1895  1.0582
 8659SOL    HW237611   2.825   2.783   3.587 -0.2459  1.3902 -4.2369
 8660SOL     OW37612   1.452   4.542   2.739  0.3362 -0.1253  0.9548
 8660SOL    HW137613   1.361   4.553   2.767  0.0294 -0.2529 -0.0039
 8660SOL    HW237614   1.491   4.501   2.816  0.5023  0.0512  0.9643
 8661SOL     OW37615   1.958   1.421   2.011  0.0994  0.3939  0.3094
 8661SOL    HW137616   2.053   1.414   2.003 -0.0998 -0.5420 -1.1797
 8661SOL    HW237617   1.943   1.421   2.106 -2.3415  1.0334 -0.0859
 8662SOL     OW37618   4.349   3.366   6.775  0.3113  0.1500 -0.1378
 8662SOL    HW137619   4.312   3.454   6.782  1.5038  0.6560 -0.1477
 8662SOL    HW237620   4.401   3.384   6.697 -0.4913  0.2620 -0.6416
 8663SOL     OW37621   4.070   0.073  11.618  0.6785 -0.0235  0.2928
 8663SOL    HW137622   4.060   0.076  11.713  2.0086 -1.8234  0.5013
 8663SOL    HW237623   4.063   4.713  11.603 -2.0431  0.3927 -0.9195
 8664SOL     OW37624   4.041   2.835   7.936  0.6046  0.3890 -0.5803
 8664SOL    HW137625   4.107   2.767   7.924  0.6518  0.4688 -0.7738
 8664SOL    HW237626   3.959   2.787   7.930 -0.2640  1.8771 -0.7526
 8665SOL     OW37627   0.629   2.448   8.757  0.4718 -0.2414 -0.0237
 8665SOL    HW137628   0.655   2.356   8.767 -1.5233 -0.7920  0.1419
 8665SOL    HW237629   0.680   2.482   8.684 -0.9114  4.0332  0.9943
 8666SOL     OW37630   1.011   0.654   6.128 -0.1530 -0.3524  0.0828
 8666SOL    HW137631   0.996   0.703   6.048  2.1879  1.2151  0.6147
 8666SOL    HW237632   1.106   0.666   6.135 -0.1310 -1.8887  2.5883
 8667SOL     OW37633   3.701   3.355  16.272  0.7526 -0.2980 -0.0510
 8667SOL    HW137634   3.630   3.386  16.328  1.8233 -0.5765  1.4935
 8667SOL    HW237635   3.756   3.359  16.351  2.4168  1.3134 -1.2716
 8668SOL     OW37636   2.005   0.933  12.229  0.3563 -0.3977 -0.1455
 8668SOL    HW137637   2.028   0.901  12.142  0.8524 -0.4250 -0.0066
 8668SOL    HW237638   1.910   0.929  12.233  0.3244  0.8601  0.4919
 8669SOL     OW37639   4.608   3.119  15.095 -0.4671  0.4483 -0.0811
 8669SOL    HW137640   4.697   3.093  15.073 -0.8268  0.6346 -1.7160
 8669SOL    HW237641   4.626   3.213  15.093 -3.1816  0.9797  0.3739
 8670SOL     OW37642   2.507   0.392   7.506 -0.2580  0.0298  0.3324
 8670SOL    HW137643   2.576   0.356   7.451 -0.4893 -1.0066  0.7230
 8670SOL    HW237644   2.449   0.429   7.439  1.9990  1.7356 -0.6992
 8671SOL     OW37645   0.069   2.788  15.906 -0.4881 -0.2752  0.4195
 8671SOL    HW137646   0.113   2.729  15.845 -1.5933  0.0772 -0.7147
 8671SOL    HW237647   0.084   2.873  15.864 -0.3430 -1.0778 -1.1513
 8672SOL     OW37648   0.719   2.187   4.476 -0.0573  0.1214  0.2668
 8672SOL    HW137649   0.755   2.115   4.426  0.3724  1.1131 -0.8485
 8672SOL    HW237650   0.625   2.193   4.455  0.2155  2.0880 -0.4224
 8673SOL     OW37651   0.369   2.423   8.592 -0.4366 -0.6604 -0.0932
 8673SOL    HW137652   0.392   2.446   8.682  1.7013  1.5375 -1.2039
 8673SOL    HW237653   0.454   2.389   8.566 -0.3022  0.2875 -0.9183
 8674SOL     OW37654   1.951   0.394   6.413  0.3320 -0.3473 -0.0560
 8674SOL    HW137655   1.974   0.473   6.461 -0.7578  1.5682 -2.6511
 8674SOL    HW237656   1.895   0.352   6.479 -0.2742  2.7924  1.4120
 8675SOL     OW37657   2.730   0.899  16.195 -0.8278 -0.2476  0.1113
 8675SOL    HW137658   2.700   0.975  16.144 -0.1586  1.2379  1.9454
 8675SOL    HW237659   2.793   0.863  16.132 -0.0926 -0.2936  0.8795
 8676SOL     OW37660   3.553   3.360  11.229  0.2241  0.0840  0.3006
 8676SOL    HW137661   3.603   3.281  11.206 -2.1837 -1.8505  1.6247
 8676SOL    HW237662   3.610   3.417  11.281 -1.4015  0.6330  1.5106
 8677SOL     OW37663   3.914   2.461   3.221  0.2451  0.3676 -0.2035
 8677SOL    HW137664   3.828   2.421   3.237 -0.2033  1.0804 -0.8163
 8677SOL    HW237665   3.926   2.432   3.131 -0.6292 -2.8767  0.7366
 8678SOL     OW37666   0.370   4.051   1.720 -0.6356  0.2638 -0.1715
 8678SOL    HW137667   0.440   4.115   1.731  0.9165 -1.1239 -2.0080
 8678SOL    HW237668   0.298   4.098   1.763 -0.8229 -1.1480  1.0778
 8679SOL     OW37669   3.545   2.311  11.549  0.8366  0.1195 -0.1641
 8679SOL    HW137670   3.523   2.404  11.548 -0.1410 -0.1210 -0.3150
 8679SOL    HW237671   3.479   2.282  11.612  0.2808 -0.1646 -0.8923
 8680SOL     OW37672   2.562   4.105  10.999  0.0637 -0.2864 -0.5673
 8680SOL    HW137673   2.512   4.097  11.080 -1.0131 -4.0825 -1.6166
 8680SOL    HW237674   2.491   4.147  10.949  0.4725  1.4662  0.3132
 8681SOL     OW37675   2.729   1.737   2.347  0.6165 -0.2991 -0.6049
 8681SOL    HW137676   2.680   1.808   2.305 -0.1766 -0.5779 -0.1359
 8681SOL    HW237677   2.816   1.725   2.308 -0.0875 -0.3768 -2.1424
 8682SOL     OW37678   2.999   1.459   6.297 -0.4947  0.5499 -0.6914
 8682SOL    HW137679   3.051   1.539   6.286  0.6695  0.0013  0.6522
 8682SOL    HW237680   2.920   1.502   6.328 -0.5562 -0.1408  0.1353
 8683SOL     OW37681   0.903   3.272  12.652  0.1507 -0.1267  0.1456
 8683SOL    HW137682   0.908   3.180  12.679  2.3207 -0.0771 -0.1151
 8683SOL    HW237683   0.915   3.318  12.735 -2.2220 -2.1005  1.5721
 8684SOL     OW37684   0.100   4.145   3.331 -0.7965 -0.2080 -0.0316
 8684SOL    HW137685   0.153   4.133   3.410  1.1990 -1.7174 -1.6039
 8684SOL    HW237686   0.158   4.185   3.267  1.0866 -0.0427  1.7525
 8685SOL     OW37687   1.272   2.241  16.293 -0.2625 -0.6379  0.2890
 8685SOL    HW137688   1.199   2.207  16.241 -0.0459 -2.4377  1.1395
 8685SOL    HW237689   1.223   2.311  16.337  0.4238  0.5731 -0.9101
 8686SOL     OW37690   0.949   3.316   6.872 -1.1588  0.0308 -0.2136
 8686SOL    HW137691   1.036   3.277   6.884 -1.2511  0.3287  1.3019
 8686SOL    HW237692   0.944   3.394   6.927  4.5279  1.0284 -1.1357
 8687SOL     OW37693   2.807   2.541   7.407 -0.3355  0.2011 -0.3913
 8687SOL    HW137694   2.742   2.610   7.400 -0.1424  0.5848  1.8690
 8687SOL    HW237695   2.827   2.523   7.315  0.4790 -0.3373 -0.1110
 8688SOL     OW37696   2.024   0.609  16.068  0.3546 -0.0577 -0.4317
 8688SOL    HW137697   2.108   0.586  16.108  0.4049  0.6628 -0.1201
 8688SOL    HW237698   1.984   0.524  16.051 -1.4508  0.8229 -0.6214
 8689SOL     OW37699   2.603   3.849   8.337  0.1727  0.2386 -0.5457
 8689SOL    HW137700   2.625   3.872   8.246  1.8874 -0.4938 -0.3192
 8689SOL    HW237701   2.519   3.807   8.321 -2.3894  4.1894  2.6062
 8690SOL     OW37702   1.729   2.187   1.924  0.3816 -0.3540  0.2323
 8690SOL    HW137703   1.661   2.202   1.990 -1.2730  0.8774 -1.7760
 8690SOL    HW237704   1.669   2.164   1.853 -1.5095  2.3138  0.9582
 8691SOL     OW37705   0.233   2.727   0.229  0.4233 -0.2326 -0.0002
 8691SOL    HW137706   0.149   2.700   0.265 -0.4578  0.5923 -1.4538
 8691SOL    HW237707   0.255   2.648   0.179  1.6092  1.0548 -1.5278
 8692SOL     OW37708   3.893   3.572   9.928 -0.3534  0.6892  0.1459
 8692SOL    HW137709   3.982   3.552   9.954 -0.6989 -1.4624 -0.2822
 8692SOL    HW237710   3.882   3.512   9.854  0.5014  0.0862  0.5178
 8693SOL     OW37711   0.668   3.900   5.650  0.5237  0.0787 -0.0982
 8693SOL    HW137712   0.592   3.959   5.656 -0.7882 -1.4941 -1.0560
 8693SOL    HW237713   0.729   3.970   5.627 -0.6179  1.1146  0.0473
 8694SOL     OW37714   2.775   3.654   1.846  0.1636 -0.3359 -0.3418
 8694SOL    HW137715   2.721   3.733   1.855 -0.8517 -1.3810  2.6505
 8694SOL    HW237716   2.796   3.638   1.754 -0.4286  1.4627 -0.8003
 8695SOL     OW37717   4.062   1.846  11.350  0.5256  0.2824 -0.2800
 8695SOL    HW137718   4.153   1.832  11.326  0.1724  0.2178 -1.6055
 8695SOL    HW237719   4.028   1.788  11.282 -1.9622  1.5996 -0.1674
 8696SOL     OW37720   3.412   0.355  10.409  0.3924 -0.2458 -0.3294
 8696SOL    HW137721   3.482   0.350  10.474  0.1115  2.1608  0.1752
 8696SOL    HW237722   3.332   0.379  10.456 -0.0946 -1.3006 -0.6348
 8697SOL     OW37723   3.140   4.433   7.843  0.2545 -0.1939 -0.6218
 8697SOL    HW137724   3.141   4.393   7.756  0.8208  2.4417 -1.8351
 8697SOL    HW237725   3.167   4.358   7.895  1.5006 -0.3917 -1.5762
 8698SOL     OW37726   3.149   1.218   3.098  0.2270 -0.7061  0.2731
 8698SOL    HW137727   3.225   1.270   3.122 -0.2440 -0.2621  0.8015
 8698SOL    HW237728   3.092   1.220   3.175  1.0008  0.3544  0.8052
 8699SOL     OW37729   0.588   4.538   8.372 -0.2075 -0.6103 -0.1562
 8699SOL    HW137730   0.531   4.615   8.378  1.8123  0.7836  1.1023
 8699SOL    HW237731   0.570   4.501   8.459  3.0914  0.2664  0.8901
 8700SOL     OW37732   0.917   0.164   5.946  0.1631 -0.1909 -0.3337
 8700SOL    HW137733   0.955   0.210   5.871 -1.3407 -1.2510 -1.7776
 8700SOL    HW237734   0.887   0.083   5.903  1.4445  1.8508 -5.0598
 8701SOL     OW37735   1.254   1.372   0.415  0.2643  0.6599 -0.1239
 8701SOL    HW137736   1.177   1.398   0.363  1.1893  2.3983 -0.6311
 8701SOL    HW237737   1.237   1.416   0.498  2.3460 -0.2300  0.7532
 8702SOL     OW37738   4.552   3.985   8.454 -0.0062  0.1443  0.5680
 8702SOL    HW137739   4.562   4.014   8.545 -0.2005  0.8673  0.3657
 8702SOL    HW237740   4.568   4.062   8.400  1.3182  0.1337  0.9310
 8703SOL     OW37741   1.215   0.389   3.301 -0.9182 -0.0310  0.1403
 8703SOL    HW137742   1.239   0.339   3.379  2.9152  0.8445 -0.4924
 8703SOL    HW237743   1.270   0.351   3.232 -1.2216 -2.2172  1.1077
 8704SOL     OW37744   4.036   3.844  12.927 -0.0099  0.4819 -0.1820
 8704SOL    HW137745   3.990   3.837  13.011  0.6447  1.2759  0.2410
 8704SOL    HW237746   4.096   3.918  12.939  1.3486 -0.8245  1.1686
 8705SOL     OW37747   1.755   0.824   7.734 -0.3947  0.0443 -0.1288
 8705SOL    HW137748   1.841   0.784   7.720 -1.1434 -1.2281 -1.0386
 8705SOL    HW237749   1.696   0.758   7.699  2.9608 -1.9463 -1.9887
 8706SOL     OW37750   0.782   2.235   2.195  0.5457 -0.0550 -0.1533
 8706SOL    HW137751   0.842   2.299   2.156 -0.7133  0.8425 -0.6175
 8706SOL    HW237752   0.847   2.181   2.240 -1.4345 -2.5301 -0.2641
 8707SOL     OW37753   3.773   2.011  12.736 -0.1998 -0.4499  0.1167
 8707SOL    HW137754   3.815   1.927  12.755  2.4577  0.4639 -1.8035
 8707SOL    HW237755   3.700   2.003  12.797  0.3162 -0.1448  0.7605
 8708SOL     OW37756   2.192   0.740  15.356  0.1040 -0.0870  0.3876
 8708SOL    HW137757   2.098   0.734  15.341  0.2799 -2.1531  0.1548
 8708SOL    HW237758   2.225   0.783  15.277 -0.0223 -1.9330 -0.6588
 8709SOL     OW37759   2.574   4.729  12.129  0.2787 -0.1235  0.2305
 8709SOL    HW137760   2.512   0.027  12.063 -1.6299 -2.9821  0.6419
 8709SOL    HW237761   2.649   0.053  12.119  1.8378 -2.3455 -0.8838
 8710SOL     OW37762   3.363   4.237   3.033  0.7318  0.0668 -0.4221
 8710SOL    HW137763   3.328   4.170   3.092  0.0410 -0.2111 -1.1591
 8710SOL    HW237764   3.309   4.313   3.050 -2.8317 -2.3743 -0.8401
 8711SOL     OW37765   0.192   1.452   2.900 -0.4259  0.0733 -0.5864
 8711SOL    HW137766   0.213   1.412   2.985  0.2763  0.6756 -0.4796
 8711SOL    HW237767   0.097   1.436   2.895  0.2410 -4.0354 -0.0575
 8712SOL     OW37768   4.323   1.302  16.004 -0.3284 -0.2144 -0.0921
 8712SOL    HW137769   4.307   1.228  16.064 -0.0787 -1.5919 -1.7218
 8712SOL    HW237770   4.335   1.369  16.071 -1.9964 -0.9215  0.9167
 8713SOL     OW37771   3.692   3.936   3.197  0.3981  0.0177  0.3280
 8713SOL    HW137772   3.723   3.912   3.110 -1.6846 -0.3078 -0.3365
 8713SOL    HW237773   3.692   3.850   3.240  0.6398  1.2581  2.8151
 8714SOL     OW37774   2.512   1.552   6.823  0.0594 -0.2027 -0.0469
 8714SOL    HW137775   2.438   1.556   6.883 -0.0715  1.2969 -0.3132
 8714SOL    HW237776   2.587   1.566   6.880  0.3978 -2.0169 -0.0469
 8715SOL     OW37777   2.623   3.403   1.508 -0.3146  0.0316 -0.1281
 8715SOL    HW137778   2.586   3.470   1.566 -1.5306 -0.2049 -0.6351
 8715SOL    HW237779   2.561   3.334   1.533 -0.6866  0.8749  1.2819
 8716SOL     OW37780   4.391   2.126   2.913  0.2693 -0.2947 -0.3148
 8716SOL    HW137781   4.365   2.046   2.866 -0.9804 -0.4378  0.6183
 8716SOL    HW237782   4.486   2.124   2.903  0.2425  0.1144 -0.6863
 8717SOL     OW37783   0.525   3.249  11.590  0.1777  0.8304  0.3840
 8717SOL    HW137784   0.431   3.255  11.607 -0.2011 -2.2420 -0.6005
 8717SOL    HW237785   0.569   3.251  11.675  2.5941 -3.0214 -0.7549
 8718SOL     OW37786   3.345   1.140   5.152 -1.0419 -1.0152 -0.2481
 8718SOL    HW137787   3.293   1.064   5.127  1.8178 -2.3834 -2.0436
 8718SOL    HW237788   3.352   1.183   5.067 -1.2255  1.8636  1.1790
 8719SOL     OW37789   2.316   3.696  13.156  0.6434 -0.1764 -0.3410
 8719SOL    HW137790   2.234   3.648  13.172 -0.8318  2.1543 -0.8808
 8719SOL    HW237791   2.358   3.649  13.084  1.1202 -1.7300  0.9403
 8720SOL     OW37792   0.784   1.289  11.076  0.4315  0.2962 -0.0219
 8720SOL    HW137793   0.845   1.359  11.052 -1.6289  1.3614 -2.2069
 8720SOL    HW237794   0.780   1.299  11.171 -1.8141  1.9126 -0.2916
 8721SOL     OW37795   0.362   3.223   8.838  0.6821  0.8461  0.2062
 8721SOL    HW137796   0.337   3.172   8.915 -1.1906 -1.2115 -1.7551
 8721SOL    HW237797   0.457   3.221   8.849  0.4223  1.9450  2.7311
 8722SOL     OW37798   4.561   4.282   2.454  0.6816 -0.2904 -0.0334
 8722SOL    HW137799   4.540   4.231   2.532 -1.5001  2.4014  1.1464
 8722SOL    HW237800   4.649   4.256   2.426  0.2704 -0.3945 -1.2639
 8723SOL     OW37801   4.049   0.945  15.784  0.5946  0.5325  0.8959
 8723SOL    HW137802   4.028   0.978  15.697 -0.9017 -1.9258  0.3374
 8723SOL    HW237803   4.122   0.999  15.815  2.5421 -2.1816  1.0396
 8724SOL     OW37804   3.484   4.648   2.453  0.2708  0.1030 -0.2269
 8724SOL    HW137805   3.577   4.630   2.441  0.2782  0.9610 -1.3824
 8724SOL    HW237806   3.451   4.677   2.368 -1.4585  2.4985  1.2728
 8725SOL     OW37807   2.793   0.393   5.419 -0.1177 -0.2161 -0.0022
 8725SOL    HW137808   2.877   0.349   5.408  0.3902  0.5218  0.9377
 8725SOL    HW237809   2.798   0.443   5.338 -0.2954  0.4854  0.4203
 8726SOL     OW37810   0.988   1.003   9.059 -0.6758  0.0755  0.0945
 8726SOL    HW137811   1.004   1.076   8.999  0.1909 -0.7123 -0.6328
 8726SOL    HW237812   0.895   1.011   9.078 -0.5934  1.4959 -0.0832
 8727SOL     OW37813   2.818   2.096   4.980  0.1226  0.1406  0.3569
 8727SOL    HW137814   2.835   2.052   5.063 -1.1555 -2.0252 -0.5212
 8727SOL    HW237815   2.902   2.134   4.955  0.9291 -2.0371 -0.1790
 8728SOL     OW37816   3.187   2.110   1.503  0.5398 -0.5409  0.5720
 8728SOL    HW137817   3.237   2.151   1.432 -0.0769 -0.7177  0.0388
 8728SOL    HW237818   3.234   2.026   1.504  1.5077 -0.0191 -0.7796
 8729SOL     OW37819   2.355   0.518   6.642  0.3705  0.0924  0.1327
 8729SOL    HW137820   2.287   0.583   6.658  1.6291  0.9298  2.1482
 8729SOL    HW237821   2.354   0.524   6.547  0.3140 -1.8260  0.0068
 8730SOL     OW37822   3.609   3.412  10.404  0.3219  0.5152  0.2209
 8730SOL    HW137823   3.585   3.330  10.446  1.8647 -0.5587 -1.0512
 8730SOL    HW237824   3.639   3.459  10.482 -1.1890  0.6757  0.7094
 8731SOL     OW37825   1.701   2.136   8.613  0.5673 -0.5079  0.5130
 8731SOL    HW137826   1.686   2.117   8.706 -1.4814 -1.4391 -0.0120
 8731SOL    HW237827   1.769   2.073   8.587  1.4912  1.4074 -1.6962
 8732SOL     OW37828   0.244   3.125   7.570  0.1097 -0.1908  0.4487
 8732SOL    HW137829   0.149   3.130   7.557 -0.0596  0.1805  1.8572
 8732SOL    HW237830   0.249   3.126   7.666  0.2792  1.1488  0.4347
 8733SOL     OW37831   3.723   1.016  16.734  0.2499  0.2263 -0.1256
 8733SOL    HW137832   3.681   1.102  16.722  1.1950  0.8692  1.1881
 8733SOL    HW237833   3.725   1.008  16.830 -0.5009  2.1143  0.0535
 8734SOL     OW37834   0.025   2.450   8.247 -0.3046  0.4659  0.6813
 8734SOL    HW137835   0.029   2.491   8.334 -0.1420  1.3599  0.2531
 8734SOL    HW237836   0.117   2.438   8.226 -0.0806  0.0694  1.8511
 8735SOL     OW37837   3.757   1.618   4.706  0.4961 -0.6875  0.0270
 8735SOL    HW137838   3.778   1.603   4.799  2.9516  0.8903 -0.2554
 8735SOL    HW237839   3.767   1.529   4.673  1.5894 -0.4995 -0.1452
 8736SOL     OW37840   3.638   0.238   3.397 -0.1250  0.2242 -0.4755
 8736SOL    HW137841   3.637   0.199   3.310  0.1655  2.0567 -1.3046
 8736SOL    HW237842   3.575   0.181   3.440 -0.8849  1.4021 -0.0208
 8737SOL     OW37843   0.001   1.554   5.250 -0.2757  0.0472  0.2288
 8737SOL    HW137844   4.703   1.578   5.162 -0.1525  0.5991  0.3367
 8737SOL    HW237845   0.090   1.521   5.238  0.5015  1.3710  2.5907
 8738SOL     OW37846   1.678   4.184   2.783  0.0656  0.4800  0.5766
 8738SOL    HW137847   1.617   4.110   2.784  1.0316 -0.3272 -0.1606
 8738SOL    HW237848   1.645   4.239   2.712  0.3843  1.0085  0.8387
 8739SOL     OW37849   1.144   1.802   3.258  0.0175  0.7397  0.0286
 8739SOL    HW137850   1.150   1.800   3.354  0.4669 -0.8519 -0.0389
 8739SOL    HW237851   1.197   1.729   3.228  1.5536  1.4337  1.0188
 8740SOL     OW37852   2.243   1.531  15.461  0.1753  0.3777  0.5387
 8740SOL    HW137853   2.292   1.607  15.493  1.2293 -0.4073  0.7724
 8740SOL    HW237854   2.259   1.538  15.367  0.1179  1.3628  0.5964
 8741SOL     OW37855   2.243   3.184  10.590 -0.0496  0.6652  0.0233
 8741SOL    HW137856   2.246   3.117  10.658  1.4444 -1.4912 -2.1891
 8741SOL    HW237857   2.167   3.158  10.538  0.3999 -0.0960 -0.2564
 8742SOL     OW37858   2.859   3.486   5.112 -0.4515 -0.0438 -0.1239
 8742SOL    HW137859   2.869   3.531   5.196  0.2310 -0.9468  0.2824
 8742SOL    HW237860   2.817   3.548   5.053  0.4799  1.9431  1.3310
 8743SOL     OW37861   3.957   0.003   4.974 -0.2256  0.3947  0.2434
 8743SOL    HW137862   3.927   0.091   4.951  0.5887  0.0996 -1.9382
 8743SOL    HW237863   4.003   0.018   5.056 -0.6262  2.8046  0.0302
 8744SOL     OW37864   2.803   1.854   4.276 -0.2009 -0.0910 -0.4479
 8744SOL    HW137865   2.827   1.763   4.290  0.3639  0.0822 -0.2634
 8744SOL    HW237866   2.802   1.876   4.369  0.9097  0.4141 -0.5486
 8745SOL     OW37867   3.041   4.361   8.910 -0.2685 -0.0746  0.1156
 8745SOL    HW137868   3.088   4.417   8.848 -1.0929  0.7921  0.2813
 8745SOL    HW237869   2.982   4.309   8.855 -0.1320 -0.4422  0.3157
 8746SOL     OW37870   3.045   2.149   4.582  0.3014  0.0106 -0.0739
 8746SOL    HW137871   3.046   2.184   4.671  1.4396  0.3644 -0.2216
 8746SOL    HW237872   3.052   2.228   4.530  2.1266 -0.2947 -0.3074
 8747SOL     OW37873   1.316   1.066   3.515 -0.1827  0.0476  0.1485
 8747SOL    HW137874   1.328   1.158   3.538  3.7417 -0.4551  0.1699
 8747SOL    HW237875   1.255   1.078   3.443  0.0060  2.5500  0.3992
 8748SOL     OW37876   4.690   4.633   6.062  0.4984 -0.3881  0.6108
 8748SOL    HW137877   0.014   4.707   6.043 -1.4769  1.3015  1.0585
 8748SOL    HW237878   0.016   4.563   6.039  0.9885 -0.2945  1.6141
 8749SOL     OW37879   3.690   1.560  12.893  0.4391 -0.2100 -0.2460
 8749SOL    HW137880   3.768   1.504  12.895  0.8236  0.4601  2.7749
 8749SOL    HW237881   3.660   1.556  12.984  4.7016  0.8497  1.2114
 8750SOL     OW37882   2.384   2.068   3.874 -0.2959  0.6755  0.8467
 8750SOL    HW137883   2.300   2.061   3.828  0.0848 -0.4542  0.3150
 8750SOL    HW237884   2.436   2.003   3.827  0.8694  1.7000  0.7305
 8751SOL     OW37885   3.340   0.157   7.364  0.0271  0.1913 -0.5891
 8751SOL    HW137886   3.301   0.101   7.297  1.1699 -0.3842 -0.7700
 8751SOL    HW237887   3.332   0.100   7.441  3.2742 -1.4726 -1.5115
 8752SOL     OW37888   2.254   2.667   9.785 -0.0491  0.0906 -0.2084
 8752SOL    HW137889   2.241   2.713   9.702 -2.5782  0.1986  0.2312
 8752SOL    HW237890   2.307   2.726   9.839  0.7923  0.3536 -1.3197
 8753SOL     OW37891   0.924   2.295   8.081  0.7099  0.1164  0.0388
 8753SOL    HW137892   0.884   2.371   8.124 -0.4736 -0.1726 -0.5617
 8753SOL    HW237893   0.894   2.231   8.145 -0.6578 -0.5212 -1.2381
 8754SOL     OW37894   4.442   1.343   5.318 -0.4314 -0.7468  0.2407
 8754SOL    HW137895   4.419   1.427   5.280  1.2118 -0.5320 -0.2827
 8754SOL    HW237896   4.365   1.286   5.320 -0.2140 -1.0485  0.1904
 8755SOL     OW37897   2.159   3.875  16.003  0.2312 -0.0796  0.2567
 8755SOL    HW137898   2.065   3.857  16.007 -0.3632  3.3545  2.2646
 8755SOL    HW237899   2.192   3.801  15.952  2.6156  1.3416 -0.2579
 8756SOL     OW37900   1.971   1.817   5.315  0.3310  0.6724 -0.1490
 8756SOL    HW137901   1.964   1.741   5.257  0.0064  0.7676 -0.2366
 8756SOL    HW237902   1.913   1.881   5.275 -2.5775 -2.0867 -0.3551
 8757SOL     OW37903   3.426   0.008   2.121 -0.0150  0.3296 -0.4173
 8757SOL    HW137904   3.350   0.057   2.090  0.0613  0.3162 -0.6244
 8757SOL    HW237905   3.387   4.668   2.168  1.8689 -0.5525 -0.2468
 8758SOL     OW37906   2.526   2.607   3.622  0.5826 -0.7862 -0.0271
 8758SOL    HW137907   2.578   2.686   3.637 -0.8718  0.6905 -2.7655
 8758SOL    HW237908   2.598   2.551   3.593  0.9712 -0.2405 -0.1114
 8759SOL     OW37909   1.163   1.957   3.553 -0.2577  0.1249 -0.5483
 8759SOL    HW137910   1.163   2.052   3.540  1.5796  0.1877 -0.0336
 8759SOL    HW237911   1.076   1.939   3.589 -1.6602  0.2227 -3.8973
 8760SOL     OW37912   2.702   2.574   8.063 -0.1529  0.0884 -0.3523
 8760SOL    HW137913   2.692   2.621   7.980  0.6996  1.8183  0.5190
 8760SOL    HW237914   2.637   2.627   8.110  1.1054  0.0019  1.4801
 8761SOL     OW37915   4.608   4.544   1.607  0.4633 -0.4334 -0.2228
 8761SOL    HW137916   4.575   4.490   1.678  1.1564  2.9385  2.6711
 8761SOL    HW237917   4.686   4.490   1.596  0.6844 -0.5536  2.0537
 8762SOL     OW37918   2.512   1.892   3.668  0.2797 -0.4562 -0.0180
 8762SOL    HW137919   2.515   1.924   3.578  0.0545  1.2640  0.5825
 8762SOL    HW237920   2.578   1.823   3.668  1.2445  0.4710 -1.7198
 8763SOL     OW37921   2.558   0.832   6.017  0.0573  0.1751  0.5667
 8763SOL    HW137922   2.495   0.810   5.949  0.3400 -2.1689  1.0465
 8763SOL    HW237923   2.633   0.849   5.960 -0.8033 -0.1248 -0.6436
 8764SOL     OW37924   0.388   0.957   6.258  0.3950 -0.4551 -0.6389
 8764SOL    HW137925   0.314   0.972   6.199 -0.0648  1.2121  0.3709
 8764SOL    HW237926   0.414   0.866   6.243  2.2950 -0.0207 -0.0381
 8765SOL     OW37927   1.348   3.539   7.096  0.3576  0.1610  0.0460
 8765SOL    HW137928   1.316   3.594   7.167 -2.1634 -0.3426 -0.7331
 8765SOL    HW237929   1.409   3.599   7.051  0.8517 -1.2789 -1.2059
 8766SOL     OW37930   0.116   1.727  15.688  0.4169 -0.0283  0.7689
 8766SOL    HW137931   0.048   1.723  15.622  1.1082 -2.3115  0.1950
 8766SOL    HW237932   0.148   1.637  15.683 -0.5680 -0.3725  0.7417
 8767SOL     OW37933   3.993   2.852   5.773  0.2572 -0.6861 -0.0523
 8767SOL    HW137934   3.966   2.875   5.684 -1.2570 -1.0010  0.3136
 8767SOL    HW237935   3.979   2.926   5.832 -2.4959 -0.3141 -1.1842
 8768SOL     OW37936   2.299   3.320   7.703 -0.2827  0.6260 -0.5864
 8768SOL    HW137937   2.320   3.227   7.714  1.2820  1.0186 -0.2118
 8768SOL    HW237938   2.224   3.329   7.762  0.5444  2.1544  0.2349
 8769SOL     OW37939   2.709   1.103   8.637 -0.2116 -0.0335 -0.1494
 8769SOL    HW137940   2.719   1.104   8.541 -0.5468 -1.5347 -0.1918
 8769SOL    HW237941   2.687   1.194   8.657  1.1179  0.9938 -3.2191
 8770SOL     OW37942   3.927   2.211   2.000 -0.1623  0.2175 -0.2963
 8770SOL    HW137943   4.005   2.264   1.981 -0.8406  0.0712 -3.4283
 8770SOL    HW237944   3.886   2.240   1.919 -0.6571  4.1125  1.3623
 8771SOL     OW37945   4.293   4.396   6.696  0.4202  0.3529  0.2218
 8771SOL    HW137946   4.324   4.422   6.609  0.9227  2.8623  1.1669
 8771SOL    HW237947   4.290   4.481   6.740  2.2836  0.9958 -0.9013
 8772SOL     OW37948   1.694   1.163   3.549  0.3421 -0.0838  0.0984
 8772SOL    HW137949   1.707   1.080   3.596  0.6357  1.0197  1.9412
 8772SOL    HW237950   1.644   1.218   3.609  1.5895  1.1240  0.0064
 8773SOL     OW37951   1.108   4.433   6.015 -0.1726  0.4825  0.0991
 8773SOL    HW137952   1.171   4.505   6.006 -2.0486  2.2837  1.5707
 8773SOL    HW237953   1.142   4.369   6.077  2.5129  1.5562 -0.2607
 8774SOL     OW37954   3.686   1.906   7.565 -0.2763  0.0237  0.1857
 8774SOL    HW137955   3.676   1.947   7.479 -3.3754 -2.7322 -0.7498
 8774SOL    HW237956   3.650   1.819   7.549 -1.3368 -0.0324  2.8513
 8775SOL     OW37957   4.732   1.221   6.644 -0.6311 -0.0078 -0.3691
 8775SOL    HW137958   4.666   1.153   6.660  0.5305 -0.3643  2.8334
 8775SOL    HW237959   0.079   1.170   6.642 -0.6387 -0.1687  2.8325
 8776SOL     OW37960   0.754   1.490   8.004  0.0856  0.4481 -0.3427
 8776SOL    HW137961   0.776   1.564   8.060 -1.0092  1.5344 -1.3418
 8776SOL    HW237962   0.838   1.484   7.960  0.3950  1.3892  0.1151
 8777SOL     OW37963   3.033   0.677   9.146  0.2689 -0.4131 -0.1861
 8777SOL    HW137964   3.124   0.708   9.143  0.5715 -1.4669 -2.0322
 8777SOL    HW237965   2.994   0.699   9.061  0.9380 -0.5416 -0.5289
 8778SOL     OW37966   3.052   2.925   3.641 -0.6912  0.3437  0.3474
 8778SOL    HW137967   3.098   2.955   3.720 -1.3673  1.2576  0.3823
 8778SOL    HW237968   3.089   2.985   3.576 -2.1635  0.2189 -0.5961
 8779SOL     OW37969   2.871   1.414   6.003  0.2212  0.4923 -0.2231
 8779SOL    HW137970   2.957   1.390   5.969  0.1387  0.0718 -0.1275
 8779SOL    HW237971   2.844   1.334   6.048 -2.4320  1.2679 -0.4173
 8780SOL     OW37972   2.952   2.580   7.638 -0.5149  0.0873 -0.4841
 8780SOL    HW137973   2.903   2.563   7.557 -0.7272 -2.9944  0.2814
 8780SOL    HW237974   2.912   2.540   7.715 -1.5437  0.9473 -0.5708
 8781SOL     OW37975   3.445   2.849   5.152 -0.0040 -0.0302 -0.5350
 8781SOL    HW137976   3.501   2.831   5.076  1.7933  0.9845  0.5463
 8781SOL    HW237977   3.518   2.863   5.213  0.6695 -0.4841 -1.2309
 8782SOL     OW37978   3.588   2.804   5.933 -0.4595 -0.3347  0.3817
 8782SOL    HW137979   3.671   2.760   5.953  0.7523  1.2447 -1.1086
 8782SOL    HW237980   3.594   2.886   5.981 -0.2161 -0.0383 -0.1474
 8783SOL     OW37981   4.728   1.158  10.492  0.1262 -0.3127  0.5647
 8783SOL    HW137982   4.707   1.249  10.470 -2.1159 -1.2208 -1.0368
 8783SOL    HW237983   4.652   1.105  10.469 -0.5177 -0.0797  2.1825
 8784SOL     OW37984   0.722   1.609   8.477 -0.1434  1.0951 -0.0080
 8784SOL    HW137985   0.793   1.574   8.424  0.8698  0.0366  2.0414
 8784SOL    HW237986   0.774   1.666   8.535  1.4869  0.9527 -1.3227
 8785SOL     OW37987   2.139   4.655  13.503 -0.1584 -0.2737 -0.6988
 8785SOL    HW137988   2.068   4.606  13.462 -0.5414 -0.5332  0.2829
 8785SOL    HW237989   2.088   4.709  13.564 -0.2505 -2.1686  0.9144
 8786SOL     OW37990   2.970   2.152   8.294  0.1652  0.0133 -0.0689
 8786SOL    HW137991   2.947   2.149   8.387  2.4150 -0.8854  0.4687
 8786SOL    HW237992   3.066   2.152   8.297  0.1739  0.3856 -0.4311
 8787SOL     OW37993   2.965   0.604   7.593 -0.2921  0.2530 -0.5341
 8787SOL    HW137994   3.037   0.634   7.649 -0.4909  0.2215 -0.2645
 8787SOL    HW237995   2.895   0.657   7.632  1.3381  2.4435 -0.5709
 8788SOL     OW37996   3.433   2.305   9.640 -0.0368 -0.1631 -0.3598
 8788SOL    HW137997   3.519   2.266   9.655 -0.2315 -0.7289 -0.7503
 8788SOL    HW237998   3.407   2.329   9.729  0.6110 -2.8494  0.5391
 8789SOL     OW37999   3.469   4.009  11.197 -0.0901 -0.3634 -0.3915
 8789SOL    HW138000   3.418   3.985  11.275  0.6026 -0.9298 -0.1156
 8789SOL    HW238001   3.503   3.921  11.178  1.2850  0.3855 -1.3247
 8790SOL     OW38002   0.075   3.234  17.279 -0.2159  0.3313  0.6691
 8790SOL    HW138003   4.720   3.199  17.289 -0.0013  0.4039  2.7912
 8790SOL    HW238004   0.066   3.298  17.208 -1.9875 -1.6433 -0.8926
 8791SOL     OW38005   4.694   4.709   2.046 -0.5706  0.3201 -0.6515
 8791SOL    HW138006   4.699   0.027   2.127 -0.8341 -1.0650  0.2684
 8791SOL    HW238007   4.622   0.011   1.995 -1.1105  0.4367  0.1865
 8792SOL     OW38008   2.692   0.993   7.395 -0.0470 -0.0363  0.2680
 8792SOL    HW138009   2.784   1.014   7.379  0.0848  0.3406  1.5655
 8792SOL    HW238010   2.651   1.054   7.334  0.5803  1.8930  1.7920
 8793SOL     OW38011   4.537   2.707  13.483  0.1735 -0.0182 -0.3853
 8793SOL    HW138012   4.468   2.670  13.428  1.3449 -0.7774 -1.3422
 8793SOL    HW238013   4.580   2.759  13.416 -0.4233  1.2295  0.1995
 8794SOL     OW38014   2.590   3.334  14.414 -0.1311 -0.0944  0.3133
 8794SOL    HW138015   2.560   3.266  14.353  0.8808 -1.3445  1.2023
 8794SOL    HW238016   2.598   3.280  14.493 -1.7593  0.0661  0.5956
 8795SOL     OW38017   1.581   0.904   8.958 -0.2414 -0.2568  0.0168
 8795SOL    HW138018   1.627   0.829   8.997 -0.5124  0.8594  2.4992
 8795SOL    HW238019   1.523   0.859   8.897  0.0008 -1.6065  0.7803
 8796SOL     OW38020   1.471   0.721   4.364 -0.2266 -0.0889 -0.6973
 8796SOL    HW138021   1.532   0.781   4.408 -0.1379  0.0647 -1.0281
 8796SOL    HW238022   1.399   0.771   4.325 -0.8378 -0.4303 -0.0167
 8797SOL     OW38023   2.714   1.735   8.202  0.2619 -0.1854 -0.1500
 8797SOL    HW138024   2.746   1.771   8.284  1.6579 -0.1358 -0.7140
 8797SOL    HW238025   2.758   1.651   8.193 -1.6940 -1.0711 -1.4890
 8798SOL     OW38026   2.716   3.289  14.652 -0.6315  0.3983 -0.1363
 8798SOL    HW138027   2.645   3.259  14.709  0.7847 -1.3688  0.6710
 8798SOL    HW238028   2.740   3.375  14.688 -3.0439  1.4386 -1.0087
 8799SOL     OW38029   0.856   3.930  16.186 -0.1997 -0.2600 -0.5862
 8799SOL    HW138030   0.929   3.991  16.196 -0.2814 -0.2152 -0.2689
 8799SOL    HW238031   0.892   3.846  16.156  0.9230 -0.7802  2.2501
 8800SOL     OW38032   4.577   3.461   3.406 -0.9737 -0.5525 -0.7379
 8800SOL    HW138033   4.602   3.444   3.315 -0.2590 -4.3746  0.2090
 8800SOL    HW238034   4.482   3.472   3.399 -0.8277  0.9085 -0.4493
 8801SOL     OW38035   2.000   1.793   8.715 -0.1155 -0.2416  0.3451
 8801SOL    HW138036   2.062   1.769   8.646 -1.0813 -1.6198 -0.0363
 8801SOL    HW238037   1.938   1.720   8.716  1.6555 -1.6977  3.7309
 8802SOL     OW38038   3.714   0.644   7.638 -0.3867 -0.6185  0.3738
 8802SOL    HW138039   3.628   0.632   7.599 -0.9476  2.5287  0.6610
 8802SOL    HW238040   3.770   0.621   7.564 -2.3051  1.1333 -1.6183
 8803SOL     OW38041   3.614   1.412   0.236 -0.0258 -0.5051  0.0333
 8803SOL    HW138042   3.677   1.393   0.306  0.2933  0.3400 -0.0244
 8803SOL    HW238043   3.554   1.338   0.236  1.7621 -1.9142 -2.6365
 8804SOL     OW38044   4.302   1.581   6.739 -0.2009  0.1102  0.3925
 8804SOL    HW138045   4.235   1.515   6.756  1.6704 -2.2171 -1.4298
 8804SOL    HW238046   4.289   1.611   6.650  3.1051  1.2658  0.2702
 8805SOL     OW38047   2.093   4.032   2.432  0.3679  0.7225  0.1376
 8805SOL    HW138048   2.020   4.082   2.467 -0.5421 -0.8351  0.4895
 8805SOL    HW238049   2.160   4.099   2.420  1.8050 -1.0860 -2.1309
 8806SOL     OW38050   2.415   3.198   6.770  0.3389 -0.2173 -0.1056
 8806SOL    HW138051   2.362   3.223   6.846 -1.7693  0.2729 -1.7319
 8806SOL    HW238052   2.357   3.129   6.738 -2.6575  2.2406  0.0862
 8807SOL     OW38053   4.030   1.324   3.288 -0.4213  0.6834  0.1936
 8807SOL    HW138054   3.983   1.364   3.361  1.6606  2.2470  0.7064
 8807SOL    HW238055   3.975   1.247   3.277  0.9647 -0.2967  0.0350
 8808SOL     OW38056   4.678   0.180   7.761  0.3132  0.4468 -1.0522
 8808SOL    HW138057   4.613   0.179   7.831  0.5062 -1.5915 -0.9072
 8808SOL    HW238058   4.625   0.164   7.683  0.5262  0.2579 -1.1578
 8809SOL     OW38059   3.075   0.954  12.015  0.1248 -0.5545  0.4801
 8809SOL    HW138060   3.150   0.936  11.957 -0.1062  1.5255 -0.4351
 8809SOL    HW238061   3.046   0.863  12.024 -1.1438  0.0052  1.9738
 8810SOL     OW38062   1.779   4.127   7.103  0.3287 -0.2667 -0.0156
 8810SOL    HW138063   1.845   4.184   7.065 -0.5387  1.4833  1.0551
 8810SOL    HW238064   1.842   4.064   7.138  0.5425 -0.5687 -0.9663
 8811SOL     OW38065   2.544   3.840  10.778 -0.2374  0.0852  0.1216
 8811SOL    HW138066   2.594   3.870  10.703 -0.8412 -0.4079 -0.4763
 8811SOL    HW238067   2.613   3.863  10.840  0.3208  0.6654 -0.7190
 8812SOL     OW38068   0.124   1.395   3.889  0.5863 -0.5615  0.2657
 8812SOL    HW138069   0.161   1.450   3.958  0.7159 -1.6559  1.0690
 8812SOL    HW238070   0.210   1.364   3.859  0.9440 -0.0171  0.7111
 8813SOL     OW38071   2.251   1.508   2.719 -0.7758 -0.6789  0.1966
 8813SOL    HW138072   2.215   1.586   2.760 -0.3650 -0.6503  0.5008
 8813SOL    HW238073   2.215   1.496   2.631 -1.6865  0.3035  0.4342
 8814SOL     OW38074   0.284   2.957   8.939  0.2144  0.2754  0.0947
 8814SOL    HW138075   0.378   2.946   8.930  0.0037 -0.5398 -1.1424
 8814SOL    HW238076   0.250   2.913   8.861  1.2305 -1.7729  0.8145
 8815SOL     OW38077   2.418   1.123   8.193 -0.1483 -0.0157  0.4458
 8815SOL    HW138078   2.387   1.068   8.264 -0.5085 -0.9627 -0.4524
 8815SOL    HW238079   2.468   1.055   8.147  2.5592  1.5016  1.1749
 8816SOL     OW38080   0.546   2.969   6.166 -0.1321 -0.0113 -0.2979
 8816SOL    HW138081   0.508   2.956   6.254 -1.6260 -0.1568 -0.9601
 8816SOL    HW238082   0.461   3.003   6.137  1.7348  2.3073 -2.9710
 8817SOL     OW38083   2.911   1.263   6.453  0.7454  0.1692 -0.1038
 8817SOL    HW138084   2.984   1.240   6.510 -0.2148  1.4435  1.6416
 8817SOL    HW238085   2.945   1.341   6.410 -0.2591  1.5329  1.5507
 8818SOL     OW38086   3.740   2.472  16.335 -0.3878  0.1420  0.2873
 8818SOL    HW138087   3.664   2.489  16.390 -1.6498 -2.6041 -0.6170
 8818SOL    HW238088   3.705   2.488  16.247 -4.0541  1.1030  1.9361
 8819SOL     OW38089   1.077   0.733   4.078 -0.0098 -0.0331  0.8439
 8819SOL    HW138090   0.997   0.746   4.129 -0.2580  1.0074  0.1805
 8819SOL    HW238091   1.060   0.769   3.991 -0.4898 -0.8416  0.6090
 8820SOL     OW38092   1.038   3.031   2.996 -0.1504  0.4819  0.2943
 8820SOL    HW138093   0.945   3.027   3.019 -0.2808  4.9318  0.6003
 8820SOL    HW238094   1.071   3.092   3.063 -0.3329  3.0502 -1.9758
 8821SOL     OW38095   4.608   3.513   8.269 -0.3573 -0.1743  0.2141
 8821SOL    HW138096   4.579   3.601   8.296 -0.6407 -0.7041  1.6181
 8821SOL    HW238097   4.551   3.504   8.192  1.4483  2.4660 -1.4455
 8822SOL     OW38098   2.605   0.594   2.315  0.3418 -0.2004 -0.0065
 8822SOL    HW138099   2.634   0.615   2.226 -2.0055  2.5352 -0.1213
 8822SOL    HW238100   2.543   0.520   2.319  0.1686  0.0347  1.6002
 8823SOL     OW38101   1.861   4.464   4.697 -0.4622  0.3646 -0.1698
 8823SOL    HW138102   1.848   4.427   4.610 -1.5886  1.7149 -0.5843
 8823SOL    HW238103   1.851   4.396   4.763 -2.0053  0.6732 -0.0719
 8824SOL     OW38104   1.549   0.228   7.260  0.1184  0.5424  0.0935
 8824SOL    HW138105   1.481   0.231   7.327 -1.4902  2.0915 -1.6133
 8824SOL    HW238106   1.557   0.321   7.242 -0.4209  0.3344 -1.2029
 8825SOL     OW38107   0.661   3.983   1.705 -0.0167  0.0282  0.4654
 8825SOL    HW138108   0.613   4.050   1.754 -0.7068  0.2063 -0.4472
 8825SOL    HW238109   0.683   3.922   1.776 -1.7032  0.3087  1.2326
 8826SOL     OW38110   2.240   1.083  13.081  0.1373 -0.7187 -0.1927
 8826SOL    HW138111   2.195   1.012  13.035 -0.5760 -1.1439  1.1806
 8826SOL    HW238112   2.203   1.153  13.026 -0.4305 -0.1501  0.9201
 8827SOL     OW38113   3.067   0.223  12.140  0.0923 -0.2966  0.5453
 8827SOL    HW138114   3.093   0.298  12.087 -1.7475  0.1405  0.2372
 8827SOL    HW238115   3.132   0.160  12.109 -0.5418 -0.9945  0.6209
 8828SOL     OW38116   3.617   0.909   8.906  0.5137  0.0001 -0.5599
 8828SOL    HW138117   3.577   0.984   8.862  1.9489  1.5407  0.7546
 8828SOL    HW238118   3.707   0.939   8.920  0.7551  0.1259 -2.4376
 8829SOL     OW38119   4.164   0.473  10.962  0.0975  0.0927 -0.5668
 8829SOL    HW138120   4.198   0.504  11.046 -2.4228 -0.4637  0.6577
 8829SOL    HW238121   4.236   0.474  10.899 -0.0692 -1.2791 -0.7886
 8830SOL     OW38122   0.197   3.369   9.742  0.1440 -0.2473  0.2488
 8830SOL    HW138123   0.138   3.305   9.702  0.0000 -0.6298  1.0751
 8830SOL    HW238124   0.281   3.363   9.697  0.0645  0.9703 -0.0584
 8831SOL     OW38125   2.610   2.210   3.327 -0.3973  0.5454 -0.5509
 8831SOL    HW138126   2.574   2.215   3.238  0.9310  1.2017 -1.0421
 8831SOL    HW238127   2.632   2.301   3.343 -0.0419  0.5272 -0.9553
 8832SOL     OW38128   1.271   0.857   4.264 -0.2677 -0.0587 -0.0441
 8832SOL    HW138129   1.238   0.922   4.326  0.5206  0.0676  0.2414
 8832SOL    HW238130   1.200   0.794   4.250 -0.0081 -0.4237  0.2812
 8833SOL     OW38131   2.558   2.770   8.174 -0.1737  0.1573  0.3172
 8833SOL    HW138132   2.488   2.773   8.239 -2.5743 -4.4092 -2.0531
 8833SOL    HW238133   2.602   2.854   8.182 -1.6489  1.1206 -1.7705
 8834SOL     OW38134   1.568   0.190   0.677 -0.2659 -0.1609  0.3397
 8834SOL    HW138135   1.494   0.241   0.709 -0.4298  0.3306 -0.8468
 8834SOL    HW238136   1.635   0.233   0.731 -0.6070  0.3753  0.3353
 8835SOL     OW38137   1.190   0.849   8.916 -0.0232  0.6191  0.0417
 8835SOL    HW138138   1.210   0.941   8.901  0.9491  0.3697 -0.2029
 8835SOL    HW238139   1.096   0.854   8.934  0.1863  1.6699  0.8344
 8836SOL     OW38140   0.926   2.858  15.925  0.0955 -0.2430 -0.0641
 8836SOL    HW138141   0.911   2.847  16.019  1.1436 -0.1073  0.1188
 8836SOL    HW238142   0.931   2.766  15.899  1.1626 -0.0764 -0.4357
 8837SOL     OW38143   4.364   4.485  14.542 -0.0667  0.2289 -0.3399
 8837SOL    HW138144   4.435   4.549  14.546 -0.7453  0.9838 -0.3070
 8837SOL    HW238145   4.309   4.522  14.611 -0.6699  0.4350 -0.9434
 8838SOL     OW38146   1.286   0.615  13.371  0.1111 -0.2160 -0.0153
 8838SOL    HW138147   1.311   0.693  13.321 -1.1541 -0.0554 -0.3950
 8838SOL    HW238148   1.191   0.625  13.377  0.2032  0.7600 -0.1345
 8839SOL     OW38149   1.124   3.297   9.451 -0.1967 -0.4310 -0.4033
 8839SOL    HW138150   1.174   3.291   9.533  0.9113  1.8153 -0.9184
 8839SOL    HW238151   1.153   3.222   9.400 -0.1813 -0.2734 -0.6263
 8840SOL     OW38152   2.582   2.448  11.119 -0.4172 -0.1970  0.1149
 8840SOL    HW138153   2.608   2.501  11.043 -0.5499 -0.6561 -0.2554
 8840SOL    HW238154   2.626   2.495  11.190  1.5806 -1.5051 -0.2620
 8841SOL     OW38155   2.889   2.913   8.742  0.0741 -0.5362  0.4543
 8841SOL    HW138156   2.838   2.859   8.802 -0.1602  0.3691  1.0693
 8841SOL    HW238157   2.957   2.857   8.703 -0.9980 -1.6027  0.1251
 8842SOL     OW38158   2.135   0.916   6.415 -0.0146 -0.6481  0.2618
 8842SOL    HW138159   2.210   0.912   6.355  1.5194 -0.0451  2.1102
 8842SOL    HW238160   2.074   0.865   6.362  0.8077  0.3098 -1.6079
 8843SOL     OW38161   1.668   0.220  14.025  0.0276 -0.4110 -0.2711
 8843SOL    HW138162   1.598   0.173  14.070  0.4493  1.7870  2.6660
 8843SOL    HW238163   1.630   0.308  14.029  0.5914 -0.0584 -2.4967
 8844SOL     OW38164   0.391   3.990  13.350  0.5417 -0.4562 -0.6215
 8844SOL    HW138165   0.324   4.041  13.304  0.4263 -1.0673 -1.1286
 8844SOL    HW238166   0.462   4.054  13.357  0.7574 -0.9484  1.7981
 8845SOL     OW38167   0.460   0.697   2.996 -0.3416 -0.0842  0.0934
 8845SOL    HW138168   0.383   0.653   2.960  0.2042 -1.2830  0.3974
 8845SOL    HW238169   0.531   0.650   2.952  2.2764  2.9342  1.1331
 8846SOL     OW38170   1.722   2.851   0.495 -0.6575  0.1226  0.3454
 8846SOL    HW138171   1.781   2.782   0.466 -0.5397  0.1932  0.4177
 8846SOL    HW238172   1.671   2.806   0.562  1.0421  1.2970  2.4390
 8847SOL     OW38173   2.223   0.946   5.677 -0.7384 -0.4356  0.0358
 8847SOL    HW138174   2.139   0.990   5.664  0.5339  1.5614 -1.4373
 8847SOL    HW238175   2.280   1.022   5.685 -0.7880 -0.1620 -2.1311
 8848SOL     OW38176   2.218   4.365   7.683 -0.5448 -0.1894  0.1156
 8848SOL    HW138177   2.198   4.278   7.648  0.9403 -0.3048 -0.4523
 8848SOL    HW238178   2.194   4.350   7.774 -0.7471  0.4075  0.1629
 8849SOL     OW38179   2.363   3.678   2.513 -0.1135  0.6488  0.0941
 8849SOL    HW138180   2.392   3.620   2.584 -0.7019  0.0525 -0.1515
 8849SOL    HW238181   2.331   3.757   2.557 -0.0865 -0.1676  1.6160
 8850SOL     OW38182   1.007   1.311   3.978 -0.8111 -0.3711  0.3050
 8850SOL    HW138183   1.063   1.257   4.035 -0.0609 -1.0675 -1.0841
 8850SOL    HW238184   1.069   1.358   3.922 -2.1249 -0.4050 -1.1890
 8851SOL     OW38185   4.308   3.991   8.118 -0.0773 -0.2549 -0.0315
 8851SOL    HW138186   4.373   3.936   8.074  0.8553 -0.9246  2.1616
 8851SOL    HW238187   4.277   3.925   8.180 -1.0791  2.1615  2.0173
 8852SOL     OW38188   3.672   3.079   2.565  0.0163 -0.4366  0.4571
 8852SOL    HW138189   3.759   3.054   2.595  0.6957  1.1548 -0.1446
 8852SOL    HW238190   3.616   3.050   2.636  3.1867 -3.8338  1.5500
 8853SOL     OW38191   4.462   1.907   4.046  0.0696 -0.5813  0.9825
 8853SOL    HW138192   4.455   1.881   4.138 -3.5558 -1.3305  0.5028
 8853SOL    HW238193   4.483   2.000   4.057 -0.0413 -0.6017  1.3988
 8854SOL     OW38194   0.051   2.636   3.843 -0.0856 -0.4390  0.1403
 8854SOL    HW138195   0.141   2.604   3.844  0.2553  0.5948  1.4069
 8854SOL    HW238196   0.046   2.662   3.935 -0.8219  1.7275 -0.5309
 8855SOL     OW38197   3.416   0.837   6.728 -0.0025 -0.2595  0.3341
 8855SOL    HW138198   3.451   0.869   6.811  0.6418  2.1021 -0.8315
 8855SOL    HW238199   3.365   0.762   6.757 -1.0271  0.4434  0.3533
 8856SOL     OW38200   4.646   2.775   2.498  0.2630 -0.6911 -0.0866
 8856SOL    HW138201   4.674   2.714   2.431 -0.1816 -0.5301 -0.4201
 8856SOL    HW238202   4.723   2.759   2.552 -0.3548 -0.0687  0.9922
 8857SOL     OW38203   4.650   2.072   9.369 -0.4043  0.3270  0.2221
 8857SOL    HW138204   4.578   2.093   9.429  0.3361 -0.7284  1.4878
 8857SOL    HW238205   4.608   2.085   9.284  1.0849  0.0394 -0.5538
 8858SOL     OW38206   1.044   3.606   7.755 -0.3344 -0.3297 -0.2918
 8858SOL    HW138207   1.072   3.516   7.744  1.8879  0.2561  0.6701
 8858SOL    HW238208   1.129   3.647   7.771 -0.2368  0.0967 -1.8585
 8859SOL     OW38209   2.374   1.074   9.622 -0.4491  0.0511  0.7612
 8859SOL    HW138210   2.449   1.043   9.571  1.0428  0.9438  2.4094
 8859SOL    HW238211   2.358   1.161   9.585  0.3029 -0.5594 -0.9746
 8860SOL     OW38212   1.874   2.729   2.266 -0.5317  0.0688 -0.3831
 8860SOL    HW138213   1.941   2.672   2.227 -0.6989  0.1476 -0.7838
 8860SOL    HW238214   1.861   2.799   2.202  0.6185  0.5764 -0.0552
 8861SOL     OW38215   1.617   2.161   3.598 -0.8052 -0.1511  0.0523
 8861SOL    HW138216   1.691   2.175   3.539  0.4928 -0.9947  1.4638
 8861SOL    HW238217   1.565   2.094   3.554 -0.6003 -0.1792 -0.1481
 8862SOL     OW38218   4.676   2.876   2.180  0.4964 -0.3674  0.1466
 8862SOL    HW138219   4.645   2.966   2.186  0.3761 -0.4585  0.8904
 8862SOL    HW238220   0.025   2.876   2.228  0.6044  1.7572 -0.0497
 8863SOL     OW38221   2.676   1.853   7.961  0.2619 -0.3656 -0.1957
 8863SOL    HW138222   2.663   1.812   8.047  2.3027  0.5076  0.5192
 8863SOL    HW238223   2.732   1.926   7.987 -0.4931 -0.1275  0.7743
 8864SOL     OW38224   1.989   1.077   2.368  0.0759 -0.2503  0.0995
 8864SOL    HW138225   1.988   1.025   2.288 -1.3272  0.7697 -0.5651
 8864SOL    HW238226   2.080   1.104   2.379  0.3278 -0.8047 -0.6005
 8865SOL     OW38227   1.289   1.377  14.605 -0.1340 -0.8120  0.3755
 8865SOL    HW138228   1.370   1.329  14.591  0.9005  0.8730  0.6210
 8865SOL    HW238229   1.294   1.391  14.700 -1.7861  0.2451  0.3229
 8866SOL     OW38230   3.805   0.784  15.903  0.6601 -0.1904 -0.1183
 8866SOL    HW138231   3.863   0.854  15.875  0.7402  1.2311  3.6825
 8866SOL    HW238232   3.830   0.750  15.989  2.9668 -2.1980 -1.5905
 8867SOL     OW38233   0.844   3.307   5.627  0.1347 -0.5117  0.5056
 8867SOL    HW138234   0.789   3.319   5.705 -0.0046  0.2657  0.2930
 8867SOL    HW238235   0.825   3.217   5.600  2.7807 -0.9673  0.1512
 8868SOL     OW38236   1.436   3.978   8.245 -0.4310 -0.3216 -0.0665
 8868SOL    HW138237   1.387   4.055   8.216  0.6394  0.4645  0.2332
 8868SOL    HW238238   1.412   3.911   8.181 -2.2581 -1.8774  2.2530
 8869SOL     OW38239   2.432   1.044   8.605  0.3064  0.0224  0.2183
 8869SOL    HW138240   2.520   1.017   8.631  0.2868 -0.7372 -0.5052
 8869SOL    HW238241   2.395   0.957   8.590  0.3536 -0.0455  0.4969
 8870SOL     OW38242   3.355   3.139   8.339 -0.0118  0.0364  0.0002
 8870SOL    HW138243   3.282   3.100   8.386  1.2870 -0.5808  1.4995
 8870SOL    HW238244   3.393   3.202   8.400  0.8538 -0.8822  0.4188
 8871SOL     OW38245   4.411   0.218   7.342 -0.5060  0.0555  0.4498
 8871SOL    HW138246   4.489   0.240   7.291 -0.3512 -0.1413  0.6018
 8871SOL    HW238247   4.354   0.288   7.310 -0.2077  0.4069  0.6887
 8872SOL     OW38248   2.869   4.490   8.640  0.4980 -0.0019  0.2950
 8872SOL    HW138249   2.886   4.483   8.546  4.2941 -0.8263  1.0276
 8872SOL    HW238250   2.957   4.471   8.673  0.1896  0.5322  1.4185
 8873SOL     OW38251   1.529   3.673   2.090  0.2694 -0.0947  0.3348
 8873SOL    HW138252   1.598   3.728   2.129  1.7386 -1.0811 -0.8471
 8873SOL    HW238253   1.477   3.734   2.038 -0.3082 -0.5066  0.4333
 8874SOL     OW38254   1.579   2.847   5.524 -0.0009  0.0185  0.3287
 8874SOL    HW138255   1.606   2.760   5.552  0.0184 -0.1910 -0.3471
 8874SOL    HW238256   1.606   2.900   5.599 -2.7961 -0.1038  1.4315
 8875SOL     OW38257   3.379   3.701  14.420 -0.0161 -0.2128 -0.8626
 8875SOL    HW138258   3.301   3.650  14.402 -0.1760 -0.8018  1.5922
 8875SOL    HW238259   3.404   3.709  14.328  3.0298  1.6031  0.1150
 8876SOL     OW38260   2.624   2.863   5.482 -0.4317 -0.3165 -0.0465
 8876SOL    HW138261   2.679   2.898   5.412  1.6899 -1.0371  1.2648
 8876SOL    HW238262   2.670   2.889   5.561 -2.1250 -0.0631  0.8527
 8877SOL     OW38263   4.634   3.703   1.216 -0.7914 -0.1000  0.1610
 8877SOL    HW138264   4.663   3.776   1.161  1.6330 -0.0641  1.5209
 8877SOL    HW238265   4.618   3.751   1.298  1.6430 -0.0155  0.5715
 8878SOL     OW38266   4.457   3.472   5.065 -0.5506 -0.2750 -0.2644
 8878SOL    HW138267   4.495   3.559   5.051  1.5667 -1.1216  0.2813
 8878SOL    HW238268   4.535   3.417   5.071 -0.2862  0.5332  4.0200
 8879SOL     OW38269   4.538   2.525   1.507 -0.0372 -0.0846 -0.5954
 8879SOL    HW138270   4.496   2.588   1.448  0.0137  0.0825 -0.4542
 8879SOL    HW238271   4.515   2.558   1.594  1.3100 -0.0978 -0.2467
 8880SOL     OW38272   1.310   4.520  17.169 -0.5577 -0.4433 -0.8063
 8880SOL    HW138273   1.395   4.554  17.141 -1.1048  2.3803  0.9808
 8880SOL    HW238274   1.281   4.476  17.089 -0.6230  0.7993 -1.4530
 8881SOL     OW38275   3.024   3.245   8.691 -0.4147  0.3810 -0.0526
 8881SOL    HW138276   2.944   3.293   8.668 -0.9207 -1.1394 -1.4083
 8881SOL    HW238277   3.082   3.319   8.706  0.8397 -0.9412  1.6297
 8882SOL     OW38278   0.897   1.930  10.168  0.1579  0.2589 -0.4278
 8882SOL    HW138279   0.865   1.892  10.250 -1.1343 -0.0431 -1.0762
 8882SOL    HW238280   0.934   2.015  10.194 -0.2846  0.6852 -1.2027
 8883SOL     OW38281   0.411   3.080   3.128  0.0193 -0.5357 -0.5290
 8883SOL    HW138282   0.359   3.017   3.177 -0.5263  0.8044  0.5871
 8883SOL    HW238283   0.391   3.157   3.180 -1.6148 -1.2924 -0.0249
 8884SOL     OW38284   2.923   0.912   1.546 -0.2530 -0.2478 -0.1567
 8884SOL    HW138285   2.982   0.847   1.508 -0.8930 -0.5941 -0.5516
 8884SOL    HW238286   2.947   0.986   1.490 -1.2986 -1.1531 -1.7766
 8885SOL     OW38287   2.663   4.095  14.844 -0.7311 -0.1004 -0.1966
 8885SOL    HW138288   2.657   4.012  14.796 -2.0573  0.1902 -0.5155
 8885SOL    HW238289   2.596   4.072  14.909  0.2759  0.7285  1.1350
 8886SOL     OW38290   1.268   1.843   2.859 -0.0813 -0.2232 -0.4733
 8886SOL    HW138291   1.195   1.783   2.847 -0.1905 -0.2478  0.3051
 8886SOL    HW238292   1.328   1.776   2.828 -0.9379 -0.8268 -0.8192
 8887SOL     OW38293   0.804   0.491  16.578 -0.4586  0.2378  0.0051
 8887SOL    HW138294   0.862   0.529  16.644 -1.4216  0.0325  0.9763
 8887SOL    HW238295   0.719   0.492  16.620 -0.8124 -1.9156 -0.6264
 8888SOL     OW38296   1.388   3.403   9.243 -0.1140  0.5072 -0.4895
 8888SOL    HW138297   1.474   3.361   9.240  0.2074  1.0277  1.3469
 8888SOL    HW238298   1.337   3.329   9.210  0.1605 -0.0050  0.2467
 8889SOL     OW38299   1.357   1.221   5.434 -0.4293  0.2435  0.4241
 8889SOL    HW138300   1.426   1.191   5.375 -0.0726  1.2966  0.3089
 8889SOL    HW238301   1.395   1.304   5.464 -0.2103  0.2419  0.1478
 8890SOL     OW38302   2.704   2.793   0.723  0.2813 -0.0872 -0.8151
 8890SOL    HW138303   2.666   2.708   0.743 -1.5465  0.7181 -0.8934
 8890SOL    HW238304   2.632   2.834   0.676 -1.1417 -0.9401  0.6438
 8891SOL     OW38305   3.196   2.829  13.521 -0.5151  0.3388  0.3162
 8891SOL    HW138306   3.187   2.910  13.472  3.6796  0.5893 -0.0689
 8891SOL    HW238307   3.233   2.762  13.463  0.7955  0.3935  1.0599
 8892SOL     OW38308   3.582   4.030   1.237  0.5630 -0.3238  0.3836
 8892SOL    HW138309   3.551   4.066   1.320  1.9342 -0.8033  1.1122
 8892SOL    HW238310   3.497   3.993   1.214  0.1054  1.3515 -0.6139
 8893SOL     OW38311   1.563   1.661   2.239 -0.4543  0.8204 -0.0378
 8893SOL    HW138312   1.563   1.706   2.154  0.5778  1.6283  0.3912
 8893SOL    HW238313   1.554   1.734   2.300 -0.8632 -1.0438  2.1061
 8894SOL     OW38314   4.561   1.766   1.178  1.0432 -1.0728  1.0685
 8894SOL    HW138315   4.606   1.805   1.103  0.3751  0.8906  1.6625
 8894SOL    HW238316   4.513   1.842   1.211  1.0718  0.1086 -1.6058
 8895SOL     OW38317   0.397   0.795   8.717 -0.0798  0.2006 -0.1681
 8895SOL    HW138318   0.330   0.861   8.699 -0.9738 -0.0362  2.2524
 8895SOL    HW238319   0.403   0.761   8.627  2.3537 -2.4727  1.0151
 8896SOL     OW38320   3.349   4.457   1.903 -0.1804 -0.0890  0.4367
 8896SOL    HW138321   3.304   4.491   1.981  0.2161 -2.1606  1.5586
 8896SOL    HW238322   3.368   4.533   1.848 -0.2095  0.8281  1.6775
 8897SOL     OW38323   0.496   3.319  13.233 -0.0405  0.0427  0.3480
 8897SOL    HW138324   0.469   3.302  13.142 -0.8475 -1.4194  0.8531
 8897SOL    HW238325   0.434   3.390  13.249 -1.0582 -1.0277  1.2089
 8898SOL     OW38326   2.408   2.612  15.583  0.6796  0.6398  0.0446
 8898SOL    HW138327   2.332   2.575  15.628  0.7667  1.6859  1.0337
 8898SOL    HW238328   2.487   2.579  15.625  0.8440  0.1138 -0.6752
 8899SOL     OW38329   1.810   3.470   2.639  0.2342  0.0353  0.4080
 8899SOL    HW138330   1.874   3.414   2.683 -1.6251 -0.0248  3.0088
 8899SOL    HW238331   1.867   3.533   2.595 -0.0098  1.4353  2.1050
 8900SOL     OW38332   1.846   0.004   2.361 -0.0979  0.4101 -0.7248
 8900SOL    HW138333   1.764   4.693   2.342 -0.0243 -0.3816  0.8679
 8900SOL    HW238334   1.896   4.710   2.284  0.8199 -0.4875  0.2083
 8901SOL     OW38335   4.289   0.812  11.098  0.0373  0.3421 -0.4810
 8901SOL    HW138336   4.229   0.877  11.063 -0.7499 -0.1958 -0.1295
 8901SOL    HW238337   4.347   0.866  11.151  1.4297 -1.5501 -0.0407
 8902SOL     OW38338   4.216   2.927   2.134 -0.7131  1.1276  0.1492
 8902SOL    HW138339   4.258   2.986   2.196 -0.2074  0.0829  0.7823
 8902SOL    HW238340   4.188   2.860   2.196  0.0781 -0.1793 -0.9146
 8903SOL     OW38341   1.778   1.909   4.062 -0.2433 -0.8645  0.1414
 8903SOL    HW138342   1.848   1.861   4.018  0.7219 -0.6016  1.3764
 8903SOL    HW238343   1.828   1.982   4.100 -3.6533  1.3809  0.2529
 8904SOL     OW38344   1.444   3.857   3.662  0.2507  0.3326 -0.1669
 8904SOL    HW138345   1.538   3.867   3.649  0.2968  0.2838  0.1430
 8904SOL    HW238346   1.429   3.932   3.720 -0.5062  0.8412 -1.0191
 8905SOL     OW38347   1.243   0.492   7.584 -0.1630  0.0705 -0.3364
 8905SOL    HW138348   1.280   0.457   7.665  1.9745  1.7481 -0.6065
 8905SOL    HW238349   1.158   0.447   7.588 -0.6766  1.1353  0.6559
 8906SOL     OW38350   1.091   3.769   3.065 -0.0586 -0.1422 -0.5842
 8906SOL    HW138351   1.005   3.809   3.075 -0.4521 -0.3568 -3.2040
 8906SOL    HW238352   1.079   3.679   3.033 -2.4841 -0.0951  0.2352
 8907SOL     OW38353   3.253   0.771   5.775 -0.1190 -0.2343  0.2925
 8907SOL    HW138354   3.178   0.804   5.725  0.9753 -0.5182 -1.5214
 8907SOL    HW238355   3.218   0.717   5.847  1.1871 -0.6101  0.6507
 8908SOL     OW38356   3.229   3.574   7.216 -0.3336 -0.4282  0.4600
 8908SOL    HW138357   3.253   3.599   7.305 -0.7270 -3.9747  1.5730
 8908SOL    HW238358   3.139   3.541   7.224 -1.2291  2.2104  1.0568
 8909SOL     OW38359   3.274   2.169   2.329  0.0728 -0.0937 -0.0261
 8909SOL    HW138360   3.260   2.103   2.397  3.1195 -0.4720  0.2465
 8909SOL    HW238361   3.247   2.117   2.254  0.7024  0.9095 -0.9483
 8910SOL     OW38362   3.604   3.749   4.989  0.2173 -0.7720  0.4828
 8910SOL    HW138363   3.601   3.734   4.895 -0.4600  0.0826  0.3690
 8910SOL    HW238364   3.697   3.738   5.007  0.4631  1.0328  0.3446
 8911SOL     OW38365   1.840   1.201   5.351  0.4556  0.5719  0.0730
 8911SOL    HW138366   1.876   1.112   5.351  0.6823  0.6731 -0.7509
 8911SOL    HW238367   1.832   1.220   5.258 -1.7728 -1.5921 -0.1914
 8912SOL     OW38368   1.308   2.585   5.668 -0.3228  0.2201 -0.7164
 8912SOL    HW138369   1.223   2.543   5.685  0.6902 -2.3471 -2.0715
 8912SOL    HW238370   1.290   2.673   5.634  0.3262  0.2880 -0.8740
 8913SOL     OW38371   0.166   4.625  14.059  0.1785 -0.1422  0.2468
 8913SOL    HW138372   0.182   4.629  14.154 -1.1836 -0.3930  0.4861
 8913SOL    HW238373   0.085   4.677  14.052 -1.3104 -2.7682 -2.0573
 8914SOL     OW38374   0.911   3.712   8.792 -0.4591 -0.2031 -0.4386
 8914SOL    HW138375   0.817   3.723   8.803 -0.6447 -1.3428 -0.8063
 8914SOL    HW238376   0.931   3.645   8.857 -0.9936 -0.4621 -0.5389
 8915SOL     OW38377   4.025   4.314   6.659 -0.1456 -0.2323 -0.1889
 8915SOL    HW138378   4.111   4.357   6.654  0.6196 -1.7147  0.2313
 8915SOL    HW238379   3.996   4.356   6.740  0.2900  1.3336 -0.8436
 8916SOL     OW38380   2.831   0.919   9.275 -0.3234  0.3115 -0.1597
 8916SOL    HW138381   2.825   0.985   9.345 -1.4470 -0.2594  0.2815
 8916SOL    HW238382   2.802   0.834   9.310  3.5479 -0.7621  0.4840
 8917SOL     OW38383   0.482   1.744   4.681 -0.6389 -0.2487 -0.5685
 8917SOL    HW138384   0.459   1.732   4.773 -0.2872  0.4940 -0.3903
 8917SOL    HW238385   0.447   1.665   4.640 -1.7645 -0.1890  0.2613
 8918SOL     OW38386   2.637   3.968   3.574  0.2196 -0.1575  0.4387
 8918SOL    HW138387   2.638   4.060   3.546 -0.2419 -1.6080 -4.2756
 8918SOL    HW238388   2.729   3.956   3.598  0.1561  1.4134  1.4562
 8919SOL     OW38389   2.425   4.217   4.248 -0.0457  0.2113 -0.5315
 8919SOL    HW138390   2.413   4.293   4.305 -1.2100 -2.2197  2.4999
 8919SOL    HW238391   2.363   4.158   4.292  0.9785 -1.1732 -0.9344
 8920SOL     OW38392   4.558   4.249   3.817  0.3269  0.3531 -0.3704
 8920SOL    HW138393   4.543   4.344   3.812  1.2331  0.4656 -0.8505
 8920SOL    HW238394   4.505   4.231   3.895  0.8574 -1.5270 -0.4418
 8921SOL     OW38395   0.558   0.861   4.507  0.3706  0.5254  0.0199
 8921SOL    HW138396   0.488   0.853   4.442 -2.3355 -3.0063  3.3339
 8921SOL    HW238397   0.632   0.896   4.458 -0.7840  2.1942 -0.5059
 8922SOL     OW38398   4.138   0.940   3.964  0.0804 -0.3049  0.4319
 8922SOL    HW138399   4.230   0.952   3.941  0.3300 -1.4210  0.8756
 8922SOL    HW238400   4.132   0.857   3.918  0.7354 -0.6080  0.8933
 8923SOL     OW38401   2.937   4.596   8.085 -0.1627  0.6968  0.0353
 8923SOL    HW138402   2.903   4.669   8.033  0.3474 -0.1611 -1.5058
 8923SOL    HW238403   2.907   4.521   8.034  0.2677 -0.6211  1.7230
 8924SOL     OW38404   4.140   0.853   5.963  0.1066 -0.0123  0.0313
 8924SOL    HW138405   4.071   0.896   6.014  1.1166  0.5146  0.9458
 8924SOL    HW238406   4.211   0.912   5.987  1.8172 -2.0215 -0.0676
 8925SOL     OW38407   4.144   2.814   6.063 -0.3809 -0.8388 -0.1882
 8925SOL    HW138408   4.189   2.898   6.072  2.0283 -2.1312 -0.3392
 8925SOL    HW238409   4.220   2.763   6.038 -0.3154 -1.1889  0.7369
 8926SOL     OW38410   1.212   3.732   2.490  0.3311 -0.1093  0.2299
 8926SOL    HW138411   1.141   3.673   2.514 -3.0133  3.7406 -0.3377
 8926SOL    HW238412   1.200   3.729   2.395  0.9136 -0.7217  0.1746
 8927SOL     OW38413   1.219   3.096   7.806 -0.3013 -0.3507  0.2025
 8927SOL    HW138414   1.260   3.182   7.815 -3.5312  1.2220 -0.1337
 8927SOL    HW238415   1.269   3.056   7.735 -1.0761 -2.2409  0.7037
 8928SOL     OW38416   2.280   3.511   3.268 -0.2433 -0.0125 -0.5886
 8928SOL    HW138417   2.304   3.432   3.317 -0.8690 -0.5205 -1.0980
 8928SOL    HW238418   2.212   3.479   3.209 -0.3456  0.2195 -0.5991
 8929SOL     OW38419   1.284   1.997   3.089 -0.3282  0.8588  0.1398
 8929SOL    HW138420   1.222   1.964   3.153  1.9251 -0.4435  1.6454
 8929SOL    HW238421   1.293   1.920   3.033 -1.8482  0.7032  0.1188
 8930SOL     OW38422   3.217   1.266   3.430  0.3077 -0.2894 -0.6199
 8930SOL    HW138423   3.279   1.201   3.398  0.9419 -0.0055  0.0290
 8930SOL    HW238424   3.252   1.286   3.517 -1.8150 -1.9254  0.5951
 8931SOL     OW38425   1.863   2.928  11.839  0.3919 -0.3363  0.0186
 8931SOL    HW138426   1.826   3.015  11.824  1.5901 -0.0431 -1.2059
 8931SOL    HW238427   1.781   2.885  11.865  0.2464 -0.0694  0.0048
 8932SOL     OW38428   0.358   3.927  17.520 -0.0960  0.3237 -0.4374
 8932SOL    HW138429   0.436   3.874  17.507 -1.3660 -1.9788  1.4244
 8932SOL    HW238430   0.350   3.917  17.615 -1.1392 -0.5261 -0.6211
 8933SOL     OW38431   2.135   3.236   8.406 -0.5222 -0.0653 -0.5953
 8933SOL    HW138432   2.131   3.145   8.435 -0.0136  0.2407  0.4368
 8933SOL    HW238433   2.053   3.273   8.440 -0.7097 -0.0843 -1.0274
 8934SOL     OW38434   2.633   1.801   5.918  0.3192  0.2320 -0.1174
 8934SOL    HW138435   2.605   1.810   5.827  1.5266  0.6459 -0.4451
 8934SOL    HW238436   2.599   1.882   5.955  0.2257 -1.0626  2.6566
 8935SOL     OW38437   3.742   0.694   2.366  0.4000  0.4187  0.5392
 8935SOL    HW138438   3.747   0.619   2.426 -0.8842  0.4360  0.6773
 8935SOL    HW238439   3.665   0.738   2.402  0.5023  0.8060  0.2842
 8936SOL     OW38440   0.218   4.424   3.683 -0.1296  0.2017 -0.3472
 8936SOL    HW138441   0.169   4.357   3.731 -0.1838 -0.9584 -1.9900
 8936SOL    HW238442   0.308   4.390   3.683 -0.6667 -1.2421 -0.5833
 8937SOL     OW38443   4.578   2.902   8.751 -0.5134  0.1032 -0.2170
 8937SOL    HW138444   4.642   2.951   8.803  0.6041  0.9306 -2.3766
 8937SOL    HW238445   4.612   2.925   8.664  0.2913  1.5388  0.4682
 8938SOL     OW38446   0.584   0.796   6.966  0.8458  0.1791  0.9272
 8938SOL    HW138447   0.501   0.752   6.948 -0.1748  3.1943 -1.7475
 8938SOL    HW238448   0.558   0.838   7.048  0.2501 -0.5174  1.0889
 8939SOL     OW38449   3.991   2.553   6.160  0.6482  0.6085 -0.1093
 8939SOL    HW138450   3.968   2.543   6.252 -1.9769  1.5823 -0.6844
 8939SOL    HW238451   4.067   2.611   6.162 -0.1804  1.7034 -0.3950
 8940SOL     OW38452   3.809   3.299  10.922 -0.2177  0.5663 -0.2738
 8940SOL    HW138453   3.890   3.336  10.956 -0.9938  1.8540  0.1727
 8940SOL    HW238454   3.825   3.209  10.951 -2.5728  0.5723  1.0411
 8941SOL     OW38455   4.189   4.064   4.379  0.0641 -0.0133 -0.8559
 8941SOL    HW138456   4.113   4.006   4.372 -0.2213  0.3581 -0.8619
 8941SOL    HW238457   4.152   4.133   4.324 -1.7216 -0.3580 -0.0981
 8942SOL     OW38458   4.102   1.170  13.276  0.3668 -0.0109 -0.2360
 8942SOL    HW138459   4.015   1.211  13.277  1.3035  2.0401 -1.5046
 8942SOL    HW238460   4.152   1.227  13.217  1.1558 -0.7095 -0.2358
 8943SOL     OW38461   0.538   3.673   8.575 -1.1058  0.0125  0.1739
 8943SOL    HW138462   0.560   3.762   8.548 -1.3045  0.4670  1.5402
 8943SOL    HW238463   0.569   3.677   8.665  4.4295 -0.2321 -1.7715
 8944SOL     OW38464   2.424   3.215   8.045  0.5726  0.2750 -0.0821
 8944SOL    HW138465   2.408   3.149   8.112 -1.1291 -0.1372 -0.9023
 8944SOL    HW238466   2.489   3.174   7.988  0.6528  1.9790 -1.2010
 8945SOL     OW38467   2.443   2.820   9.956  0.0886 -0.1490 -0.4419
 8945SOL    HW138468   2.438   2.895  10.015 -2.7551  0.1882 -1.1323
 8945SOL    HW238469   2.519   2.770   9.986 -0.6458 -1.0813 -0.1323
 8946SOL     OW38470   3.497   4.338   5.818 -0.2548  0.0459  0.1419
 8946SOL    HW138471   3.415   4.371   5.783  0.9951  0.2678 -2.5580
 8946SOL    HW238472   3.553   4.375   5.750 -1.4167 -0.8845 -1.3102
 8947SOL     OW38473   0.389   1.621   1.628  0.5230  0.0326  0.2207
 8947SOL    HW138474   0.348   1.610   1.543 -0.9711  1.7702  0.7182
 8947SOL    HW238475   0.309   1.615   1.680  0.1745 -0.1561 -0.3432
 8948SOL     OW38476   2.731   0.911   3.080  0.2793 -0.2025  0.0706
 8948SOL    HW138477   2.660   0.930   3.019  0.8266  1.6207 -0.0161
 8948SOL    HW238478   2.764   0.833   3.037  2.4710  0.9002 -0.2675
 8949SOL     OW38479   4.274   3.741   8.243  0.4545  0.4487 -0.5074
 8949SOL    HW138480   4.215   3.669   8.265 -0.7372  1.2704 -0.9987
 8949SOL    HW238481   4.341   3.731   8.310 -1.1855  0.3962  1.1080
 8950SOL     OW38482   0.565   1.957   2.522  0.4068  0.2103 -0.0849
 8950SOL    HW138483   0.657   1.943   2.543  0.5059  3.3100  1.6272
 8950SOL    HW238484   0.544   1.887   2.461 -2.8015 -0.0619  1.3410
 8951SOL     OW38485   4.590   3.063   7.291 -0.0351  0.2218  0.0258
 8951SOL    HW138486   4.517   3.014   7.253  0.9980 -0.3022 -1.2591
 8951SOL    HW238487   4.626   3.099   7.210 -0.1745  1.4625  0.5087
 8952SOL     OW38488   3.958   0.955   6.129  0.1825  0.1403 -0.3104
 8952SOL    HW138489   3.879   0.901   6.123 -0.1776  0.6946 -0.4956
 8952SOL    HW238490   3.944   1.024   6.194 -0.4020  0.5403 -0.8658
 8953SOL     OW38491   4.435   1.586   6.438 -0.0295  0.2363 -0.1915
 8953SOL    HW138492   4.435   1.680   6.459 -1.0208  0.1992  0.0132
 8953SOL    HW238493   4.527   1.564   6.450 -0.4827 -1.8561 -0.5914
 8954SOL     OW38494   0.809   0.820   4.946  0.4198 -0.0018  0.7365
 8954SOL    HW138495   0.732   0.798   4.893  1.7449 -0.5654 -0.9719
 8954SOL    HW238496   0.756   0.798   5.022 -1.0365 -0.6731 -0.4762
 8955SOL     OW38497   2.609   2.229   1.882 -0.5371  0.3481 -0.2209
 8955SOL    HW138498   2.666   2.261   1.812 -0.2447  1.7581  0.6596
 8955SOL    HW238499   2.565   2.160   1.832  1.1599 -2.0186  1.5545
 8956SOL     OW38500   2.151   1.014   9.133 -0.6268 -0.0588 -0.0901
 8956SOL    HW138501   2.101   1.010   9.214 -0.3483  1.4053  0.1533
 8956SOL    HW238502   2.105   0.955   9.072  0.4866  0.5382 -1.5092
 8957SOL     OW38503   3.715   3.947  12.122 -0.1839  0.1611 -0.5279
 8957SOL    HW138504   3.655   3.910  12.057  0.1196  1.1582 -1.3882
 8957SOL    HW238505   3.653   3.980  12.188  1.2923 -0.4984  1.1733
 8958SOL     OW38506   3.424   1.353   5.576 -0.4402  0.1291  0.0158
 8958SOL    HW138507   3.416   1.304   5.658 -0.1041 -1.9339 -1.1839
 8958SOL    HW238508   3.351   1.414   5.587  1.8074  2.6630  1.0522
 8959SOL     OW38509   3.169   2.712   5.848  0.1699  0.1177 -0.1121
 8959SOL    HW138510   3.244   2.661   5.877  0.5693  1.6372  1.5381
 8959SOL    HW238511   3.163   2.778   5.917  0.1230  2.5936 -2.4671
 8960SOL     OW38512   1.419   1.219   0.220 -0.2356 -0.1941 -0.6526
 8960SOL    HW138513   1.431   1.154   0.289  0.8096  1.1096  0.3912
 8960SOL    HW238514   1.360   1.282   0.260 -0.0603 -0.4183 -0.0459
 8961SOL     OW38515   2.598   2.615   3.941 -0.0837  0.0377  0.2425
 8961SOL    HW138516   2.671   2.666   3.975  1.1481 -1.2929 -0.4380
 8961SOL    HW238517   2.535   2.669   3.988  0.8188  1.4838 -0.1951
 8962SOL     OW38518   3.843   1.409   6.037 -0.1440 -0.4934 -0.0427
 8962SOL    HW138519   3.836   1.321   6.002 -0.3986 -0.8615  0.9428
 8962SOL    HW238520   3.815   1.466   5.965  0.6685 -0.6502 -0.4873
 8963SOL     OW38521   1.038   1.421   1.985 -0.1204  0.0716  0.1674
 8963SOL    HW138522   1.057   1.344   2.038 -0.6241  0.0208  0.2792
 8963SOL    HW238523   1.128   1.453   1.979 -0.5267  1.1593 -0.0910
 8964SOL     OW38524   1.704   0.243   9.755 -0.6369  0.3033  0.2720
 8964SOL    HW138525   1.643   0.317   9.746 -1.0008 -0.2472 -1.8767
 8964SOL    HW238526   1.652   0.163   9.756 -0.7302  0.3428 -0.7739
 8965SOL     OW38527   1.721   4.320   1.623 -0.5498  0.0866  0.2587
 8965SOL    HW138528   1.803   4.361   1.594  0.4320 -1.4189  0.9202
 8965SOL    HW238529   1.720   4.366   1.707  0.9125  1.2779 -0.3548
 8966SOL     OW38530   0.782   1.226   5.290 -0.0713  0.8267  0.0275
 8966SOL    HW138531   0.797   1.170   5.214 -0.0707  1.7822 -0.6583
 8966SOL    HW238532   0.783   1.149   5.348 -0.6417  1.1362  0.4573
 8967SOL     OW38533   4.013   2.169   1.729 -0.0080 -0.5364  0.4337
 8967SOL    HW138534   4.055   2.240   1.778  0.2410  0.8043 -1.6850
 8967SOL    HW238535   4.085   2.107   1.730 -1.1783 -1.9456 -2.8761
 8968SOL     OW38536   1.763   1.013   7.008 -0.4341  0.0800  0.0058
 8968SOL    HW138537   1.814   1.042   7.084 -0.4622 -1.9440  0.8038
 8968SOL    HW238538   1.674   1.038   7.033  0.2672  2.2220  0.3635
 8969SOL     OW38539   1.722   2.541   8.622  0.2091  0.7165  0.3702
 8969SOL    HW138540   1.715   2.471   8.687  1.2595 -0.9825 -1.3383
 8969SOL    HW238541   1.806   2.582   8.643  0.6370 -0.0408  0.1538
 8970SOL     OW38542   4.156   2.965  10.310 -0.3189 -0.1662  0.2928
 8970SOL    HW138543   4.147   3.033  10.377 -2.7442 -0.4352  0.2498
 8970SOL    HW238544   4.065   2.937  10.299 -0.2543  0.2927 -1.4198
 8971SOL     OW38545   4.684   3.518   6.984 -0.2503  0.0065  0.9913
 8971SOL    HW138546   0.006   3.591   6.959  2.8914 -2.8446 -0.2069
 8971SOL    HW238547   4.638   3.491   6.904  1.2794 -0.4047  0.2577
 8972SOL     OW38548   0.462   0.226  10.636  0.3755 -0.0425  0.5124
 8972SOL    HW138549   0.454   0.208  10.730  3.9892 -2.4909  0.3562
 8972SOL    HW238550   0.553   0.200  10.621 -1.1094 -3.4868 -2.6606
 8973SOL     OW38551   1.904   3.693   6.206  0.2897 -0.3133  0.1234
 8973SOL    HW138552   1.989   3.718   6.241 -0.9298 -0.9352  3.5394
 8973SOL    HW238553   1.917   3.599   6.191  2.5253  0.1184 -0.6081
 8974SOL     OW38554   4.374   1.859   7.312  0.5900 -0.3622  0.0211
 8974SOL    HW138555   4.442   1.889   7.251 -1.2922 -0.0603 -1.9251
 8974SOL    HW238556   4.299   1.904   7.274  1.1265 -0.2688 -0.9306
 8975SOL     OW38557   4.143   3.930   4.737 -0.6836  0.1559  0.2347
 8975SOL    HW138558   4.074   3.952   4.799 -0.6898  0.2303  0.2015
 8975SOL    HW238559   4.209   3.991   4.770 -0.5051  0.8692 -1.4431
 8976SOL     OW38560   3.845   1.674   1.466  0.2138 -0.4127  0.1440
 8976SOL    HW138561   3.918   1.614   1.452  1.6573  1.6431 -1.1271
 8976SOL    HW238562   3.875   1.722   1.543 -1.5199  1.4821 -0.3605
 8977SOL     OW38563   3.696   0.748   0.879  0.2035  0.3273  0.2356
 8977SOL    HW138564   3.651   0.664   0.870  3.1647 -1.1438 -0.8324
 8977SOL    HW238565   3.650   0.796   0.809  0.0193  1.5978  1.2204
 8978SOL     OW38566   0.573   1.341   2.513  0.1658  0.0731  0.7955
 8978SOL    HW138567   0.594   1.251   2.536  0.8286  0.3470  1.2592
 8978SOL    HW238568   0.654   1.361   2.466 -0.5361  0.9901 -0.0362
 8979SOL     OW38569   1.660   1.295   6.011 -0.1067  0.2865 -0.3742
 8979SOL    HW138570   1.748   1.261   6.031  0.0773  1.0905  0.1948
 8979SOL    HW238571   1.633   1.267   5.924 -2.1518 -2.6741  1.2251
 8980SOL     OW38572   1.558   3.517  16.148  0.0183 -0.2088 -0.3900
 8980SOL    HW138573   1.622   3.453  16.118 -0.8422 -1.0334 -0.4439
 8980SOL    HW238574   1.575   3.546  16.238  0.9528  1.2023 -1.0123
 8981SOL     OW38575   1.894   4.273   7.444 -0.1415 -0.7697 -0.2562
 8981SOL    HW138576   1.816   4.296   7.495 -0.4512  1.1467 -1.5992
 8981SOL    HW238577   1.919   4.357   7.406  0.9468 -0.6318  0.7622
 8982SOL     OW38578   2.077   3.349  16.246 -0.1076  0.0219  0.2763
 8982SOL    HW138579   2.100   3.283  16.180  0.7908 -0.5424  1.1697
 8982SOL    HW238580   2.136   3.320  16.316  0.9168 -0.1054 -0.6335
 8983SOL     OW38581   3.503   2.026   1.640 -0.3448  0.2477  0.3441
 8983SOL    HW138582   3.495   2.059   1.550  1.5433 -1.2085 -0.3619
 8983SOL    HW238583   3.599   2.029   1.646 -0.2028 -2.5088 -0.7300
 8984SOL     OW38584   3.767   0.749  12.136  0.1035 -0.1389  0.4556
 8984SOL    HW138585   3.680   0.779  12.109 -0.4376  0.1848  2.5468
 8984SOL    HW238586   3.810   0.717  12.056  1.2098 -0.7354  1.2848
 8985SOL     OW38587   1.060   2.103   8.804  0.1998  0.3620 -0.4710
 8985SOL    HW138588   0.993   2.064   8.747  0.3441  0.3813 -0.6530
 8985SOL    HW238589   1.037   2.196   8.796  1.4647  0.9038  2.2716
 8986SOL     OW38590   3.413   0.155   8.476  0.3935 -0.0313 -0.0676
 8986SOL    HW138591   3.340   0.094   8.460 -0.2393 -0.1489  3.3272
 8986SOL    HW238592   3.428   0.193   8.390  1.6008 -0.4688 -0.0481
 8987SOL     OW38593   1.232   0.606  10.325 -0.3204 -0.2154 -0.2389
 8987SOL    HW138594   1.204   0.544  10.257 -0.1434 -0.8415  0.2636
 8987SOL    HW238595   1.210   0.561  10.406 -2.1462  1.2195  0.0629
 8988SOL     OW38596   4.090   0.422   6.886 -0.2270  0.1783  0.5949
 8988SOL    HW138597   4.021   0.474   6.844  0.3601 -1.3694 -2.2734
 8988SOL    HW238598   4.040   0.348   6.922 -0.3453 -0.0147  0.0418
 8989SOL     OW38599   1.513   2.148   0.412 -0.1973 -0.2476  0.8112
 8989SOL    HW138600   1.604   2.128   0.390 -0.7679 -2.6696  0.6376
 8989SOL    HW238601   1.473   2.073   0.367  2.7590 -1.1099 -0.3376
 8990SOL     OW38602   0.359   3.900  10.693  0.1212  0.1948  0.3518
 8990SOL    HW138603   0.428   3.833  10.694  2.0271  2.1930  2.2401
 8990SOL    HW238604   0.392   3.951  10.619  1.0276  1.0691  1.3599
 8991SOL     OW38605   1.510   1.800   9.822 -0.1299  0.1597 -0.1187
 8991SOL    HW138606   1.553   1.735   9.767  0.1049  0.6165 -0.4795
 8991SOL    HW238607   1.487   1.744   9.896  2.3171  1.3975  1.5695
 8992SOL     OW38608   0.575   0.345   6.242  0.0179 -0.4707  0.5590
 8992SOL    HW138609   0.653   0.399   6.236 -0.7701  0.5898 -0.2107
 8992SOL    HW238610   0.605   0.261   6.277  0.8970 -1.2966 -2.1344
 8993SOL     OW38611   4.569   4.221  13.976 -0.2327  0.6467 -0.3972
 8993SOL    HW138612   4.657   4.250  14.000 -0.0056  0.7868 -1.3999
 8993SOL    HW238613   4.571   4.250  13.884  0.0962  1.2508 -0.1975
 8994SOL     OW38614   0.350   2.493   9.190  0.5270 -0.4350  0.2209
 8994SOL    HW138615   0.432   2.505   9.142  0.0563 -0.0643 -0.4904
 8994SOL    HW238616   0.325   2.401   9.187 -1.7641  0.2185 -0.7054
 8995SOL     OW38617   3.182   4.281   5.917  0.8193  0.4585 -0.8553
 8995SOL    HW138618   3.169   4.354   5.857 -1.1857 -1.8868 -3.2893
 8995SOL    HW238619   3.204   4.209   5.857 -1.1648 -0.8351 -0.0131
 8996SOL     OW38620   3.399   4.627   6.902 -0.7588 -0.5497  0.2668
 8996SOL    HW138621   3.365   4.653   6.817 -0.6014  0.6707  0.5737
 8996SOL    HW238622   3.481   4.677   6.907 -0.7921 -0.0766 -4.1194
 8997SOL     OW38623   2.960   4.163   7.967 -0.6069 -0.2658  0.0413
 8997SOL    HW138624   3.025   4.109   8.012  0.2729 -0.7823 -1.8581
 8997SOL    HW238625   2.923   4.101   7.905 -0.6931  0.6057 -0.7805
 8998SOL     OW38626   1.063   2.204   3.878  0.0910 -0.0358 -0.4654
 8998SOL    HW138627   1.024   2.183   3.794 -0.1129  1.1790 -0.6744
 8998SOL    HW238628   0.980   2.209   3.926  1.0792 -0.0195  1.2794
 8999SOL     OW38629   0.547   1.395   8.578 -0.7111 -0.0450 -0.1273
 8999SOL    HW138630   0.529   1.317   8.525 -1.1859  0.1160 -0.1963
 8999SOL    HW238631   0.621   1.438   8.535 -1.2087  0.7822 -0.1528
 9000SOL     OW38632   1.338   4.520   7.535 -0.4750  0.2711  0.3832
 9000SOL    HW138633   1.432   4.506   7.546 -0.6519 -1.7435 -0.6019
 9000SOL    HW238634   1.305   4.497   7.621 -0.0395  0.4665  0.6031
 9001SOL     OW38635   4.607   3.163   5.689  0.2975  0.2437 -0.2502
 9001SOL    HW138636   4.665   3.185   5.762 -1.1840 -1.5472  1.4744
 9001SOL    HW238637   4.667   3.106   5.640  1.1155  1.4650 -0.6628
 9002SOL     OW38638   0.974   2.123   3.136  0.4134  0.2958 -0.3549
 9002SOL    HW138639   1.030   2.146   3.061  0.1911  0.8223 -0.3607
 9002SOL    HW238640   1.037   2.151   3.203 -0.5025 -1.5405  1.2756
 9003SOL     OW38641   0.519   1.952   2.019  0.5754 -0.0940 -0.3024
 9003SOL    HW138642   0.601   1.903   2.012  0.8500  0.2863  0.2252
 9003SOL    HW238643   0.458   1.878   2.016 -0.5908  0.8106  0.6494
 9004SOL     OW38644   3.194   4.468  10.591 -0.0286 -0.1048 -0.1018
 9004SOL    HW138645   3.285   4.479  10.615  1.3970 -3.1686 -4.0097
 9004SOL    HW238646   3.136   4.516  10.650 -0.6438 -2.5865  1.3111
 9005SOL     OW38647   0.244   2.200   7.466 -0.2163 -0.0239 -0.5599
 9005SOL    HW138648   0.196   2.119   7.452 -0.7060 -0.0677  1.3723
 9005SOL    HW238649   0.226   2.224   7.558  0.5380  0.1942 -0.4682
 9006SOL     OW38650   2.233   1.028   1.488  0.1254  0.6666  0.3609
 9006SOL    HW138651   2.280   1.093   1.436  0.3871 -0.4513 -0.8126
 9006SOL    HW238652   2.303   0.979   1.532 -0.1895 -0.2316 -0.1472
 9007SOL     OW38653   0.793   2.548   7.847  0.0194  0.3182  0.8260
 9007SOL    HW138654   0.838   2.510   7.772 -0.9753 -1.4427  1.1231
 9007SOL    HW238655   0.713   2.579   7.805 -0.2199  0.1191  1.1331
 9008SOL     OW38656   0.055   2.403   9.655  0.7613 -0.2108 -0.1882
 9008SOL    HW138657   4.715   2.408   9.593 -0.0103  1.8026  0.8716
 9008SOL    HW238658   0.129   2.432   9.602  1.0725 -1.9804 -0.7219
 9009SOL     OW38659   2.299   3.361   1.015  0.0836  0.4011  0.5979
 9009SOL    HW138660   2.216   3.386   0.975  1.3285 -1.8299 -3.3493
 9009SOL    HW238661   2.304   3.266   1.007 -2.9380  0.3263 -0.5507
 9010SOL     OW38662   0.608   2.207   7.848 -0.0963 -0.8454  0.2213
 9010SOL    HW138663   0.615   2.226   7.754  0.8721 -0.3248  0.4041
 9010SOL    HW238664   0.700   2.183   7.863  0.0073 -0.3363  0.3854
 9011SOL     OW38665   2.587   4.682   7.423  0.3368  0.4846 -0.1212
 9011SOL    HW138666   2.640   0.018   7.386  0.9698  0.2182  0.2895
 9011SOL    HW238667   2.636   4.605   7.394 -1.8265 -0.3765 -1.5354
 9012SOL     OW38668   0.738   0.758  12.904  0.2349 -0.6820 -0.4644
 9012SOL    HW138669   0.801   0.689  12.924  1.4978 -0.4249 -3.5414
 9012SOL    HW238670   0.669   0.692  12.904 -1.3812  1.0194  2.2240
 9013SOL     OW38671   1.038   1.327   5.294 -0.5049 -0.1854  0.3172
 9013SOL    HW138672   1.041   1.332   5.389  1.6843  1.2069  0.1788
 9013SOL    HW238673   0.946   1.303   5.284 -0.4652  0.5922 -1.9460
 9014SOL     OW38674   0.891   2.591  16.580  0.3425 -0.3807 -0.5034
 9014SOL    HW138675   0.928   2.679  16.579 -0.4170 -0.0602 -0.2879
 9014SOL    HW238676   0.797   2.611  16.577 -0.1449 -2.3436  1.0051
 9015SOL     OW38677   0.707   2.702  13.577  0.2599 -0.7367  0.4747
 9015SOL    HW138678   0.618   2.676  13.599  0.8149 -1.7169  1.5043
 9015SOL    HW238679   0.688   2.796  13.578  2.0508 -0.3814  0.3509
 9016SOL     OW38680   4.664   0.506   0.890  0.4894 -0.4235  0.0175
 9016SOL    HW138681   0.019   0.541   0.885 -0.2798  1.6653  1.2587
 9016SOL    HW238682   4.677   0.433   0.829 -0.5009 -0.7591  0.2195
 9017SOL     OW38683   2.707   4.714   3.693  0.3310  1.1787 -0.1574
 9017SOL    HW138684   2.717   0.051   3.756 -1.6245 -0.4491  1.9843
 9017SOL    HW238685   2.792   4.712   3.648 -0.8566  0.3640 -2.3752
 9018SOL     OW38686   3.624   2.686   2.876  0.0555  0.0240 -0.0516
 9018SOL    HW138687   3.645   2.653   2.789 -0.7927 -0.1209 -0.2028
 9018SOL    HW238688   3.530   2.670   2.868  0.0983 -0.5893  0.6775
 9019SOL     OW38689   3.397   3.460   4.471 -0.1117 -0.0756 -0.1064
 9019SOL    HW138690   3.340   3.416   4.408  0.2701 -1.5957  0.5969
 9019SOL    HW238691   3.338   3.523   4.512 -0.6568 -1.1278  0.7331
 9020SOL     OW38692   2.436   2.891  11.419 -0.7216  0.6719 -0.3069
 9020SOL    HW138693   2.500   2.919  11.485  0.4776 -1.1633 -0.6879
 9020SOL    HW238694   2.356   2.887  11.472 -0.8034 -1.1677 -0.5468
 9021SOL     OW38695   1.190   2.532   2.429 -0.2223  0.4045  0.2370
 9021SOL    HW138696   1.248   2.599   2.465  0.0436  0.6903 -0.7287
 9021SOL    HW238697   1.251   2.461   2.407  1.0881  1.9340 -0.9973
 9022SOL     OW38698   4.549   3.449  15.266 -0.0893 -0.1464 -0.5297
 9022SOL    HW138699   4.580   3.414  15.183  3.3865 -1.4990  1.3223
 9022SOL    HW238700   4.504   3.530  15.240 -1.1969 -0.5686  0.0787
 9023SOL     OW38701   2.897   0.662   7.140  0.1100 -0.3263  0.2928
 9023SOL    HW138702   2.866   0.648   7.229 -3.2142 -2.6339 -1.2408
 9023SOL    HW238703   2.850   0.591   7.096 -2.9928  0.9820  1.5138
 9024SOL     OW38704   4.684   3.354   6.366  0.2616 -0.2014  0.0742
 9024SOL    HW138705   4.641   3.428   6.323  1.4785  0.4332 -0.0587
 9024SOL    HW238706   0.029   3.397   6.399 -0.6949  2.7690 -1.5199
 9025SOL     OW38707   0.742   1.566   4.739  0.1011 -0.2228  0.4441
 9025SOL    HW138708   0.691   1.571   4.820  1.9246 -0.4703  1.5989
 9025SOL    HW238709   0.677   1.513   4.693 -0.9086  0.3595  1.1863
 9026SOL     OW38710   1.448   2.522   4.451  0.1140 -0.0062  0.9064
 9026SOL    HW138711   1.499   2.580   4.508 -0.6424  0.0360  1.5471
 9026SOL    HW238712   1.498   2.535   4.371  0.3586 -2.4890  0.6753
 9027SOL     OW38713   2.513   3.676   0.461  0.1898  0.2211 -0.0499
 9027SOL    HW138714   2.495   3.614   0.532 -1.5657  1.3517  0.5003
 9027SOL    HW238715   2.519   3.617   0.386  0.1371  1.1822 -0.7977
 9028SOL     OW38716   1.403   3.286   5.825 -0.6394  0.4714 -0.1295
 9028SOL    HW138717   1.328   3.338   5.853 -1.9843 -1.6454  0.2071
 9028SOL    HW238718   1.412   3.217   5.891  0.2792  0.9755  0.2576
 9029SOL     OW38719   4.301   3.486   0.860  0.5273  0.4208 -0.5467
 9029SOL    HW138720   4.377   3.445   0.819 -0.1513 -2.5797  1.1896
 9029SOL    HW238721   4.253   3.415   0.902  1.1120  0.0720 -0.4687
 9030SOL     OW38722   2.719   1.906  13.280  0.2889  0.2136  0.4022
 9030SOL    HW138723   2.804   1.907  13.235 -0.2329 -2.9253 -0.6654
 9030SOL    HW238724   2.663   1.949  13.216  0.9926  0.8357  0.2149
 9031SOL     OW38725   2.085   1.672   0.335  0.3355  0.1658  0.0195
 9031SOL    HW138726   1.999   1.690   0.373 -0.2970  1.2987 -1.9269
 9031SOL    HW238727   2.137   1.745   0.368  2.2493 -1.3354  0.3167
 9032SOL     OW38728   0.488   0.108  11.833  0.3830  0.4070 -0.4443
 9032SOL    HW138729   0.567   0.150  11.867  0.6237 -0.5529  0.1835
 9032SOL    HW238730   0.516   0.018  11.846  1.2158  0.4828 -1.7732
 9033SOL     OW38731   4.267   1.739   1.562  0.1775 -0.4732 -0.3678
 9033SOL    HW138732   4.361   1.724   1.547  0.1141 -0.1473 -1.1130
 9033SOL    HW238733   4.235   1.711   1.477 -0.2363  1.4326 -0.8499
 9034SOL     OW38734   0.514   0.085   2.260 -0.2280  0.8984  0.3433
 9034SOL    HW138735   0.523   4.733   2.301 -0.6248  0.4823 -0.4514
 9034SOL    HW238736   0.598   0.120   2.290  1.7678 -2.0438 -1.7570
 9035SOL     OW38737   4.476   2.649   2.178  0.0481 -0.3567 -0.2822
 9035SOL    HW138738   4.553   2.700   2.204 -2.5584  2.9492  0.9304
 9035SOL    HW238739   4.402   2.678   2.232 -1.2693 -1.2848 -1.6001
 9036SOL     OW38740   1.054   3.523   2.573  0.2371 -0.3270 -0.1527
 9036SOL    HW138741   1.032   3.459   2.641  1.2639  0.1266  0.6131
 9036SOL    HW238742   1.111   3.471   2.516 -0.4223 -2.0199  0.7447
 9037SOL     OW38743   2.813   4.108   6.934  0.4391 -0.2316  0.0832
 9037SOL    HW138744   2.721   4.095   6.911  0.4276  0.1594 -0.0941
 9037SOL    HW238745   2.812   4.072   7.023 -0.1521 -2.9587 -1.0459
 9038SOL     OW38746   3.443   1.662  10.555 -0.1532 -0.5751  0.3306
 9038SOL    HW138747   3.393   1.683  10.634  0.4928 -2.1285  1.1511
 9038SOL    HW238748   3.486   1.745  10.537  0.9216 -0.9379  1.2734
 9039SOL     OW38749   3.031   0.245   5.462 -0.4645  0.4795  0.0696
 9039SOL    HW138750   3.103   0.227   5.523 -0.0859  0.0915 -0.4786
 9039SOL    HW238751   3.077   0.241   5.378  3.0784  2.6603  1.9022
 9040SOL     OW38752   1.905   0.191  10.360  0.2364 -0.2753  0.4762
 9040SOL    HW138753   1.862   0.275  10.347  0.2622 -0.1745  1.0504
 9040SOL    HW238754   1.984   0.218  10.406 -0.4572  1.2511  0.7604
 9041SOL     OW38755   2.811   2.485   2.814  0.2722  0.1986  0.0121
 9041SOL    HW138756   2.826   2.558   2.752 -1.9981  0.9708  0.3872
 9041SOL    HW238757   2.873   2.418   2.786  0.3172  0.2363  0.0200
 9042SOL     OW38758   3.882   4.024   0.777 -0.5678  0.5468 -0.1635
 9042SOL    HW138759   3.796   4.061   0.762  0.6969  1.9649 -3.8653
 9042SOL    HW238760   3.879   3.995   0.868  1.0397  3.6107  0.8588
 9043SOL     OW38761   0.107   0.235   6.480 -0.6126 -0.1487 -0.7538
 9043SOL    HW138762   0.105   0.308   6.418  1.4129  2.4127  2.1651
 9043SOL    HW238763   0.035   0.179   6.454 -0.7037 -1.2018  1.7799
 9044SOL     OW38764   3.631   4.045   8.698 -0.1638  0.1794  0.1850
 9044SOL    HW138765   3.657   4.114   8.637 -1.8517 -0.2060 -0.9935
 9044SOL    HW238766   3.650   4.085   8.782  2.2458 -3.0505  1.1860
 9045SOL     OW38767   2.642   4.185  14.178 -0.3955 -0.3264 -0.1336
 9045SOL    HW138768   2.629   4.253  14.244 -0.3197 -0.6442  0.2068
 9045SOL    HW238769   2.574   4.120  14.195  0.9085 -1.9404 -1.0547
 9046SOL     OW38770   3.683   0.893   8.298  0.5857  0.1874 -0.4969
 9046SOL    HW138771   3.646   0.804   8.300  0.4746  0.2169 -1.1584
 9046SOL    HW238772   3.739   0.893   8.221 -0.8294  4.4442 -1.5218
 9047SOL     OW38773   4.544   2.350   4.960 -0.3527  0.0177 -0.3790
 9047SOL    HW138774   4.469   2.291   4.964 -0.3186  0.0628  0.8943
 9047SOL    HW238775   4.595   2.304   4.893 -1.1287  0.0441 -0.9920
 9048SOL     OW38776   4.552   2.568  11.277  0.0869 -0.4385  0.0610
 9048SOL    HW138777   4.604   2.605  11.349  1.5406  0.0288 -1.2253
 9048SOL    HW238778   4.560   2.482  11.317 -3.0868 -0.0524  1.4842
 9049SOL     OW38779   2.584   3.858   1.715  0.1594 -0.1612 -0.3130
 9049SOL    HW138780   2.654   3.906   1.670 -1.8385  2.7440 -0.3309
 9049SOL    HW238781   2.558   3.934   1.767 -0.8839 -0.6795 -0.0855
 9050SOL     OW38782   1.249   1.506  17.506  0.5773 -0.4015 -0.2805
 9050SOL    HW138783   1.331   1.539  17.471 -0.0604  0.5279 -0.8837
 9050SOL    HW238784   1.194   1.581  17.483 -1.4268 -1.5464  0.7861
 9051SOL     OW38785   2.346   2.312  13.996 -0.0275 -0.3180  0.3154
 9051SOL    HW138786   2.252   2.297  13.994 -0.3267  1.7793 -1.5515
 9051SOL    HW238787   2.357   2.309  13.901 -1.9402  2.2858  0.0215
 9052SOL     OW38788   3.457   0.813   9.120  1.1243  0.0274 -0.2216
 9052SOL    HW138789   3.520   0.830   9.050  2.4213 -0.9589  0.6878
 9052SOL    HW238790   3.390   0.860   9.072  1.3457 -2.2869 -2.8101
 9053SOL     OW38791   4.571   2.262   1.570  0.1439 -0.0479  0.1433
 9053SOL    HW138792   4.560   2.357   1.564 -0.0809 -0.1237 -0.7122
 9053SOL    HW238793   4.661   2.263   1.601  0.1100 -3.4925  0.4088
 9054SOL     OW38794   3.503   3.313  11.769  0.9598  0.0920  0.0607
 9054SOL    HW138795   3.408   3.303  11.771  0.7527  2.2107  1.2256
 9054SOL    HW238796   3.516   3.314  11.864 -1.2143  0.6034  0.3582
 9055SOL     OW38797   1.437   3.770  15.990  0.1471  0.0018 -0.2484
 9055SOL    HW138798   1.522   3.813  15.999  0.6270 -1.0880  0.3762
 9055SOL    HW238799   1.463   3.680  15.976 -1.0727 -0.4471  0.3570
 9056SOL     OW38800   1.891   1.281   5.804  0.1538 -0.2777 -0.2846
 9056SOL    HW138801   1.876   1.375   5.802 -0.0898 -0.3568 -2.1012
 9056SOL    HW238802   1.969   1.278   5.860 -0.1626  2.6789  0.2858
 9057SOL     OW38803   1.103   3.195   8.364 -0.8673 -0.1235  0.1722
 9057SOL    HW138804   1.094   3.177   8.271 -0.5812  0.5721  0.0098
 9057SOL    HW238805   1.177   3.136   8.379  0.1631  1.1662  0.0943
 9058SOL     OW38806   1.671   3.772   0.340 -0.3737 -0.1407 -0.5239
 9058SOL    HW138807   1.714   3.710   0.399  0.7773  0.7971 -0.3750
 9058SOL    HW238808   1.591   3.720   0.325 -0.4799  0.2069 -1.1341
 9059SOL     OW38809   1.055   3.176   5.935  0.0634  0.6389 -0.2310
 9059SOL    HW138810   1.007   3.210   6.010  3.0039  3.0646  0.5553
 9059SOL    HW238811   1.104   3.251   5.903  2.3544 -0.4065  0.7761
 9060SOL     OW38812   2.947   1.056   9.063 -0.4729  0.0856  0.2536
 9060SOL    HW138813   2.942   1.131   9.122 -1.2520  2.2427 -2.5609
 9060SOL    HW238814   2.884   1.001   9.110 -0.9639  1.4548  1.1958
 9061SOL     OW38815   3.475   4.352   6.629  0.3393  0.1331  0.3805
 9061SOL    HW138816   3.538   4.417   6.598  0.1382  1.9186  3.7920
 9061SOL    HW238817   3.420   4.361   6.551  1.1015  1.4787  0.0139
 9062SOL     OW38818   0.101   1.609   6.214 -0.2852  0.6954 -0.0158
 9062SOL    HW138819   0.156   1.685   6.194 -0.8140  1.6691  2.2555
 9062SOL    HW238820   0.027   1.617   6.153  0.3440 -0.1041 -0.8850
 9063SOL     OW38821   4.510   0.167   1.779 -0.1635 -0.4440 -0.6412
 9063SOL    HW138822   4.500   0.225   1.854 -2.7853  0.5003 -1.7104
 9063SOL    HW238823   4.489   0.082   1.817  1.2419 -0.8608 -0.7891
 9064SOL     OW38824   0.869   0.613   0.250  0.1666  0.4754  0.2548
 9064SOL    HW138825   0.900   0.673   0.182  0.2789  0.9580  0.7399
 9064SOL    HW238826   0.787   0.654   0.277 -1.3479 -2.6681  0.4832
 9065SOL     OW38827   4.634   4.122  14.405 -0.7271  0.1718  0.5787
 9065SOL    HW138828   4.581   4.202  14.401  1.2515  1.3419 -2.6632
 9065SOL    HW238829   4.700   4.159  14.347  0.1211 -0.3352  1.2167
 9066SOL     OW38830   4.184   4.111  13.467 -0.3583 -0.0149 -0.2954
 9066SOL    HW138831   4.153   4.191  13.425  0.6565  1.5220  1.8794
 9066SOL    HW238832   4.262   4.082  13.419 -0.0092  0.8687 -0.2808
 9067SOL     OW38833   3.751   0.860  13.205  0.1513 -0.2313 -0.6253
 9067SOL    HW138834   3.809   0.914  13.152  1.1531  0.7695  1.4920
 9067SOL    HW238835   3.755   0.901  13.291 -2.2127 -0.0812 -0.5827
 9068SOL     OW38836   0.850   3.774   7.701 -0.6941 -0.0761 -0.6334
 9068SOL    HW138837   0.930   3.723   7.718  0.7236  2.0605 -0.8435
 9068SOL    HW238838   0.786   3.703   7.695 -0.1653 -0.4584 -1.8396
 9069SOL     OW38839   2.810   4.070   4.650 -0.2612 -0.7781  0.1691
 9069SOL    HW138840   2.862   4.140   4.689  0.9690 -1.0651 -0.9492
 9069SOL    HW238841   2.797   4.113   4.565  0.4797 -0.6863  0.1062
 9070SOL     OW38842   0.337   4.616   0.192 -0.7738 -0.0420 -0.1342
 9070SOL    HW138843   0.340   4.522   0.207  1.7146  0.0345 -0.2131
 9070SOL    HW238844   0.330   4.622   0.097 -2.8785 -0.6542 -0.0209
 9071SOL     OW38845   1.020   3.476   3.113 -0.2353 -0.4023 -0.0482
 9071SOL    HW138846   0.947   3.420   3.087 -0.1857 -0.7020  0.4535
 9071SOL    HW238847   0.984   3.505   3.197  2.4870  0.0747  0.9445
 9072SOL     OW38848   1.598   1.179   2.848 -0.1445  0.0695 -0.1619
 9072SOL    HW138849   1.625   1.099   2.803  0.7128 -0.0721  0.6015
 9072SOL    HW238850   1.598   1.142   2.936 -0.9795  1.2280  0.3230
 9073SOL     OW38851   4.382   1.151  17.055 -0.2655 -0.4135  0.3539
 9073SOL    HW138852   4.396   1.057  17.043  2.3354 -0.3891  3.1761
 9073SOL    HW238853   4.296   1.158  17.096 -0.8122 -0.8397 -0.7211
 9074SOL     OW38854   2.069   0.882  11.976 -0.6342  0.0630  0.4754
 9074SOL    HW138855   2.046   0.950  11.913 -0.1180  0.4982  0.7551
 9074SOL    HW238856   2.164   0.898  11.980 -0.8936  0.8605  2.9475
 9075SOL     OW38857   4.590   1.902   7.018 -0.1449 -0.1390 -0.3409
 9075SOL    HW138858   4.600   1.814   6.981  1.5140  0.2504 -0.8228
 9075SOL    HW238859   4.584   1.959   6.942 -0.0274  1.4091  0.8180
 9076SOL     OW38860   0.544   3.887   3.239  0.0493  1.1749  0.4436
 9076SOL    HW138861   0.514   3.932   3.317 -4.1308  3.1398 -2.2980
 9076SOL    HW238862   0.609   3.820   3.259  0.9120  1.3272 -1.8592
 9077SOL     OW38863   3.398   3.075  14.451 -0.3504  0.8430  0.0160
 9077SOL    HW138864   3.375   3.078  14.544 -1.6047  0.9592 -0.3049
 9077SOL    HW238865   3.484   3.033  14.452 -0.9983 -0.3982  3.3640
 9078SOL     OW38866   3.118   2.440   9.010  0.3191  0.4390 -0.0348
 9078SOL    HW138867   3.178   2.365   9.014 -1.4455 -0.9463  0.2551
 9078SOL    HW238868   3.173   2.488   9.072  0.4456  2.3151 -1.5855
 9079SOL     OW38869   3.031   4.042   7.600 -0.4390  0.2737  0.2461
 9079SOL    HW138870   3.057   4.134   7.598 -0.3640  0.2685  0.9605
 9079SOL    HW238871   2.938   4.044   7.622 -1.3282 -1.7166 -3.2367
 9080SOL     OW38872   1.909   4.688   4.301 -0.4188 -0.0778  0.3496
 9080SOL    HW138873   1.897   4.701   4.395 -1.9328 -1.0567  0.2794
 9080SOL    HW238874   1.981   4.625   4.308  0.3813  0.9142  1.1490
 9081SOL     OW38875   0.283   4.233   3.150  0.3343  0.6980  0.2829
 9081SOL    HW138876   0.378   4.249   3.152  0.3119  0.7981  0.5134
 9081SOL    HW238877   0.246   4.319   3.129  0.2017  0.5774  0.0199
 9082SOL     OW38878   0.186   1.275   5.276  0.3945 -0.7252 -0.2690
 9082SOL    HW138879   0.096   1.265   5.307  0.0113  1.1643 -0.7697
 9082SOL    HW238880   0.234   1.212   5.330  0.6485  0.0469  0.3936
 9083SOL     OW38881   3.002   1.592   7.670 -0.0891 -0.0262 -0.1162
 9083SOL    HW138882   2.921   1.608   7.622 -0.5991  1.0583  1.0850
 9083SOL    HW238883   3.003   1.672   7.723  0.0634  1.3336 -2.1631
 9084SOL     OW38884   3.909   0.231   2.438  0.1227  0.3215 -0.6257
 9084SOL    HW138885   3.942   0.248   2.350 -0.7876 -1.2623 -1.2775
 9084SOL    HW238886   3.849   0.298   2.469  0.8261 -0.0217  1.4626
 9085SOL     OW38887   2.075   2.624   7.542 -0.0017  0.2040 -0.2371
 9085SOL    HW138888   2.165   2.593   7.554 -0.4944 -0.9819  0.4218
 9085SOL    HW238889   2.072   2.642   7.448 -0.0420 -1.8441 -0.6129
 9086SOL     OW38890   3.279   2.421   1.710 -0.5899 -0.3863 -0.3388
 9086SOL    HW138891   3.316   2.333   1.711  0.3193 -0.0051  0.4142
 9086SOL    HW238892   3.216   2.418   1.638  0.8136 -0.8854 -1.5459
 9087SOL     OW38893   3.082   2.122   1.913  0.2773  0.2726  0.0275
 9087SOL    HW138894   3.067   2.196   1.854 -0.5783  0.3194  0.3109
 9087SOL    HW238895   3.142   2.066   1.863  2.3085  0.9481  1.7366
 9088SOL     OW38896   2.559   2.437   2.712 -0.5594 -0.2133 -0.0312
 9088SOL    HW138897   2.637   2.439   2.766  0.1278 -0.1261 -1.0390
 9088SOL    HW238898   2.498   2.497   2.755 -0.7614  0.9292 -1.9495
 9089SOL     OW38899   2.633   3.436   1.137 -0.3082  0.4494 -0.2845
 9089SOL    HW138900   2.589   3.401   1.060 -1.5490 -0.9975  1.0851
 9089SOL    HW238901   2.596   3.380   1.206  1.6403 -0.5279 -0.0252
 9090SOL     OW38902   1.635   2.091  13.080 -0.1864  0.3075 -0.3028
 9090SOL    HW138903   1.642   2.136  12.996  1.1433 -0.3104 -0.5237
 9090SOL    HW238904   1.724   2.057  13.077  0.6785  2.6026 -0.2911
 9091SOL     OW38905   0.566   4.299   5.808  0.0289 -0.2463 -0.6707
 9091SOL    HW138906   0.530   4.231   5.752 -0.4572  0.1931 -0.8951
 9091SOL    HW238907   0.533   4.279   5.896  1.6923  0.7589  0.1671
 9092SOL     OW38908   1.509   4.386   4.525 -0.4128 -0.2687  0.6253
 9092SOL    HW138909   1.595   4.395   4.485 -1.0089 -3.5284 -1.3487
 9092SOL    HW238910   1.535   4.365   4.614 -0.8188 -0.5661  0.6758
 9093SOL     OW38911   3.063   1.270   7.145  0.1684 -0.3601 -0.7334
 9093SOL    HW138912   3.083   1.240   7.057  2.5927 -1.6455  0.2657
 9093SOL    HW238913   3.042   1.363   7.134  0.2094 -0.2904 -0.2128
 9094SOL     OW38914   2.282   4.729  11.740 -0.4827  0.2578 -0.2458
 9094SOL    HW138915   2.375   0.000  11.717 -0.1562  1.7003  1.4795
 9094SOL    HW238916   2.242   0.066  11.690  0.0987  0.4104 -0.4966
 9095SOL     OW38917   4.281   0.927   8.745  0.5409  0.3596  0.6106
 9095SOL    HW138918   4.276   0.986   8.821  4.3834 -0.1780  1.2817
 9095SOL    HW238919   4.203   0.970   8.710  0.6433 -1.4881 -1.8377
 9096SOL     OW38920   3.769   1.494   5.771 -0.7457  0.0888  0.2931
 9096SOL    HW138921   3.803   1.419   5.723 -1.2680 -0.8937  1.4519
 9096SOL    HW238922   3.698   1.522   5.713 -1.5165 -1.8663  0.2707
 9097SOL     OW38923   4.133   1.099   1.996  0.2414  0.2716  0.4602
 9097SOL    HW138924   4.149   1.017   2.043  0.1541 -1.2912 -2.2383
 9097SOL    HW238925   4.217   1.143   1.984  0.4420  0.3965  2.2994
 9098SOL     OW38926   0.274   1.385   8.595 -0.3728  0.0841  0.1088
 9098SOL    HW138927   0.210   1.452   8.618 -0.8947 -0.8174  1.2765
 9098SOL    HW238928   0.357   1.432   8.604  1.0638 -2.3226 -0.5551
 9099SOL     OW38929   1.515   1.701   1.007 -0.1594 -0.0846 -0.1055
 9099SOL    HW138930   1.486   1.784   1.046  2.1665  0.4629  0.4739
 9099SOL    HW238931   1.492   1.647   1.083  0.6795 -0.3026 -0.0061
 9100SOL     OW38932   2.043   1.726  15.009 -0.6252  0.2809  0.0979
 9100SOL    HW138933   2.034   1.760  14.920 -1.1702 -1.4962 -0.5201
 9100SOL    HW238934   1.965   1.669  15.010  0.5282 -1.3312 -2.4247
 9101SOL     OW38935   2.769   3.968  10.553 -0.1417 -0.3994  0.4172
 9101SOL    HW138936   2.834   3.976  10.482  1.7634 -0.0098  2.1944
 9101SOL    HW238937   2.824   3.963  10.631 -1.9767 -0.7795  1.6650
 9102SOL     OW38938   1.862   3.189   7.379 -0.0731 -0.6078  0.3973
 9102SOL    HW138939   1.911   3.259   7.423  1.2138 -0.1945 -1.6958
 9102SOL    HW238940   1.802   3.158   7.446  0.4441  0.8983  1.5576
 9103SOL     OW38941   3.970   3.993  17.117  0.2674  0.2144 -0.2302
 9103SOL    HW138942   4.010   4.057  17.176  0.1564 -0.1885  0.2831
 9103SOL    HW238943   3.884   3.987  17.159  0.0229  0.3410 -0.7062
 9104SOL     OW38944   2.727   2.413   2.058 -0.2766  0.3883 -0.6893
 9104SOL    HW138945   2.683   2.331   2.037  0.2982 -0.2382  0.5677
 9104SOL    HW238946   2.818   2.390   2.039 -0.3931 -1.7545  1.3408
 9105SOL     OW38947   4.641   0.943   2.811  0.1013 -0.3834  0.1081
 9105SOL    HW138948   4.731   0.937   2.778  0.9325 -0.8571  2.4102
 9105SOL    HW238949   4.661   0.916   2.901 -1.2870 -0.0978  0.4926
 9106SOL     OW38950   0.583   0.334   1.050 -0.0372  0.3177 -0.4707
 9106SOL    HW138951   0.504   0.300   1.008  0.8496  0.2279 -2.0944
 9106SOL    HW238952   0.653   0.291   1.000 -0.0733 -0.6322  0.2992
 9107SOL     OW38953   4.598   4.370   2.964 -0.6182  0.4351 -0.5618
 9107SOL    HW138954   4.653   4.294   2.945 -0.9757 -0.5240  2.2251
 9107SOL    HW238955   4.649   4.429   2.909  0.5779  1.1403  1.3236
 9108SOL     OW38956   2.514   3.796   3.319 -0.2787 -0.7192  0.5412
 9108SOL    HW138957   2.499   3.890   3.306  1.1488 -0.6372 -0.5337
 9108SOL    HW238958   2.601   3.808   3.358 -0.1736 -0.4148  0.2170
 9109SOL     OW38959   0.187   2.698   9.187 -0.0482 -0.1902 -0.2138
 9109SOL    HW138960   0.234   2.616   9.177  0.3092  0.3135 -2.5004
 9109SOL    HW238961   0.191   2.730   9.097  1.5684  1.3056  0.3771
 9110SOL     OW38962   2.276   3.227   5.964  0.1639 -0.5922 -0.3205
 9110SOL    HW138963   2.280   3.277   6.046  0.0687  0.5280 -1.0145
 9110SOL    HW238964   2.181   3.216   5.958  0.2578 -2.0384  0.8016
 9111SOL     OW38965   4.127   0.089   5.170 -0.0158  0.5913 -0.2000
 9111SOL    HW138966   4.166   0.176   5.161 -0.5613  0.7736 -0.8498
 9111SOL    HW238967   4.131   0.079   5.265  0.6845  0.9775 -0.1876
 9112SOL     OW38968   4.107   0.533  15.991 -0.2382  0.2926  0.5219
 9112SOL    HW138969   4.054   0.561  15.917 -2.0878 -0.6898  1.4758
 9112SOL    HW238970   4.107   0.439  15.979 -1.0225  0.1837  1.3454
 9113SOL     OW38971   2.399   2.705  11.034  0.3008 -0.2035 -0.1128
 9113SOL    HW138972   2.322   2.679  10.985 -1.3740  1.5860  1.5367
 9113SOL    HW238973   2.477   2.666  10.995  1.4170  3.8322 -1.9249
 9114SOL     OW38974   0.232   4.275   1.434 -0.0317 -0.4390  0.4546
 9114SOL    HW138975   0.148   4.279   1.480 -0.6853 -0.7828 -0.7213
 9114SOL    HW238976   0.288   4.323   1.496 -1.3595  0.2486  1.1107
 9115SOL     OW38977   4.210   1.245   3.767 -0.3014 -0.1485 -0.4911
 9115SOL    HW138978   4.202   1.315   3.702 -0.1502  0.3410  0.0164
 9115SOL    HW238979   4.221   1.307   3.840  3.4380 -0.5216 -0.7233
 9116SOL     OW38980   4.485   2.104   2.556 -0.4220  0.7044 -0.6688
 9116SOL    HW138981   4.534   2.186   2.565  1.9650 -0.6334 -1.3179
 9116SOL    HW238982   4.401   2.143   2.578 -0.0535 -0.0212  2.0594
 9117SOL     OW38983   1.834   1.288   8.659  0.2441  0.1233  0.2281
 9117SOL    HW138984   1.749   1.268   8.620  0.7778 -1.0420 -0.3641
 9117SOL    HW238985   1.852   1.220   8.724  0.2526  0.1635  0.2677
 9118SOL     OW38986   0.934   1.719   5.790  0.4665 -0.8945 -0.5412
 9118SOL    HW138987   0.962   1.685   5.705 -0.6232  3.2316 -2.5517
 9118SOL    HW238988   1.019   1.751   5.819 -0.4686 -1.6760  3.0394
 9119SOL     OW38989   0.629   0.989   6.430  0.1060 -0.3984  0.2958
 9119SOL    HW138990   0.557   0.999   6.368  0.7778 -1.1295 -0.5956
 9119SOL    HW238991   0.609   0.903   6.465 -2.1023  0.2045  0.5381
 9120SOL     OW38992   2.885   2.089  10.884  0.4667  0.5238  0.4288
 9120SOL    HW138993   2.805   2.063  10.838  0.6722 -0.1368  0.4447
 9120SOL    HW238994   2.943   2.101  10.809 -1.6183  2.2852 -0.9110
 9121SOL     OW38995   1.394   4.620   9.630  0.3152  0.1874  0.2416
 9121SOL    HW138996   1.306   4.622   9.592  0.8013  0.9414 -0.8502
 9121SOL    HW238997   1.450   4.634   9.553 -0.4393  1.0396 -0.1470
 9122SOL     OW38998   3.915   3.778  12.051 -0.0660  1.0484 -0.3462
 9122SOL    HW138999   3.858   3.853  12.067 -0.3241  0.8577 -0.3694
 9122SOL    HW239000   3.905   3.728  12.132  0.0993  1.5250 -0.0314
 9123SOL     OW39001   0.817   1.777   7.454 -0.1435  0.4674 -0.3521
 9123SOL    HW139002   0.900   1.757   7.411 -1.7104 -2.4431 -1.9940
 9123SOL    HW239003   0.756   1.770   7.381 -0.7400  0.5165  0.1334
 9124SOL     OW39004   2.836   1.468   4.834  0.1519  0.2711 -0.2549
 9124SOL    HW139005   2.823   1.394   4.775 -0.8291  0.0373  0.2405
 9124SOL    HW239006   2.784   1.539   4.796  2.4322  1.3743 -1.2877
 9125SOL     OW39007   2.199   1.627   6.200 -0.0633  0.2125 -0.0106
 9125SOL    HW139008   2.207   1.695   6.134 -0.0742  0.1963 -0.0289
 9125SOL    HW239009   2.291   1.619   6.225 -0.2820 -1.0414  0.4121
 9126SOL     OW39010   1.240   4.507   9.173 -0.1452  0.3871 -0.0883
 9126SOL    HW139011   1.206   4.422   9.146  0.2422 -0.2611  1.4752
 9126SOL    HW239012   1.278   4.553   9.098  0.8223 -2.3525 -1.2601
 9127SOL     OW39013   0.313   1.899   7.394 -0.1435 -0.1088 -0.4109
 9127SOL    HW139014   0.309   1.927   7.302  5.0262  1.8403 -0.0457
 9127SOL    HW239015   0.376   1.963   7.426 -0.0125 -0.7166  0.5447
 9128SOL     OW39016   4.164   2.036   8.625 -0.0505 -0.7116  0.4865
 9128SOL    HW139017   4.158   2.074   8.713  0.7444  0.0769  0.2049
 9128SOL    HW239018   4.259   2.032   8.616 -0.0332  0.6439 -0.0466
 9129SOL     OW39019   1.330   0.881  15.284 -0.3684  0.6212  0.0265
 9129SOL    HW139020   1.318   0.939  15.209  0.1045  2.6005  1.4939
 9129SOL    HW239021   1.338   0.799  15.235  2.7423 -0.4337  2.3689
 9130SOL     OW39022   1.529   0.376  16.017 -0.0584  0.6528 -0.4439
 9130SOL    HW139023   1.512   0.298  16.070 -1.7845  1.4315  0.1753
 9130SOL    HW239024   1.443   0.414  16.037  0.7972  2.2315  0.2850
 9131SOL     OW39025   2.408   3.250   2.427  0.2367 -0.2677  0.0069
 9131SOL    HW139026   2.323   3.280   2.461  1.0437  1.5674  0.4011
 9131SOL    HW239027   2.393   3.234   2.334 -1.4557  0.3600  0.1708
 9132SOL     OW39028   4.324   0.502  13.478  0.2435 -0.0727  0.2463
 9132SOL    HW139029   4.330   0.582  13.530  1.8652 -0.2873  0.3941
 9132SOL    HW239030   4.283   0.541  13.402  0.3536  0.2598  0.3590
 9133SOL     OW39031   1.866   2.890  10.293  0.0606 -0.4480 -0.1778
 9133SOL    HW139032   1.812   2.956  10.336 -0.1304 -1.3607  0.9760
 9133SOL    HW239033   1.815   2.810  10.304  0.3647 -0.7385 -0.8725
 9134SOL     OW39034   3.014   3.111   7.216 -0.0365 -0.0311 -0.7714
 9134SOL    HW139035   2.967   3.028   7.208  0.7171 -0.4640 -0.7256
 9134SOL    HW239036   3.084   3.092   7.278 -1.0247 -0.1120  0.3211
 9135SOL     OW39037   1.226   4.468   2.474 -0.0309 -0.0893  0.5375
 9135SOL    HW139038   1.156   4.501   2.530  0.2716  0.6229  0.4848
 9135SOL    HW239039   1.263   4.551   2.444  1.3682 -0.8825  0.0410
 9136SOL     OW39040   1.777   1.512   5.001 -0.0772  0.4563 -0.0666
 9136SOL    HW139041   1.703   1.490   5.057  1.3896 -2.1582  0.8683
 9136SOL    HW239042   1.734   1.487   4.919 -0.3402  1.8386 -0.3420
 9137SOL     OW39043   2.454   0.224  11.134  0.6562  0.3891  0.4370
 9137SOL    HW139044   2.423   0.221  11.224 -0.7748 -1.7151 -0.1299
 9137SOL    HW239045   2.467   0.319  11.130  3.5846 -0.0044  0.8075
 9138SOL     OW39046   1.934   3.167   4.594  0.3682 -0.0680 -0.3806
 9138SOL    HW139047   1.887   3.248   4.575  1.8694  1.4155  2.2712
 9138SOL    HW239048   1.999   3.177   4.525  0.0130  0.0418 -0.6977
 9139SOL     OW39049   3.886   1.023   5.484  0.5385 -0.0006  0.3414
 9139SOL    HW139050   3.896   0.988   5.396 -2.4659  0.7444 -0.3066
 9139SOL    HW239051   3.974   1.020   5.520  0.8683 -0.3788 -0.5018
 9140SOL     OW39052   2.990   4.555   8.365 -0.1694 -0.2138 -0.1183
 9140SOL    HW139053   3.040   4.477   8.340 -0.6472 -0.1916 -1.1501
 9140SOL    HW239054   2.944   4.571   8.283  0.1993  0.9366 -0.1006
 9141SOL     OW39055   3.931   0.454  13.377  0.1445  0.3030 -0.0249
 9141SOL    HW139056   3.991   0.380  13.385  1.2618  0.9089 -2.7496
 9141SOL    HW239057   3.905   0.430  13.288  0.4701  0.6542 -0.2143
 9142SOL     OW39058   3.086   3.689  12.796  0.4257  0.5313 -0.0252
 9142SOL    HW139059   3.091   3.725  12.708 -0.9539  0.4199 -0.1589
 9142SOL    HW239060   3.138   3.752  12.846 -1.2330  0.4750  1.7867
 9143SOL     OW39061   2.673   4.427   9.289  0.0668 -0.0926 -0.1369
 9143SOL    HW139062   2.749   4.415   9.231 -1.4541 -1.8094 -1.7994
 9143SOL    HW239063   2.694   4.509   9.334  0.1124  0.8137 -1.8099
 9144SOL     OW39064   0.892   0.805   0.075  0.6404  0.2169 -0.3754
 9144SOL    HW139065   0.841   0.850   0.008  0.0292  1.8640  1.2026
 9144SOL    HW239066   0.972   0.855   0.055  0.4936  0.0300 -1.4025
 9145SOL     OW39067   1.959   2.310   1.861  0.0055  0.1443 -0.0735
 9145SOL    HW139068   1.875   2.275   1.892  0.5371 -2.2124 -1.3450
 9145SOL    HW239069   1.967   2.293   1.767  2.3602  1.9691 -0.1978
 9146SOL     OW39070   0.556   3.493  11.899 -0.5292 -0.5295  0.0439
 9146SOL    HW139071   0.507   3.555  11.952 -1.4957 -2.5172  1.5064
 9146SOL    HW239072   0.591   3.430  11.963 -0.5831 -1.1908 -0.5772
 9147SOL     OW39073   1.545   2.391   8.161 -0.2433  0.0474  0.0615
 9147SOL    HW139074   1.488   2.371   8.236 -1.2215 -1.3885 -1.0518
 9147SOL    HW239075   1.483   2.454   8.123 -2.4207 -1.4551  1.0895
 9148SOL     OW39076   0.128   4.166  15.654  0.9338  0.2075  0.4890
 9148SOL    HW139077   0.175   4.113  15.719  1.4551  0.9249  0.6912
 9148SOL    HW239078   0.071   4.204  15.721 -2.0052 -4.0919  0.4688
 9149SOL     OW39079   2.744   4.516  11.829 -0.3115  0.0184  0.2922
 9149SOL    HW139080   2.711   4.450  11.768 -0.0969  0.6070 -0.4529
 9149SOL    HW239081   2.714   4.477  11.912 -0.0779  1.4838  1.0563
 9150SOL     OW39082   3.404   1.666   8.879 -0.2790 -0.2261  0.0542
 9150SOL    HW139083   3.478   1.675   8.820  1.6759 -0.8084  2.4290
 9150SOL    HW239084   3.407   1.572   8.893  0.8849 -0.0647  0.8602
 9151SOL     OW39085   2.438   2.312   8.876  0.2629  0.2809 -0.7365
 9151SOL    HW139086   2.460   2.258   8.800  0.0184 -0.8705  0.0211
 9151SOL    HW239087   2.459   2.249   8.946 -3.3691 -1.2411 -1.0087
 9152SOL     OW39088   0.510   3.641   7.499  0.0794 -0.7798  0.4548
 9152SOL    HW139089   0.432   3.657   7.552 -1.6415  0.5270 -2.4607
 9152SOL    HW239090   0.566   3.616   7.572  0.1886 -0.5552  0.4489
 9153SOL     OW39091   0.050   0.429   4.678 -0.6046  0.0386 -0.2963
 9153SOL    HW139092   0.052   0.442   4.773  0.1278  1.6257 -0.5287
 9153SOL    HW239093   0.126   0.484   4.658 -0.1271 -0.7977 -0.7357
 9154SOL     OW39094   4.335   3.502   3.299  0.4257 -0.6488 -0.9812
 9154SOL    HW139095   4.358   3.551   3.220  2.4037 -0.9783 -0.6139
 9154SOL    HW239096   4.253   3.541   3.329  0.6542 -0.7506 -0.2203
 9155SOL     OW39097   0.231   2.930   4.727  0.6852 -1.0134  0.0215
 9155SOL    HW139098   0.246   2.836   4.739  0.5366 -1.0428 -0.0258
 9155SOL    HW239099   0.209   2.926   4.634  0.0093 -3.4611  0.2894
 9156SOL     OW39100   2.027   1.215   3.087  0.1210 -0.0157 -0.5964
 9156SOL    HW139101   2.111   1.261   3.081  1.0012 -1.5492  0.0792
 9156SOL    HW239102   1.984   1.247   3.008  2.8448 -0.3186 -2.2172
 9157SOL     OW39103   0.948   3.407   3.726 -0.0677 -0.1853  0.5725
 9157SOL    HW139104   0.877   3.348   3.698 -1.4681  1.8264 -0.0946
 9157SOL    HW239105   0.897   3.486   3.742 -0.8332 -0.4949 -0.2868
 9158SOL     OW39106   0.638   0.446  13.667  0.4103  0.0454  0.1283
 9158SOL    HW139107   0.564   0.444  13.728 -1.7301 -0.3543 -2.5117
 9158SOL    HW239108   0.716   0.416  13.713 -0.7737 -0.0491  2.0734
 9159SOL     OW39109   0.464   3.992   4.418 -0.7874  0.0828 -0.0504
 9159SOL    HW139110   0.451   4.084   4.440 -0.8022  0.2458 -0.7498
 9159SOL    HW239111   0.534   3.973   4.480 -1.3697 -1.6708  0.0645
 9160SOL     OW39112   0.838   1.724   3.876 -0.1037 -0.1884 -0.4832
 9160SOL    HW139113   0.812   1.633   3.891  1.9840 -0.9248 -1.2841
 9160SOL    HW239114   0.933   1.717   3.885 -0.2123 -2.1025 -0.8981
 9161SOL     OW39115   3.323   3.230   3.572 -0.2434 -0.3511  0.0841
 9161SOL    HW139116   3.298   3.160   3.511 -2.0481 -1.1642  1.7593
 9161SOL    HW239117   3.419   3.223   3.574  0.0412  3.1905 -1.7117
 9162SOL     OW39118   4.549   2.140  10.336  0.1029 -0.1440 -0.1619
 9162SOL    HW139119   4.480   2.197  10.369  0.0114 -0.9523  1.0622
 9162SOL    HW239120   4.584   2.199  10.270 -0.0503 -1.0376 -1.0439
 9163SOL     OW39121   0.761   4.655   1.976 -0.1910 -0.1727 -0.1687
 9163SOL    HW139122   0.781   0.005   1.934  1.0914  0.4544  1.7249
 9163SOL    HW239123   0.777   4.674   2.068  0.1036  0.2499 -0.3053
 9164SOL     OW39124   1.514   2.091   9.697 -0.3467  0.4670  0.0185
 9164SOL    HW139125   1.581   2.053   9.753  0.0285 -2.4211 -2.3626
 9164SOL    HW239126   1.574   2.117   9.627  1.0718  0.2659  1.1544
 9165SOL     OW39127   3.161   3.048   8.539  0.3910  0.1156 -0.7046
 9165SOL    HW139128   3.100   3.109   8.581 -0.6934 -0.9940 -0.6658
 9165SOL    HW239129   3.124   2.960   8.550  2.0911 -0.3950  0.9587
 9166SOL     OW39130   2.177   0.048   1.888 -0.2379 -0.0528 -0.3528
 9166SOL    HW139131   2.183   0.115   1.955 -0.8686  0.7595 -1.1087
 9166SOL    HW239132   2.245   0.078   1.828  1.8992 -1.2996  1.4863
 9167SOL     OW39133   1.779   0.484   3.132  0.2158  0.6519 -0.3272
 9167SOL    HW139134   1.781   0.471   3.226  1.4612 -1.0077 -0.5781
 9167SOL    HW239135   1.766   0.578   3.131  1.2855  0.7767 -1.9852
 9168SOL     OW39136   1.139   0.733   7.934 -0.7294 -0.1766  0.1192
 9168SOL    HW139137   1.067   0.783   7.896 -0.5281  0.0566  0.0431
 9168SOL    HW239138   1.083   0.656   7.938  1.0956 -1.5146 -0.3019
 9169SOL     OW39139   0.383   0.010  13.652  0.5084  0.0182  0.5407
 9169SOL    HW139140   0.379   4.649  13.654  0.0447  0.0574  1.3723
 9169SOL    HW239141   0.312   0.033  13.712  0.1356  1.5348 -0.4811
 9170SOL     OW39142   4.628   2.414   3.208 -0.2118  0.0401  0.0399
 9170SOL    HW139143   4.569   2.436   3.136  0.7802  1.5293 -0.3203
 9170SOL    HW239144   4.689   2.487   3.202 -1.4006  0.7479 -3.2933
 9171SOL     OW39145   2.624   3.478   7.383 -0.9279 -0.3809 -0.0719
 9171SOL    HW139146   2.601   3.392   7.347 -1.2653 -0.9749  1.5797
 9171SOL    HW239147   2.556   3.487   7.450 -0.8183  0.8797 -0.1302
 9172SOL     OW39148   4.508   0.105   7.578  0.3020  0.1482 -0.2687
 9172SOL    HW139149   4.513   0.012   7.554  0.7222  0.5345 -1.6861
 9172SOL    HW239150   4.479   0.136   7.492 -1.6136 -1.8213 -0.3478
 9173SOL     OW39151   4.380   0.357   8.671 -0.2354 -0.1096  0.1474
 9173SOL    HW139152   4.417   0.432   8.623 -0.1954  0.8011  1.6225
 9173SOL    HW239153   4.394   0.380   8.762  0.0770 -0.1787  0.1158
 9174SOL     OW39154   1.068   3.048   0.998  0.5463 -0.0924 -0.1068
 9174SOL    HW139155   1.090   2.960   1.031  0.7397 -0.0374 -0.0891
 9174SOL    HW239156   1.099   3.037   0.908 -1.2388 -3.7022 -0.2950
 9175SOL     OW39157   1.428   4.028   6.312 -0.1215 -0.1657 -0.0519
 9175SOL    HW139158   1.461   4.065   6.230 -0.5295 -0.0272 -0.1491
 9175SOL    HW239159   1.419   4.112   6.357 -0.9272 -0.7051  0.8010
 9176SOL     OW39160   3.938   0.187   7.040  0.3467  0.3275  0.3683
 9176SOL    HW139161   3.863   0.247   7.040 -0.5147 -0.7316 -2.0214
 9176SOL    HW239162   3.939   0.181   7.135  0.6355  1.1717  0.4104
 9177SOL     OW39163   2.107   3.862   0.961  0.4854  0.0792 -0.2872
 9177SOL    HW139164   2.036   3.835   1.018  0.3850 -0.2447 -0.5703
 9177SOL    HW239165   2.099   3.791   0.897 -0.1104  2.4712 -2.8862
 9178SOL     OW39166   1.919   3.778   5.829  0.3475  0.5514  0.9931
 9178SOL    HW139167   1.983   3.784   5.899 -0.1186  0.0681  1.4679
 9178SOL    HW239168   1.916   3.683   5.841 -0.6771  0.0152 -3.2838
 9179SOL     OW39169   3.459   0.482   5.316  1.2044 -0.2405  0.2089
 9179SOL    HW139170   3.383   0.538   5.336 -0.1761 -1.7393 -0.8365
 9179SOL    HW239171   3.540   0.525   5.343  0.3281  2.3151 -1.2618
 9180SOL     OW39172   1.150   0.454  10.539  0.6920  0.1918  0.0495
 9180SOL    HW139173   1.118   0.511  10.608 -1.7487 -3.0491  1.6236
 9180SOL    HW239174   1.062   0.425  10.515  1.1580 -1.6236  0.4887
 9181SOL     OW39175   4.655   3.626  11.953 -0.6372 -0.5080  0.4684
 9181SOL    HW139176   4.713   3.648  11.880  0.2012  0.0188  1.2922
 9181SOL    HW239177   4.615   3.545  11.921  0.6833 -0.4244 -1.3965
 9182SOL     OW39178   4.255   2.993   6.392  0.0933 -0.1444  0.3984
 9182SOL    HW139179   4.313   3.020   6.320  0.4794  1.7117  1.4006
 9182SOL    HW239180   4.228   3.078   6.427  2.4223  0.6205  0.3788
 9183SOL     OW39181   0.439   3.038   5.669 -0.2796  0.0103  0.0170
 9183SOL    HW139182   0.400   3.104   5.726  0.6725  0.5999 -0.0002
 9183SOL    HW239183   0.416   2.956   5.713 -1.2015  0.7939  0.9630
 9184SOL     OW39184   1.374   3.930  10.458 -0.4538  0.4430 -0.2678
 9184SOL    HW139185   1.294   3.953  10.411 -0.1486  1.3021 -0.3734
 9184SOL    HW239186   1.348   3.936  10.550 -0.1878 -2.1162 -0.0260
 9185SOL     OW39187   0.526   2.043   4.039 -0.6365  0.6072 -0.3830
 9185SOL    HW139188   0.525   2.139   4.048  0.3931  0.6396 -0.6443
 9185SOL    HW239189   0.578   2.041   3.958  1.3095 -1.2304  0.9172
 9186SOL     OW39190   3.151   2.561   7.138  0.5341 -0.1912  0.4587
 9186SOL    HW139191   3.154   2.606   7.054 -1.3420  0.9198  0.9792
 9186SOL    HW239192   3.191   2.475   7.127  3.1538  0.9239  1.0967
 9187SOL     OW39193   3.736   2.686   5.678 -0.1372 -0.5044  0.1720
 9187SOL    HW139194   3.693   2.740   5.744 -1.6056 -1.6196  0.1387
 9187SOL    HW239195   3.752   2.608   5.731 -2.2057 -1.1691 -0.2028
 9188SOL     OW39196   0.362   1.237   4.690  0.3782  0.8505  0.0237
 9188SOL    HW139197   0.451   1.215   4.717  0.4545  0.5195 -0.5006
 9188SOL    HW239198   0.359   1.331   4.709 -5.3477  0.5402  0.8189
 9189SOL     OW39199   1.991   3.587   5.474  0.2968 -0.3353 -0.3097
 9189SOL    HW139200   1.951   3.533   5.406 -1.6241  1.1329 -0.3331
 9189SOL    HW239201   2.082   3.561   5.460  0.9012  1.0313  1.0984
 9190SOL     OW39202   3.826   2.315  11.525  0.1230  0.0392  0.6843
 9190SOL    HW139203   3.784   2.256  11.462 -0.2254  1.9755 -0.9043
 9190SOL    HW239204   3.761   2.308  11.595 -0.1805  3.2089  0.6925
 9191SOL     OW39205   0.505   4.089   0.875  0.4351 -1.0724  0.2767
 9191SOL    HW139206   0.597   4.112   0.872 -0.4753  2.4847  0.4706
 9191SOL    HW239207   0.503   4.004   0.830 -1.1418  0.2818 -2.2043
 9192SOL     OW39208   3.612   4.117   6.739 -0.3953  0.4623  0.1650
 9192SOL    HW139209   3.696   4.096   6.698 -1.1426 -1.7246 -0.2238
 9192SOL    HW239210   3.581   4.197   6.697  0.3080  0.6958  0.0749
 9193SOL     OW39211   3.475   3.957   2.795  0.0971  0.2437  0.0560
 9193SOL    HW139212   3.392   4.005   2.796 -0.4205 -0.6377  0.0840
 9193SOL    HW239213   3.540   4.021   2.767  0.8871 -0.8585 -0.6245
 9194SOL     OW39214   3.677   0.064   7.978  0.2660  0.0449 -0.6921
 9194SOL    HW139215   3.669   0.010   7.899 -0.1054  0.9839 -1.2995
 9194SOL    HW239216   3.605   0.122   7.953 -0.9733 -1.5408 -0.7860
 9195SOL     OW39217   2.671   3.080   6.798 -0.7588 -0.0060 -0.2211
 9195SOL    HW139218   2.710   3.165   6.778 -0.2830 -0.4059 -1.0139
 9195SOL    HW239219   2.579   3.105   6.795 -0.6060  0.4884 -0.7425
 9196SOL     OW39220   3.477   1.653   1.523 -0.7994  0.4648  0.8116
 9196SOL    HW139221   3.541   1.590   1.556  0.0214 -0.0403 -1.7322
 9196SOL    HW239222   3.440   1.677   1.608 -2.0294 -3.0490  1.2814
 9197SOL     OW39223   2.117   2.028   7.987 -0.4780 -0.0503 -0.4309
 9197SOL    HW139224   2.198   2.079   7.980 -1.5931  1.6328 -1.2310
 9197SOL    HW239225   2.105   2.009   8.080  0.4281 -1.9293 -0.7059
 9198SOL     OW39226   1.070   3.134   2.293  0.4096 -0.1199  0.0771
 9198SOL    HW139227   1.063   3.175   2.206 -2.2929  0.7625  0.7009
 9198SOL    HW239228   1.100   3.045   2.273 -2.3314 -0.8205 -0.9688
 9199SOL     OW39229   2.845   4.592   4.015  0.0728 -0.5689 -0.3185
 9199SOL    HW139230   2.938   4.615   4.014 -0.4981  1.6735 -0.3073
 9199SOL    HW239231   2.844   4.542   3.933  0.4760 -0.0653 -0.6312
 9200SOL     OW39232   3.875   0.232   2.919 -0.2154 -0.7550 -0.6189
 9200SOL    HW139233   3.837   0.163   2.863  2.1379 -2.0104 -0.6734
 9200SOL    HW239234   3.918   0.286   2.853  2.4667 -0.3886  1.4545
 9201SOL     OW39235   0.796   4.465   0.734  0.1280 -0.6292 -0.4938
 9201SOL    HW139236   0.795   4.455   0.829 -0.0975 -0.8108 -0.5139
 9201SOL    HW239237   0.702   4.464   0.717  0.2561 -1.3752 -1.1557
 9202SOL     OW39238   2.361   2.620   2.810  0.6456  0.0233  0.4831
 9202SOL    HW139239   2.364   2.699   2.756  1.3264  1.3687  2.4959
 9202SOL    HW239240   2.304   2.572   2.750  1.9229  0.5383 -1.1439
 9203SOL     OW39241   4.421   4.203   2.009  0.2344  0.1135 -0.6287
 9203SOL    HW139242   4.334   4.179   1.976  0.3966  1.1435 -1.8259
 9203SOL    HW239243   4.432   4.132   2.072  0.6474  1.6349  1.0263
 9204SOL     OW39244   3.267   0.733   2.820 -0.5738 -0.1846 -0.2876
 9204SOL    HW139245   3.346   0.724   2.767  1.5984  0.7750  2.7972
 9204SOL    HW239246   3.271   0.827   2.837 -0.7651  0.1510 -2.1303
 9205SOL     OW39247   2.106   2.130  12.289 -0.1031  0.4533  1.0032
 9205SOL    HW139248   2.056   2.115  12.209  1.2518 -1.9091  0.6250
 9205SOL    HW239249   2.190   2.103  12.254  0.8047  2.9557  1.2246
 9206SOL     OW39250   2.928   1.835   7.390  0.6308 -0.0446 -0.1100
 9206SOL    HW139251   2.943   1.834   7.484  2.4644 -0.2452 -0.4102
 9206SOL    HW239252   3.006   1.866   7.344  0.1131  0.6343 -0.5386
 9207SOL     OW39253   2.242   1.779   1.848 -0.2207  0.8103 -0.4531
 9207SOL    HW139254   2.162   1.727   1.856  0.1843  0.3806  0.9663
 9207SOL    HW239255   2.307   1.711   1.828 -1.3534 -0.3973 -0.0050
 9208SOL     OW39256   2.012   3.689  16.355  0.2943 -0.0770 -0.1865
 9208SOL    HW139257   2.019   3.777  16.392 -0.9519  0.7929 -2.0390
 9208SOL    HW239258   2.098   3.651  16.334  0.0945 -0.9563  0.5894
 9209SOL     OW39259   0.040   3.674   0.056 -0.0465 -0.5152  0.1539
 9209SOL    HW139260   0.011   3.591   0.095 -2.1681 -0.6972 -1.8262
 9209SOL    HW239261   4.714   3.686  17.717 -0.6228 -0.6837  0.5894
 9210SOL     OW39262   0.167   0.176  11.511  0.5049  0.6349 -0.0354
 9210SOL    HW139263   0.212   0.199  11.430  1.2781 -0.6231  0.0169
 9210SOL    HW239264   0.145   0.262  11.545  0.8917  0.5566  0.4241
 9211SOL     OW39265   2.315   4.612  17.061 -0.3528  0.1188  0.1086
 9211SOL    HW139266   2.365   4.578  16.987  2.3141  0.1901  1.8663
 9211SOL    HW239267   2.331   4.706  17.056 -1.7132  0.3255 -0.4023
 9212SOL     OW39268   4.601   0.019   4.212 -0.0013 -0.2826  0.6757
 9212SOL    HW139269   4.621   4.666   4.246  0.3543  0.3485  2.0529
 9212SOL    HW239270   4.665   0.074   4.256  0.8822 -0.1934 -0.6984
 9213SOL     OW39271   0.851   4.088   5.582 -0.2537  0.0461  0.4627
 9213SOL    HW139272   0.943   4.076   5.606  0.1811 -1.3446 -1.9058
 9213SOL    HW239273   0.846   4.181   5.562 -3.9683  0.2357  2.3307
 9214SOL     OW39274   4.188   1.314  13.031  0.4036  0.1408  0.0042
 9214SOL    HW139275   4.247   1.284  12.962  0.9960 -0.7286  0.8870
 9214SOL    HW239276   4.215   1.405  13.045  2.0458 -0.1040 -1.5732
 9215SOL     OW39277   3.983   4.639   6.088  0.4732 -0.5342 -0.8646
 9215SOL    HW139278   3.932   4.581   6.031  0.0027 -2.3681  1.4282
 9215SOL    HW239279   4.067   4.614   6.052  0.7090  0.7352 -1.2080
 9216SOL     OW39280   0.372   2.133  11.254 -0.0965  0.4946  0.3470
 9216SOL    HW139281   0.327   2.141  11.170 -2.0961  1.4966  1.5039
 9216SOL    HW239282   0.303   2.182  11.299 -0.6300  0.5824 -0.5608
 9217SOL     OW39283   0.947   0.356   6.953 -0.2205 -0.0853  0.5403
 9217SOL    HW139284   1.004   0.300   6.901  0.2400  0.0366  0.9098
 9217SOL    HW239285   0.891   0.363   6.876  1.3051  1.3293 -0.4585
 9218SOL     OW39286   2.773   0.211  17.707  0.0238  0.4128 -0.0238
 9218SOL    HW139287   2.711   0.161   0.024 -0.8924  0.8891 -0.6605
 9218SOL    HW239288   2.839   0.247   0.032 -0.4063  0.9443  0.1261
 9219SOL     OW39289   3.987   1.129   9.321  0.1126 -0.8149 -0.0618
 9219SOL    HW139290   3.931   1.207   9.315 -1.4924 -2.0345 -0.8013
 9219SOL    HW239291   4.030   1.146   9.406  0.0775  0.2209 -0.2435
 9220SOL     OW39292   3.277   4.554   0.126  0.0276  0.5339 -0.1390
 9220SOL    HW139293   3.231   4.473   0.104  3.1030 -1.0893 -0.6390
 9220SOL    HW239294   3.304   4.551   0.218 -0.1102 -3.7322 -0.2244
 9221SOL     OW39295   1.606   0.267   6.559  0.4666  0.5762  0.1005
 9221SOL    HW139296   1.692   0.277   6.599  0.2400 -1.7570  1.1556
 9221SOL    HW239297   1.560   0.233   6.636 -0.6300  1.5838 -0.1022
 9222SOL     OW39298   1.212   0.254   0.154  0.3077  0.8233 -0.4795
 9222SOL    HW139299   1.147   0.310   0.196  0.5863  0.9031 -0.1540
 9222SOL    HW239300   1.152   0.182   0.138  1.4296 -0.5247  1.3900
 9223SOL     OW39301   2.681   3.141   3.524  0.5314  0.6523 -0.5754
 9223SOL    HW139302   2.607   3.082   3.508 -1.2994  2.8490 -0.2339
 9223SOL    HW239303   2.727   3.092   3.591 -1.1098  1.6815  1.3120
 9224SOL     OW39304   3.035   1.108   8.795 -0.3306 -0.0960 -0.5189
 9224SOL    HW139305   3.120   1.083   8.830 -0.6497  0.9326  0.9967
 9224SOL    HW239306   2.985   1.102   8.877  0.3786  1.3397  0.0275
 9225SOL     OW39307   1.115   3.680   1.378  0.5446 -0.1194  0.6818
 9225SOL    HW139308   1.079   3.602   1.336 -1.7698  1.2572  0.0972
 9225SOL    HW239309   1.038   3.721   1.418  1.7182  0.8874  1.8925
 9226SOL     OW39310   4.245   1.745   1.284 -0.8513  0.2693 -0.2252
 9226SOL    HW139311   4.274   1.723   1.195  1.6524  0.2350  0.6032
 9226SOL    HW239312   4.292   1.828   1.296  1.8247 -1.0190 -2.0276
 9227SOL     OW39313   3.803   1.795   3.895  0.2439  0.3151  0.5671
 9227SOL    HW139314   3.852   1.716   3.919 -0.0718 -0.3412 -0.9376
 9227SOL    HW239315   3.846   1.867   3.941 -1.1347  1.4327  0.0835
 9228SOL     OW39316   1.363   1.227  15.291  0.4749  0.1018 -0.5295
 9228SOL    HW139317   1.374   1.183  15.206  3.9421  1.2258 -0.6630
 9228SOL    HW239318   1.444   1.209  15.338  0.3843  0.7352 -0.1295
 9229SOL     OW39319   1.023   1.882   4.136 -0.1596  0.2449  0.0426
 9229SOL    HW139320   1.105   1.921   4.165 -0.8435 -0.3953  2.7915
 9229SOL    HW239321   0.964   1.909   4.207  0.9561  0.9553  0.6953
 9230SOL     OW39322   3.789   0.597   0.620 -0.3904  0.6544  0.0405
 9230SOL    HW139323   3.703   0.625   0.652 -0.2576  2.6702 -1.3673
 9230SOL    HW239324   3.851   0.667   0.640  0.1618  0.1694  0.0295
 9231SOL     OW39325   3.223   3.584   3.225  0.2835  0.3466 -0.0000
 9231SOL    HW139326   3.259   3.576   3.313 -0.2878 -0.9377  0.1144
 9231SOL    HW239327   3.299   3.565   3.170  0.7979 -0.2604  0.9155
 9232SOL     OW39328   0.874   3.835   6.626  0.5438  0.1527 -0.5536
 9232SOL    HW139329   0.858   3.848   6.720  0.3043  1.2793 -0.7490
 9232SOL    HW239330   0.886   3.741   6.613 -0.3473  0.1370 -1.2196
 9233SOL     OW39331   1.538   0.424  17.535  0.0919  0.1222  0.3973
 9233SOL    HW139332   1.602   0.429  17.606  1.5318  0.2098 -0.9365
 9233SOL    HW239333   1.453   0.407  17.577  2.0722 -2.1361  3.5584
 9234SOL     OW39334   3.617   0.427  15.855 -0.0341  0.0511  0.3335
 9234SOL    HW139335   3.534   0.440  15.901 -0.5636  2.3093 -1.2336
 9234SOL    HW239336   3.668   0.383  15.922  1.0049  0.6244 -0.0752
 9235SOL     OW39337   0.282   0.697   2.470 -0.6674  0.0951  0.1367
 9235SOL    HW139338   0.363   0.748   2.475 -0.4341 -0.3512  0.8134
 9235SOL    HW239339   0.280   0.704   2.374  1.4052 -1.3532 -0.0160
 9236SOL     OW39340   2.434   3.511   0.644  0.0485  1.0633 -0.0967
 9236SOL    HW139341   2.400   3.424   0.624  0.1546  0.9080  0.4042
 9236SOL    HW239342   2.470   3.495   0.732 -0.2904 -0.0877 -0.1654
 9237SOL     OW39343   0.170   0.915   9.761  0.1013  0.2112 -0.0738
 9237SOL    HW139344   0.130   0.972   9.828  1.5746 -0.2038  1.1696
 9237SOL    HW239345   0.201   0.852   9.826  0.8211 -0.2420 -0.8723
 9238SOL     OW39346   0.876   3.361   7.617 -0.7605 -0.1809  0.2605
 9238SOL    HW139347   0.821   3.330   7.545 -0.4420  2.6264 -1.2082
 9238SOL    HW239348   0.891   3.283   7.670 -1.5523 -0.4826  0.0425
 9239SOL     OW39349   3.832   4.542   6.335 -0.8387 -0.4514 -0.0247
 9239SOL    HW139350   3.825   4.498   6.251  0.8432 -0.8463  0.0577
 9239SOL    HW239351   3.824   4.628   6.295  2.6601  0.1487  0.6439
 9240SOL     OW39352   1.285   2.392   3.855 -0.1221 -0.1026  0.4103
 9240SOL    HW139353   1.374   2.363   3.833 -1.1572 -2.0377 -1.2067
 9240SOL    HW239354   1.240   2.308   3.866  0.8454 -0.7228 -0.2896
 9241SOL     OW39355   3.619   0.999   1.991  0.1863 -0.5445 -0.7216
 9241SOL    HW139356   3.646   0.984   1.901 -0.8617 -0.8245 -0.9890
 9241SOL    HW239357   3.704   1.017   2.032 -0.0942 -2.5182  0.7625
 9242SOL     OW39358   2.225   3.295   8.706 -0.1226 -0.1001  0.2207
 9242SOL    HW139359   2.304   3.243   8.711  0.7056  1.4648  3.1790
 9242SOL    HW239360   2.232   3.311   8.611 -2.4932 -0.4674 -0.0131
 9243SOL     OW39361   1.560   1.587   3.139 -0.7714 -0.1732 -0.3726
 9243SOL    HW139362   1.623   1.514   3.140 -0.2374  0.2960  0.5715
 9243SOL    HW239363   1.537   1.597   3.047  2.4218 -0.9946 -1.2604
 9244SOL     OW39364   0.342   4.032   5.912 -0.1061 -0.2864 -0.4058
 9244SOL    HW139365   0.306   4.052   5.999 -1.5660  2.1772 -1.6023
 9244SOL    HW239366   0.431   4.047   5.943 -0.2458 -0.0050 -0.1426
 9245SOL     OW39367   2.356   3.953   8.971 -0.4151  0.6376  0.2391
 9245SOL    HW139368   2.312   3.873   8.943 -0.1736  0.5193  0.1954
 9245SOL    HW239369   2.299   3.962   9.048 -0.3363 -2.2829  0.6621
 9246SOL     OW39370   0.605   3.303   4.764 -0.3761 -0.5824 -0.4112
 9246SOL    HW139371   0.533   3.365   4.769  3.1344  3.5974 -2.5400
 9246SOL    HW239372   0.676   3.338   4.710 -1.6091 -2.6750 -3.3527
 9247SOL     OW39373   1.559   0.061  13.840  0.0962  0.5867 -0.2143
 9247SOL    HW139374   1.600   0.125  13.898 -0.4365  0.9229 -0.2067
 9247SOL    HW239375   1.632   0.038  13.782  0.5076  0.8282  0.2079
 9248SOL     OW39376   0.053   4.226   7.313  0.2164  0.0759 -0.0272
 9248SOL    HW139377   0.014   4.252   7.396  0.0566  4.9303 -1.6159
 9248SOL    HW239378   4.719   4.257   7.253 -0.4282 -0.9612  0.1717
 9249SOL     OW39379   4.348   2.465   3.508 -0.0553  0.0366 -0.0185
 9249SOL    HW139380   4.332   2.464   3.414  1.5945  1.8269 -0.3062
 9249SOL    HW239381   4.409   2.535   3.532  1.7845 -0.7459 -2.3551
 9250SOL     OW39382   3.667   2.761   5.006 -0.1800  0.4317 -0.0802
 9250SOL    HW139383   3.718   2.680   5.002  0.2688  0.5941  2.8366
 9250SOL    HW239384   3.720   2.806   5.071  0.2470 -0.7319  0.3901
 9251SOL     OW39385   1.492   3.788  17.615  0.0551  0.0375 -0.2319
 9251SOL    HW139386   1.579   3.814  17.643 -0.4704  1.9314 -0.2998
 9251SOL    HW239387   1.496   3.697  17.643 -2.3455  0.1204  0.4257
 9252SOL     OW39388   1.510   4.402   9.742 -0.1143 -0.2877 -0.1234
 9252SOL    HW139389   1.600   4.422   9.718  0.1444  0.7981  1.7394
 9252SOL    HW239390   1.462   4.474   9.700 -0.1648  0.0123  0.4399
 9253SOL     OW39391   4.245   2.743   7.065  0.4738  0.1878 -0.1727
 9253SOL    HW139392   4.199   2.660   7.048 -0.5073  1.0663 -1.8948
 9253SOL    HW239393   4.332   2.717   7.036  0.0432 -0.4309 -0.9320
 9254SOL     OW39394   3.263   0.778  13.671  0.1510 -0.2643  0.6015
 9254SOL    HW139395   3.185   0.801  13.621  1.6762  1.6600 -0.9098
 9254SOL    HW239396   3.320   0.773  13.595 -2.2589 -1.8775 -1.0603
 9255SOL     OW39397   0.846   0.300   4.955  0.4296 -0.5618  0.8174
 9255SOL    HW139398   0.931   0.275   4.990  1.1118  0.9092  0.1919
 9255SOL    HW239399   0.879   0.335   4.873  1.7132  0.5520  1.8142
 9256SOL     OW39400   2.325   3.963   4.396 -0.2505 -0.1679  0.9571
 9256SOL    HW139401   2.275   3.911   4.332  0.0907  0.3582  0.2582
 9256SOL    HW239402   2.401   3.905   4.406  0.1899  0.1458 -0.5646
 9257SOL     OW39403   1.625   3.707   3.934 -0.1470 -0.1645 -0.6907
 9257SOL    HW139404   1.713   3.715   3.896  1.3006 -1.8893  2.2624
 9257SOL    HW239405   1.614   3.783   3.990  1.5716 -1.0900  0.8901
 9258SOL     OW39406   3.838   2.418   1.833  0.5298  0.2798  0.3926
 9258SOL    HW139407   3.892   2.431   1.755  1.0283 -0.8808  0.5495
 9258SOL    HW239408   3.823   2.505   1.870 -0.3479 -0.1561  1.0553
 9259SOL     OW39409   1.954   2.403   4.728  0.3640 -0.3749 -0.2156
 9259SOL    HW139410   2.011   2.476   4.704  2.2355 -1.2474  1.5241
 9259SOL    HW239411   1.996   2.332   4.679 -0.3052 -0.2614 -0.9575
 9260SOL     OW39412   2.850   3.108   1.670 -0.1348  0.2379  0.4437
 9260SOL    HW139413   2.760   3.088   1.697  0.1514  0.3820  1.5112
 9260SOL    HW239414   2.871   3.193   1.707  0.3275  0.2869  0.0693
 9261SOL     OW39415   3.132   0.803   6.519 -0.0093 -0.3599 -0.0513
 9261SOL    HW139416   3.050   0.787   6.565 -0.4443  1.6498 -0.1227
 9261SOL    HW239417   3.175   0.718   6.531 -0.3879 -0.8865 -2.3292
 9262SOL     OW39418   2.687   3.012   8.583 -0.5129 -0.1308 -0.6452
 9262SOL    HW139419   2.710   2.925   8.551 -0.8667 -0.9151  1.2039
 9262SOL    HW239420   2.742   3.018   8.661 -1.9434 -1.7057  0.5026
 9263SOL     OW39421   1.960   3.258   2.734 -0.4221 -0.4977  0.1935
 9263SOL    HW139422   1.920   3.172   2.720 -1.1582 -0.2491  0.8100
 9263SOL    HW239423   2.027   3.246   2.801 -1.2662 -1.2344  0.8947
 9264SOL     OW39424   4.079   3.730   7.533  0.1339 -0.6442 -0.2141
 9264SOL    HW139425   3.994   3.726   7.490 -0.3192  1.2324  0.5228
 9264SOL    HW239426   4.086   3.634   7.538  0.9783 -0.5456  0.6478
 9265SOL     OW39427   1.254   0.037   8.259 -0.3563 -0.4080 -0.6137
 9265SOL    HW139428   1.159   0.048   8.258 -0.3851 -0.5576  0.1262
 9265SOL    HW239429   1.271   4.710   8.330  0.6052  0.5175 -0.0373
 9266SOL     OW39430   0.144   3.405  15.255 -0.1078 -0.1057  0.2112
 9266SOL    HW139431   0.178   3.484  15.297  0.5949 -0.7780  0.9151
 9266SOL    HW239432   0.096   3.443  15.182 -0.4730  1.1148  1.0850
 9267SOL     OW39433   4.606   2.042  15.162 -0.1313 -0.0458 -0.1360
 9267SOL    HW139434   4.560   1.996  15.091 -0.9218  0.6273 -0.0577
 9267SOL    HW239435   4.567   1.984  15.227  3.1100 -0.5537  1.3406
 9268SOL     OW39436   2.741   0.205   3.040 -0.4438  0.0937  0.2116
 9268SOL    HW139437   2.765   0.297   3.036  2.2171 -0.5877  0.4533
 9268SOL    HW239438   2.647   0.203   3.061 -0.5671  0.4167 -0.2996
 9269SOL     OW39439   3.838   1.918   6.905  0.2098  0.5207  0.5802
 9269SOL    HW139440   3.805   1.832   6.877 -0.2774  1.8677 -2.9087
 9269SOL    HW239441   3.929   1.904   6.882 -0.3840  0.1991 -1.5836
 9270SOL     OW39442   1.153   1.434  14.201 -0.3395  0.1300 -0.1334
 9270SOL    HW139443   1.165   1.379  14.278  0.2072 -2.1747 -1.8663
 9270SOL    HW239444   1.240   1.436  14.160 -0.5062 -1.0686 -0.5417
 9271SOL     OW39445   3.766   2.340   6.963  0.4080  0.3905  0.3249
 9271SOL    HW139446   3.831   2.343   6.893  0.8326 -0.8964  0.6711
 9271SOL    HW239447   3.704   2.273   6.934  2.6698 -1.2980 -0.5764
 9272SOL     OW39448   4.620   4.465   9.368  0.5680 -0.3532 -0.1667
 9272SOL    HW139449   4.585   4.446   9.281 -1.5980 -0.0171  0.6418
 9272SOL    HW239450   4.542   4.504   9.407 -0.2029 -1.5906 -0.4709
 9273SOL     OW39451   0.799   4.125  14.009 -0.5443  0.1215 -0.2527
 9273SOL    HW139452   0.834   4.213  13.997 -1.5743  0.6776  0.8006
 9273SOL    HW239453   0.712   4.140  14.046 -0.8848 -3.3493  0.3138
 9274SOL     OW39454   0.353   1.420   7.035 -0.1605  0.8516 -0.4367
 9274SOL    HW139455   0.300   1.367   7.094  2.2939  0.1242  1.1422
 9274SOL    HW239456   0.292   1.492   7.021 -2.8144 -1.5665 -1.1404
 9275SOL     OW39457   3.679   0.403  16.380 -0.3240  0.1293  0.1207
 9275SOL    HW139458   3.774   0.408  16.393 -0.1427 -2.3941 -0.3547
 9275SOL    HW239459   3.653   0.321  16.422  0.6086 -0.7336 -0.9796
 9276SOL     OW39460   3.091   3.852   0.593  0.3086  0.0017  0.1741
 9276SOL    HW139461   3.088   3.887   0.682 -0.7564  0.7930 -0.1827
 9276SOL    HW239462   3.100   3.758   0.611 -0.4319 -0.2673 -0.8436
 9277SOL     OW39463   3.317   1.186   7.317  0.1762  0.5754  0.0920
 9277SOL    HW139464   3.266   1.206   7.239 -0.7087 -0.2187  0.4736
 9277SOL    HW239465   3.342   1.096   7.294 -0.0493  0.4085  0.5041
 9278SOL     OW39466   2.761   3.868   2.303 -0.2853 -0.6337  0.0034
 9278SOL    HW139467   2.745   3.956   2.270  0.4673 -0.7661 -0.7424
 9278SOL    HW239468   2.675   3.829   2.292 -0.6902  0.0149  0.8836
 9279SOL     OW39469   0.446   1.536   2.050  0.0196  0.6212 -0.6095
 9279SOL    HW139470   0.512   1.513   1.984  0.6017  0.2115  0.1201
 9279SOL    HW239471   0.433   1.456   2.101  2.5955  0.0282 -0.8851
 9280SOL     OW39472   0.393   2.400  13.715 -0.1681  0.5689 -0.3129
 9280SOL    HW139473   0.341   2.323  13.694  0.9644 -0.4606  0.6218
 9280SOL    HW239474   0.465   2.371  13.771 -1.4257  2.8542  2.4692
 9281SOL     OW39475   0.880   3.820   1.317  0.2129  0.1666  0.3893
 9281SOL    HW139476   0.962   3.830   1.268 -0.2524  1.9295 -0.0375
 9281SOL    HW239477   0.823   3.796   1.244  0.0626 -0.2256  0.6383
 9282SOL     OW39478   2.596   3.034   2.521  0.0119  0.1270  0.5666
 9282SOL    HW139479   2.603   3.018   2.427  0.3330 -0.2676  0.6599
 9282SOL    HW239480   2.529   3.102   2.529 -1.0035 -0.7377 -0.6130
 9283SOL     OW39481   1.485   4.034  13.014 -0.1342 -0.4343 -0.0253
 9283SOL    HW139482   1.418   3.992  12.961 -1.8108  2.8124 -0.4931
 9283SOL    HW239483   1.558   3.972  13.025 -0.6555 -0.6490  2.2539
 9284SOL     OW39484   3.999   1.130   2.341  0.1816 -0.1937  0.0311
 9284SOL    HW139485   4.050   1.120   2.422  0.6728  2.4634  0.0328
 9284SOL    HW239486   4.051   1.201   2.303  4.1024 -2.7059  0.7415
 9285SOL     OW39487   3.471   1.164   7.037  0.0483 -0.2693  0.0089
 9285SOL    HW139488   3.490   1.232   6.972 -1.5591 -0.0404 -0.2106
 9285SOL    HW239489   3.542   1.178   7.101 -1.4655  0.8702  1.4253
 9286SOL     OW39490   3.973   1.737   7.586  0.2804  0.0264 -0.0042
 9286SOL    HW139491   3.916   1.791   7.640 -1.4374 -1.8736  0.0862
 9286SOL    HW239492   3.938   1.740   7.497 -2.6355 -2.1221  1.0833
 9287SOL     OW39493   2.380   3.298   9.101 -0.3996  0.0134 -0.0135
 9287SOL    HW139494   2.344   3.343   9.178 -1.4258  2.5093 -1.9545
 9287SOL    HW239495   2.368   3.359   9.029 -0.9990  1.0333  0.9510
 9288SOL     OW39496   4.445   1.995   1.900  0.2446  0.3214 -0.0753
 9288SOL    HW139497   4.439   1.921   1.961 -0.1729  3.2918  3.5057
 9288SOL    HW239498   4.540   1.996   1.891  0.1652 -3.0307 -1.0312
 9289SOL     OW39499   0.846   4.026   7.655  0.8098  0.0697 -0.2062
 9289SOL    HW139500   0.787   4.060   7.722 -0.3352 -2.3125 -0.0222
 9289SOL    HW239501   0.860   3.934   7.677  4.3359  0.4225 -0.9977
 9290SOL     OW39502   2.829   0.744   8.199 -0.4932 -0.1640 -0.2140
 9290SOL    HW139503   2.861   0.657   8.173  0.7996  0.3595 -0.3641
 9290SOL    HW239504   2.915   0.780   8.220  0.1893 -2.2027  0.5438
 9291SOL     OW39505   4.300   0.674   8.932  0.1323 -0.1625 -0.0493
 9291SOL    HW139506   4.212   0.645   8.909  0.7907 -1.8077 -0.4899
 9291SOL    HW239507   4.297   0.766   8.904  0.0631 -0.2217 -0.2359
 9292SOL     OW39508   2.226   2.170   1.566  0.1826  0.3934  0.9171
 9292SOL    HW139509   2.158   2.116   1.606  2.5903 -1.7441  2.1351
 9292SOL    HW239510   2.268   2.118   1.497  1.5338  1.9578  0.5398
 9293SOL     OW39511   3.880   2.758   9.600  0.6070  0.4030 -0.1781
 9293SOL    HW139512   3.798   2.716   9.628 -0.3511  1.2634 -1.6486
 9293SOL    HW239513   3.916   2.774   9.687 -0.0654  0.1920  0.1368
 9294SOL     OW39514   3.474   1.206   0.005 -0.4474 -1.0434 -0.1912
 9294SOL    HW139515   3.455   1.276  17.678  1.2162 -1.3926 -1.0980
 9294SOL    HW239516   3.421   1.134  17.706 -0.9563 -1.4263  1.3632
 9295SOL     OW39517   3.770   4.388   6.122  0.0916  0.0371  0.1837
 9295SOL    HW139518   3.840   4.366   6.060 -0.8544 -0.2364 -0.7887
 9295SOL    HW239519   3.709   4.318   6.099 -0.6854  0.9333 -0.5367
 9296SOL     OW39520   1.111   2.590  11.873 -0.2573  0.2132  0.1619
 9296SOL    HW139521   1.145   2.677  11.853 -0.1737  0.4611  1.4159
 9296SOL    HW239522   1.019   2.617  11.876  0.2752  2.0897 -0.1458
 9297SOL     OW39523   1.473   1.057   4.132  0.1097  0.7360  0.0785
 9297SOL    HW139524   1.443   0.977   4.175  1.5586  0.8350  1.2996
 9297SOL    HW239525   1.480   1.035   4.040 -0.6041 -1.2923  0.5173
 9298SOL     OW39526   1.842   4.453   9.034 -0.3870 -0.3541  0.4470
 9298SOL    HW139527   1.831   4.361   9.008  1.5709 -0.6978  0.8453
 9298SOL    HW239528   1.773   4.496   8.983 -0.7480 -0.6164  0.7112
 9299SOL     OW39529   3.526   3.724  10.742  0.0159  0.4412 -0.1601
 9299SOL    HW139530   3.607   3.698  10.785 -0.0976  2.4697  1.2787
 9299SOL    HW239531   3.473   3.659  10.787  2.0441 -0.6993  0.5806
 9300SOL     OW39532   3.342   2.043  10.996 -0.4398 -0.0007 -0.2075
 9300SOL    HW139533   3.401   2.087  11.058  0.1363 -1.9146  0.5955
 9300SOL    HW239534   3.275   2.106  11.020  0.5853  1.4095 -1.0477
 9301SOL     OW39535   0.123   4.266  16.729  0.1312 -0.2506  0.1646
 9301SOL    HW139536   0.047   4.228  16.773  0.1565 -0.7939 -0.2612
 9301SOL    HW239537   0.072   4.323  16.672  1.1933  1.0299  0.5052
 9302SOL     OW39538   4.328   2.841  10.065 -0.3482 -0.8320 -0.0729
 9302SOL    HW139539   4.335   2.919  10.012  0.6332 -0.2596  0.8993
 9302SOL    HW239540   4.253   2.868  10.119  0.3036 -0.8474  0.8414
 9303SOL     OW39541   3.828   4.686   3.640 -0.5383 -0.1445 -0.4092
 9303SOL    HW139542   3.763   4.702   3.708 -1.4253  0.3931 -1.3827
 9303SOL    HW239543   3.837   0.035   3.593  0.6418 -0.5869 -0.9723
 9304SOL     OW39544   1.734   1.314  11.010  0.1773  0.2874 -0.2965
 9304SOL    HW139545   1.777   1.230  10.997 -0.3351 -0.1579  0.8555
 9304SOL    HW239546   1.807   1.367  10.977  1.0254  0.6254  2.1808
 9305SOL     OW39547   4.595   0.255   3.803 -0.2969  0.2529  0.1796
 9305SOL    HW139548   4.613   0.171   3.845  1.1085 -0.0756 -1.0843
 9305SOL    HW239549   4.671   0.303   3.837 -1.0458  0.4260  1.6240
 9306SOL     OW39550   0.977   2.054  11.182  0.1523 -0.4880 -0.0655
 9306SOL    HW139551   1.031   2.023  11.109  0.5954 -3.1628  1.3887
 9306SOL    HW239552   0.912   1.984  11.178 -1.2207  0.7306  1.3610
 9307SOL     OW39553   0.195   2.754   6.714 -0.8548 -0.3514 -0.0654
 9307SOL    HW139554   0.290   2.748   6.717 -0.8893 -1.0901 -0.5324
 9307SOL    HW239555   0.175   2.843   6.684  0.4806 -0.5120 -1.3923
 9308SOL     OW39556   2.001   2.548   1.238  0.3434 -0.7252  0.0402
 9308SOL    HW139557   2.075   2.489   1.224 -1.1923 -2.5715 -0.2498
 9308SOL    HW239558   1.934   2.510   1.182  0.2482 -0.8751  0.2562
 9309SOL     OW39559   1.746   1.100   9.427  0.5441 -0.6165 -0.5051
 9309SOL    HW139560   1.746   1.179   9.480 -2.0424 -0.8028 -0.2018
 9309SOL    HW239561   1.662   1.061   9.452  1.0293 -0.3502  1.5231
 9310SOL     OW39562   2.443   2.271   7.255  0.2151 -0.2803  0.1539
 9310SOL    HW139563   2.349   2.255   7.248 -0.1044  1.8724 -0.2531
 9310SOL    HW239564   2.463   2.278   7.349  0.0939 -2.0859  0.3279
 9311SOL     OW39565   1.026   2.727   5.262  0.1581 -0.6534  0.6576
 9311SOL    HW139566   1.085   2.656   5.286  0.2317 -0.8863 -0.2310
 9311SOL    HW239567   1.065   2.737   5.175 -1.6511 -1.6325 -0.2604
 9312SOL     OW39568   2.528   4.324   5.217 -0.0642  0.0164 -0.0442
 9312SOL    HW139569   2.587   4.380   5.267 -1.2147  1.1656  0.0430
 9312SOL    HW239570   2.450   4.370   5.250  0.2103 -0.0977  0.7814
 9313SOL     OW39571   2.540   2.030   6.007  0.0801  0.3131 -0.7195
 9313SOL    HW139572   2.524   2.027   6.101  3.0653  1.7865 -0.1630
 9313SOL    HW239573   2.484   2.102   5.979 -0.7495 -0.6132 -1.4415
 9314SOL     OW39574   4.039   1.136  15.604  0.1990  0.6479  0.3150
 9314SOL    HW139575   4.013   1.153  15.514  0.1679  1.5002  0.4864
 9314SOL    HW239576   4.083   1.219  15.623 -0.3541  0.7509  1.1583
 9315SOL     OW39577   0.625   0.677   2.450 -0.3021  0.5286  0.0994
 9315SOL    HW139578   0.596   0.725   2.372  1.8880 -0.6222 -1.4289
 9315SOL    HW239579   0.578   0.732   2.513 -2.2633  0.0977 -1.0162
 9316SOL     OW39580   0.706   4.441   5.272 -0.9077  0.4004  0.1234
 9316SOL    HW139581   0.797   4.448   5.300 -0.2135 -0.1317 -1.9922
 9316SOL    HW239582   0.682   4.365   5.325 -0.5310  0.9333  1.0670
 9317SOL     OW39583   2.002   1.133   1.655  0.0218 -0.0759  0.0692
 9317SOL    HW139584   2.066   1.062   1.646  0.1865  0.3610 -2.1455
 9317SOL    HW239585   1.986   1.154   1.563 -1.0274 -0.5228  0.1520
 9318SOL     OW39586   1.581   0.291  11.142 -0.7390 -0.2611 -0.2389
 9318SOL    HW139587   1.489   0.281  11.120 -1.2576 -0.1508  1.8582
 9318SOL    HW239588   1.624   0.314  11.060  0.3343 -1.8513 -0.1287
 9319SOL     OW39589   3.209   4.693   1.693 -0.5693 -0.0407  0.2120
 9319SOL    HW139590   3.244   4.641   1.621  2.0231  0.0820  1.3983
 9319SOL    HW239591   3.268   0.034   1.701  0.4133 -0.7916  0.0328
 9320SOL     OW39592   2.539   0.681   5.563 -0.3002  0.2623  0.7341
 9320SOL    HW139593   2.475   0.613   5.543  0.8983 -0.7247  0.2490
 9320SOL    HW239594   2.529   0.737   5.486  1.8709  1.3715  1.2703
 9321SOL     OW39595   2.858   3.602   7.458 -0.6657  0.2108  0.1868
 9321SOL    HW139596   2.906   3.535   7.410  0.8512  1.1154  0.4339
 9321SOL    HW239597   2.771   3.562   7.458  0.7004 -2.7649 -0.7820
 9322SOL     OW39598   3.072   2.001   6.155 -0.1697 -0.1295  0.0850
 9322SOL    HW139599   2.995   2.016   6.209  0.4347  0.3395  0.8159
 9322SOL    HW239600   3.115   2.086   6.162 -1.3106  0.4510  0.0161
 9323SOL     OW39601   0.778   2.484   9.411 -0.1392 -0.2122  0.3306
 9323SOL    HW139602   0.714   2.496   9.482 -3.0656 -0.4970 -2.2511
 9323SOL    HW239603   0.822   2.567   9.429  0.0991 -0.2696  0.0086
 9324SOL     OW39604   0.515   4.700   4.189  0.3043 -1.0881 -0.1068
 9324SOL    HW139605   0.532   0.050   4.232 -3.2532 -1.6881  2.4029
 9324SOL    HW239606   0.422   4.697   4.210 -0.0934  2.7665 -1.2198
 9325SOL     OW39607   0.587   3.144  15.167  0.3374  0.1421 -0.4379
 9325SOL    HW139608   0.546   3.185  15.091  0.9071  1.3175 -0.1117
 9325SOL    HW239609   0.527   3.158  15.240  0.6818 -1.8177  0.2278
 9326SOL     OW39610   1.723   1.318   4.387  0.5577  0.6832  0.2325
 9326SOL    HW139611   1.777   1.394   4.410  0.3827  0.6240  0.8290
 9326SOL    HW239612   1.697   1.293   4.476 -0.7882  1.3586  0.0296
 9327SOL     OW39613   0.528   2.490  15.219 -0.4317  0.5390 -0.3133
 9327SOL    HW139614   0.525   2.561  15.282 -1.6114 -0.3631  0.6561
 9327SOL    HW239615   0.469   2.435  15.271  1.4408 -1.4623 -0.3110
 9328SOL     OW39616   3.359   2.620  12.792  0.9005  0.2111  0.1017
 9328SOL    HW139617   3.295   2.682  12.827 -0.1023 -0.0063 -1.3340
 9328SOL    HW239618   3.402   2.680  12.731  0.6341  2.0723  1.7496
 9329SOL     OW39619   0.716   1.757   7.149 -0.1425 -0.0064  0.7169
 9329SOL    HW139620   0.669   1.794   7.074 -3.2293 -0.4260  2.4734
 9329SOL    HW239621   0.685   1.667   7.138 -0.3071  0.2543 -0.9537
 9330SOL     OW39622   1.434   3.533   4.457 -0.2850  0.0852  0.3610
 9330SOL    HW139623   1.440   3.467   4.527 -2.0274  0.0790  0.5103
 9330SOL    HW239624   1.465   3.487   4.379 -1.3702 -2.0547  1.1684
 9331SOL     OW39625   3.625   1.609   6.190 -0.1009  0.2525 -0.8431
 9331SOL    HW139626   3.665   1.643   6.110  1.5736  1.2233  0.4151
 9331SOL    HW239627   3.706   1.603   6.241 -0.0365 -1.1604 -1.1132
 9332SOL     OW39628   3.469   1.635   0.365 -0.4074 -0.0554 -0.2695
 9332SOL    HW139629   3.499   1.574   0.297  0.5466 -1.3353  1.2974
 9332SOL    HW239630   3.541   1.697   0.372  0.4246 -0.9460 -0.9683
 9333SOL     OW39631   4.417   2.195  13.239 -0.2691 -0.7371  0.0502
 9333SOL    HW139632   4.339   2.210  13.186  0.3376  0.8001 -0.4118
 9333SOL    HW239633   4.418   2.099  13.231  1.7426 -0.5817 -1.7912
 9334SOL     OW39634   0.614   2.315   8.509 -0.3231  0.9871  0.2649
 9334SOL    HW139635   0.586   2.258   8.437  0.2663 -0.3667  1.1155
 9334SOL    HW239636   0.706   2.287   8.517 -0.6378  0.3819  1.7142
 9335SOL     OW39637   0.533   1.685   3.772  0.0364  0.4344  0.1224
 9335SOL    HW139638   0.579   1.767   3.757  0.7369  0.0972  0.4082
 9335SOL    HW239639   0.597   1.626   3.731  0.3421  0.3944  0.6551
 9336SOL     OW39640   2.507   4.348  15.481  0.1083  0.3851  0.2566
 9336SOL    HW139641   2.418   4.313  15.470  0.4167 -0.1882 -0.4265
 9336SOL    HW239642   2.497   4.420  15.419  0.5389 -0.9649 -1.3913
 9337SOL     OW39643   1.866   2.646   6.401  0.6290  0.6993 -0.0336
 9337SOL    HW139644   1.818   2.593   6.338  1.2231 -0.0009  0.0953
 9337SOL    HW239645   1.835   2.599   6.478 -0.1682 -0.7598 -1.2648
 9338SOL     OW39646   3.052   2.836   7.582 -0.0361 -0.2595 -0.3459
 9338SOL    HW139647   2.973   2.875   7.547 -1.1237 -0.8401  1.4679
 9338SOL    HW239648   3.026   2.750   7.615  1.3563 -0.2848  0.7249
 9339SOL     OW39649   0.716   1.190   2.197 -0.2845  0.7779 -0.2652
 9339SOL    HW139650   0.650   1.258   2.213  1.4481  2.4684 -0.3551
 9339SOL    HW239651   0.749   1.173   2.285 -1.5137  2.1875  0.4669
 9340SOL     OW39652   2.419   3.658   6.249 -0.1020  0.2555  0.0635
 9340SOL    HW139653   2.465   3.646   6.332 -1.4271  1.0567  0.9204
 9340SOL    HW239654   2.479   3.706   6.192  1.0495  0.1309  1.1725
 9341SOL     OW39655   3.101   0.795   7.942 -0.3680  0.4670  0.1689
 9341SOL    HW139656   3.062   0.867   7.992 -0.3025 -0.7296  1.9351
 9341SOL    HW239657   3.187   0.833   7.924  0.5606 -1.3738  0.6779
 9342SOL     OW39658   3.833   2.145   8.272 -0.6198  0.1828 -0.1182
 9342SOL    HW139659   3.922   2.151   8.307 -0.8089 -0.3656  0.4505
 9342SOL    HW239660   3.785   2.096   8.339  2.4089 -2.0141  0.4349
 9343SOL     OW39661   1.575   1.218   8.566 -0.3863  0.5243 -0.1466
 9343SOL    HW139662   1.515   1.152   8.599  0.0867  0.2451  0.1502
 9343SOL    HW239663   1.554   1.215   8.472  0.0009  2.6393 -0.3134
 9344SOL     OW39664   1.984   1.750  14.070  0.1518 -0.0817  0.0989
 9344SOL    HW139665   1.967   1.704  13.987  1.0542  0.6106 -0.4659
 9344SOL    HW239666   2.069   1.791  14.054  0.5610 -1.1324 -0.4258
 9345SOL     OW39667   0.011   3.177  14.784 -0.1472 -0.1964  0.6032
 9345SOL    HW139668   0.065   3.103  14.811  0.8888  0.9785  1.7272
 9345SOL    HW239669   0.084   3.226  14.747 -0.2751 -1.4644 -1.3785
 9346SOL     OW39670   1.369   1.252   3.905 -0.0793 -0.0239  0.0945
 9346SOL    HW139671   1.310   1.230   3.977 -2.3181  0.7324 -1.5017
 9346SOL    HW239672   1.318   1.320   3.861  0.7141  0.2629 -0.3906
 9347SOL     OW39673   0.698   3.185   1.176 -0.1110 -0.0489 -0.4928
 9347SOL    HW139674   0.784   3.148   1.199 -1.2399 -1.5496  1.3373
 9347SOL    HW239675   0.639   3.123   1.219 -0.6975  0.1394 -1.0172
 9348SOL     OW39676   1.472   4.562   8.351 -0.3389  0.8333 -0.2679
 9348SOL    HW139677   1.555   4.517   8.338 -0.3611  0.6467  0.2305
 9348SOL    HW239678   1.477   4.614   8.271  1.8175  0.4215 -0.3920
 9349SOL     OW39679   0.820   3.919  13.451 -0.3277  0.7796  0.5002
 9349SOL    HW139680   0.893   3.958  13.499 -0.6203 -0.2038  1.7308
 9349SOL    HW239681   0.872   3.840  13.438 -2.3313 -0.5387  0.5818
 9350SOL     OW39682   3.222   0.901  11.804  0.0573 -0.6868 -0.3412
 9350SOL    HW139683   3.231   0.971  11.741  0.7402  0.8031  1.4043
 9350SOL    HW239684   3.312   0.882  11.831 -0.3196 -1.1784  0.5926
 9351SOL     OW39685   1.318   2.119   4.238 -0.1532  0.0270 -0.1610
 9351SOL    HW139686   1.315   2.092   4.146  1.1514 -1.0607  0.1090
 9351SOL    HW239687   1.244   2.175   4.260 -3.3235 -2.7493 -3.9166
 9352SOL     OW39688   1.122   3.877   7.051 -0.6264  0.2534  0.0592
 9352SOL    HW139689   1.045   3.879   7.108 -0.1612  2.7793  0.6315
 9352SOL    HW239690   1.129   3.973   7.054  1.7516  0.0903 -0.2660
 9353SOL     OW39691   4.484   4.289   3.538 -0.2319  0.1713 -0.1063
 9353SOL    HW139692   4.459   4.380   3.553 -1.1856 -0.3547  1.4861
 9353SOL    HW239693   4.475   4.254   3.627  0.5322 -1.4208 -0.6444
 9354SOL     OW39694   0.696   0.932  10.610 -0.2658  0.0947 -0.3586
 9354SOL    HW139695   0.618   0.944  10.663  0.5798 -0.3677  0.9842
 9354SOL    HW239696   0.682   0.844  10.577  0.5392 -0.7841  1.6551
 9355SOL     OW39697   2.011   3.791   2.330  0.2450 -0.4599 -0.1370
 9355SOL    HW139698   1.997   3.730   2.403  0.6761 -0.7049 -0.2533
 9355SOL    HW239699   2.014   3.877   2.372 -0.3555 -1.0055  1.0317
 9356SOL     OW39700   3.847   2.958   3.505 -0.1855 -0.3976  0.2216
 9356SOL    HW139701   3.808   2.874   3.531 -2.5422  0.8059  0.5517
 9356SOL    HW239702   3.930   2.929   3.466 -0.3729  0.7482 -1.0375
 9357SOL     OW39703   0.422   2.750  15.659  0.1390  0.3492 -0.0834
 9357SOL    HW139704   0.351   2.698  15.696  1.4326 -1.3869 -0.0573
 9357SOL    HW239705   0.482   2.738  15.733  0.8079  0.8421 -0.5396
 9358SOL     OW39706   3.065   4.185   1.650 -0.4343 -0.6042 -0.1996
 9358SOL    HW139707   3.055   4.153   1.561  1.6185  0.2260 -0.7163
 9358SOL    HW239708   3.148   4.145   1.675 -0.6632 -1.0494 -0.1433
 9359SOL     OW39709   2.899   4.303  12.955 -0.2853 -0.0749  0.9124
 9359SOL    HW139710   2.926   4.367  13.021 -3.8702  0.8805  1.4551
 9359SOL    HW239711   2.888   4.366  12.883  0.2393 -2.5883 -1.3522
 9360SOL     OW39712   1.972   3.481   3.836 -0.5918  0.1287  0.1368
 9360SOL    HW139713   1.925   3.563   3.842 -0.0764  0.3209  1.4946
 9360SOL    HW239714   2.015   3.469   3.921  1.0839 -1.8001 -0.9662
 9361SOL     OW39715   0.196   4.020   0.306 -0.3151 -0.2471  0.4209
 9361SOL    HW139716   0.222   4.112   0.292  1.1086 -0.8604 -0.9492
 9361SOL    HW239717   0.257   4.000   0.376  2.2261  1.4535 -1.3181
 9362SOL     OW39718   3.316   3.370  11.428  0.4412  0.0871 -0.5907
 9362SOL    HW139719   3.378   3.340  11.361  1.7180  0.0621  0.6017
 9362SOL    HW239720   3.361   3.447  11.463 -0.7068  0.7772 -0.6373
 9363SOL     OW39721   0.956   0.973  10.667  0.1756  0.1099 -0.2753
 9363SOL    HW139722   0.933   1.016  10.749  1.1338  0.4885 -0.2078
 9363SOL    HW239723   0.864   0.969  10.639 -0.1468 -0.6639  0.9275
 9364SOL     OW39724   4.681   4.665   6.579  0.0657 -0.5043 -0.5983
 9364SOL    HW139725   4.659   4.702   6.493  3.2276 -0.4933 -1.4084
 9364SOL    HW239726   0.042   4.651   6.571 -0.2077 -2.2265 -0.6919
 9365SOL     OW39727   2.927   2.094  17.166 -0.0201 -0.6959 -0.1640
 9365SOL    HW139728   2.944   2.003  17.189  0.8152  0.1212  2.3506
 9365SOL    HW239729   2.937   2.135  17.251 -0.4557 -0.9584  0.0151
 9366SOL     OW39730   0.086   2.893   4.253  0.5048 -0.2584  0.2714
 9366SOL    HW139731   0.017   2.945   4.294  0.4733 -0.4455  0.4575
 9366SOL    HW239732   0.165   2.920   4.300  2.4032  0.8529 -3.6005
 9367SOL     OW39733   4.129   2.669   0.563 -0.4481  0.1538 -0.1895
 9367SOL    HW139734   4.192   2.600   0.583 -0.1205  1.0051  1.6843
 9367SOL    HW239735   4.045   2.632   0.591  0.7492 -0.8297  2.1064
 9368SOL     OW39736   1.457   2.104   8.992 -0.0099  0.0572  0.5226
 9368SOL    HW139737   1.415   2.061   8.918  1.4172 -1.2888  0.4915
 9368SOL    HW239738   1.414   2.189   8.979 -1.5569 -0.9721 -1.0591
 9369SOL     OW39739   4.044   0.778   2.673 -0.5867 -0.2059  0.0910
 9369SOL    HW139740   4.011   0.779   2.583  0.4262  1.4888 -0.2530
 9369SOL    HW239741   4.031   0.867   2.706  1.8628  0.2305 -0.1352
 9370SOL     OW39742   4.193   4.628  16.931  0.8386  0.0810 -0.7367
 9370SOL    HW139743   4.219   4.539  16.953 -1.0397 -1.1465 -3.5918
 9370SOL    HW239744   4.117   4.621  16.873 -0.3412 -0.4679  0.8722
 9371SOL     OW39745   1.081   0.013   4.924  0.1699 -0.1980 -0.1063
 9371SOL    HW139746   1.053   4.670   4.975 -1.3003  0.2390 -0.2709
 9371SOL    HW239747   1.055   4.722   4.836  0.0617  0.4258 -0.2443
 9372SOL     OW39748   0.313   0.338  16.060 -0.5320 -0.2705  0.3711
 9372SOL    HW139749   0.275   0.360  15.975 -0.8595  1.6303  1.0004
 9372SOL    HW239750   0.367   0.268  16.025  0.7770  2.6087 -3.3129
 9373SOL     OW39751   3.202   0.970   9.330  0.5493 -0.2229 -0.0862
 9373SOL    HW139752   3.287   0.932   9.353  0.4948  0.0964  0.6336
 9373SOL    HW239753   3.178   0.933   9.245  2.0365  1.1564 -1.0995
 9374SOL     OW39754   3.296   1.434  16.290 -0.1577 -0.2078  0.3662
 9374SOL    HW139755   3.298   1.374  16.365  2.2652 -0.1921  0.3029
 9374SOL    HW239756   3.210   1.413  16.253 -0.4678  0.3410  0.7818
 9375SOL     OW39757   3.697   0.037  14.045 -0.0162  0.0819 -0.1195
 9375SOL    HW139758   3.715   0.061  13.954  0.7212 -1.0802 -0.2710
 9375SOL    HW239759   3.692   0.124  14.085  0.3160 -0.4015  0.9743
 9376SOL     OW39760   4.582   3.724   1.907 -0.4871  0.2256  0.0837
 9376SOL    HW139761   4.584   3.657   1.976 -0.8504  0.1050 -0.0226
 9376SOL    HW239762   4.601   3.668   1.832  1.1873 -1.4228  1.7128
 9377SOL     OW39763   3.888   4.442   4.251 -0.3385  0.3104  0.5950
 9377SOL    HW139764   3.851   4.388   4.181 -1.0643  2.0253 -0.3469
 9377SOL    HW239765   3.812   4.499   4.264  1.3126  2.2766  1.5819
 9378SOL     OW39766   1.560   0.327   1.322  0.3624 -0.3688  0.2337
 9378SOL    HW139767   1.603   0.392   1.267  2.5210 -1.6176  0.4330
 9378SOL    HW239768   1.533   0.378   1.397 -1.0687  0.2005 -0.6797
 9379SOL     OW39769   4.223   4.183   7.489 -0.1854  0.2338 -0.6738
 9379SOL    HW139770   4.304   4.176   7.439  0.3126  2.0027 -0.0949
 9379SOL    HW239771   4.172   4.117   7.442  2.0183 -1.5967 -0.5263
 9380SOL     OW39772   3.303   2.982   6.811 -0.0540  0.2175 -0.3954
 9380SOL    HW139773   3.281   2.980   6.904 -1.1987  2.9919 -0.6059
 9380SOL    HW239774   3.382   3.036   6.813  0.4229 -0.5147  0.5539
 9381SOL     OW39775   2.419   0.511   7.725 -0.1479  0.1169 -0.0741
 9381SOL    HW139776   2.399   0.601   7.700 -1.7135 -0.3056 -0.3354
 9381SOL    HW239777   2.466   0.476   7.649  2.1364  0.6510  1.0970
 9382SOL     OW39778   0.638   2.864  11.232 -0.1550 -0.2770 -0.6679
 9382SOL    HW139779   0.550   2.849  11.198 -0.4492 -0.8440  0.3820
 9382SOL    HW239780   0.624   2.950  11.273  0.0099 -0.3919 -0.3710
 9383SOL     OW39781   1.611   0.221   0.390 -0.1544  0.5410  0.6098
 9383SOL    HW139782   1.606   0.200   0.484  0.1570  0.4802  0.6140
 9383SOL    HW239783   1.673   0.294   0.391  1.1468 -0.5596  1.3181
 9384SOL     OW39784   2.616   4.465   2.500  0.1170  0.0666 -0.2823
 9384SOL    HW139785   2.677   4.504   2.563 -0.3531  2.0796 -1.0969
 9384SOL    HW239786   2.545   4.529   2.499 -0.5568 -0.6677  0.8413
 9385SOL     OW39787   1.443   4.139   9.587  0.4509  0.2320 -0.1813
 9385SOL    HW139788   1.459   4.223   9.630  1.0984 -0.3612  0.7515
 9385SOL    HW239789   1.422   4.164   9.497 -1.9704 -1.3643 -0.0408
 9386SOL     OW39790   4.252   2.769   2.594 -0.6803 -0.2236  0.4177
 9386SOL    HW139791   4.305   2.841   2.558 -0.4102 -2.7150 -4.1692
 9386SOL    HW239792   4.257   2.799   2.685  1.6087 -1.1299  0.5936
 9387SOL     OW39793   4.042   4.125   2.346 -0.2723 -0.1643 -0.2932
 9387SOL    HW139794   4.115   4.086   2.394  1.0252  0.6725 -1.6039
 9387SOL    HW239795   4.059   4.216   2.367 -3.4496  0.2529  0.5045
 9388SOL     OW39796   0.239   3.791   7.220 -0.1525 -0.5849 -0.4820
 9388SOL    HW139797   0.291   3.759   7.146  0.2771 -1.8990  0.3706
 9388SOL    HW239798   0.199   3.711   7.255  1.6055 -1.0300  0.5026
 9389SOL     OW39799   0.148   3.150   9.956 -0.0637  0.0830  0.1092
 9389SOL    HW139800   0.139   3.191   9.870  1.7321  0.8913  0.3103
 9389SOL    HW239801   0.174   3.230  10.001  1.1571 -0.5889  0.6042
 9390SOL     OW39802   1.729   3.531   3.203  0.3441  0.3911  0.3622
 9390SOL    HW139803   1.744   3.531   3.109  1.2199  0.2297  0.4984
 9390SOL    HW239804   1.636   3.513   3.213  0.2684  0.8095  0.4055
 9391SOL     OW39805   2.509   1.613   2.469 -0.4331 -0.0396 -0.0283
 9391SOL    HW139806   2.590   1.627   2.421 -0.2928 -0.6236  0.0307
 9391SOL    HW239807   2.515   1.673   2.544 -2.1424  1.4775 -1.1284
 9392SOL     OW39808   3.006   0.307   2.698 -0.0804 -0.4065  0.4789
 9392SOL    HW139809   2.989   0.230   2.753 -2.1763  0.2549  0.7704
 9392SOL    HW239810   3.012   0.380   2.759  3.0110 -0.8043  0.6100
 9393SOL     OW39811   0.825   1.194   6.481  0.3800 -0.5266  0.1059
 9393SOL    HW139812   0.764   1.130   6.444  1.2784 -0.7135 -1.0774
 9393SOL    HW239813   0.903   1.178   6.428  0.0397 -0.1717 -0.5084
 9394SOL     OW39814   2.719   2.160   4.715  0.1668 -0.1775 -0.7140
 9394SOL    HW139815   2.770   2.119   4.785 -1.1384 -1.9304 -0.7850
 9394SOL    HW239816   2.657   2.206   4.772  0.5404 -0.1456 -0.3345
 9395SOL     OW39817   2.016   1.254  12.916 -0.2557  0.5068  0.5122
 9395SOL    HW139818   2.092   1.303  12.884  0.2057  0.2137  1.1582
 9395SOL    HW239819   1.990   1.309  12.990  3.2418  1.4025  1.0987
 9396SOL     OW39820   1.772   0.133   4.147  0.4307  0.4573 -0.0009
 9396SOL    HW139821   1.736   0.196   4.209 -0.3954 -0.9871  0.9762
 9396SOL    HW239822   1.804   0.067   4.209 -3.4264 -0.9999  0.4044
 9397SOL     OW39823   3.720   3.812  10.507  0.0071  0.0398  0.1407
 9397SOL    HW139824   3.659   3.784  10.575 -0.5047 -0.0120 -0.3377
 9397SOL    HW239825   3.807   3.812  10.548 -0.9696 -1.1054  2.1496
 9398SOL     OW39826   2.395   0.847   1.879 -0.0645 -0.1011  0.2775
 9398SOL    HW139827   2.399   0.939   1.906 -1.3378 -0.0693  0.3491
 9398SOL    HW239828   2.306   0.836   1.912  0.0498 -0.6677  0.4002
 9399SOL     OW39829   3.571   1.801   4.670 -0.0081  0.1028  0.3443
 9399SOL    HW139830   3.625   1.724   4.684 -1.3359 -0.8393  0.3119
 9399SOL    HW239831   3.484   1.761   4.666 -0.4831  1.0653  0.7918
 9400SOL     OW39832   0.826   0.140   4.068 -0.0775 -0.8511  0.2499
 9400SOL    HW139833   0.732   0.142   4.052 -0.1279 -0.3936  0.6012
 9400SOL    HW239834   0.832   0.118   4.161 -3.5669 -1.0185  0.4393
 9401SOL     OW39835   3.301   1.107   4.845 -0.1153  0.5742 -0.1667
 9401SOL    HW139836   3.273   1.040   4.907 -1.0852  2.3069  1.2817
 9401SOL    HW239837   3.306   1.060   4.762 -0.0770 -0.2272  0.2904
 9402SOL     OW39838   0.948   2.383   6.582 -0.3190 -0.0153  0.3283
 9402SOL    HW139839   0.972   2.292   6.602 -1.7506 -0.1564  1.4273
 9402SOL    HW239840   1.006   2.411   6.511 -0.3832 -0.3063  0.1598
 9403SOL     OW39841   1.830   0.261   3.652  0.0483  0.0331 -0.3983
 9403SOL    HW139842   1.884   0.328   3.608  1.4082 -1.6496 -1.2855
 9403SOL    HW239843   1.866   0.267   3.740  1.0007  0.0763 -0.7903
 9404SOL     OW39844   0.118   3.064   5.279 -0.8955 -0.0713  0.3606
 9404SOL    HW139845   0.204   3.059   5.238 -0.2032 -2.6931  2.0898
 9404SOL    HW239846   0.097   2.971   5.269 -0.9990  0.1557 -1.4540
 9405SOL     OW39847   2.623   0.255   9.676  0.0486  0.5896 -0.0766
 9405SOL    HW139848   2.714   0.256   9.648  0.1479 -0.1129  0.2020
 9405SOL    HW239849   2.605   0.348   9.665  2.0868  0.9336 -0.4220
 9406SOL     OW39850   4.579   2.113   4.521 -0.0227  0.0173 -0.1432
 9406SOL    HW139851   4.515   2.138   4.454 -1.3384 -0.8996  0.7832
 9406SOL    HW239852   4.634   2.051   4.474  1.2872  2.3761 -1.7041
 9407SOL     OW39853   4.308   4.405   4.822  0.4265 -0.9210  0.0260
 9407SOL    HW139854   4.239   4.441   4.766  0.7579  2.0454  1.4898
 9407SOL    HW239855   4.279   4.411   4.913 -0.2479  2.2094 -0.3900
 9408SOL     OW39856   0.187   4.258   2.745 -0.1961  0.4777 -0.0028
 9408SOL    HW139857   0.189   4.340   2.793 -4.1511  0.8805 -0.5990
 9408SOL    HW239858   0.117   4.213   2.792 -0.0023 -0.6348 -0.7567
 9409SOL     OW39859   0.612   2.302   7.594  0.0515 -0.0399 -0.0277
 9409SOL    HW139860   0.542   2.363   7.574  0.4464 -0.0409 -1.4224
 9409SOL    HW239861   0.660   2.311   7.512 -0.8109 -0.7968 -0.6045
 9410SOL     OW39862   3.327   2.698   4.874 -0.5433 -0.5684  0.2200
 9410SOL    HW139863   3.258   2.698   4.940  0.1137 -1.4445  0.9042
 9410SOL    HW239864   3.364   2.610   4.880  0.9982  0.0405 -0.1444
 9411SOL     OW39865   0.019   3.505   9.414 -0.2580 -0.1962  0.1083
 9411SOL    HW139866   4.679   3.456   9.447  0.4531 -0.2122  1.6964
 9411SOL    HW239867   0.048   3.455   9.338  0.3956 -0.0836  0.2780
 9412SOL     OW39868   2.258   3.727   3.437  0.1086 -0.1948 -0.3366
 9412SOL    HW139869   2.343   3.731   3.393  0.1438 -0.8950 -0.3245
 9412SOL    HW239870   2.233   3.640   3.406  1.8273 -0.2985 -1.4335
 9413SOL     OW39871   1.057   2.864   7.632  0.6211 -0.7527  0.3272
 9413SOL    HW139872   1.030   2.794   7.691 -1.3710  0.4178  0.8339
 9413SOL    HW239873   1.097   2.926   7.693 -1.6705 -1.3308  2.4360
 9414SOL     OW39874   0.584   3.148   8.274 -0.0353  0.5464  0.3216
 9414SOL    HW139875   0.529   3.096   8.331  3.1909 -1.8858  1.2320
 9414SOL    HW239876   0.554   3.238   8.279  0.6274  0.7934 -0.0672
 9415SOL     OW39877   2.105   1.310   1.096 -0.1092 -0.0064 -0.4626
 9415SOL    HW139878   2.145   1.224   1.084  2.3030  1.1329 -0.6036
 9415SOL    HW239879   2.024   1.280   1.055 -0.4434  1.0066 -0.5478
 9416SOL     OW39880   2.708   1.146   1.553 -0.1053 -0.1216 -0.4763
 9416SOL    HW139881   2.649   1.131   1.627 -1.2978  3.8371 -0.6690
 9416SOL    HW239882   2.784   1.095   1.582 -0.3234  0.0611  0.4037
 9417SOL     OW39883   0.630   1.720   4.300 -0.3894  0.3456 -0.0882
 9417SOL    HW139884   0.576   1.671   4.238 -1.9781 -0.3570  1.8564
 9417SOL    HW239885   0.709   1.667   4.301 -1.0068 -0.5907 -1.5595
 9418SOL     OW39886   1.606   3.031  11.905 -0.4167 -0.0592  0.2434
 9418SOL    HW139887   1.521   3.052  11.866  0.7846  0.2049 -2.2047
 9418SOL    HW239888   1.574   2.985  11.983  1.6851 -0.9039  0.5974
 9419SOL     OW39889   4.629   4.501   8.568 -0.2473 -0.2107 -0.2300
 9419SOL    HW139890   4.674   4.579   8.534  2.3565 -0.9046  1.5918
 9419SOL    HW239891   4.596   4.533   8.652  0.1997  1.1087 -0.5483
 9420SOL     OW39892   3.291   4.691  12.812  0.0658 -0.5228 -0.0840
 9420SOL    HW139893   3.277   4.598  12.828 -2.2735 -0.1990 -0.1494
 9420SOL    HW239894   3.386   4.695  12.805  0.0583 -0.1378  0.0115
 9421SOL     OW39895   1.993   2.294   2.278 -0.1366  0.3835  0.0148
 9421SOL    HW139896   1.983   2.370   2.220 -1.7151 -1.3973 -2.0431
 9421SOL    HW239897   2.034   2.232   2.218 -0.7297  1.0219 -1.0521
 9422SOL     OW39898   0.068   3.510   2.937  0.0603 -0.3585 -0.0071
 9422SOL    HW139899   0.090   3.599   2.966 -0.0297  0.4979 -2.5537
 9422SOL    HW239900   0.150   3.478   2.901 -1.2591 -2.5132 -1.0844
 9423SOL     OW39901   4.263   0.350   6.228 -0.4510  0.4900 -1.1389
 9423SOL    HW139902   4.218   0.429   6.199 -0.5422  0.9601  0.2952
 9423SOL    HW239903   4.201   0.291   6.187 -0.4849 -0.9091  0.9585
 9424SOL     OW39904   2.147   3.819   8.568  0.0191  0.2408 -0.3602
 9424SOL    HW139905   2.230   3.864   8.549 -0.2576  1.1445  0.6057
 9424SOL    HW239906   2.186   3.732   8.566  2.5706  1.3425  1.6222
 9425SOL     OW39907   2.146   0.622   6.280 -0.0649 -0.0662 -0.2260
 9425SOL    HW139908   2.082   0.627   6.351 -1.3165  0.3798 -1.3898
 9425SOL    HW239909   2.114   0.692   6.223 -0.4332  1.5502  1.9722
 9426SOL     OW39910   2.841   3.967   5.309  0.0897  0.3834  0.3594
 9426SOL    HW139911   2.820   4.045   5.361 -1.7037  0.0632  0.1292
 9426SOL    HW239912   2.786   3.902   5.351  0.4672  0.3525  0.8013
 9427SOL     OW39913   1.197   0.351   4.339  0.2162  0.3248  0.0735
 9427SOL    HW139914   1.241   0.323   4.259 -1.6785 -0.7563 -0.5744
 9427SOL    HW239915   1.225   0.291   4.408 -0.3434  0.2192  0.2096
 9428SOL     OW39916   1.061   0.630   3.272 -0.3708 -0.0978 -0.0096
 9428SOL    HW139917   0.986   0.590   3.229  0.4453 -1.4274 -0.2027
 9428SOL    HW239918   1.117   0.557   3.299 -0.4812 -0.7080 -1.4728
 9429SOL     OW39919   3.694   2.446   4.896  0.2960  0.2784  0.2639
 9429SOL    HW139920   3.724   2.433   4.806  3.8086  2.5323  1.1077
 9429SOL    HW239921   3.763   2.402   4.945 -0.2770  0.0763  0.8888
 9430SOL     OW39922   3.564   3.650   3.873  0.3960 -0.0493  0.2163
 9430SOL    HW139923   3.484   3.628   3.826 -0.3363 -0.4124  1.6329
 9430SOL    HW239924   3.529   3.653   3.962 -0.6022 -1.7003 -0.1060
 9431SOL     OW39925   2.757   1.432   5.152 -0.0266 -0.7387  0.2436
 9431SOL    HW139926   2.721   1.344   5.161 -3.3253  0.5457 -0.8494
 9431SOL    HW239927   2.836   1.405   5.105  0.4695  0.6765  0.2714
 9432SOL     OW39928   2.636   1.058   4.782 -0.2635 -0.0074 -0.6636
 9432SOL    HW139929   2.561   1.114   4.798  0.6085  0.3064  2.3607
 9432SOL    HW239930   2.654   1.063   4.688  1.1911 -0.0149 -0.3962
 9433SOL     OW39931   1.176   0.419   0.548 -0.1756 -0.4966 -0.1377
 9433SOL    HW139932   1.200   0.443   0.459 -1.8416 -2.8792 -1.1862
 9433SOL    HW239933   1.086   0.451   0.551  0.3055  0.7610  1.6871
 9434SOL     OW39934   1.144   1.290   2.233  0.4228 -0.5481 -0.5312
 9434SOL    HW139935   1.188   1.375   2.227 -0.1810 -0.1095  1.0173
 9434SOL    HW239936   1.218   1.232   2.252  1.4335  0.2213 -2.1259
 9435SOL     OW39937   0.057   3.387   7.514  0.2058 -0.2914 -0.3081
 9435SOL    HW139938   4.711   3.336   7.505 -0.3193  0.4354  0.2022
 9435SOL    HW239939   0.064   3.356   7.605  0.2857 -0.9480 -0.5420
 9436SOL     OW39940   0.386   3.336   4.495  0.1704  0.2212  0.9235
 9436SOL    HW139941   0.367   3.250   4.532 -1.3475  0.1235 -0.0840
 9436SOL    HW239942   0.317   3.340   4.429 -0.4112 -1.3418  1.4436
 9437SOL     OW39943   4.334   0.137   8.311 -0.3109  0.9691  0.5112
 9437SOL    HW139944   4.244   0.151   8.342 -1.5543 -0.6023 -2.4453
 9437SOL    HW239945   4.328   0.044   8.292  0.5382  0.3847  3.1215
 9438SOL     OW39946   1.895   2.788   4.938  0.0094 -0.5405 -0.6406
 9438SOL    HW139947   1.826   2.801   4.873  1.8966  2.9251 -1.9408
 9438SOL    HW239948   1.958   2.858   4.924  0.6406 -0.9288  0.2525
 9439SOL     OW39949   4.487   1.703  11.415 -0.1274  0.1385  0.3592
 9439SOL    HW139950   4.419   1.701  11.482  0.4011 -0.5529  0.8853
 9439SOL    HW239951   4.456   1.770  11.354 -0.3542 -1.4218 -1.2515
 9440SOL     OW39952   2.897   0.169  11.538 -0.0296 -0.2430  0.3205
 9440SOL    HW139953   2.834   0.161  11.466 -0.4735 -1.9332  0.8923
 9440SOL    HW239954   2.977   0.155  11.488  0.1239 -1.1128  0.7972
 9441SOL     OW39955   0.102   3.477   2.002  0.4357  0.9386 -0.0978
 9441SOL    HW139956   0.151   3.511   2.077  0.5538 -1.7582  1.0267
 9441SOL    HW239957   0.123   3.544   1.937 -0.3004  2.1406  0.8825
 9442SOL     OW39958   1.708   1.902   0.330 -0.0229  0.2930  0.8699
 9442SOL    HW139959   1.739   1.913   0.240  3.1964 -0.6989  1.8331
 9442SOL    HW239960   1.761   1.971   0.372 -1.4796  1.2983  1.0519
 9443SOL     OW39961   4.089   3.294   1.335 -0.4636 -0.0672 -0.2396
 9443SOL    HW139962   4.063   3.293   1.243 -0.3804  4.2036 -0.3266
 9443SOL    HW239963   4.096   3.199   1.344  1.7311 -0.1896 -3.3645
 9444SOL     OW39964   3.706   4.718  10.680  0.0915 -0.0631  0.3466
 9444SOL    HW139965   3.778   4.693  10.738 -0.0669  0.4545  0.7700
 9444SOL    HW239966   3.752   4.729  10.597  2.3628 -0.3760  1.5507
 9445SOL     OW39967   2.582   0.040   2.746  0.3797 -0.1190  0.1472
 9445SOL    HW139968   2.547   0.091   2.819  0.4692 -0.0074  0.1106
 9445SOL    HW239969   2.511   0.027   2.683  3.3643  0.0208 -3.2373
 9446SOL     OW39970   1.192   1.188   4.821 -0.0775  0.3940 -0.3212
 9446SOL    HW139971   1.199   1.275   4.859  1.3922 -0.7516  2.0028
 9446SOL    HW239972   1.176   1.146   4.906  2.9443  1.3750  0.7250
 9447SOL     OW39973   0.974   3.062  11.934 -0.4860  0.1232  0.1188
 9447SOL    HW139974   1.025   3.140  11.912 -3.1201  1.6529 -0.5422
 9447SOL    HW239975   0.963   3.080  12.027 -2.0424 -2.1884  0.3819
 9448SOL     OW39976   4.431   3.689   4.817 -0.5495 -0.3243 -0.1100
 9448SOL    HW139977   4.450   3.777   4.783 -0.5608 -0.7943 -1.3303
 9448SOL    HW239978   4.471   3.702   4.903 -1.9371 -1.5255  0.7063
 9449SOL     OW39979   0.409   3.803   9.908 -0.0104  0.5777  0.2036
 9449SOL    HW139980   0.487   3.750   9.925 -0.0126  0.4378 -0.2120
 9449SOL    HW239981   0.353   3.733   9.874 -0.9652  1.4739 -0.0716
 9450SOL     OW39982   4.391   1.706  11.675  1.1105 -0.1126 -0.5018
 9450SOL    HW139983   4.432   1.683  11.759  0.0648 -0.0499  0.0286
 9450SOL    HW239984   4.308   1.660  11.687  2.3882 -2.1316  0.7014
 9451SOL     OW39985   3.877   3.079   6.200  0.0786 -0.1556 -0.1239
 9451SOL    HW139986   3.784   3.088   6.221 -0.3246  0.2922 -2.1621
 9451SOL    HW239987   3.907   3.017   6.266  0.7804  4.4036  3.8555
 9452SOL     OW39988   3.765   3.636   1.955 -0.4326 -0.4674  0.2282
 9452SOL    HW139989   3.842   3.583   1.936  0.2984  0.7502 -0.2526
 9452SOL    HW239990   3.794   3.709   1.901  1.0868  0.8101  2.7545
 9453SOL     OW39991   4.215   2.504   8.718  0.2029 -0.4400 -0.0773
 9453SOL    HW139992   4.191   2.577   8.660  0.0738 -1.0411 -0.7780
 9453SOL    HW239993   4.159   2.521   8.794  0.2047 -0.8615  0.0171
 9454SOL     OW39994   0.689   0.898   8.688 -0.0608 -0.7179  0.4256
 9454SOL    HW139995   0.735   0.876   8.607 -0.3765  2.0688 -0.5006
 9454SOL    HW239996   0.618   0.834   8.694 -1.7268  0.9843 -1.4859
 9455SOL     OW39997   4.466   3.029  13.781  0.4325  0.1285 -0.1789
 9455SOL    HW139998   4.524   3.050  13.855  0.6322  1.4315 -0.7039
 9455SOL    HW239999   4.479   2.935  13.764  0.2019 -0.1118  0.9720
 9456SOL     OW40000   0.099   3.501   8.773 -0.6661  0.3718  0.1122
 9456SOL    HW140001   0.108   3.552   8.854  1.1208 -1.0561  0.8170
 9456SOL    HW240002   0.054   3.563   8.716  1.2600  0.6876 -1.0810
 9457SOL     OW40003   0.669   4.097  12.069 -0.0484  0.0286 -0.2232
 9457SOL    HW140004   0.654   4.009  12.035 -3.5692 -0.0591  1.5092
 9457SOL    HW240005   0.719   4.082  12.148 -0.5997  0.1851  0.1559
 9458SOL     OW40006   3.861   3.736   7.373 -0.2951  0.2522 -0.4256
 9458SOL    HW140007   3.784   3.736   7.430  0.2291  0.7714  0.2823
 9458SOL    HW240008   3.834   3.809   7.317  1.0222 -0.3347 -1.8061
 9459SOL     OW40009   3.371   2.723   2.659  0.0852  0.0161  0.3265
 9459SOL    HW140010   3.461   2.697   2.640  0.6165  0.7997  1.7667
 9459SOL    HW240011   3.327   2.699   2.577  0.0175 -2.3617  1.0563
 9460SOL     OW40012   2.868   1.429   9.527  0.4552  0.4766  0.0080
 9460SOL    HW140013   2.855   1.520   9.502 -1.4703  0.6019  1.4543
 9460SOL    HW240014   2.794   1.408   9.584  0.5830 -0.6397 -0.2297
 9461SOL     OW40015   2.024   1.139   9.573 -0.2830  0.2066 -0.2469
 9461SOL    HW140016   2.012   1.124   9.479 -2.7702  0.1659  0.0639
 9461SOL    HW240017   2.085   1.067   9.583 -0.2746  0.2686  0.1385
 9462SOL     OW40018   2.411   4.631   5.927 -0.1299 -0.2412  0.2230
 9462SOL    HW140019   2.483   4.682   5.889 -1.8289  1.1647 -1.0778
 9462SOL    HW240020   2.336   4.660   5.876  0.3237  0.1756 -0.2010
 9463SOL     OW40021   0.389   2.120   9.517  0.2250 -0.6070 -0.7480
 9463SOL    HW140022   0.476   2.080   9.520  0.8036  0.7111 -0.3058
 9463SOL    HW240023   0.340   2.067   9.579  0.2138  0.1029 -0.1568
 9464SOL     OW40024   4.298   4.668   5.036  0.3781 -0.7867 -0.1735
 9464SOL    HW140025   4.240   4.715   5.095  0.3118 -1.0323 -0.0394
 9464SOL    HW240026   4.280   4.579   5.068  0.9488  0.3206  3.1069
 9465SOL     OW40027   3.748   1.418   5.173 -0.8862 -0.6120  0.3279
 9465SOL    HW140028   3.662   1.441   5.139  0.0535 -0.7788 -2.1477
 9465SOL    HW240029   3.726   1.380   5.258  0.0648  1.2693  1.4289
 9466SOL     OW40030   2.151   0.657   7.445  0.1346  0.3523 -0.1383
 9466SOL    HW140031   2.195   0.729   7.490  0.0803 -0.8203  1.8081
 9466SOL    HW240032   2.078   0.644   7.506  1.8942 -0.5860  1.7767
 9467SOL     OW40033   1.956   2.576   9.078 -0.0730 -0.2058 -0.2602
 9467SOL    HW140034   2.043   2.609   9.053  0.0622 -0.8516 -0.6716
 9467SOL    HW240035   1.981   2.485   9.098 -1.9774 -0.8452 -0.7864
 9468SOL     OW40036   2.386   4.524  13.452  0.3267  0.1207 -0.5495
 9468SOL    HW140037   2.375   4.496  13.361 -0.3812  0.2197 -0.4943
 9468SOL    HW240038   2.301   4.557  13.481  0.1917 -1.0182  0.3580
 9469SOL     OW40039   0.297   2.143   1.843 -0.1564  0.0348  0.4372
 9469SOL    HW140040   0.288   2.047   1.844 -0.7752  0.0931  0.4594
 9469SOL    HW240041   0.377   2.160   1.794  0.5778 -2.7551  0.6355
 9470SOL     OW40042   0.183   1.262   6.269  0.2346 -0.4138  0.2708
 9470SOL    HW140043   0.184   1.327   6.339 -1.2021  0.4648 -0.5362
 9470SOL    HW240044   0.097   1.221   6.277 -1.1755  2.7860  1.1994
 9471SOL     OW40045   2.342   0.839   7.536  0.0345 -0.1314 -0.1125
 9471SOL    HW140046   2.415   0.815   7.479 -0.8217  0.6897 -1.5480
 9471SOL    HW240047   2.360   0.933   7.534 -0.8714  0.0164 -1.3192
 9472SOL     OW40048   4.234   1.994   1.739  0.3467  0.2539  0.8958
 9472SOL    HW140049   4.290   2.012   1.815  0.9275 -1.8494  0.9666
 9472SOL    HW240050   4.243   1.899   1.734  1.4213  0.3201  1.6561
 9473SOL     OW40051   2.685   1.602   5.565 -0.1520  0.5144 -0.7926
 9473SOL    HW140052   2.680   1.566   5.654  0.4403 -1.5796 -1.6050
 9473SOL    HW240053   2.598   1.601   5.527 -1.1853 -1.6018  1.6168
 9474SOL     OW40054   2.685   2.516   8.497  0.3306 -0.3349 -0.0314
 9474SOL    HW140055   2.736   2.470   8.430  0.8161  1.7963 -1.1326
 9474SOL    HW240056   2.756   2.519   8.561  0.2962 -0.2052 -0.0002
 9475SOL     OW40057   2.775   3.147   2.725  0.0113 -0.4303  0.5399
 9475SOL    HW140058   2.757   3.077   2.663  0.8461 -0.5387  0.4187
 9475SOL    HW240059   2.838   3.197   2.674 -1.7998  4.1033  2.7696
 9476SOL     OW40060   2.157   0.656   6.997 -0.2810  0.4660 -0.2014
 9476SOL    HW140061   2.228   0.607   7.038 -0.9042 -0.2480  0.0140
 9476SOL    HW240062   2.121   0.712   7.065 -0.2882 -1.8420  1.6646
 9477SOL     OW40063   3.751   0.510   4.205  0.8287  0.4661 -0.0037
 9477SOL    HW140064   3.662   0.497   4.236  1.2430 -0.1805  0.9269
 9477SOL    HW240065   3.730   0.549   4.120 -0.7440  0.0354  0.2068
 9478SOL     OW40066   3.353   3.380   1.471 -0.1626  0.6614  0.9091
 9478SOL    HW140067   3.289   3.309   1.465 -0.3042  0.9210 -0.6066
 9478SOL    HW240068   3.296   3.448   1.507 -0.4081  1.4245 -0.9384
 9479SOL     OW40069   4.625   2.725   4.074 -0.3990 -0.1346 -0.1697
 9479SOL    HW140070   4.632   2.639   4.116  0.0497  0.0520  0.1336
 9479SOL    HW240071   4.566   2.769   4.134 -1.6510  0.8345 -2.1204
 9480SOL     OW40072   1.750   1.227   3.288 -0.4225  0.1209  0.9325
 9480SOL    HW140073   1.821   1.163   3.286  1.0437  1.7156  1.7139
 9480SOL    HW240074   1.718   1.214   3.377  1.0612 -1.8080  1.1722
 9481SOL     OW40075   2.608   3.910   4.769  0.2361  0.0361  0.1576
 9481SOL    HW140076   2.544   3.966   4.813 -1.3205 -1.6054 -0.0593
 9481SOL    HW240077   2.660   3.973   4.718 -1.2781  1.7207  0.6819
 9482SOL     OW40078   3.496   2.959   3.755  0.6647  0.3545  0.4627
 9482SOL    HW140079   3.464   2.907   3.681  1.7549  2.2873 -1.3686
 9482SOL    HW240080   3.484   2.896   3.826  3.0154  1.3971  1.7908
 9483SOL     OW40081   0.990   1.699   6.276 -0.5052  0.0249 -0.7253
 9483SOL    HW140082   1.051   1.762   6.314  0.0471 -0.3401 -1.0010
 9483SOL    HW240083   1.050   1.628   6.252 -0.5292 -0.1947 -0.1369
 9484SOL     OW40084   2.120   2.808  10.345 -0.4798 -0.2117 -0.0483
 9484SOL    HW140085   2.189   2.827  10.281 -1.1362 -1.3078 -1.0686
 9484SOL    HW240086   2.045   2.847  10.301  2.1581  1.0725 -3.4902
 9485SOL     OW40087   2.992   4.139  11.325 -0.5432  0.0276  0.8813
 9485SOL    HW140088   3.002   4.190  11.245 -0.2060 -2.0987 -0.4099
 9485SOL    HW240089   3.050   4.064  11.320  3.0212  2.7113  1.8050
 9486SOL     OW40090   3.589   4.546   1.355  0.0516 -0.5490 -0.1407
 9486SOL    HW140091   3.644   4.531   1.279 -0.2811  1.5777 -0.8125
 9486SOL    HW240092   3.653   4.605   1.394 -0.7138  0.5008 -0.4739
 9487SOL     OW40093   4.195   3.288   3.556 -0.3398 -0.2096  0.4977
 9487SOL    HW140094   4.157   3.322   3.475 -1.2593 -1.2503  0.4876
 9487SOL    HW240095   4.202   3.373   3.600 -0.9108 -1.3174  2.7370
 9488SOL     OW40096   4.601   1.578   7.194 -0.3825 -0.4122  0.4180
 9488SOL    HW140097   4.531   1.549   7.252  0.9903  1.4514  2.9948
 9488SOL    HW240098   4.551   1.584   7.112 -0.5156 -1.2876  0.4397
 9489SOL     OW40099   3.599   0.505  11.069 -0.0587 -0.2162 -0.2845
 9489SOL    HW140100   3.595   0.447  11.145 -0.1737 -0.7732 -0.7122
 9489SOL    HW240101   3.639   0.441  11.010 -2.1941 -4.4064  2.7718
 9490SOL     OW40102   3.482   1.776   5.609  0.0491 -0.1319  0.2698
 9490SOL    HW140103   3.431   1.850   5.576 -1.0479 -0.9528  0.1047
 9490SOL    HW240104   3.410   1.719   5.636 -0.3346  0.4133  0.3930
 9491SOL     OW40105   4.500   2.915  13.025 -0.3851 -0.2384 -0.1977
 9491SOL    HW140106   4.572   2.976  13.043 -1.2566  1.2198 -1.7126
 9491SOL    HW240107   4.432   2.978  13.002 -1.2025 -0.9062  0.4043
 9492SOL     OW40108   0.548   2.199   8.280 -0.4596 -0.0268  0.1557
 9492SOL    HW140109   0.488   2.136   8.241  0.9364 -0.7923 -0.7461
 9492SOL    HW240110   0.633   2.160   8.260 -0.0064  0.3965  1.2050
 9493SOL     OW40111   4.603   0.072   1.553  0.5248 -0.2272 -0.2354
 9493SOL    HW140112   4.629   4.715   1.565  1.3051  0.0536  0.2597
 9493SOL    HW240113   4.557   0.092   1.634 -0.6996 -2.3367 -0.4046
 9494SOL     OW40114   1.440   0.018   3.909  0.4670 -0.0441  0.1393
 9494SOL    HW140115   1.465   4.669   3.867 -0.8562  0.5178 -1.7646
 9494SOL    HW240116   1.517   0.075   3.902  1.5412 -1.1349  3.0399
 9495SOL     OW40117   0.368   3.755   6.996 -0.5034  0.0218  0.1142
 9495SOL    HW140118   0.363   3.716   6.909  1.7851  0.3376 -0.1576
 9495SOL    HW240119   0.349   3.846   6.974 -1.1906 -0.2386 -0.3761
 9496SOL     OW40120   0.860   0.266   7.196 -0.2228 -0.0714  0.5531
 9496SOL    HW140121   0.921   0.195   7.218 -1.0779 -0.0240  2.9572
 9496SOL    HW240122   0.901   0.304   7.118 -1.2505 -0.4743 -0.1849
 9497SOL     OW40123   3.320   1.534  13.476  0.0108 -0.1328  0.1056
 9497SOL    HW140124   3.355   1.483  13.403  1.0253 -0.5720  0.8839
 9497SOL    HW240125   3.339   1.483  13.555  0.8655 -1.6772 -1.1064
 9498SOL     OW40126   3.046   3.758   7.884 -1.1023 -0.4388 -0.0514
 9498SOL    HW140127   3.027   3.751   7.791  0.9343  0.2669 -0.5138
 9498SOL    HW240128   3.131   3.801   7.880 -1.2274 -0.0733  1.1146
 9499SOL     OW40129   4.436   0.034  17.418 -0.1594 -0.1395  0.6363
 9499SOL    HW140130   4.379   0.027  17.340  2.0992  1.0486 -1.1051
 9499SOL    HW240131   4.457   4.675  17.423 -3.7105 -0.7994  3.7159
 9500SOL     OW40132   4.637   0.064   2.767 -0.3327 -0.0937  0.0026
 9500SOL    HW140133   4.586   0.138   2.737  0.5624 -0.5020 -2.5099
 9500SOL    HW240134   4.664   0.085   2.856  1.8879 -0.4643 -0.5728
 9501SOL     OW40135   3.788   4.649   7.755 -0.7364  0.5183  0.5040
 9501SOL    HW140136   3.821   4.719   7.699 -0.6924 -0.4180 -0.6313
 9501SOL    HW240137   3.782   4.578   7.692 -1.2454 -0.6984  1.9157
 9502SOL     OW40138   3.531   2.232   3.815 -0.0167 -0.4548 -0.3470
 9502SOL    HW140139   3.447   2.277   3.811 -0.4051 -1.2003 -0.4776
 9502SOL    HW240140   3.598   2.297   3.837 -0.6760  0.0327  0.2006
 9503SOL     OW40141   2.418   2.449   5.518 -0.4388  0.0582  0.1486
 9503SOL    HW140142   2.455   2.428   5.433  0.9600 -1.0222  1.0190
 9503SOL    HW240143   2.452   2.536   5.542 -0.7106 -0.3239  1.9434
 9504SOL     OW40144   0.071   2.646   5.591  0.4602 -0.4045 -0.4279
 9504SOL    HW140145   0.080   2.663   5.685  2.1093 -1.5080 -0.3756
 9504SOL    HW240146   0.023   2.719   5.552  1.3170  0.4132  0.0288
 9505SOL     OW40147   2.431   0.487   5.337 -0.7477  0.0085 -0.1596
 9505SOL    HW140148   2.359   0.441   5.381  1.4334 -2.4527  0.8591
 9505SOL    HW240149   2.425   0.445   5.252 -0.5550  0.1667 -0.2496
 9506SOL     OW40150   3.311   2.594  11.244  0.0072 -0.7966  0.2637
 9506SOL    HW140151   3.290   2.589  11.150  0.2495 -1.9010  0.2641
 9506SOL    HW240152   3.236   2.547  11.281 -0.0502 -0.2775  0.7889
 9507SOL     OW40153   4.197   0.142   5.625 -0.3321 -0.1963 -0.1273
 9507SOL    HW140154   4.272   0.186   5.665 -0.5368  1.4913 -1.5888
 9507SOL    HW240155   4.187   0.088   5.703 -1.5791 -0.7409 -0.6663
 9508SOL     OW40156   1.320   1.782  15.929  0.8010  0.1929  0.2669
 9508SOL    HW140157   1.322   1.812  15.838 -1.3115 -0.6201 -0.0496
 9508SOL    HW240158   1.411   1.757  15.940  1.0711  1.7091  1.4465
 9509SOL     OW40159   3.737   0.823   1.161  0.1870  0.3403 -0.4092
 9509SOL    HW140160   3.727   0.818   1.066 -2.0834  0.1399 -0.1689
 9509SOL    HW240161   3.659   0.871   1.187  0.6873  0.6669  0.4935
 9510SOL     OW40162   4.517   1.716   3.685 -0.7092 -0.5064  0.1004
 9510SOL    HW140163   4.501   1.721   3.591 -1.4209  1.2761  0.3125
 9510SOL    HW240164   4.572   1.638   3.691  1.0396  0.9688  3.5489
 9511SOL     OW40165   1.980   1.744   1.305 -0.2597 -0.5343 -0.1509
 9511SOL    HW140166   2.003   1.693   1.383 -1.2417 -1.5408 -0.5390
 9511SOL    HW240167   2.039   1.719   1.234  0.3900 -1.5811  0.7619
 9512SOL     OW40168   2.131   1.747   5.609  0.0044 -0.1985 -0.0662
 9512SOL    HW140169   2.149   1.822   5.665 -3.5140  1.6428 -1.4338
 9512SOL    HW240170   2.186   1.767   5.533 -3.1012  0.4325 -2.1155
 9513SOL     OW40171   4.423   1.275  13.275 -0.3379  0.0588  0.1179
 9513SOL    HW140172   4.345   1.331  13.276  2.2434  3.6767 -3.4607
 9513SOL    HW240173   4.417   1.218  13.198 -1.2550 -1.3012  1.1811
 9514SOL     OW40174   4.550   1.238   1.278  0.4482  0.0225  0.8178
 9514SOL    HW140175   4.563   1.324   1.238 -1.7281 -0.1240 -0.1731
 9514SOL    HW240176   4.456   1.239   1.295  0.0288 -1.8189 -1.4347
 9515SOL     OW40177   1.692   2.068   8.872 -0.2295  0.3471 -0.1899
 9515SOL    HW140178   1.757   2.021   8.924  0.5386  2.4756  0.7823
 9515SOL    HW240179   1.617   2.058   8.931  1.2647  0.2819  1.7198
 9516SOL     OW40180   0.277   2.989   8.109  0.2951  0.0392  0.8910
 9516SOL    HW140181   0.288   3.068   8.056 -1.1785  0.5359  1.3361
 9516SOL    HW240182   0.195   3.008   8.154 -1.6717 -3.9526 -1.0662
 9517SOL     OW40183   3.177   4.363   3.729 -1.1576  0.4215 -0.1741
 9517SOL    HW140184   3.208   4.433   3.671  2.4568 -1.3025 -0.2833
 9517SOL    HW240185   3.198   4.282   3.683 -0.7728  1.3998 -1.7288
 9518SOL     OW40186   1.945   4.642  10.194 -0.2962 -0.1801 -0.0958
 9518SOL    HW140187   1.926   4.601  10.279 -1.2047 -0.4503 -0.4242
 9518SOL    HW240188   1.959   4.734  10.219  0.3760 -0.9685  2.3786
 9519SOL     OW40189   2.258   1.215   5.635  0.1146 -1.1480  0.2523
 9519SOL    HW140190   2.343   1.255   5.654 -0.1213 -1.1693  1.3836
 9519SOL    HW240191   2.202   1.276   5.683 -1.8942 -2.4120 -0.4845
 9520SOL     OW40192   1.075   0.680   5.156  0.3764 -0.2136  0.1140
 9520SOL    HW140193   0.998   0.627   5.133 -0.6602  1.3355  0.0298
 9520SOL    HW240194   1.046   0.771   5.164  2.1952  0.1397  2.5232
 9521SOL     OW40195   4.164   1.330   2.243  0.0451  0.2090  0.1954
 9521SOL    HW140196   4.108   1.335   2.166  0.4090 -0.0163 -0.0820
 9521SOL    HW240197   4.253   1.313   2.214 -1.2899 -3.9364 -1.4365
 9522SOL     OW40198   3.258   1.341   8.682 -0.5655  0.6430  0.1381
 9522SOL    HW140199   3.232   1.433   8.684  0.4126  0.9304 -0.3429
 9522SOL    HW240200   3.187   1.303   8.630 -0.4002 -0.0593  0.4319
 9523SOL     OW40201   3.264   1.497   6.589 -0.7128  0.0905 -0.5904
 9523SOL    HW140202   3.315   1.497   6.508  2.9851 -0.8043  1.7191
 9523SOL    HW240203   3.275   1.590   6.609 -2.3104  0.3033 -0.7014
 9524SOL     OW40204   3.235   4.554   9.298 -0.5782 -0.2279  0.2711
 9524SOL    HW140205   3.297   4.582   9.232 -1.3849  0.6403 -0.1254
 9524SOL    HW240206   3.249   4.625   9.361 -0.7422 -1.1653  1.3688
 9525SOL     OW40207   1.023   3.777   6.341 -0.5046 -0.2513 -0.3494
 9525SOL    HW140208   0.945   3.737   6.301 -1.2687 -1.4886  2.3766
 9525SOL    HW240209   1.047   3.706   6.400 -1.3276 -1.1396 -1.0703
 9526SOL     OW40210   4.388   1.833  12.880  0.0575 -0.0199  0.2052
 9526SOL    HW140211   4.361   1.759  12.933  0.0219 -0.7004 -0.7641
 9526SOL    HW240212   4.307   1.870  12.845 -0.0269 -1.1922 -0.8306
 9527SOL     OW40213   4.449   2.854   4.223 -0.1122  0.1159 -0.3219
 9527SOL    HW140214   4.369   2.884   4.179  0.4025  0.4863 -1.0198
 9527SOL    HW240215   4.413   2.829   4.308 -0.2457  2.0507  0.1816
 9528SOL     OW40216   3.761   2.117  14.464 -0.2686  0.1671 -0.4356
 9528SOL    HW140217   3.696   2.108  14.533  1.7242  2.7124  1.7504
 9528SOL    HW240218   3.836   2.146  14.515  0.2704  1.7197 -2.1059
 9529SOL     OW40219   4.252   4.343  11.637 -0.2543 -0.6659 -0.1870
 9529SOL    HW140220   4.222   4.254  11.622  0.4789 -0.6820 -1.5367
 9529SOL    HW240221   4.289   4.371  11.553 -0.7914 -0.3587 -0.3203
 9530SOL     OW40222   4.708   2.992   9.506  0.0852  0.5821  0.1897
 9530SOL    HW140223   0.051   2.939   9.488 -1.1126 -0.9925 -0.3008
 9530SOL    HW240224   4.664   3.005   9.422 -1.3227  0.8436  0.9552
 9531SOL     OW40225   4.054   1.175   0.509 -0.0856  0.2947 -0.1892
 9531SOL    HW140226   4.088   1.230   0.580 -1.6106 -1.6541  2.0520
 9531SOL    HW240227   4.122   1.186   0.443 -1.7895 -1.9487 -2.2961
 9532SOL     OW40228   0.431   0.666   8.152  0.1383  0.2945 -0.1416
 9532SOL    HW140229   0.405   0.637   8.065  0.5980  0.3380 -0.2956
 9532SOL    HW240230   0.464   0.755   8.141 -0.2429  0.5455  0.7113
 9533SOL     OW40231   4.550   1.260   5.994  0.1822 -0.6817 -0.3530
 9533SOL    HW140232   4.486   1.329   6.012 -1.2333 -2.1432  0.2494
 9533SOL    HW240233   4.632   1.306   6.009  0.5349 -0.9823 -1.3874
 9534SOL     OW40234   0.813   3.858   4.169  0.0543 -0.4753 -0.3358
 9534SOL    HW140235   0.857   3.822   4.247  0.8821 -1.3258 -1.1860
 9534SOL    HW240236   0.843   3.786   4.114 -0.0281 -1.8508  1.4055
 9535SOL     OW40237   4.369   0.289   3.144  0.1206 -0.3898 -0.1607
 9535SOL    HW140238   4.330   0.351   3.205  0.1922  0.2938 -0.8012
 9535SOL    HW240239   4.448   0.278   3.196 -0.4681  0.3667  0.8889
 9536SOL     OW40240   1.091   3.286  17.459 -0.4407  0.5272 -0.3854
 9536SOL    HW140241   1.181   3.276  17.490 -0.6039 -2.7706 -1.0575
 9536SOL    HW240242   1.087   3.382  17.452 -1.4162  0.6296  1.7485
 9537SOL     OW40243   4.157   4.636   4.324 -0.0472  0.4333  0.6188
 9537SOL    HW140244   4.071   4.669   4.297  0.8563  0.3332 -2.4021
 9537SOL    HW240245   4.144   4.542   4.330 -1.7445  0.4539 -2.8077
 9538SOL     OW40246   3.662   1.201   5.915 -0.9719 -0.4645  0.1528
 9538SOL    HW140247   3.728   1.148   5.869 -0.9854  0.4922 -0.9806
 9538SOL    HW240248   3.602   1.217   5.842 -1.1516  1.5855  0.7556
 9539SOL     OW40249   1.428   1.779   5.522  0.0926  0.1135  0.2706
 9539SOL    HW140250   1.351   1.813   5.568 -0.1190  0.5453 -0.3995
 9539SOL    HW240251   1.425   1.838   5.447 -2.5302 -0.0810  0.2140
 9540SOL     OW40252   1.438   2.704   3.767  0.0728 -0.0405 -0.3044
 9540SOL    HW140253   1.432   2.711   3.672  1.5177  1.0907 -0.3198
 9540SOL    HW240254   1.506   2.638   3.780  1.3584  1.2468 -0.5354
 9541SOL     OW40255   1.967   0.934   9.344  0.5246 -0.6141 -0.1669
 9541SOL    HW140256   1.886   0.981   9.364  0.7382 -0.6533  0.7818
 9541SOL    HW240257   1.928   0.856   9.305 -0.6199 -0.0066 -0.2224
 9542SOL     OW40258   0.843   2.516   6.782  0.2845 -0.0460 -0.6685
 9542SOL    HW140259   0.881   2.505   6.695  0.6042  0.7258 -0.6285
 9542SOL    HW240260   0.919   2.532   6.839 -0.8389  0.7096  0.6169
 9543SOL     OW40261   2.733   0.418   1.131  0.6373  0.1555 -0.0821
 9543SOL    HW140262   2.673   0.347   1.108  0.5660 -0.0075  0.6051
 9543SOL    HW240263   2.672   0.490   1.145  1.7057  0.8074  1.1842
 9544SOL     OW40264   1.317   1.556   3.528 -0.1323  0.1541 -0.0173
 9544SOL    HW140265   1.227   1.570   3.499  0.2281 -0.3158 -1.3824
 9544SOL    HW240266   1.365   1.604   3.461 -0.2424  1.1583  0.6375
 9545SOL     OW40267   2.934   1.914  13.099  0.1253  0.1761 -0.3223
 9545SOL    HW140268   2.946   1.821  13.083 -0.8917 -0.5847  3.3496
 9545SOL    HW240269   2.886   1.935  13.019  1.0228  2.1422 -0.3484
 9546SOL     OW40270   1.610   4.410  12.083 -0.3260 -0.1787  0.2068
 9546SOL    HW140271   1.632   4.434  12.173 -2.8967  0.6760  0.6159
 9546SOL    HW240272   1.528   4.459  12.071 -1.2218 -1.5982  0.5396
 9547SOL     OW40273   2.087   2.012   1.223  0.4905 -0.0934  0.7355
 9547SOL    HW140274   2.140   2.021   1.302  2.5361 -1.2568 -0.4693
 9547SOL    HW240275   2.127   1.935   1.182 -0.7679 -0.1661 -0.3412
 9548SOL     OW40276   2.136   1.798   7.832  0.3773 -0.2596  0.8461
 9548SOL    HW140277   2.098   1.740   7.898  0.3746 -1.8056 -0.5262
 9548SOL    HW240278   2.124   1.887   7.865 -0.8647 -0.5033  1.0138
 9549SOL     OW40279   4.639   4.564   5.563  0.1289  0.5132 -0.4316
 9549SOL    HW140280   4.691   4.495   5.604 -0.6128  0.4013  0.3182
 9549SOL    HW240281   4.569   4.571   5.628  0.5613  0.3176  0.0552
 9550SOL     OW40282   3.869   1.182   1.800 -0.2262 -0.0071 -0.0819
 9550SOL    HW140283   3.828   1.261   1.835 -0.3831 -0.7016  1.2810
 9550SOL    HW240284   3.834   1.173   1.711  0.3575 -0.9233 -0.2185
 9551SOL     OW40285   2.084   3.471   3.566  0.0751 -0.1649 -0.0284
 9551SOL    HW140286   2.067   3.488   3.659  0.9111  2.0075 -0.2644
 9551SOL    HW240287   2.178   3.454   3.566  0.0311 -0.4122  0.8421
 9552SOL     OW40288   0.231   2.672   7.051  0.1172  0.1286 -0.1380
 9552SOL    HW140289   0.206   2.631   7.134 -0.3050  0.6210 -0.0251
 9552SOL    HW240290   0.322   2.693   7.070 -0.0675 -0.6849  1.6878
 9553SOL     OW40291   3.478   3.873   6.711  0.0621  0.4779  0.2739
 9553SOL    HW140292   3.453   3.864   6.803 -0.2976  1.2458  0.2559
 9553SOL    HW240293   3.557   3.926   6.718 -0.3737  0.6179  3.9647
 9554SOL     OW40294   2.229   4.327  15.375  0.3210  0.5341 -0.1602
 9554SOL    HW140295   2.189   4.368  15.452  1.0111 -0.2000  0.5943
 9554SOL    HW240296   2.229   4.399  15.313  1.9655 -1.8791 -2.9621
 9555SOL     OW40297   2.865   3.602   9.395 -0.4153 -0.1794 -0.7148
 9555SOL    HW140298   2.871   3.618   9.300  2.1920  1.7574 -0.2418
 9555SOL    HW240299   2.943   3.647   9.428 -1.6235  0.8308  0.7441
 9556SOL     OW40300   1.506   3.447   2.256 -0.3724 -0.1101  0.1725
 9556SOL    HW140301   1.499   3.480   2.345  3.1044 -2.2362  1.2105
 9556SOL    HW240302   1.522   3.532   2.214 -1.2918 -0.6553 -1.2907
 9557SOL     OW40303   4.185   0.668   7.922  0.1893  0.0864  0.2630
 9557SOL    HW140304   4.096   0.637   7.940  0.3310 -0.5238 -0.0652
 9557SOL    HW240305   4.180   0.673   7.827 -0.2199  0.5476  0.3072
 9558SOL     OW40306   1.920   1.675  11.281  0.1239 -0.2156  0.1086
 9558SOL    HW140307   2.000   1.707  11.322  0.1196 -1.7344  1.3041
 9558SOL    HW240308   1.865   1.661  11.358  4.2793 -0.0453  3.1188
 9559SOL     OW40309   0.616   0.062  10.062  0.7235  0.1017 -0.4163
 9559SOL    HW140310   0.621   0.115   9.982  3.7747 -1.5024 -1.2880
 9559SOL    HW240311   0.538   0.008  10.046  0.1920 -0.0265  2.5303
 9560SOL     OW40312   4.342   4.490   2.061  0.1900  0.0061  0.0122
 9560SOL    HW140313   4.247   4.506   2.054  0.4357  2.0310  1.3413
 9560SOL    HW240314   4.337   4.400   2.027 -0.6619 -0.0881  0.3882
 9561SOL     OW40315   2.102   3.790   5.186 -0.1863 -0.1220  0.3089
 9561SOL    HW140316   2.106   3.859   5.251  0.1549  0.1443  0.0055
 9561SOL    HW240317   2.188   3.752   5.206 -1.5966 -3.3470  0.2543
 9562SOL     OW40318   2.249   2.100   3.225 -0.3145  0.2827  0.3835
 9562SOL    HW140319   2.159   2.077   3.201  0.5202 -2.7376  0.0834
 9562SOL    HW240320   2.251   2.083   3.319  0.2143  0.9625  0.4943
 9563SOL     OW40321   3.819   1.945   5.089  0.0189  0.1540 -0.0871
 9563SOL    HW140322   3.786   1.857   5.074 -1.7634  0.7990  0.0409
 9563SOL    HW240323   3.734   1.990   5.086 -0.1629 -0.1538  0.4494
 9564SOL     OW40324   3.537   2.640  10.993 -0.2849 -0.3027  0.0457
 9564SOL    HW140325   3.559   2.583  11.066 -0.0871  2.2594  1.9813
 9564SOL    HW240326   3.449   2.610  10.971 -0.2226  0.6960 -1.6382
 9565SOL     OW40327   2.241   0.426   4.256  0.1228  0.3546  0.5009
 9565SOL    HW140328   2.186   0.363   4.303 -0.1175  0.3321  0.1918
 9565SOL    HW240329   2.258   0.488   4.327  1.4342 -0.4598  0.8815
 9566SOL     OW40330   0.250   0.953   5.692  0.1436  0.2674 -0.6300
 9566SOL    HW140331   0.187   0.924   5.757  1.1343  0.2453  0.3163
 9566SOL    HW240332   0.305   1.019   5.735 -1.0812  1.1808 -0.4430
 9567SOL     OW40333   4.582   3.582  14.587 -0.0119 -0.1029 -0.0210
 9567SOL    HW140334   4.583   3.487  14.598 -0.6581 -0.1014  0.0184
 9567SOL    HW240335   4.517   3.597  14.519 -0.0121 -0.4828 -0.1058
 9568SOL     OW40336   4.611   1.513  14.541  0.0122 -0.2908 -0.7298
 9568SOL    HW140337   4.705   1.534  14.534 -0.5000  2.8244  1.7649
 9568SOL    HW240338   4.579   1.558  14.463  1.4642  0.7114 -0.7597
 9569SOL     OW40339   0.007   4.254   4.981  0.1413 -0.1255  0.0492
 9569SOL    HW140340   0.016   4.332   5.035 -0.0182 -0.7457  0.9798
 9569SOL    HW240341   0.101   4.237   4.972  0.0126 -0.0341 -1.4250
 9570SOL     OW40342   1.742   2.531  12.879 -0.3821  1.1243 -0.0535
 9570SOL    HW140343   1.775   2.446  12.907 -2.8644 -0.2456 -1.2913
 9570SOL    HW240344   1.827   2.564  12.851  0.0933  0.2677  0.3902
 9571SOL     OW40345   2.367   0.255   6.717  0.4016 -0.0995 -0.2541
 9571SOL    HW140346   2.398   0.227   6.631  1.4741 -0.7109  0.3331
 9571SOL    HW240347   2.357   0.350   6.708  0.0406 -0.1272 -0.1599
   4.73398   4.73398  17.73506
